Membrane in water
40155
    1TCq1    O1    1   3.208   2.945  11.355  0.0193 -0.3522 -0.4897
    1TCq1    C1    2   3.172   2.860  11.451 -0.9741  0.8164  0.2469
    1TCq1    O2    3   3.167   2.883  11.571 -0.4049  0.5422 -0.1799
    1TCq1    C2    4   3.056   2.795  11.395 -0.1612 -0.5674 -0.4540
    1TCq1    C3    5   2.973   2.852  11.307 -0.0603 -0.1509  0.3515
    1TCq1    C4    6   2.847   2.807  11.289  0.1180  0.2445  0.8433
    1TCq1    C5    7   2.812   2.692  11.350 -0.8481 -0.0026 -0.2807
    1TCq1    C6    8   2.890   2.636  11.446 -0.1742  0.5841 -0.9075
    1TCq1    C7    9   3.015   2.685  11.463 -0.0465 -0.7063 -0.2509
    1TCq1    C8   10   2.830   2.575  11.565 -0.2159 -0.4802  0.3302
    1TCq1    O4   11   2.785   2.653  11.645  0.1438  0.2071  0.2191
    1TCq1    C9   12   2.746   2.867  11.212 -0.3157  0.6762  0.5312
    1TCq1    O5   13   2.629   2.838  11.238 -0.3262  0.3784  0.4526
    1TCq1    O6   14   2.774   2.976  11.161 -0.5368 -0.1668 -0.0038
    1TCq1    H1   15   3.205   2.908  11.264  0.4058  1.1483 -1.1201
    1TCq1    H2   16   2.998   2.947  11.263  2.7934 -2.0243 -2.0334
    1TCq1    H3   17   2.708   2.661  11.346 -0.8664 -0.2280  1.6583
    1TCq1    H4   18   3.067   2.659  11.555  0.5161 -1.0002 -0.6583
    2MPD2     C   19   2.597   2.171  11.800  0.2483 -0.4403  0.4077
    2MPD2    C1   20   2.608   2.304  11.842  0.3186  0.4144  0.1159
    2MPD2    C2   21   2.683   2.383  11.763  0.3772 -0.0293  0.8364
    2MPD2    C3   22   2.741   2.352  11.640  0.2406 -1.0755 -0.1129
    2MPD2    C4   23   2.730   2.224  11.604 -0.5334 -0.1287 -0.9786
    2MPD2    C5   24   2.664   2.134  11.685 -0.2162 -0.2382  0.2723
    2MPD2     H   25   2.688   2.488  11.791  1.0208  0.1736 -0.0310
    2MPD2    H1   26   2.776   2.185  11.515  1.6232 -0.5544  0.3443
    2MPD2    H2   27   2.528   2.103  11.850 -0.3426  0.2888  0.5839
    2MPD2    H3   28   2.660   2.034  11.642  3.3227  0.5877 -1.9736
    2MPD2     N   29   2.811   2.442  11.545  0.2111 -0.0182 -0.4090
    2MPD2    H5   30   2.835   2.412  11.451  0.3218 -0.0872 -0.3585
    2MPD2    N1   31   2.546   2.359  11.946 -0.9730 -0.3665 -0.1311
    2MPD2    H7   32   2.559   2.458  11.960  1.9642 -0.9438  1.3189
    3TCq1    O1   33   0.268   3.011  11.140  0.1756  0.6566  0.4795
    3TCq1    C1   34   0.380   3.059  11.083  1.1743 -0.1476 -0.7680
    3TCq1    O2   35   0.416   3.025  10.972 -0.3090 -0.1008 -0.4247
    3TCq1    C2   36   0.399   3.187  11.145  0.2697 -0.2664  0.4486
    3TCq1    C3   37   0.400   3.199  11.280 -0.2184 -0.2380 -0.1021
    3TCq1    C4   38   0.409   3.324  11.324  1.1262  0.0751 -0.1960
    3TCq1    C5   39   0.421   3.432  11.245  0.5177  0.0969  0.2500
    3TCq1    C6   40   0.429   3.416  11.111 -0.1012 -0.4103 -0.9914
    3TCq1    C7   41   0.429   3.291  11.057 -0.1003 -0.0279  0.4789
    3TCq1    C8   42   0.482   3.527  11.028  0.1022 -0.8808  0.0061
    3TCq1    O4   43   0.498   3.509  10.907  0.3292 -0.2591 -1.0172
    3TCq1    C9   44   0.386   3.340  11.465  0.1403  0.1591 -0.3447
    3TCq1    O5   45   0.393   3.459  11.509  0.2618 -0.1423  0.2015
    3TCq1    O6   46   0.404   3.234  11.532  0.6514 -0.1798 -0.5289
    3TCq1    H1   47   0.229   3.064  11.212  0.5685  0.3265  0.9462
    3TCq1    H2   48   0.369   3.110  11.334 -2.1642  0.7855  0.4829
    3TCq1    H3   49   0.389   3.523  11.295  0.9928  0.7077 -0.5698
    3TCq1    H4   50   0.422   3.279  10.950  1.8755  0.2954  0.3117
    4MPD2     C   51   0.663   4.003  10.988 -0.2682  0.8095  0.2158
    4MPD2    C1   52   0.670   3.963  11.122  0.5819  0.5216  0.4334
    4MPD2    C2   53   0.634   3.833  11.161  0.5597  0.4652 -0.0364
    4MPD2    C3   54   0.578   3.749  11.069 -0.0459 -0.2863 -0.6097
    4MPD2    C4   55   0.564   3.800  10.941  0.3758 -0.1529 -0.1810
    4MPD2    C5   56   0.611   3.921  10.899  0.1421  0.0632 -0.2625
    4MPD2     H   57   0.650   3.794  11.261  1.4673  0.7311 -0.0793
    4MPD2    H1   58   0.519   3.736  10.866 -0.7221 -0.3014  0.6045
    4MPD2    H2   59   0.693   4.101  10.951 -0.2432  0.7158 -0.0081
    4MPD2    H3   60   0.598   3.949  10.794  4.1644  0.5906 -0.6212
    4MPD2     N   61   0.528   3.627  11.114  0.2798 -0.2861  0.6424
    4MPD2    H5   62   0.511   3.613  11.213  0.6509  1.2432  0.9211
    4MPD2    N1   63   0.718   4.053  11.218 -0.3250 -0.6053 -0.2282
    4MPD2    H7   64   0.740   4.018  11.311  2.2058 -0.3759 -0.7283
    5TCq1    O1   65   1.606   0.907  11.063 -0.0456 -0.4818  0.1639
    5TCq1    C1   66   1.706   0.816  11.087  0.1320 -0.7928  0.5679
    5TCq1    O2   67   1.782   0.825  11.178  0.2852 -0.4439 -0.1194
    5TCq1    C2   68   1.738   0.752  10.965  0.5381 -0.1776  0.1292
    5TCq1    C3   69   1.636   0.705  10.885 -0.0395 -0.5843  0.0074
    5TCq1    C4   70   1.666   0.603  10.802  0.4094 -0.2601  0.2953
    5TCq1    C5   71   1.793   0.553  10.785 -0.8551  0.3747  0.3142
    5TCq1    C6   72   1.891   0.619  10.859  0.3828  0.3597  0.6351
    5TCq1    C7   73   1.870   0.717  10.952 -0.7030 -0.4243  0.6206
    5TCq1    C8   74   2.032   0.589  10.821  0.5149  0.1302 -0.4351
    5TCq1    O4   75   2.052   0.475  10.775  0.1815  0.4205  0.2211
    5TCq1    C9   76   1.565   0.552  10.719  0.4860  0.0975 -0.3175
    5TCq1    O5   77   1.461   0.622  10.684  0.3810 -0.6804 -0.4709
    5TCq1    O6   78   1.586   0.442  10.668 -0.3982  0.9226 -0.8583
    5TCq1    H1   79   1.583   0.914  10.968 -1.9398 -2.1830  0.4816
    5TCq1    H2   80   1.530   0.722  10.898  0.3217 -0.2721  2.7430
    5TCq1    H3   81   1.813   0.477  10.711 -2.0915  0.3990 -0.0362
    5TCq1    H4   82   1.950   0.751  11.017  0.0422 -3.5282  1.3331
    6MPD2     C   83   2.331   0.807  10.828  0.3022  0.3883 -0.6993
    6MPD2    C1   84   2.256   0.692  10.815  0.2650 -0.7349  0.1187
    6MPD2    C2   85   2.326   0.572  10.793 -0.2193  0.2413  0.5502
    6MPD2    C3   86   2.463   0.569  10.765  0.0881 -0.1403 -0.0649
    6MPD2    C4   87   2.536   0.682  10.791  0.2396 -0.1928  0.1975
    6MPD2    C5   88   2.464   0.796  10.829 -0.1321  0.4663  0.0431
    6MPD2     H   89   2.275   0.477  10.799 -1.1934  0.7427  0.0836
    6MPD2    H1   90   2.644   0.688  10.789  0.1972  0.6863  0.7936
    6MPD2    H2   91   2.296   0.905  10.858  1.3907  0.6715 -0.3585
    6MPD2    H3   92   2.518   0.885  10.860  1.7900 -0.3477 -0.9213
    6MPD2     N   93   2.524   0.442  10.746 -0.5183  0.4405 -0.3479
    6MPD2    H5   94   2.484   0.351  10.766 -4.4149  2.3022  0.2509
    6MPD2    N1   95   2.114   0.697  10.843 -0.0920  0.3522  0.3842
    6MPD2    H7   96   2.078   0.786  10.875 -2.0470 -0.2699 -0.0491
    7TCq1    O1   97   3.990   0.188  12.682 -0.1526  0.4098  0.0705
    7TCq1    C1   98   4.010   0.088  12.774 -0.2873 -0.0754  0.4296
    7TCq1    O2   99   4.024   4.697  12.744  0.3229 -0.0921 -0.3022
    7TCq1    C2  100   4.003   0.121  12.914  0.6274 -0.8154 -0.7653
    7TCq1    C3  101   3.953   0.241  12.955  0.4473 -0.0202 -0.3427
    7TCq1    C4  102   3.960   0.269  13.092 -0.1974  0.1048 -0.2288
    7TCq1    C5  103   4.001   0.182  13.179  0.2635 -0.1030 -0.0212
    7TCq1    C6  104   4.038   0.061  13.132 -0.4777  0.1850  0.9871
    7TCq1    C7  105   4.041   0.028  13.000  0.1386  0.1272  0.5962
    7TCq1    C8  106   4.105   4.686  13.218 -0.4339  0.2188 -0.4429
    7TCq1    O4  107   4.157   4.585  13.166 -0.0651 -0.6819  0.2637
    7TCq1    C9  108   3.906   0.391  13.136 -0.1557  0.0406 -0.2350
    7TCq1    O5  109   3.853   0.462  13.044  0.0570  0.4353 -0.3351
    7TCq1    O6  110   3.925   0.443  13.249 -0.3884  0.6229  0.5083
    7TCq1    H1  111   4.009   0.275  12.724  2.3361  0.4887 -1.2467
    7TCq1    H2  112   3.917   0.322  12.893 -1.8806 -0.4980  0.3740
    7TCq1    H3  113   3.993   0.203  13.285 -0.4518 -4.0997  0.7241
    7TCq1    H4  114   4.073   4.652  12.968 -0.5972 -0.1354  0.6722
    8MPD2     C  115   4.291   4.551  13.673 -0.4696 -0.0132 -0.0858
    8MPD2    C1  116   4.323   4.506  13.556 -0.6554  0.6340  0.3537
    8MPD2    C2  117   4.263   4.549  13.438  0.2042 -0.5066  0.2241
    8MPD2    C3  118   4.172   4.655  13.456  0.3539  0.1453 -0.8819
    8MPD2    C4  119   4.149   4.703  13.579 -0.6502 -0.5588  0.2894
    8MPD2    C5  120   4.215   4.662  13.696  0.1010  0.3926  0.7223
    8MPD2     H  121   4.301   4.518  13.341 -2.8217  0.1984 -1.2008
    8MPD2    H1  122   4.077   0.061  13.583  0.0709 -0.0132  2.3584
    8MPD2    H2  123   4.347   4.518  13.760  1.5395  3.1567 -0.1683
    8MPD2    H3  124   4.199   4.711  13.791 -0.4114  0.6206  0.5183
    8MPD2     N  125   4.102   0.002  13.350 -0.0279  0.4176 -0.1658
    8MPD2    H5  126   4.051   0.087  13.372 -0.7293  0.2288 -1.0645
    8MPD2    N1  127   4.420   4.402  13.545 -0.6673  0.4675 -0.2724
    8MPD2    H7  128   4.475   4.403  13.630 -1.2610  0.9878  0.1058
    9TCq1    O1  129   1.987   3.261  10.788  0.2333 -0.0730 -0.4408
    9TCq1    C1  130   2.067   3.326  10.885 -0.1799 -0.3765  0.6032
    9TCq1    O2  131   2.024   3.409  10.966 -0.2756  0.3055  0.2124
    9TCq1    C2  132   2.203   3.336  10.843  0.6398  0.1377 -0.9707
    9TCq1    C3  133   2.248   3.307  10.721  0.4076  0.3898 -1.0102
    9TCq1    C4  134   2.379   3.319  10.685  0.6234  0.1242  0.3225
    9TCq1    C5  135   2.474   3.345  10.782  0.8255 -0.1146  0.1427
    9TCq1    C6  136   2.428   3.387  10.907 -0.1286  0.0831  0.0192
    9TCq1    C7  137   2.295   3.374  10.943  0.0029  0.1470  0.2583
    9TCq1    C8  138   2.530   3.441  10.996  0.1242  0.6605  0.4094
    9TCq1    O4  139   2.651   3.449  10.976 -0.3948 -0.0941 -0.0468
    9TCq1    C9  140   2.418   3.308  10.546 -0.2329 -0.4794  0.2047
    9TCq1    O5  141   2.538   3.346  10.520 -0.0700 -0.1099  0.4645
    9TCq1    O6  142   2.334   3.255  10.470  0.6193  0.2263  0.0860
    9TCq1    H1  143   2.034   3.194  10.733 -2.0435 -0.8187 -1.5026
    9TCq1    H2  144   2.177   3.285  10.642  0.3594  0.7078 -1.0554
    9TCq1    H3  145   2.573   3.386  10.763  0.5998  1.2380  1.8801
    9TCq1    H4  146   2.250   3.408  11.036  1.3730 -0.8019  1.2735
   10MPD2     C  147   2.647   3.563  11.232  0.8028  0.6250 -0.2942
   10MPD2    C1  148   2.515   3.536  11.224  0.0761 -0.6281  0.6535
   10MPD2    C2  149   2.428   3.547  11.327  0.0450  0.0458  0.4626
   10MPD2    C3  150   2.477   3.572  11.451 -0.4962 -0.3014 -0.4379
   10MPD2    C4  151   2.610   3.607  11.464  0.9424 -0.5740 -0.7582
   10MPD2    C5  152   2.696   3.592  11.356  0.0835 -0.1001  0.6313
   10MPD2     H  153   2.325   3.517  11.314  0.6961 -1.5463 -0.9652
   10MPD2    H1  154   2.649   3.640  11.559 -1.0252 -2.7028  0.8160
   10MPD2    H2  155   2.719   3.568  11.151  0.5269 -1.8243 -0.6805
   10MPD2    H3  156   2.797   3.630  11.368  0.8902 -1.6688 -1.2393
   10MPD2     N  157   2.396   3.569  11.573 -0.0439  0.2141 -0.2966
   10MPD2    H5  158   2.439   3.585  11.663 -0.0100  4.2783 -1.0145
   10MPD2    N1  159   2.463   3.484  11.106  0.2784  0.9572  0.4246
   10MPD2    H7  160   2.362   3.478  11.098  0.5153 -1.1480 -1.0701
   11TCq1    O1  161   3.710   3.303  14.373  0.2526 -0.1742 -0.0393
   11TCq1    C1  162   3.580   3.299  14.344  0.2177  0.1953  0.7206
   11TCq1    O2  163   3.501   3.233  14.404  0.4089  0.2432 -0.2312
   11TCq1    C2  164   3.555   3.345  14.210 -0.7661  0.5136 -0.7638
   11TCq1    C3  165   3.656   3.351  14.125  0.2171 -0.2862  0.0682
   11TCq1    C4  166   3.630   3.409  14.001 -0.2470 -0.3021  0.4770
   11TCq1    C5  167   3.511   3.474  13.979  0.2569 -0.1031 -0.4602
   11TCq1    C6  168   3.410   3.451  14.066 -0.1112  0.1571  0.0952
   11TCq1    C7  169   3.426   3.373  14.177  0.1777 -0.5341 -0.3584
   11TCq1    C8  170   3.282   3.480  14.021  0.2063 -0.4050  0.2499
   11TCq1    O4  171   3.272   3.568  13.936  0.1704 -0.2006  0.0183
   11TCq1    C9  172   3.728   3.400  13.891  0.0093  0.3727 -0.4357
   11TCq1    O5  173   3.826   3.317  13.903 -0.1990  0.5620 -0.0921
   11TCq1    O6  174   3.683   3.449  13.783  0.0366 -0.7696 -0.3464
   11TCq1    H1  175   3.757   3.357  14.307  1.1408 -0.0132  0.7345
   11TCq1    H2  176   3.749   3.296  14.134  0.4087  0.2487  1.3274
   11TCq1    H3  177   3.498   3.537  13.892 -2.9293 -1.8483 -1.2432
   11TCq1    H4  178   3.352   3.357  14.254 -1.0010 -0.3165 -1.4364
   12MPD2     C  179   2.997   3.468  14.011  0.4965  0.4707  0.5404
   12MPD2    C1  180   3.070   3.361  14.042  0.3332  0.4147 -0.6680
   12MPD2    C2  181   3.005   3.241  14.053 -0.2064  0.1892 -0.1937
   12MPD2    C3  182   2.877   3.215  14.021  0.0271 -0.5466 -0.1963
   12MPD2    C4  183   2.795   3.325  13.997 -0.0812  0.0348  0.1495
   12MPD2    C5  184   2.857   3.449  14.002 -0.2767 -0.2141  0.1910
   12MPD2     H  185   3.076   3.166  14.082  0.6786  1.1789  0.1762
   12MPD2    H1  186   2.688   3.312  13.997 -0.0733 -0.0337 -0.1309
   12MPD2    H2  187   3.029   3.570  13.993  0.4504  0.1816 -1.1911
   12MPD2    H3  188   2.808   3.545  13.986  2.4902  0.9409 -1.3756
   12MPD2     N  189   2.820   3.085  14.040  0.5232 -0.2304 -0.3769
   12MPD2    H5  190   2.723   3.070  14.014  0.8577  0.2733 -1.8635
   12MPD2    N1  191   3.203   3.378  14.064  0.1352 -0.0381  0.7908
   12MPD2    H7  192   3.253   3.295  14.094  0.6354  0.1134  0.3736
   13TCq1    O1  193   2.874   3.109  10.977  0.1578 -0.2774 -0.1133
   13TCq1    C1  194   2.827   3.111  10.849 -0.0393 -0.5560 -0.0184
   13TCq1    O2  195   2.882   3.180  10.763 -0.8026  0.6698  0.1908
   13TCq1    C2  196   2.698   3.047  10.822  0.2503  0.3059 -0.4236
   13TCq1    C3  197   2.669   3.032  10.694  0.7509  0.2243  0.6971
   13TCq1    C4  198   2.544   2.984  10.668  0.0665  0.4061  0.5041
   13TCq1    C5  199   2.442   2.969  10.760 -0.2297  0.1160 -0.6372
   13TCq1    C6  200   2.474   3.005  10.891  1.0848 -0.8392  0.3607
   13TCq1    C7  201   2.603   3.038  10.925  0.4082 -1.0479 -0.0188
   13TCq1    C8  202   2.373   3.009  11.000  0.2328  0.5812 -0.4796
   13TCq1    O4  203   2.397   3.067  11.104 -0.3286 -0.1744 -0.9109
   13TCq1    C9  204   2.507   2.968  10.529 -0.3856  0.3892 -0.3362
   13TCq1    O5  205   2.587   3.013  10.446  0.7491  0.0787 -0.5330
   13TCq1    O6  206   2.389   2.921  10.510 -0.6045 -0.8341 -0.4216
   13TCq1    H1  207   2.826   3.045  11.032 -0.2030  2.8656  3.1948
   13TCq1    H2  208   2.739   3.056  10.615  0.5907 -1.8926 -0.0633
   13TCq1    H3  209   2.346   2.937  10.722 -0.2203 -0.2460 -0.3508
   13TCq1    H4  210   2.622   3.064  11.028 -0.3614  2.3104 -0.7337
   14MPD2     C  211   2.050   2.839  10.991 -0.3168  0.2306 -0.3120
   14MPD2    C1  212   2.152   2.908  11.046  0.2927 -0.1751 -0.6275
   14MPD2    C2  213   2.124   2.981  11.165  0.1709  0.5362 -0.3340
   14MPD2    C3  214   2.004   2.954  11.238  0.2200  0.2374 -0.4910
   14MPD2    C4  215   1.912   2.868  11.184 -0.1155  0.0408  0.2951
   14MPD2    C5  216   1.927   2.822  11.059  0.6549  0.1828 -0.0711
   14MPD2     H  217   2.194   3.056  11.202  1.7590 -1.0388 -0.1789
   14MPD2    H1  218   1.817   2.843  11.229 -0.7985  0.0184 -1.1561
   14MPD2    H2  219   2.047   2.801  10.890  2.6798 -0.7590 -0.0198
   14MPD2    H3  220   1.840   2.774  11.017 -0.1582  1.6451 -0.0659
   14MPD2     N  221   1.977   3.041  11.352 -0.5343  0.1397 -0.6277
   14MPD2    H5  222   2.047   3.110  11.375 -1.2458  0.6592  0.0049
   14MPD2    N1  223   2.275   2.919  10.974 -0.0521 -0.0501 -0.2176
   14MPD2    H7  224   2.277   2.877  10.882  3.2181  0.4163 -0.3480
   15TCq1    O1  225   3.439   1.946   2.165  0.3447  0.9483 -0.3007
   15TCq1    C1  226   3.524   1.910   2.069 -1.2457  0.3067 -1.1547
   15TCq1    O2  227   3.639   1.864   2.080 -0.0184  0.4747 -0.1448
   15TCq1    C2  228   3.452   1.905   1.938  0.8495 -0.0552  0.6146
   15TCq1    C3  229   3.328   1.962   1.927 -0.6054  0.3181  0.5683
   15TCq1    C4  230   3.261   1.948   1.800 -0.5886  0.2897  0.2338
   15TCq1    C5  231   3.317   1.876   1.698  0.3974  0.9296 -0.4115
   15TCq1    C6  232   3.449   1.833   1.710 -0.3449  0.0290  0.0633
   15TCq1    C7  233   3.505   1.830   1.833  0.9525  0.7947 -0.3391
   15TCq1    C8  234   3.527   1.799   1.592  0.1282 -0.4381 -0.2358
   15TCq1    O4  235   3.635   1.747   1.609 -0.0306 -0.0713  0.1916
   15TCq1    C9  236   3.135   2.028   1.775  0.2655  0.2483  0.0155
   15TCq1    O5  237   3.113   2.049   1.651 -0.0556 -0.0552 -0.0535
   15TCq1    O6  238   3.058   2.045   1.874 -0.5612  0.0283  0.2163
   15TCq1    H1  239   3.345   1.953   2.141 -0.0738 -1.8717  0.5866
   15TCq1    H2  240   3.279   2.036   1.990  0.4992 -0.0444  1.8502
   15TCq1    H3  241   3.260   1.861   1.607  2.1713 -0.4697 -1.2895
   15TCq1    H4  242   3.602   1.782   1.842  0.3328 -0.3180  0.3294
   16MPD2     C  243   3.461   1.886   1.237 -0.5161 -0.5043  0.0049
   16MPD2    C1  244   3.522   1.825   1.344 -0.0368  0.1448 -0.1670
   16MPD2    C2  245   3.638   1.744   1.319 -0.1885  0.5149  0.6221
   16MPD2    C3  246   3.684   1.733   1.188  0.5260 -0.4634 -0.1054
   16MPD2    C4  247   3.623   1.798   1.080 -0.0091 -0.0428  0.4016
   16MPD2    C5  248   3.508   1.869   1.107 -0.3161 -0.1749 -0.3829
   16MPD2     H  249   3.700   1.689   1.389  0.1603 -1.9133 -1.5950
   16MPD2    H1  250   3.650   1.784   0.976 -1.9517  1.4783 -0.2927
   16MPD2    H2  251   3.373   1.949   1.242 -0.1835  0.0128 -0.6288
   16MPD2    H3  252   3.450   1.907   1.024 -0.3248 -1.5885 -1.0208
   16MPD2     N  253   3.798   1.660   1.172 -0.0088  0.2505  0.0795
   16MPD2    H5  254   3.851   1.630   1.254  0.9301 -0.3057 -0.7348
   16MPD2    N1  255   3.471   1.843   1.476 -0.1008  0.3431 -0.3662
   16MPD2    H7  256   3.390   1.904   1.482  0.1521  0.6984 -0.5131
   17TCq1    O1  257   2.298   2.477  11.742  0.5199 -0.2926 -0.6813
   17TCq1    C1  258   2.222   2.464  11.634 -0.6656 -0.1435 -0.0037
   17TCq1    O2  259   2.173   2.355  11.604  0.2545  0.2708 -0.5294
   17TCq1    C2  260   2.290   2.550  11.532  0.4281  0.7292  0.7377
   17TCq1    C3  261   2.304   2.685  11.566 -0.5248  0.1780 -0.3634
   17TCq1    C4  262   2.334   2.778  11.470 -0.1624  0.1409  0.0884
   17TCq1    C5  263   2.348   2.743  11.336 -0.3141 -0.2524  0.3602
   17TCq1    C6  264   2.336   2.612  11.308  0.1369  0.3156  0.4633
   17TCq1    C7  265   2.300   2.518  11.395 -0.0016 -0.4169  0.5144
   17TCq1    C8  266   2.349   2.562  11.171  0.4288 -0.0144  0.2403
   17TCq1    O4  267   2.290   2.459  11.136  0.6739 -0.1455  0.4203
   17TCq1    C9  268   2.315   2.916  11.510 -0.3800 -0.6695  0.3184
   17TCq1    O5  269   2.302   2.928  11.632  0.0227  0.5345 -0.5275
   17TCq1    O6  270   2.337   2.999  11.422 -0.3923 -0.1846  0.4277
   17TCq1    H1  271   2.351   2.559  11.745 -1.5300  0.9910  1.0235
   17TCq1    H2  272   2.266   2.714  11.663 -2.6239 -0.2780 -1.0347
   17TCq1    H3  273   2.361   2.815  11.256  1.3799  0.9031  1.6832
   17TCq1    H4  274   2.278   2.416  11.368  1.7560 -0.5297 -0.5210
   18MPD2     C  275   2.406   2.546  10.883 -0.7269 -0.4116  0.3781
   18MPD2    C1  276   2.493   2.603  10.970 -1.3043 -0.1232  0.0467
   18MPD2    C2  277   2.611   2.654  10.931  0.4390 -0.2713  0.4425
   18MPD2    C3  278   2.640   2.652  10.797  0.0111 -0.6688  0.1074
   18MPD2    C4  279   2.557   2.603  10.702 -0.0881  0.6765 -0.0998
   18MPD2    C5  280   2.435   2.552  10.746  0.1439  0.4497  0.3520
   18MPD2     H  281   2.683   2.687  11.005  1.7174  3.6722 -2.5166
   18MPD2    H1  282   2.593   2.612  10.601  0.9537  0.9723  0.2987
   18MPD2    H2  283   2.307   2.513  10.916 -1.7216  3.0701  0.8281
   18MPD2    H3  284   2.365   2.509  10.675 -0.3375  1.4091  0.2500
   18MPD2     N  285   2.769   2.687  10.747  0.0335 -0.0010 -0.3997
   18MPD2    H5  286   2.802   2.674  10.652 -0.2638  1.7161 -0.7325
   18MPD2    N1  287   2.462   2.622  11.112  0.3181 -0.4115  0.2791
   18MPD2    H7  288   2.513   2.691  11.165 -0.6747  0.2642  0.3591
   19TMC2    C1  289   4.010   3.417  13.600 -0.0847 -0.4942 -0.1371
   19TMC2    C2  290   3.995   3.454  13.468  0.2259  0.0935 -0.5263
   19TMC2    C3  291   3.911   3.371  13.391 -0.3560  0.2174 -0.1009
   19TMC2    C4  292   3.971   3.294  13.649  0.2805  0.0409 -0.3959
   19TMC2    C5  293   3.901   3.218  13.561 -0.0572 -0.2139  0.1590
   19TMC2    C6  294   3.856   3.254  13.439  0.7314  0.3303  0.2376
   19TMC2     C  295   4.093   3.505  13.672  0.0685  0.2128 -0.6649
   19TMC2     O  296   4.170   3.570  13.609 -0.8451 -0.2967 -0.1797
   19TMC2     H  297   4.029   3.547  13.425 -1.8276  2.3620  2.7775
   19TMC2    H1  298   3.992   3.272  13.753  3.5716 -1.7663 -1.4363
   19TMC2    H2  299   3.774   3.208  13.386  0.3966  1.2118 -0.0169
   19TMC2    C7  300   3.842   3.098  13.608 -0.3637 -0.4762 -0.3345
   19TMC2    C8  301   3.828   3.467  13.322  0.1936 -0.6319 -0.0398
   19TMC2    O1  302   3.792   3.018  13.528  0.8976 -0.0315 -0.0900
   19TMC2    O2  303   3.774   3.563  13.386 -0.5146 -0.3804 -0.1172
   19TMC2    O5  304   3.771   3.400  13.218 -0.8567  0.6232  0.5105
   19TMC2    H5  305   3.830   3.329  13.186 -0.9238 -0.2047  2.1892
   20MPD2     C  306   4.250   3.644  13.890  0.3900 -0.4229 -0.3443
   20MPD2    C1  307   4.139   3.561  13.913  0.0388  0.4611 -0.2977
   20MPD2    C2  308   4.087   3.544  14.043  0.2325 -0.7387  0.1185
   20MPD2    C3  309   4.152   3.601  14.149  0.5440 -0.0272  0.3185
   20MPD2    C4  310   4.259   3.684  14.127  0.2759 -0.1462 -0.1796
   20MPD2    C5  311   4.303   3.711  13.994  0.4539  0.2307 -0.9221
   20MPD2     H  312   3.993   3.491  14.050 -0.8991  1.1525 -0.8163
   20MPD2    H1  313   4.308   3.729  14.213 -3.1217  3.7955 -0.3098
   20MPD2    H2  314   4.289   3.668  13.792  2.4258 -1.0336  0.3176
   20MPD2    H3  315   4.385   3.781  13.985  3.5199 -3.4289 -1.1962
   20MPD2     N  316   4.117   3.582  14.283  0.2474 -0.4129 -0.4904
   20MPD2    H5  317   4.184   3.617  14.351 -0.5981  1.0134 -0.3930
   20MPD2    N1  318   4.072   3.492  13.809  0.2397  0.0351  0.1250
   20MPD2    H7  319   4.002   3.428  13.844  0.4488  0.5915  1.5873
   21MPD2     C  320   1.330   3.461  14.055  0.1057  0.1743 -0.1833
   21MPD2    C1  321   1.392   3.358  14.123  1.0362 -0.1450  0.6805
   21MPD2    C2  322   1.347   3.317  14.246  0.0115 -1.0496 -0.2001
   21MPD2    C3  323   1.233   3.382  14.298  0.5127  0.2534 -0.2952
   21MPD2    C4  324   1.177   3.483  14.228  0.0076 -0.1719 -0.2305
   21MPD2    C5  325   1.230   3.530  14.111 -0.5552  0.1668  0.7701
   21MPD2     H  326   1.400   3.240  14.302  0.3240 -1.2410 -0.7546
   21MPD2    H1  327   1.099   3.548  14.266  0.8601 -0.1872  1.5496
   21MPD2    H2  328   1.366   3.492  13.958 -0.9168 -0.2918 -0.7174
   21MPD2    H3  329   1.198   3.624  14.067  0.8650  0.5849  0.6279
   21MPD2     N  330   1.182   3.343  14.428 -0.1710 -0.2242  0.4871
   21MPD2    H5  331   1.097   3.382  14.466  0.0598 -0.2585  1.0372
   21MPD2    N1  332   1.491   3.286  14.052  0.6494  0.1793  0.1592
   21MPD2    H7  333   1.524   3.202  14.099  0.6990  0.2381  0.2295
   22TCq2    C1  334   1.228   3.247  14.514 -0.1061  0.2843  0.1859
   22TCq2    O2  335   1.302   3.153  14.496  0.6752 -0.1147 -0.1065
   22TCq2    C2  336   1.158   3.247  14.640 -0.1682 -0.3286  0.3192
   22TCq2    C3  337   1.194   3.138  14.727  0.8983  0.7187  0.2973
   22TCq2    C4  338   1.164   3.161  14.859  0.6643 -0.5071 -0.1877
   22TCq2    C5  339   1.109   3.279  14.913 -0.1505  0.2563 -0.8461
   22TCq2    C6  340   1.099   3.384  14.828 -0.0348 -0.5455 -0.2626
   22TCq2    C7  341   1.116   3.370  14.689  0.4076 -0.5791  0.4209
   22TCq2    C8  342   1.063   3.513  14.882 -0.1244 -0.1742  0.2521
   22TCq2    O4  343   1.079   3.532  15.001 -0.0115  0.6705  0.0151
   22TCq2    C9  344   1.200   3.062  14.961 -0.1618 -0.4312  0.6989
   22TCq2    O5  345   1.194   2.942  14.925  0.1411 -0.0320  0.3064
   22TCq2    O6  346   1.203   3.100  15.078  0.3586  0.1891  0.2402
   22TCq2    H2  347   1.239   3.049  14.684 -3.7248 -2.6104  2.3920
   22TCq2    H3  348   1.086   3.294  15.018 -1.2057 -1.7937 -0.8017
   22TCq2    H4  349   1.126   3.456  14.624  0.7498 -1.6014 -0.8874
   23MPD2     C  350   2.818   4.290  14.570 -0.0616 -0.3518  0.1960
   23MPD2    C1  351   2.726   4.320  14.668 -0.0783 -0.3155  0.7650
   23MPD2    C2  352   2.602   4.372  14.633  0.3558  0.6872 -0.9025
   23MPD2    C3  353   2.564   4.394  14.502 -0.1582  0.0606 -0.9201
   23MPD2    C4  354   2.656   4.360  14.402 -0.1417 -0.4949  0.3433
   23MPD2    C5  355   2.781   4.315  14.439  0.2223  0.9651  0.8990
   23MPD2     H  356   2.535   4.397  14.714  1.8906  1.2356  0.2041
   23MPD2    H1  357   2.644   4.383  14.297 -1.0245  1.2011  0.7983
   23MPD2    H2  358   2.904   4.225  14.586 -0.1856 -0.4067  0.6393
   23MPD2    H3  359   2.851   4.283  14.362 -0.1567  0.6634  0.6788
   23MPD2     N  360   2.439   4.440  14.464  0.0745 -0.2651  0.7229
   23MPD2    H5  361   2.416   4.461  14.368  2.1682 -1.9516 -0.1444
   23MPD2    N1  362   2.751   4.286  14.801 -0.1445  0.3015 -0.7560
   23MPD2    H7  363   2.680   4.304  14.871 -0.7422 -1.7527 -0.8272
   24TCq2    C1  364   2.340   4.477  14.551  1.7645  0.1587 -0.4165
   24TCq2    O2  365   2.328   4.466  14.675  0.4058  0.3382 -0.3121
   24TCq2    C2  366   2.226   4.539  14.483 -0.6733 -0.3271 -0.2928
   24TCq2    C3  367   2.142   4.624  14.554 -0.0233  0.6875  0.2965
   24TCq2    C4  368   2.041   4.680  14.490 -0.9020  0.3536 -0.7022
   24TCq2    C5  369   2.008   4.643  14.368  0.1726 -0.0663 -0.5869
   24TCq2    C6  370   2.095   4.565  14.295 -0.0523  0.2347 -0.5660
   24TCq2    C7  371   2.207   4.511  14.345 -0.4555 -0.2498  1.0719
   24TCq2    C8  372   2.075   4.553  14.148 -0.1018  0.4230  0.1157
   24TCq2    O4  373   2.174   4.512  14.092  0.5720  0.1777 -0.3916
   24TCq2    C9  374   1.953   0.042  14.563  1.1234  0.9256 -0.1341
   24TCq2    O5  375   1.836   0.060  14.522 -0.0593 -0.2970 -0.4132
   24TCq2    O6  376   1.988   0.080  14.673  0.6438 -0.4231 -0.9430
   24TCq2    H2  377   2.144   4.633  14.662  0.7183 -1.6106  0.4745
   24TCq2    H3  378   1.915   4.679  14.326  0.0876 -0.5635 -0.8209
   24TCq2    H4  379   2.266   4.437  14.291 -1.4925  1.8086 -2.9329
   25TMC2    C1  380   2.295   1.822  11.967 -0.0983 -0.2008 -0.0263
   25TMC2    C2  381   2.362   1.906  12.049 -0.7804  0.1484 -0.1256
   25TMC2    C3  382   2.414   1.853  12.167  0.7038 -0.3797  0.2341
   25TMC2    C4  383   2.275   1.690  11.998  0.2761  0.0821 -0.3498
   25TMC2    C5  384   2.327   1.638  12.116  0.3556 -0.5729 -0.1205
   25TMC2    C6  385   2.395   1.725  12.195  0.3851 -0.6333  0.4309
   25TMC2     C  386   2.242   1.883  11.845  0.6867  0.3078 -0.4021
   25TMC2     O  387   2.289   1.993  11.811 -0.0570 -0.0612  0.1039
   25TMC2     H  388   2.364   2.010  12.017 -0.7042  0.7312  1.7456
   25TMC2    H1  389   2.221   1.624  11.931  0.3270  0.5666 -0.8574
   25TMC2    H2  390   2.444   1.682  12.281 -0.5493  0.0334  1.3091
   25TMC2    C7  391   2.252   1.535  12.184  0.2276  0.2184  0.4403
   25TMC2    C8  392   2.445   1.944  12.272 -0.4130 -0.2233 -0.1936
   25TMC2    O1  393   2.251   1.541  12.306  0.7492  0.1046  0.5995
   25TMC2    O2  394   2.521   1.912  12.362  0.3422 -0.6668  0.0555
   25TMC2    O5  395   2.327   2.005  12.293  0.6328  0.2557  0.0913
   25TMC2    H5  396   2.273   2.003  12.211 -0.2594 -1.2643  0.7318
   26MPD2     C  397   1.951   1.851  11.423  0.1000 -0.4429  0.1997
   26MPD2    C1  398   1.906   1.758  11.522 -0.6020  0.2304 -0.1561
   26MPD2    C2  399   1.959   1.757  11.648 -0.0759 -0.1599  0.1290
   26MPD2    C3  400   2.065   1.840  11.680 -0.7672  0.0141 -0.3532
   26MPD2    C4  401   2.095   1.940  11.595  0.4681  0.0568 -0.5309
   26MPD2    C5  402   2.049   1.946  11.466  0.0026 -0.2686  0.6161
   26MPD2     H  403   1.930   1.679  11.718  0.3562  0.2453  0.7583
   26MPD2    H1  404   2.161   2.026  11.607 -1.8849  1.7071  0.6072
   26MPD2    H2  405   1.905   1.845  11.325  1.4228  0.2574 -0.4713
   26MPD2    H3  406   2.084   2.025  11.401  0.7937 -0.6148  0.6245
   26MPD2     N  407   2.140   1.808  11.794 -0.4953 -0.3345  0.3013
   26MPD2    H5  408   2.106   1.734  11.854 -1.8955 -1.1085 -1.4399
   26MPD2    N1  409   1.804   1.669  11.490  0.1787 -0.4009 -0.0105
   26MPD2    H7  410   1.775   1.658  11.393 -0.1875 -0.7129  0.1328
   27TMC2    C1  411   0.172   3.988  11.750 -0.0614 -0.2133  0.3604
   27TMC2    C2  412   0.101   3.999  11.637  0.0951 -0.6293 -0.5917
   27TMC2    C3  413   0.051   4.121  11.604 -1.0164 -0.4688 -0.3312
   27TMC2    C4  414   0.214   4.094  11.818 -0.4255 -1.0929  0.2522
   27TMC2    C5  415   0.184   4.212  11.766 -0.1267  0.0773 -0.1435
   27TMC2    C6  416   0.087   4.229  11.678 -0.1456 -0.6552 -0.0214
   27TMC2     C  417   0.169   3.861  11.826 -0.9247 -0.5061 -0.1673
   27TMC2     O  418   0.173   3.750  11.778  0.2643 -0.2673  0.0869
   27TMC2     H  419   0.069   3.906  11.591  0.3581 -0.2401 -1.5561
   27TMC2    H1  420   0.278   4.083  11.905 -0.6275  0.0340  0.5383
   27TMC2    H2  421   0.048   4.324  11.643  0.1782 -0.0167  1.3278
   27TMC2    C7  422   0.215   4.321  11.859 -0.0748 -0.2420 -0.2930
   27TMC2    C8  423   4.693   4.145  11.486 -0.6621  0.2253 -0.5305
   27TMC2    O1  424   0.321   4.312  11.922 -0.5873  0.0800 -0.4493
   27TMC2    O2  425   4.612   4.239  11.475 -0.0706 -0.1711  0.2892
   27TMC2    O5  426   4.678   4.031  11.407  0.2035  0.2336 -0.7593
   27TMC2    H5  427   0.039   3.980  11.410 -0.7891 -1.3324  0.3365
   28MPD2     C  428   0.157   3.645  12.296  0.4476 -0.0451  0.1078
   28MPD2    C1  429   0.107   3.774  12.309  0.0322  0.1783 -0.1127
   28MPD2    C2  430   0.088   3.852  12.191  0.1290  0.8854 -0.5704
   28MPD2    C3  431   0.127   3.803  12.072  0.0784  0.3451 -0.3386
   28MPD2    C4  432   0.171   3.674  12.059  0.6557  0.1883  0.1168
   28MPD2    C5  433   0.190   3.594  12.169 -0.3380  0.1472  0.2011
   28MPD2     H  434   0.052   3.954  12.191 -1.9472  0.1530  1.8984
   28MPD2    H1  435   0.202   3.637  11.962 -1.0769  0.3161 -0.4997
   28MPD2    H2  436   0.152   3.578  12.381 -2.1449 -0.2982 -0.2399
   28MPD2    H3  437   0.230   3.493  12.163  0.6255  0.3799  2.6756
   28MPD2     N  438   0.140   3.890  11.961  0.2701  0.7905 -0.2647
   28MPD2    H5  439   0.112   3.985  11.984 -0.0973  0.8317 -0.8825
   28MPD2    N1  440   0.066   3.807  12.438  0.1019  1.1120  0.2727
   28MPD2    H7  441   0.076   3.735  12.509 -1.9448  1.2662  0.7374
   29MPD2     C  442   4.565   1.541  14.033 -0.5471  0.3486  0.5608
   29MPD2    C1  443   4.701   1.495  14.044  1.0591 -0.7738  1.0925
   29MPD2    C2  444   0.068   1.594  14.083 -0.0430  0.4453  0.0500
   29MPD2    C3  445   0.027   1.725  14.104  0.4917  0.1337 -0.2189
   29MPD2    C4  446   4.613   1.760  14.108  0.7445 -0.6877 -0.0685
   29MPD2    C5  447   4.523   1.667  14.058  0.6374  0.4620 -0.5527
   29MPD2     H  448   0.171   1.564  14.088  0.0254  0.0259 -4.6028
   29MPD2    H1  449   4.589   1.864  14.131 -0.3459 -0.7022 -1.1376
   29MPD2    H2  450   4.493   1.469  13.997 -0.5765  1.2157 -1.1044
   29MPD2    H3  451   4.422   1.702  14.039  0.8229  1.1602 -0.2666
   29MPD2     N  452   0.121   1.821  14.138  0.1452  0.9337  0.5590
   29MPD2    H5  453   0.087   1.913  14.165  1.7515  1.3568  1.1962
   29MPD2    N1  454   0.027   1.362  14.023  0.1865 -0.2354  0.0896
   29MPD2    H7  455   0.128   1.354  14.019  0.0578 -1.9019  0.1986
   30TCq2    C1  456   0.253   1.803  14.167 -0.0038 -0.1304 -0.3151
   30TCq2    O2  457   0.326   1.704  14.154 -0.0442  0.0413  0.5120
   30TCq2    C2  458   0.297   1.922  14.232 -0.2858  0.7932 -0.1737
   30TCq2    C3  459   0.199   2.001  14.288  0.5072 -0.9002 -0.1012
   30TCq2    C4  460   0.233   2.135  14.293  0.6631 -0.3766  0.1414
   30TCq2    C5  461   0.354   2.182  14.253 -0.1095 -1.0408 -0.5080
   30TCq2    C6  462   0.439   2.104  14.185  0.1554 -0.1281 -0.9450
   30TCq2    C7  463   0.413   1.972  14.177  0.2067 -0.3274  0.1516
   30TCq2    C8  464   0.555   2.171  14.138  0.0505 -0.3194 -0.4626
   30TCq2    O4  465   0.593   2.140  14.025  0.1451  0.4100 -0.1660
   30TCq2    C9  466   0.148   2.227  14.358 -0.4944  0.0565  0.0351
   30TCq2    O5  467   0.190   2.347  14.375  0.1325  0.0357 -0.0502
   30TCq2    O6  468   0.039   2.183  14.398  0.2442 -0.0383 -0.4324
   30TCq2    H2  469   0.109   1.965  14.334 -1.1625  1.2533 -1.6730
   30TCq2    H3  470   0.367   2.288  14.271 -1.6679 -0.7826 -0.8952
   30TCq2    H4  471   0.471   1.903  14.116  0.0491  0.3912 -0.7953
   31MPD2     C  472   3.061   0.977  15.208  0.6697  1.0457  0.4320
   31MPD2    C1  473   2.955   0.949  15.128  0.2174  0.3920 -0.5119
   31MPD2    C2  474   2.902   0.823  15.140  0.7087 -0.4421  0.6527
   31MPD2    C3  475   2.948   0.732  15.226  0.1753 -0.5438  0.1257
   31MPD2    C4  476   3.058   0.765  15.307 -0.3073 -0.7004  0.7861
   31MPD2    C5  477   3.110   0.889  15.299  0.9469 -0.2457 -0.0932
   31MPD2     H  478   2.826   0.794  15.069  0.5057  4.0729 -0.9958
   31MPD2    H1  479   3.104   0.690  15.370 -0.4100 -1.1892  0.2819
   31MPD2    H2  480   3.111   1.072  15.191  0.9566  0.8983  0.4530
   31MPD2    H3  481   3.200   0.913  15.355  1.0052 -2.6789  0.8232
   31MPD2     N  482   2.887   0.604  15.235 -0.3340  0.3282 -0.3633
   31MPD2    H5  483   2.915   0.551  15.317 -0.2918 -0.7848 -1.0975
   31MPD2    N1  484   2.913   1.049  15.040 -0.1729 -0.5918 -0.1326
   31MPD2    H7  485   2.958   1.140  15.045 -0.2263 -0.2853 -4.9836
   32TCq2    C1  486   2.788   0.554  15.149 -0.2275 -0.2378 -0.1289
   32TCq2    O2  487   2.754   0.603  15.043  0.1168  0.2554 -0.0857
   32TCq2    C2  488   2.727   0.426  15.183 -1.2207 -0.6261 -0.5799
   32TCq2    C3  489   2.626   0.405  15.097 -1.0129 -0.4313 -0.3477
   32TCq2    C4  490   2.524   0.323  15.136 -1.0931 -0.1651  0.5323
   32TCq2    C5  491   2.515   0.276  15.262  0.0343 -0.5061  0.5277
   32TCq2    C6  492   2.621   0.294  15.344 -0.2885 -0.2334  0.1008
   32TCq2    C7  493   2.731   0.373  15.311  0.4246 -0.5089 -0.8920
   32TCq2    C8  494   2.601   0.279  15.485 -0.6631  0.3142  0.1929
   32TCq2    O4  495   2.700   0.292  15.557  0.0641  0.3237  0.7104
   32TCq2    C9  496   2.406   0.324  15.055 -0.4956  0.3198 -0.0510
   32TCq2    O5  497   2.397   0.398  14.955  0.4981 -0.2545 -0.0577
   32TCq2    O6  498   2.300   0.266  15.101 -0.3981  0.6799 -0.0764
   32TCq2    H2  499   2.623   0.438  14.993 -0.0632  0.4891 -0.0707
   32TCq2    H3  500   2.437   0.206  15.290 -0.3289 -0.8755 -1.4634
   32TCq2    H4  501   2.806   0.389  15.387  0.4009 -1.3818 -0.6865
   33MPD2     C  502   3.564   3.117  10.664  0.1569 -0.2917 -0.0178
   33MPD2    C1  503   3.425   3.112  10.670 -0.1999 -0.1433  0.2868
   33MPD2    C2  504   3.349   3.181  10.579 -0.4917  0.7914 -0.1025
   33MPD2    C3  505   3.410   3.274  10.499  0.1514  0.2772  0.1601
   33MPD2    C4  506   3.548   3.289  10.495 -0.0934  0.4128  0.1976
   33MPD2    C5  507   3.622   3.207  10.579 -0.5396  0.2459  0.7165
   33MPD2     H  508   3.243   3.160  10.578 -0.5499  1.0946 -0.2258
   33MPD2    H1  509   3.588   3.359  10.422 -1.9681  2.1072  0.8056
   33MPD2    H2  510   3.629   3.058  10.728 -2.2452 -1.6768  1.1623
   33MPD2    H3  511   3.728   3.228  10.587 -0.6983 -0.3736  4.3714
   33MPD2     N  512   3.330   3.334  10.400  0.2647  0.0595 -0.0369
   33MPD2    H5  513   3.383   3.368  10.320  0.8460  1.2501  0.8504
   33MPD2    N1  514   3.368   3.015  10.750 -0.2013 -0.2222 -0.4113
   33MPD2    H7  515   3.423   2.935  10.778 -1.9315 -1.0889  0.5110
   34TCq2    C1  516   3.193   3.353  10.413  0.1008  0.5613  0.0872
   34TCq2    O2  517   3.115   3.334  10.502  0.3642 -1.0239 -0.1704
   34TCq2    C2  518   3.137   3.445  10.307 -0.0477 -0.3557  0.2984
   34TCq2    C3  519   3.013   3.501  10.336  0.3488 -0.4144  0.3479
   34TCq2    C4  520   2.967   3.615  10.267  0.1291 -0.5240  0.4386
   34TCq2    C5  521   3.055   3.673  10.183  0.2983  0.0209 -1.5303
   34TCq2    C6  522   3.171   3.607  10.152 -0.3920 -0.0110 -0.1265
   34TCq2    C7  523   3.220   3.501  10.218  0.0898  0.0298  0.2627
   34TCq2    C8  524   3.265   3.680  10.067  0.1632  0.9240  0.1473
   34TCq2    O4  525   3.381   3.655  10.090  0.4042 -0.3206  0.1099
   34TCq2    C9  526   2.843   3.679  10.299  0.2287 -0.0850 -0.2545
   34TCq2    O5  527   2.845   3.807  10.290  0.0188 -0.3733 -0.0128
   34TCq2    O6  528   2.747   3.613  10.331 -0.2212 -0.0031  0.0725
   34TCq2    H2  529   2.941   3.446  10.397  1.1935 -2.1059 -0.1928
   34TCq2    H3  530   3.022   3.765  10.136  0.2564  1.2054  0.8482
   34TCq2    H4  531   3.304   3.446  10.175  0.0483  1.5339 -1.7527
   35MPD2     C  532   3.774   4.560  12.105 -0.7713 -0.4574 -0.6989
   35MPD2    C1  533   3.771   4.433  12.066  0.4119 -0.0924 -0.2278
   35MPD2    C2  534   3.677   4.400  11.971 -0.0432 -0.1010 -0.3525
   35MPD2    C3  535   3.611   4.501  11.900 -0.1483 -0.6400 -0.4230
   35MPD2    C4  536   3.611   4.629  11.949 -0.7544  1.0060 -0.0581
   35MPD2    C5  537   3.692   4.654  12.050  0.1810  0.0833 -0.0321
   35MPD2     H  538   3.656   4.302  11.930 -1.2851 -0.7623  1.8544
   35MPD2    H1  539   3.552   4.710  11.905  1.0950  2.3482 -0.0624
   35MPD2    H2  540   3.834   4.593  12.189 -0.4102  1.6470 -1.7918
   35MPD2    H3  541   3.690   0.035  12.082  0.1464 -0.6342  2.3020
   35MPD2     N  542   3.521   4.470  11.798 -0.0472 -0.1395 -1.0996
   35MPD2    H5  543   3.524   4.376  11.760 -2.9313 -0.8321  0.3936
   35MPD2    N1  544   3.867   4.336  12.122  0.0714 -0.1797  0.4889
   35MPD2    H7  545   3.938   4.381  12.179 -1.0220 -1.1353  2.6111
   36TCq2    C1  546   3.439   4.558  11.724 -0.5854  0.4135 -0.1640
   36TCq2    O2  547   3.417   4.677  11.732  0.1352 -0.9164  0.3625
   36TCq2    C2  548   3.340   4.487  11.645 -0.5468 -0.8700 -0.5146
   36TCq2    C3  549   3.224   4.558  11.625  0.3169 -0.4106 -0.0947
   36TCq2    C4  550   3.132   4.510  11.530 -0.1621 -0.3094 -0.4418
   36TCq2    C5  551   3.177   4.415  11.441  0.4555 -0.1004 -0.2661
   36TCq2    C6  552   3.298   4.354  11.454 -0.0413  0.2219  0.4647
   36TCq2    C7  553   3.381   4.385  11.560 -0.5689  0.0577  0.0516
   36TCq2    C8  554   3.317   4.244  11.359  0.1464 -0.0881 -0.2462
   36TCq2    O4  555   3.228   4.198  11.289  0.2027  0.0653  0.0158
   36TCq2    C9  556   3.003   4.567  11.514  0.5368  0.0708  0.1550
   36TCq2    O5  557   2.982   4.682  11.566  0.4621 -0.0350 -0.5333
   36TCq2    O6  558   2.915   4.496  11.462 -0.4200 -0.5193  0.3068
   36TCq2    H2  559   3.190   4.615  11.711  2.4491  2.4720 -1.1700
   36TCq2    H3  560   3.107   4.381  11.366  2.0096  0.4170 -1.9496
   36TCq2    H4  561   3.482   4.346  11.569 -0.6372 -0.0967  0.1467
   37TMC2    C1  562   1.771   4.640  11.467  0.2055  0.0218 -0.3447
   37TMC2    C2  563   1.783   4.609  11.338  0.2883 -0.6064 -0.2678
   37TMC2    C3  564   1.901   4.569  11.280 -0.0108 -0.1859 -0.2547
   37TMC2    C4  565   1.886   4.628  11.546 -0.0154 -0.8283 -0.0504
   37TMC2    C5  566   2.002   4.581  11.487 -0.1088  0.1879 -0.3174
   37TMC2    C6  567   2.012   4.552  11.353 -0.4215 -0.0769  0.6661
   37TMC2     C  568   1.644   4.664  11.540  0.4363 -0.4212 -0.1144
   37TMC2     O  569   1.546   4.690  11.469 -0.6658 -0.7033 -0.2291
   37TMC2     H  570   1.687   4.610  11.288 -1.1962  0.8483  2.6248
   37TMC2    H1  571   1.895   4.632  11.654  1.8940  1.0135 -0.2695
   37TMC2    H2  572   2.108   4.536  11.305  0.3020  1.3114  1.6545
   37TMC2    C7  573   2.129   4.605  11.564  0.2981  0.0984  0.0400
   37TMC2    C8  574   1.899   4.503  11.154  0.4334 -0.5102  0.5986
   37TMC2    O1  575   2.113   4.631  11.679  0.0836 -0.6924 -0.3167
   37TMC2    O2  576   1.974   4.413  11.133  0.1827 -0.2327 -0.4204
   37TMC2    O5  577   1.844   4.590  11.068  0.9777 -0.4639  0.2374
   37TMC2    H5  578   1.784   4.655  11.111 -0.8508 -1.3455 -0.9610
   38MPD2     C  579   1.395   4.689  11.982 -0.0161 -0.4214  0.0306
   38MPD2    C1  580   1.519   4.633  12.003  0.2095 -0.1359  0.5124
   38MPD2    C2  581   1.604   4.627  11.897 -0.4575  1.1046 -0.3757
   38MPD2    C3  582   1.565   4.663  11.775  0.5593 -0.2431 -0.6021
   38MPD2    C4  583   1.435   4.706  11.748 -0.0350 -0.2220  0.0420
   38MPD2    C5  584   1.356   0.001  11.851  0.3816 -0.1303 -0.0794
   38MPD2     H  585   1.702   4.584  11.910 -0.5589  0.6227 -1.2410
   38MPD2    H1  586   1.394   0.015  11.652  2.6828  0.0704 -1.0453
   38MPD2    H2  587   1.326   4.713  12.062 -1.7607  0.7076 -1.8121
   38MPD2    H3  588   1.254   0.036  11.845  0.5134  0.0230 -1.3672
   38MPD2     N  589   1.659   4.651  11.673 -0.1101  0.6074 -0.0990
   38MPD2    H5  590   1.753   4.622  11.698  0.5273 -0.0997 -3.3104
   38MPD2    N1  591   1.556   4.573  12.125 -0.4128  0.3288  0.0032
   38MPD2    H7  592   1.652   4.542  12.130  0.6310  3.3075 -0.9509
   39MPD2     C  593   4.642   1.425   1.012  0.1434 -0.8036  0.5787
   39MPD2    C1  594   4.566   1.449   1.122 -0.2041 -0.6450 -0.6605
   39MPD2    C2  595   4.450   1.388   1.140  0.2277  0.7994 -0.4807
   39MPD2    C3  596   4.401   1.291   1.048  0.0470  0.5334 -0.3930
   39MPD2    C4  597   4.479   1.261   0.930 -0.2752 -0.4111  0.4503
   39MPD2    C5  598   4.605   1.321   0.917 -0.1459 -0.0865 -0.9368
   39MPD2     H  599   4.385   1.417   1.221  1.1650 -0.3885  0.7053
   39MPD2    H1  600   4.453   1.186   0.856  0.2153  1.8210 -1.9483
   39MPD2    H2  601   0.010   1.480   0.991  0.6193 -2.0845 -0.7394
   39MPD2    H3  602   4.659   1.294   0.827  0.6158 -1.8053  0.0461
   39MPD2     N  603   4.271   1.244   1.053 -0.2063  0.9325  0.0413
   39MPD2    H5  604   4.252   1.180   0.976  0.7072 -1.8200  2.0996
   39MPD2    N1  605   4.614   1.527   1.225  0.3477  0.8359  0.4901
   39MPD2    H7  606   4.701   1.577   1.211  1.0546 -0.5441 -0.1086
   40TCq2    C1  607   4.574   1.525   1.356 -0.3191 -0.7945  0.0189
   40TCq2    O2  608   4.519   1.437   1.418 -0.3838  0.6047  0.0045
   40TCq2    C2  609   4.634   1.631   1.437 -0.1758  0.0862  0.1189
   40TCq2    C3  610   4.612   1.634   1.570 -0.4040  0.2406 -0.7298
   40TCq2    C4  611   4.650   1.744   1.649 -0.0873  0.0387  0.1232
   40TCq2    C5  612   0.006   1.847   1.598 -0.2945 -0.5431 -0.1925
   40TCq2    C6  613   0.030   1.830   1.460 -0.0925  0.0008 -0.2382
   40TCq2    C7  614   4.716   1.726   1.380  0.0197  0.1188  0.0710
   40TCq2    C8  615   0.099   1.937   1.389  0.1721  0.1399 -0.5450
   40TCq2    O4  616   0.141   1.929   1.277 -0.2564 -0.0851  0.1761
   40TCq2    C9  617   4.606   1.745   1.785  0.5103 -0.1761 -0.4619
   40TCq2    O5  618   4.600   1.858   1.849 -0.1091 -0.0558  0.1971
   40TCq2    O6  619   4.561   1.640   1.834  0.4700  0.3883 -0.1750
   40TCq2    H2  620   4.549   1.557   1.612  1.4037 -0.6783  0.3140
   40TCq2    H3  621   0.052   1.920   1.663 -1.0952  0.3244 -0.6010
   40TCq2    H4  622   4.719   1.725   1.272  0.1817 -0.9470  0.0840
   41TMC2    C1  623   3.337   4.501  13.884 -0.6784 -0.7676 -0.3500
   41TMC2    C2  624   3.432   4.603  13.903 -0.0354 -0.1198 -0.4407
   41TMC2    C3  625   3.494   4.649  13.788  0.2501 -0.6063 -0.3491
   41TMC2    C4  626   3.308   4.445  13.768  0.2204  0.2630  0.9452
   41TMC2    C5  627   3.361   4.498  13.652  0.5304 -0.6550 -0.6900
   41TMC2    C6  628   3.452   4.604  13.661  1.0479 -0.6684 -1.3139
   41TMC2     C  629   3.282   4.437  14.002  0.6176 -0.4120 -0.4031
   41TMC2     O  630   3.263   4.316  13.997 -0.0839  0.9865  0.3335
   41TMC2     H  631   3.453   4.639  14.003  0.8552 -0.3505 -0.5446
   41TMC2    H1  632   3.221   4.381  13.763 -1.1055  2.2076 -0.5278
   41TMC2    H2  633   3.515   4.638  13.580 -0.7468  0.2742 -2.3117
   41TMC2    C7  634   3.312   4.456  13.522  0.1127  0.1398 -0.9268
   41TMC2    C8  635   3.548   0.065  13.784 -0.3271 -0.2395 -0.2639
   41TMC2    O1  636   3.245   4.352  13.515  0.4204  0.2594  0.6070
   41TMC2    O2  637   3.547   0.134  13.680  0.2086  0.0377 -0.1504
   41TMC2    O5  638   3.563   0.108  13.905  0.0710 -0.7967 -0.4864
   41TMC2    H5  639   3.581   0.034  13.967  0.8472  0.5470  0.8884
   42MPD2     C  640   3.175   4.359  14.274 -0.2316  0.0424  0.4686
   42MPD2    C1  641   3.182   4.485  14.230 -0.0036  0.1222 -0.3092
   42MPD2    C2  642   3.148   4.593  14.314 -0.0335 -0.0817  0.1376
   42MPD2    C3  643   3.115   4.578  14.449 -0.0244  0.1619 -0.3381
   42MPD2    C4  644   3.109   4.450  14.491 -0.3864 -0.1961  0.4695
   42MPD2    C5  645   3.132   4.346  14.401  0.5050 -0.4529 -0.1945
   42MPD2     H  646   3.127   4.691  14.271 -0.2583  0.8450  2.3383
   42MPD2    H1  647   3.078   4.433  14.594  1.0157 -1.5252  0.6608
   42MPD2    H2  648   3.211   4.274  14.217 -0.7682  2.5377 -3.6056
   42MPD2    H3  649   3.131   4.245  14.442 -0.6576 -0.4075 -0.1055
   42MPD2     N  650   3.086   4.685  14.538  0.1699  0.4472 -0.0429
   42MPD2    H5  651   3.038   4.656  14.622 -1.8506  1.5916 -0.8165
   42MPD2    N1  652   3.242   4.521  14.102 -0.1864 -0.6432 -0.3077
   42MPD2    H7  653   3.253   4.621  14.090 -1.4127 -0.5588 -0.8213
   43MPD2     C  654   0.623   3.627   0.791 -0.2680 -0.4007  0.1152
   43MPD2    C1  655   0.530   3.524   0.805 -0.2691  0.0584 -0.0213
   43MPD2    C2  656   0.446   3.506   0.914  0.0405  0.0624 -0.3939
   43MPD2    C3  657   0.443   3.604   1.015 -0.3505 -0.2327 -0.0939
   43MPD2    C4  658   0.537   3.704   1.000  0.3455  0.3053  0.5251
   43MPD2    C5  659   0.623   3.724   0.894 -0.0453  0.2328  0.3314
   43MPD2     H  660   0.376   3.423   0.917  2.4376 -1.9923 -1.4221
   43MPD2    H1  661   0.539   3.781   1.076 -2.6696 -0.8949  1.8258
   43MPD2    H2  662   0.684   3.641   0.703 -2.1176  1.0185 -0.9505
   43MPD2    H3  663   0.693   3.807   0.900  1.4110 -0.9992  0.3411
   43MPD2     N  664   0.358   3.601   1.123 -0.0147 -0.2129  0.3045
   43MPD2    H5  665   0.364   3.681   1.185 -1.0289  0.3789 -0.3730
   43MPD2    N1  666   0.515   3.421   0.713  0.3811  0.0516 -0.2113
   43MPD2    H7  667   0.449   3.345   0.728 -1.5387  2.0180  1.1952
   44TCq2    C1  668   4.590   3.373   1.382  0.3394 -0.2683  0.4251
   44TCq2    O2  669   4.588   3.269   1.314 -0.4061  0.2048 -0.0368
   44TCq2    C2  670   4.702   3.461   1.376 -0.1237  0.3525  0.1081
   44TCq2    C3  671   4.693   3.585   1.444 -0.2674 -0.0576 -0.2508
   44TCq2    C4  672   0.074   3.668   1.416  0.4533 -0.3790 -0.4499
   44TCq2    C5  673   0.175   3.635   1.335 -0.1713  0.2456 -0.5043
   44TCq2    C6  674   0.176   3.523   1.254 -0.3322  0.0491 -0.0189
   44TCq2    C7  675   0.078   3.433   1.284 -0.3385  0.4411 -0.8613
   44TCq2    C8  676   0.274   3.489   1.159  0.0084 -0.4369 -0.0369
   44TCq2    O4  677   0.276   3.373   1.115  0.3226  0.0559 -0.0606
   44TCq2    C9  678   0.076   3.789   1.488  0.1812  0.2353 -0.6934
   44TCq2    O5  679   4.704   3.806   1.575 -0.5668 -0.5365 -0.0915
   44TCq2    O6  680   0.162   3.872   1.459  0.0894  0.1265  0.0762
   44TCq2    H2  681   4.630   3.604   1.530  0.7762 -0.5987  0.6283
   44TCq2    H3  682   0.257   3.705   1.329  0.8655 -0.9987 -0.9044
   44TCq2    H4  683   0.079   3.338   1.232  0.5645  0.0960 -0.2069
   45TMC2    C1  684   1.528   0.193   9.664  0.7237 -0.6407 -0.0742
   45TMC2    C2  685   1.415   0.229   9.734  0.0639 -0.6757  0.1572
   45TMC2    C3  686   1.436   0.318   9.835  0.0498 -0.4167  0.4630
   45TMC2    C4  687   1.641   0.277   9.672  0.1024 -0.1525 -1.1328
   45TMC2    C5  688   1.634   0.390   9.750  0.5981  0.1795  0.8256
   45TMC2    C6  689   1.537   0.404   9.848 -0.3803  0.7124 -0.0417
   45TMC2     C  690   1.566   0.059   9.636 -0.0006 -0.1034  0.2612
   45TMC2     O  691   1.684   0.032   9.643  0.1696  0.3000  0.1367
   45TMC2     H  692   1.335   0.156   9.740 -0.3619  0.0284  3.0590
   45TMC2    H1  693   1.728   0.261   9.609 -0.4355 -1.0789 -1.6329
   45TMC2    H2  694   1.548   0.472   9.932  2.1955  0.4279 -0.1497
   45TMC2    C7  695   1.754   0.470   9.749 -0.5460 -0.3137  0.0759
   45TMC2    C8  696   1.314   0.351   9.908  0.2095  0.4235  0.0147
   45TMC2    O1  697   1.853   0.431   9.688  0.5031  0.6092 -0.1101
   45TMC2    O2  698   1.296   0.369  10.027  0.2213 -0.3779 -0.0761
   45TMC2    O5  699   1.214   0.364   9.813 -1.1127  0.0212  0.0181
   45TMC2    H5  700   1.254   0.359   9.723  2.4940  0.2927  1.6246
   46MPD2     C  701   1.554   4.486   9.617 -0.7529 -0.3030 -0.0494
   46MPD2    C1  702   1.451   4.567   9.592  0.0304  0.1765 -0.2709
   46MPD2    C2  703   1.328   4.512   9.573 -0.3075  0.0692 -0.4237
   46MPD2    C3  704   1.314   4.375   9.554 -0.4609 -1.2895  0.6870
   46MPD2    C4  705   1.424   4.294   9.565  0.3503  0.3319  0.1217
   46MPD2    C5  706   1.545   4.352   9.603 -0.3532 -0.0792 -0.3429
   46MPD2     H  707   1.239   4.573   9.581  1.5501  2.5888  1.0226
   46MPD2    H1  708   1.435   4.186   9.558 -0.1151  0.3784 -1.2967
   46MPD2    H2  709   1.652   4.520   9.649 -1.2914  0.7050  0.5263
   46MPD2    H3  710   1.637   4.298   9.622 -1.6218 -2.2410 -0.3601
   46MPD2     N  711   1.186   4.329   9.528 -0.7982  0.2142  0.2080
   46MPD2    H5  712   1.112   4.399   9.526 -2.0556 -1.2010 -2.6536
   46MPD2    N1  713   1.455   4.706   9.614 -0.1847  0.5590  0.3737
   46MPD2    H7  714   1.369   0.032   9.589  0.1182  1.8328  1.8114
   47TMC2    C1  715   3.761   1.003   9.437 -0.2324  0.2373 -0.0191
   47TMC2    C2  716   3.736   1.077   9.327  0.2207  0.0780 -0.2758
   47TMC2    C3  717   3.651   1.024   9.233 -0.2046 -0.0399  0.5453
   47TMC2    C4  718   3.698   0.887   9.473 -0.2683  0.0915 -0.0848
   47TMC2    C5  719   3.610   0.840   9.379  0.4411  0.3782  0.0298
   47TMC2    C6  720   3.598   0.897   9.255 -0.2279 -0.8261 -0.6868
   47TMC2     C  721   3.868   1.038   9.523 -0.3227 -0.0816  0.2146
   47TMC2     O  722   3.913   1.154   9.524 -0.2162  0.2350 -0.2376
   47TMC2     H  723   3.798   1.162   9.300  1.9126 -0.8592  0.6026
   47TMC2    H1  724   3.701   0.849   9.574  1.0164  0.1861 -0.0915
   47TMC2    H2  725   3.522   0.865   9.185  1.6747 -0.9557 -2.6804
   47TMC2    C7  726   3.573   0.696   9.392 -0.1561  0.2772 -0.6232
   47TMC2    C8  727   3.594   1.121   9.142  0.1574 -0.6746  0.5121
   47TMC2    O1  728   3.569   0.640   9.285 -0.1787  0.1534 -1.0971
   47TMC2    O2  729   3.511   1.094   9.058  0.6030  0.3158 -0.2212
   47TMC2    O5  730   3.631   1.249   9.175 -0.4141 -0.3066  0.0232
   47TMC2    H5  731   3.672   1.268   9.261 -3.0174  1.1726  0.9337
   48MPD2     C  732   4.055   1.053   9.736  0.1798  0.9528  0.4145
   48MPD2    C1  733   4.027   0.936   9.673 -0.2094  0.4242  0.2747
   48MPD2    C2  734   4.085   0.821   9.717  0.3312 -0.0362  0.3088
   48MPD2    C3  735   4.181   0.830   9.819 -0.8236  0.0976 -0.7354
   48MPD2    C4  736   4.214   0.949   9.883 -0.0762 -1.0024  0.7791
   48MPD2    C5  737   4.152   1.059   9.836  0.2735 -0.0103 -0.9492
   48MPD2     H  738   4.068   0.723   9.674  1.8836  0.0638 -0.5222
   48MPD2    H1  739   4.288   0.955   9.962 -2.5652  0.8945  2.9858
   48MPD2    H2  740   4.009   1.150   9.719 -0.7511 -0.0880 -3.0425
   48MPD2    H3  741   4.172   1.150   9.892 -1.1699  0.5433 -1.3349
   48MPD2     N  742   4.250   0.700   9.852 -1.0102  0.6606 -0.4244
   48MPD2    H5  743   4.223   0.619   9.797  2.6202  0.3060 -1.6356
   48MPD2    N1  744   3.936   0.928   9.572 -0.4382  0.0150 -0.1899
   48MPD2    H7  745   3.906   0.834   9.546  0.8957  0.0231 -1.7673
   49MPD2     C  746   1.385   2.815   9.940 -0.1166  0.2104 -1.0305
   49MPD2    C1  747   1.334   2.782  10.064  0.6591 -0.1303 -0.2077
   49MPD2    C2  748   1.405   2.810  10.179 -0.2510 -0.2977  0.0118
   49MPD2    C3  749   1.524   2.878  10.181  0.0021 -0.0730 -0.1119
   49MPD2    C4  750   1.575   2.904  10.055  0.2831 -0.1143 -0.3940
   49MPD2    C5  751   1.516   2.865   9.938  0.7071  0.2419  0.4877
   49MPD2     H  752   1.362   2.759  10.264 -2.3103 -1.2258 -1.5640
   49MPD2    H1  753   1.671   2.954  10.059  0.3257 -0.2804  0.4892
   49MPD2    H2  754   1.345   2.796   9.841 -2.2489 -2.3194  0.3490
   49MPD2    H3  755   1.565   2.903   9.849  0.2830 -0.9009 -0.2257
   49MPD2     N  756   1.596   2.913  10.296  0.0428 -0.2766 -0.1417
   49MPD2    H5  757   1.679   2.968  10.279 -0.8003  0.0367 -3.2625
   49MPD2    N1  758   1.213   2.714  10.073 -0.1321  0.3547 -0.4745
   49MPD2    H7  759   1.178   2.684  10.163  0.7621 -0.5539 -0.4359
   50TCq2    C1  760   1.124   2.694   9.965 -0.2334 -0.4269  0.3626
   50TCq2    O2  761   1.120   2.754   9.860  0.4115 -1.0005  0.4403
   50TCq2    C2  762   1.014   2.604   9.993  0.5821  0.0353  0.0912
   50TCq2    C3  763   0.904   2.603   9.909 -0.8837  0.4690  0.2271
   50TCq2    C4  764   0.815   2.491   9.918  0.9014 -0.1414 -0.7391
   50TCq2    C5  765   0.837   2.394  10.008 -0.0539  0.2068 -1.3220
   50TCq2    C6  766   0.956   2.397  10.078  0.1685 -0.6829 -0.0645
   50TCq2    C7  767   1.039   2.504  10.085 -0.5097  0.4567  0.8016
   50TCq2    C8  768   0.977   2.288  10.170  0.2323 -0.4526  0.5342
   50TCq2    O4  769   0.912   2.182  10.156 -0.4366  0.0792 -0.3457
   50TCq2    C9  770   0.695   2.496   9.836  0.2890  0.0097 -0.0622
   50TCq2    O5  771   0.603   2.423   9.878  0.2039  0.3483 -0.2418
   50TCq2    O6  772   0.678   2.585   9.750  0.1992  0.1107  0.2279
   50TCq2    H2  773   0.885   2.683   9.838 -0.6331  0.5891  0.2982
   50TCq2    H3  774   0.780   2.302  10.009  1.6779 -0.8691 -1.3393
   50TCq2    H4  775   1.136   2.493  10.131 -0.3705  1.0828  0.6660
   51MPD2     C  776   2.088   4.690   1.238 -0.1792 -0.0137  0.1078
   51MPD2    C1  777   2.090   0.105   1.238  0.1668 -0.5611  0.7475
   51MPD2    C2  778   2.200   0.171   1.293 -0.3271 -0.1710 -0.0907
   51MPD2    C3  779   2.310   0.093   1.345 -0.0040  0.1430  0.1723
   51MPD2    C4  780   2.306   4.680   1.335  1.0971 -0.2574  0.0021
   51MPD2    C5  781   2.201   4.614   1.277 -0.1172 -0.1190  0.2151
   51MPD2     H  782   2.201   0.279   1.293 -3.0267 -0.1507 -1.7430
   51MPD2    H1  783   2.398   4.628   1.360  0.9582 -0.4540  0.1088
   51MPD2    H2  784   2.015   4.640   1.177  1.6058  1.0932 -2.9386
   51MPD2    H3  785   2.190   4.506   1.267 -0.2080 -0.1658  0.8413
   51MPD2     N  786   2.431   0.152   1.397  0.0253  0.1865 -0.0406
   51MPD2    H5  787   2.511   0.089   1.396  0.8855  1.2767 -0.9100
   51MPD2    N1  788   1.988   0.182   1.189  0.2618  0.3435  1.0816
   51MPD2    H7  789   2.003   0.282   1.175 -0.3938  0.2800 -0.0753
   52TCq2    C1  790   2.438   0.273   1.456  0.2179  0.2745  0.7331
   52TCq2    O2  791   2.357   0.364   1.470  0.0355  0.0265 -0.4626
   52TCq2    C2  792   2.572   0.281   1.517  0.1456  0.4727  0.0969
   52TCq2    C3  793   2.677   0.211   1.465  0.1658 -0.8378 -0.5308
   52TCq2    C4  794   2.796   0.222   1.545 -0.0334 -0.3548  0.1223
   52TCq2    C5  795   2.809   0.308   1.650  0.0133  0.4715  0.5777
   52TCq2    C6  796   2.692   0.377   1.685  0.3510  0.1107  0.1675
   52TCq2    C7  797   2.571   0.361   1.628 -0.9105 -0.2586 -0.3974
   52TCq2    C8  798   2.703   0.485   1.775 -0.1033 -0.6192 -0.3329
   52TCq2    O4  799   2.599   0.524   1.830  0.2178  0.2949  0.4272
   52TCq2    C9  800   2.907   0.130   1.512 -0.0753 -0.4225  0.0026
   52TCq2    O5  801   2.902   0.079   1.400 -0.2352  0.5434 -0.2708
   52TCq2    O6  802   2.973   0.090   1.614  0.1051  0.1079  0.0054
   52TCq2    H2  803   2.686   0.150   1.375 -1.2959 -0.3312 -1.0156
   52TCq2    H3  804   2.901   0.311   1.707 -0.0939 -0.4301  0.7949
   52TCq2    H4  805   2.480   0.403   1.669 -1.8733 -2.4633 -0.2965
   53TMC2    C1  806   2.648   4.584  12.057 -0.1892  1.4669  0.1272
   53TMC2    C2  807   2.757   4.586  12.126 -0.0334 -0.4975  0.2469
   53TMC2    C3  808   2.744   4.624  12.258 -0.2814 -0.4776  0.0081
   53TMC2    C4  809   2.527   4.598  12.110 -0.3020  0.2723 -0.1136
   53TMC2    C5  810   2.520   4.610  12.246 -0.4750 -0.4928  0.0907
   53TMC2    C6  811   2.627   4.629  12.328 -0.4086  0.3171  0.0916
   53TMC2     C  812   2.662   4.572  11.911  0.6137 -0.0012 -0.0670
   53TMC2     O  813   2.762   4.521  11.861  0.1588 -0.1200  0.1056
   53TMC2     H  814   2.855   4.588  12.079 -0.2012  1.4675 -0.0088
   53TMC2    H1  815   2.436   4.581  12.054 -0.2847  0.8479 -0.3220
   53TMC2    H2  816   2.615   4.647  12.434  0.8286  3.7061 -0.3492
   53TMC2    C7  817   2.385   4.637  12.294  0.1412  0.3302  0.3159
   53TMC2    C8  818   2.859   4.619  12.343 -0.3227  0.1202 -0.6908
   53TMC2    O1  819   2.308   4.684  12.209  0.2640 -0.6440 -0.4122
   53TMC2    O2  820   2.877   4.690  12.445 -0.3787  0.4670 -0.4062
   53TMC2    O5  821   2.918   4.502  12.316  0.5175 -0.1674  0.0529
   53TMC2    H5  822   2.897   4.468  12.226 -0.2196 -0.3534  0.2955
   54MPD2     C  823   2.633   4.618  11.618 -0.1410  0.2366 -0.6530
   54MPD2    C1  824   2.534   4.634  11.715  0.1716 -0.9245  0.3807
   54MPD2    C2  825   2.402   4.639  11.666 -0.2487 -0.1310 -0.2980
   54MPD2    C3  826   2.369   4.627  11.533 -0.2755  0.3296 -0.3389
   54MPD2    C4  827   2.473   4.620  11.439 -0.2343 -0.4685 -0.2818
   54MPD2    C5  828   2.603   4.608  11.483  0.0924  0.0964 -0.2689
   54MPD2     H  829   2.320   4.657  11.734 -1.1457  1.4790 -1.7798
   54MPD2    H1  830   2.453   4.614  11.333 -0.3929 -1.3075 -0.2051
   54MPD2    H2  831   2.735   4.617  11.655  0.2010  2.4102 -1.5131
   54MPD2    H3  832   2.686   4.604  11.413  0.3184  3.7139 -0.1709
   54MPD2     N  833   2.237   4.630  11.487 -0.2625 -0.1009 -0.1757
   54MPD2    H5  834   2.229   4.638  11.387 -0.5891  0.3235 -0.1169
   54MPD2    N1  835   2.556   4.628  11.851  0.2285 -0.6165  0.6882
   54MPD2    H7  836   2.487   4.684  11.900 -1.1787 -0.8368 -1.0341
   55MPD2     C  837   2.802   2.288  17.596 -0.3054 -0.2110  0.2426
   55MPD2    C1  838   2.784   2.211   0.018  0.4621  0.6421  0.5561
   55MPD2    C2  839   2.714   2.270   0.123  0.0236 -0.1002  0.0583
   55MPD2    C3  840   2.675   2.404   0.109 -0.1886 -0.1582  0.6087
   55MPD2    C4  841   2.701   2.474  17.688  0.1025 -0.2612 -0.0310
   55MPD2    C5  842   2.762   2.416  17.586 -0.5911 -0.1672  0.0790
   55MPD2     H  843   2.675   2.216   0.208 -1.5083 -1.2407 -1.3776
   55MPD2    H1  844   2.678   2.579  17.676 -0.9554 -0.4345  0.4337
   55MPD2    H2  845   2.856   2.259  17.507  1.7934 -1.9647  2.1068
   55MPD2    H3  846   2.775   2.473  17.494 -0.4734  1.1982  0.9428
   55MPD2     N  847   2.599   2.460   0.218  0.3382 -0.2211  0.7808
   55MPD2    H5  848   2.546   2.396   0.277 -1.5710 -0.2116 -0.8805
   55MPD2    N1  849   2.804   2.070   0.009 -0.4309 -0.4642  0.0598
   55MPD2    H7  850   2.837   2.031  17.613  1.3325  0.4390  0.3271
   56TCq2    C1  851   2.792   1.980   0.114 -0.2525 -0.7282  0.4662
   56TCq2    O2  852   2.757   2.005   0.228 -0.5713  0.5741  0.6064
   56TCq2    C2  853   2.832   1.843   0.098  0.1182  0.1049  0.1275
   56TCq2    C3  854   2.802   1.785  17.666 -0.4590  0.9613  0.1894
   56TCq2    C4  855   2.800   1.644  17.661 -1.2751  0.3254 -0.5504
   56TCq2    C5  856   2.832   1.569   0.075 -1.4595  0.0112 -0.2529
   56TCq2    C6  857   2.844   1.634   0.200  0.5984  0.5326  0.2622
   56TCq2    C7  858   2.845   1.765   0.216 -0.5144 -0.4290  0.5082
   56TCq2    C8  859   2.827   1.539   0.311 -0.2015 -0.3348  0.6351
   56TCq2    O4  860   2.865   1.423   0.290  0.3732 -0.1118  0.4005
   56TCq2    C9  861   2.793   1.574  17.527 -0.1898 -0.4562  0.4319
   56TCq2    O5  862   2.854   1.460  17.532 -0.2244  0.4325  0.1836
   56TCq2    O6  863   2.736   1.625  17.427 -0.0491  0.3216 -0.3087
   56TCq2    H2  864   2.787   1.846  17.577 -0.1887 -0.8042 -1.0558
   56TCq2    H3  865   2.814   1.462   0.071  2.9810 -0.7646  0.4652
   56TCq2    H4  866   2.865   1.813   0.312  0.5930 -1.7011  0.9036
   57TMC2    C1  867   2.252   3.395  13.631 -0.4865 -0.7581 -0.7746
   57TMC2    C2  868   2.308   3.321  13.733 -0.0984 -0.2942 -0.2608
   57TMC2    C3  869   2.340   3.196  13.711  0.2811 -0.0432 -0.5225
   57TMC2    C4  870   2.254   3.344  13.501 -0.6816  0.6487 -0.6654
   57TMC2    C5  871   2.312   3.222  13.483 -0.8720  0.2124 -0.2945
   57TMC2    C6  872   2.349   3.142  13.589 -0.1590 -0.1555  0.7616
   57TMC2     C  873   2.186   3.520  13.674  0.2757  0.5008  0.2566
   57TMC2     O  874   2.204   3.558  13.791 -0.3777 -0.5256  0.0614
   57TMC2     H  875   2.319   3.369  13.829  1.4194 -0.4969 -0.3287
   57TMC2    H1  876   2.222   3.406  13.418 -2.8822  2.2993  1.4275
   57TMC2    H2  877   2.358   3.035  13.570  2.0866 -0.2320  2.3116
   57TMC2    C7  878   2.334   3.179  13.349 -0.0984 -0.3595  0.5507
   57TMC2    C8  879   2.371   3.123  13.828  0.3396 -0.1302  0.0050
   57TMC2    O1  880   2.275   3.234  13.255 -0.0597 -0.4061 -0.1952
   57TMC2    O2  881   2.435   3.161  13.925 -0.3268  0.5771  0.2469
   57TMC2    O5  882   2.258   3.048  13.827  0.2212  0.1866 -0.4540
   57TMC2    H5  883   2.204   3.053  13.746  0.0666  0.1586 -0.3534
   58MPD2     C  884   1.752   3.789  13.644 -0.0668 -0.6649  0.5752
   58MPD2    C1  885   1.810   3.724  13.748 -0.2891 -0.4299 -0.5884
   58MPD2    C2  886   1.934   3.669  13.732 -0.1252 -0.0938  0.0080
   58MPD2    C3  887   1.998   3.670  13.609 -0.2465 -0.1087  1.1081
   58MPD2    C4  888   1.935   3.741  13.508  0.8127  0.1655 -0.0954
   58MPD2    C5  889   1.814   3.797  13.524 -0.4436  0.3521  0.6420
   58MPD2     H  890   1.973   3.608  13.812  0.9980 -1.6937 -1.7484
   58MPD2    H1  891   1.985   3.745  13.412  0.8313  1.1452 -0.0439
   58MPD2    H2  892   1.655   3.834  13.657  0.2893  0.7436 -1.8064
   58MPD2    H3  893   1.769   3.842  13.436 -1.0732  0.3405  0.9599
   58MPD2     N  894   2.107   3.580  13.578 -0.2898  0.5889 -0.1119
   58MPD2    H5  895   2.130   3.553  13.483  0.0853  2.7945 -0.6578
   58MPD2    N1  896   1.759   3.729  13.874  0.1220  0.0216  0.8694
   58MPD2    H7  897   1.808   3.689  13.953 -1.9443 -1.9544  1.1318
   59MPD2     C  898   4.464   3.409  13.370 -0.2732 -0.5459 -0.2569
   59MPD2    C1  899   4.529   3.446  13.260  0.5047 -0.0589  0.0579
   59MPD2    C2  900   4.641   3.531  13.270  0.3697 -0.4422  0.7834
   59MPD2    C3  901   4.694   3.566  13.397 -0.7683  0.8511  0.2874
   59MPD2    C4  902   4.615   3.542  13.505 -0.6291  0.3984  0.5776
   59MPD2    C5  903   4.508   3.453  13.489 -0.5529 -0.0491 -0.3337
   59MPD2     H  904   4.700   3.558  13.183 -1.6672 -0.1582 -0.5014
   59MPD2    H1  905   4.650   3.568  13.604  1.3464 -3.2208  0.8468
   59MPD2    H2  906   4.368   3.361  13.353 -0.5370 -0.4719  0.9733
   59MPD2    H3  907   4.452   3.436  13.581 -0.0496  1.0457  0.1780
   59MPD2     N  908   0.091   3.632  13.410 -0.3174 -0.9448 -0.4065
   59MPD2    H5  909   0.112   3.667  13.502  0.8848 -0.3623 -0.9064
   59MPD2    N1  910   4.482   3.416  13.128  0.1862  0.0682 -0.3143
   59MPD2    H7  911   4.536   3.443  13.046 -0.3609  1.6015 -0.1753
   60TCq2    C1  912   4.371   3.345  13.100  0.7232  1.2572 -0.1647
   60TCq2    O2  913   4.272   3.312  13.166 -0.1614 -0.5130  0.0969
   60TCq2    C2  914   4.350   3.312  12.959  0.0382 -0.1009 -0.4647
   60TCq2    C3  915   4.227   3.256  12.931  0.6476  0.0748  0.5104
   60TCq2    C4  916   4.177   3.263  12.803  0.1556 -0.1032  0.1532
   60TCq2    C5  917   4.255   3.310  12.704  0.1097  0.1765 -0.0388
   60TCq2    C6  918   4.386   3.354  12.735  0.3216 -0.2393  0.1087
   60TCq2    C7  919   4.434   3.361  12.864 -0.3753  0.1074 -0.3396
   60TCq2    C8  920   4.454   3.397  12.610 -0.3224  0.0552 -0.2834
   60TCq2    O4  921   4.573   3.375  12.602  0.2148 -0.3019 -0.4506
   60TCq2    C9  922   4.057   3.200  12.771 -1.4432 -0.0115 -0.6794
   60TCq2    O5  923   4.044   3.165  12.651  0.2913 -0.3540  0.0421
   60TCq2    O6  924   3.981   3.163  12.862 -0.1765  0.3476  0.1754
   60TCq2    H2  925   4.153   3.228  13.005  1.2373 -2.3448  0.1801
   60TCq2    H3  926   4.214   3.310  12.604  3.4453 -2.1668 -1.3834
   60TCq2    H4  927   4.542   3.372  12.867 -0.3195 -0.1323 -1.3222
   61MPD2     C  928   4.232   0.242  15.313 -0.3201  0.4674  0.0333
   61MPD2    C1  929   4.095   0.254  15.266 -0.2752 -0.6832 -0.5218
   61MPD2    C2  930   4.068   0.305  15.141 -0.2603 -0.9097 -0.2699
   61MPD2    C3  931   4.169   0.347  15.058  0.3598  0.1979  0.0247
   61MPD2    C4  932   4.301   0.327  15.106 -0.0409  0.4387  0.4134
   61MPD2    C5  933   4.332   0.281  15.231  0.5180 -0.6404 -0.7193
   61MPD2     H  934   3.965   0.321  15.111 -0.2919 -0.8241 -0.1144
   61MPD2    H1  935   4.383   0.356  15.042 -2.7310  1.6268 -2.4933
   61MPD2    H2  936   4.264   0.190  15.402 -0.5038 -0.0724 -0.2144
   61MPD2    H3  937   4.434   0.283  15.266  0.7003 -3.5222 -1.0857
   61MPD2     N  938   4.162   0.424  14.940  0.4545 -0.0832 -0.2460
   61MPD2    H5  939   4.249   0.463  14.905 -0.0330  0.3140 -1.0303
   61MPD2    N1  940   3.982   0.237  15.349 -0.4102  0.0267 -0.5531
   61MPD2    H7  941   3.899   0.279  15.309 -1.7391 -0.2231  1.9828
   62TCq2    C1  942   3.976   0.154  15.462  0.3960 -0.1697  0.5424
   62TCq2    O2  943   4.066   0.077  15.501 -0.5379  0.1481 -0.4069
   62TCq2    C2  944   3.837   0.155  15.516 -0.4589 -0.2406  0.0892
   62TCq2    C3  945   3.778   0.034  15.487 -0.1052 -0.1109 -0.2987
   62TCq2    C4  946   3.642   0.020  15.458 -0.2593  0.0336  0.0732
   62TCq2    C5  947   3.577   0.134  15.412  0.0998  0.1617  0.0109
   62TCq2    C6  948   3.642   0.256  15.418 -0.4433  0.5073  0.2282
   62TCq2    C7  949   3.767   0.267  15.475 -0.5973 -0.0697 -0.2456
   62TCq2    C8  950   3.627   0.362  15.321 -0.4258  0.6934 -0.2204
   62TCq2    O4  951   3.720   0.435  15.296  0.0871 -0.2754  0.1588
   62TCq2    C9  952   3.586   4.622  15.435 -0.0486 -0.5945 -0.1604
   62TCq2    O5  953   3.462   4.619  15.402 -0.2305  0.0443 -0.0172
   62TCq2    O6  954   3.659   4.520  15.441 -0.7709  0.1496  0.1415
   62TCq2    H2  955   3.836   4.669  15.513 -1.3423 -0.2449  1.9809
   62TCq2    H3  956   3.481   0.113  15.365  0.1840 -0.4565  0.1250
   62TCq2    H4  957   3.816   0.364  15.479  0.9508 -0.9084  0.8982
   63TMC2    C1  958   3.612   0.411  10.216 -0.1768  0.0169 -0.0729
   63TMC2    C2  959   3.636   0.396  10.352  0.0344  0.0886 -0.1027
   63TMC2    C3  960   3.713   0.493  10.407  0.2026  0.4554 -0.1200
   63TMC2    C4  961   3.666   0.513  10.141 -0.1886 -0.7013  0.2984
   63TMC2    C5  962   3.744   0.602  10.209  0.0508  0.4522 -0.4127
   63TMC2    C6  963   3.764   0.598  10.342 -0.0972 -0.4021  0.6233
   63TMC2     C  964   3.535   0.311  10.149 -0.5522  0.7241 -0.1198
   63TMC2     O  965   3.488   0.342  10.042 -0.1127  0.0666 -0.4139
   63TMC2     H  966   3.575   0.336  10.419 -3.0237  1.5881 -1.5587
   63TMC2    H1  967   3.666   0.506  10.033 -0.7597  2.6461  0.0757
   63TMC2    H2  968   3.817   0.675  10.396 -0.5650  0.2015  0.2079
   63TMC2    C7  969   3.772   0.726  10.142 -0.1588  0.3131 -0.4100
   63TMC2    C8  970   3.723   0.495  10.552 -0.2050 -1.0095  0.4167
   63TMC2    O1  971   3.698   0.746  10.045 -0.1188 -0.8080 -0.6642
   63TMC2    O2  972   3.748   0.601  10.610 -0.0815 -0.1711  0.1003
   63TMC2    O5  973   3.680   0.377  10.602 -0.0078 -0.2961  0.4631
   63TMC2    H5  974   3.636   0.379  10.690 -0.6897  0.8058  0.1088
   64MPD2     C  975   3.344   4.563  10.130  0.1881 -0.1843  0.0530
   64MPD2    C1  976   3.382   4.589  10.258 -0.2628 -0.0336  0.8302
   64MPD2    C2  977   3.457   4.704  10.277 -0.5152  0.3213  0.0356
   64MPD2    C3  978   3.466   0.075  10.174  0.0266 -0.4809  0.2208
   64MPD2    C4  979   3.411   0.054  10.048  0.3468  0.2578 -0.9692
   64MPD2    C5  980   3.364   4.650  10.029 -0.2747 -0.0740 -0.7372
   64MPD2     H  981   3.495   0.011  10.374  1.1509  0.0511 -0.5310
   64MPD2    H1  982   3.425   0.122   9.965  2.0994  1.4538  0.2869
   64MPD2    H2  983   3.284   4.476  10.106 -1.0141  0.5398  0.4157
   64MPD2    H3  984   3.339   4.621   9.927  0.9353 -0.3302 -0.9703
   64MPD2     N  985   3.547   0.187  10.210 -0.0468  0.6897  0.0603
   64MPD2    H5  986   3.603   0.176  10.294 -1.5563  0.6336  1.0542
   64MPD2    N1  987   3.375   4.493  10.360 -0.3304 -0.0097 -0.0965
   64MPD2    H7  988   3.423   4.519  10.446 -0.5116 -0.3429  0.1036
   65MPD2     C  989   4.595   4.244  15.994 -0.1118 -0.2263  0.1489
   65MPD2    C1  990   4.606   4.220  15.856 -0.1520  0.2864 -0.3991
   65MPD2    C2  991   4.608   4.089  15.806 -1.0530 -0.6031 -0.5295
   65MPD2    C3  992   4.616   3.983  15.898 -0.9712 -0.1966 -0.4289
   65MPD2    C4  993   4.624   4.012  16.037  0.4329  0.0471  0.0343
   65MPD2    C5  994   4.611   4.141  16.084  0.2525 -0.0100  0.8438
   65MPD2     H  995   4.610   4.075  15.699  0.7254  0.3658 -0.6350
   65MPD2    H1  996   4.643   3.930  16.105 -1.3946 -0.2879  0.1302
   65MPD2    H2  997   4.578   4.343  16.035 -2.4694 -0.3746 -0.4836
   65MPD2    H3  998   4.612   4.163  16.190  3.1773 -0.0793  0.8321
   65MPD2     N  999   4.605   3.846  15.855 -0.3294 -0.6984 -0.0206
   65MPD2    H5 1000   4.603   3.777  15.929 -2.5901 -0.3798  0.2289
   65MPD2    N1 1001   4.603   4.327  15.763  0.1009  0.3389 -0.3728
   65MPD2    H7 1002   4.622   4.297  15.668  2.9748 -1.5018  0.7924
   66TCq2    C1 1003   4.602   4.460  15.787 -0.5211  0.1908  0.3139
   66TCq2    O2 1004   4.572   4.520  15.884  0.1339  0.0314  0.1515
   66TCq2    C2 1005   4.641   4.535  15.668  0.4631 -0.3459  0.8676
   66TCq2    C3 1006   0.007   4.489  15.580  0.1401 -0.4770  0.2841
   66TCq2    C4 1007   0.066   4.580  15.500  0.4329  0.1811  0.9257
   66TCq2    C5 1008   0.053   4.715  15.508 -0.1817  0.5167 -0.3280
   66TCq2    C6 1009   4.684   0.039  15.601 -0.1277 -0.1885 -0.2805
   66TCq2    C7 1010   4.618   4.673  15.685 -0.1295 -0.5972  0.4722
   66TCq2    C8 1011   4.638   0.173  15.590  0.1164 -0.2758  0.2846
   66TCq2    O4 1012   4.664   0.247  15.492 -0.3604  0.6689  0.3663
   66TCq2    C9 1013   0.141   4.530  15.395  0.5705 -0.5023  0.1922
   66TCq2    O5 1014   0.098   4.414  15.360  0.1944 -0.4465  0.1066
   66TCq2    O6 1015   0.220   4.612  15.343 -0.2309  0.3494  0.0667
   66TCq2    H2 1016   0.029   4.384  15.566  0.9925 -0.5178  1.9689
   66TCq2    H3 1017   0.084   0.056  15.426  0.7371 -0.9328 -1.0779
   66TCq2    H4 1018   4.535   4.702  15.747 -0.8039  1.4889 -1.3988
   67MPD2     C 1019   4.547   4.041  14.136  0.0177  0.1128 -0.5986
   67MPD2    C1 1020   4.474   4.127  14.229 -0.3624  0.1882 -0.3339
   67MPD2    C2 1021   4.354   4.177  14.184 -0.1834  0.4672 -0.5027
   67MPD2    C3 1022   4.296   4.146  14.062 -0.4007  0.8198  0.5194
   67MPD2    C4 1023   4.372   4.067  13.975 -0.5427  0.6059  0.4477
   67MPD2    C5 1024   4.497   4.022  14.007  0.2203 -1.2600  0.9978
   67MPD2     H 1025   4.303   4.241  14.255 -0.5181 -0.9021  0.4941
   67MPD2    H1 1026   4.334   4.037  13.878  2.2971 -2.1068  0.1801
   67MPD2    H2 1027   4.644   4.003  14.164 -1.0237 -2.1781 -0.1421
   67MPD2    H3 1028   4.551   3.953  13.942  2.4795  0.6322  0.8865
   67MPD2     N 1029   4.172   4.197  14.024  0.4034  0.3021  0.3795
   67MPD2    H5 1030   4.143   4.186  13.928  0.0326  1.4887  0.3438
   67MPD2    N1 1031   4.522   4.157  14.355 -0.8173  0.0463 -0.5631
   67MPD2    H7 1032   4.469   4.226  14.408  1.7120 -0.7542  2.9991
   68TCq2    C1 1033   4.637   4.110  14.413  0.1138 -0.2211 -0.5759
   68TCq2    O2 1034   4.700   4.008  14.383 -0.3798 -0.0936 -0.7072
   68TCq2    C2 1035   4.673   4.170  14.539 -0.1212  0.0060 -0.0954
   68TCq2    C3 1036   4.618   4.291  14.579 -0.5617  0.5307  0.5875
   68TCq2    C4 1037   4.674   4.361  14.686 -0.4420 -0.7240  0.5737
   68TCq2    C5 1038   0.059   4.307  14.757  0.6032  0.4963 -0.5216
   68TCq2    C6 1039   0.110   4.190  14.706 -0.4820 -0.1318  0.1078
   68TCq2    C7 1040   0.057   4.117  14.606  0.6470 -0.1001 -0.1714
   68TCq2    C8 1041   0.231   4.144  14.765  0.1167 -0.1273 -0.3999
   68TCq2    O4 1042   0.304   4.077  14.697  0.5861  0.0228 -0.2107
   68TCq2    C9 1043   4.613   4.482  14.737 -0.1139 -0.9335 -0.1137
   68TCq2    O5 1044   4.494   4.510  14.694 -0.3612 -0.0578  0.9473
   68TCq2    O6 1045   4.655   4.535  14.846  0.4286 -0.1734  0.0520
   68TCq2    H2 1046   4.529   4.334  14.533 -0.8301 -1.7256 -0.9820
   68TCq2    H3 1047   0.085   4.357  14.850 -2.5317  0.5139  0.3561
   68TCq2    H4 1048   0.123   4.045  14.560  2.2477  0.8196  0.6861
   69TMC2    C1 1049   1.676   0.616  11.994  0.3511  0.1059 -0.0805
   69TMC2    C2 1050   1.566   0.606  11.923  0.5508  0.5973 -0.0383
   69TMC2    C3 1051   1.566   0.623  11.789  0.3756 -0.0893 -0.8039
   69TMC2    C4 1052   1.796   0.636  11.930 -0.1618 -0.1813 -1.2407
   69TMC2    C5 1053   1.792   0.638  11.795  0.5214  0.1842  0.4036
   69TMC2    C6 1054   1.680   0.648  11.716  0.7569  0.1352  0.2444
   69TMC2     C 1055   1.655   0.598  12.140 -0.3967  0.7502  0.3352
   69TMC2     O 1056   1.544   0.595  12.186  0.2700  0.0191 -0.2227
   69TMC2     H 1057   1.470   0.596  11.973  0.1300 -0.1522 -0.9900
   69TMC2    H1 1058   1.876   0.672  11.992  0.2783 -0.2658 -1.7637
   69TMC2    H2 1059   1.674   0.622  11.611  1.5360  0.0358  0.2249
   69TMC2    C7 1060   1.918   0.642  11.735 -0.5575  0.4626 -0.4765
   69TMC2    C8 1061   1.450   0.571  11.726  1.2217 -0.1412 -0.3409
   69TMC2    O1 1062   1.997   0.573  11.796  0.9339  0.1944 -0.4929
   69TMC2    O2 1063   1.398   0.608  11.619  0.3815  0.0591  0.3430
   69TMC2    O5 1064   1.414   0.460  11.797 -0.3017  0.5619 -0.1956
   69TMC2    H5 1065   1.480   0.441  11.867 -0.1271  0.5269 -0.3681
   70MPD2     C 1066   1.945   0.573  12.370  0.5129  0.2054 -0.0622
   70MPD2    C1 1067   1.810   0.566  12.332  0.1690 -0.1262  0.3011
   70MPD2    C2 1068   1.712   0.525  12.422 -0.3130  0.1758  0.6910
   70MPD2    C3 1069   1.759   0.492  12.543 -0.6128  0.1195  0.0987
   70MPD2    C4 1070   1.886   0.490  12.582 -0.6499  0.5886  0.4893
   70MPD2    C5 1071   1.983   0.530  12.494 -0.0970 -0.2640 -0.4255
   70MPD2     H 1072   1.608   0.518  12.394 -0.0517  0.8715 -0.4645
   70MPD2    H1 1073   1.906   0.440  12.676  0.9311 -1.0747 -0.7236
   70MPD2    H2 1074   2.012   0.609  12.294 -0.1632  2.0423  0.2010
   70MPD2    H3 1075   2.091   0.524  12.506 -0.0993  1.1802  0.3099
   70MPD2     N 1076   1.680   0.449  12.648  0.2505 -0.5588 -0.1218
   70MPD2    H5 1077   1.725   0.397  12.722 -2.0962 -1.2997  0.7807
   70MPD2    N1 1078   1.777   0.584  12.199 -0.2334 -0.1306  0.0207
   70MPD2    H7 1079   1.858   0.580  12.138 -0.9892  1.8970 -1.1573
   71TMC2    C1 1080   4.303   0.667   1.377  0.1223  0.1464 -0.0033
   71TMC2    C2 1081   4.419   0.701   1.440  0.3153  0.5372  0.6261
   71TMC2    C3 1082   4.411   0.715   1.576 -0.4382 -0.4799 -0.5379
   71TMC2    C4 1083   4.182   0.648   1.436 -0.2293  0.5499 -0.1602
   71TMC2    C5 1084   4.182   0.662   1.577 -0.5955  0.0976 -0.0309
   71TMC2    C6 1085   4.294   0.702   1.639  0.0208  0.2599 -0.2172
   71TMC2     C 1086   4.315   0.657   1.233 -0.5882 -0.2006 -0.6918
   71TMC2     O 1087   4.416   0.699   1.173 -0.0861  0.0689 -0.2312
   71TMC2     H 1088   4.510   0.722   1.384  0.4872 -2.6265 -0.2990
   71TMC2    H1 1089   4.089   0.650   1.379  0.5308  1.5998 -1.3748
   71TMC2    H2 1090   4.293   0.715   1.746 -2.2652 -0.0175 -0.2071
   71TMC2    C7 1091   4.054   0.683   1.645  0.2916  0.0117 -0.3194
   71TMC2    C8 1092   4.526   0.764   1.647 -0.3463  0.1504 -0.7504
   71TMC2    O1 1093   4.069   0.743   1.750  0.0046  0.2211 -0.1276
   71TMC2    O2 1094   4.635   0.754   1.595 -0.1013  0.4362  0.2296
   71TMC2    O5 1095   4.480   0.872   1.708 -0.3732  0.3599 -0.5122
   71TMC2    H5 1096   4.383   0.888   1.714 -0.0392  2.5892 -1.1687
   72MPD2     C 1097   4.156   0.485   0.772 -0.5170  0.1198 -0.0359
   72MPD2    C1 1098   4.258   0.569   0.807  0.2438  0.2483  0.4157
   72MPD2    C2 1099   4.281   0.595   0.940 -0.3402 -0.1970 -0.1827
   72MPD2    C3 1100   4.194   0.549   1.037 -0.0063 -0.9665  0.2452
   72MPD2    C4 1101   4.098   0.460   1.003  0.1762  0.2279  0.1599
   72MPD2    C5 1102   4.074   0.429   0.869 -0.0953 -0.5666  0.3562
   72MPD2     H 1103   4.371   0.645   0.972 -0.6260 -0.4971  1.0718
   72MPD2    H1 1104   4.030   0.420   1.078  2.2237  0.0826  1.9299
   72MPD2    H2 1105   4.129   0.457   0.671  1.2521  0.7394 -0.6801
   72MPD2    H3 1106   3.994   0.360   0.843 -0.9115  1.7083 -3.1414
   72MPD2     N 1107   4.211   0.585   1.175 -0.3290 -0.1850 -0.1830
   72MPD2    H5 1108   4.140   0.556   1.242 -0.4529 -1.3918 -0.8334
   72MPD2    N1 1109   4.339   0.633   0.712 -0.4115  0.2443  0.1090
   72MPD2    H7 1110   4.391   0.712   0.748  0.0799  0.2706 -0.6610
   73TMC2    C1 1111   4.408   2.795  14.652  0.4447 -0.4096 -0.6842
   73TMC2    C2 1112   4.535   2.730  14.661 -1.2450 -0.0853 -0.5060
   73TMC2    C3 1113   4.622   2.781  14.752  0.3078 -0.4685 -0.0686
   73TMC2    C4 1114   4.380   2.909  14.717  0.2373 -0.3153  0.7088
   73TMC2    C5 1115   4.481   2.956  14.806 -0.9080  0.1674 -0.0028
   73TMC2    C6 1116   4.594   2.887  14.834 -0.4462  0.8049 -0.2816
   73TMC2     C 1117   4.381   2.819  14.507  0.8019  0.0979 -0.5769
   73TMC2     O 1118   4.392   2.939  14.477  0.2319 -0.2861  0.0939
   73TMC2     H 1119   4.557   2.632  14.619 -3.1753 -1.0586  0.7321
   73TMC2    H1 1120   4.286   2.959  14.697  2.0570  3.0899  0.5915
   73TMC2    H2 1121   4.658   2.903  14.920 -0.3261 -0.5482 -0.1156
   73TMC2    C7 1122   4.498   3.097  14.784 -0.2818 -0.1404  0.7230
   73TMC2    C8 1123   0.023   2.714  14.781 -0.0198 -0.1907  0.2842
   73TMC2    O1 1124   4.566   3.163  14.864  0.1198  0.0272  0.1816
   73TMC2    O2 1125   0.028   2.602  14.826 -0.0095 -0.0340  0.0033
   73TMC2    O5 1126   0.114   2.806  14.817  0.4596 -0.5594  0.5360
   73TMC2    H5 1127   0.099   2.890  14.768 -0.3190 -0.7498  0.4498
   74MPD2     C 1128   4.383   2.708  14.008  1.2891  0.5848  0.6755
   74MPD2    C1 1129   4.409   2.826  14.078  0.2843  0.2715 -0.3543
   74MPD2    C2 1130   4.404   2.822  14.219  0.5055  0.1646  0.4769
   74MPD2    C3 1131   4.382   2.706  14.291 -0.1961  0.1368  0.1883
   74MPD2    C4 1132   4.376   2.592  14.216 -0.6693 -0.0355  0.0105
   74MPD2    C5 1133   4.369   2.595  14.076 -0.2486  0.7843  0.2599
   74MPD2     H 1134   4.433   2.911  14.274  2.7978  0.9617 -2.0369
   74MPD2    H1 1135   4.364   2.493  14.259  1.6626  0.8706  2.7557
   74MPD2    H2 1136   4.370   2.705  13.901 -2.0870  2.4070  1.0048
   74MPD2    H3 1137   4.354   2.498  14.031  0.1357  0.6317  0.4565
   74MPD2     N 1138   4.375   2.703  14.431 -0.0780 -1.3247 -0.4149
   74MPD2    H5 1139   4.376   2.618  14.487 -0.5574 -0.4740  0.8882
   74MPD2    N1 1140   4.442   2.944  14.010 -0.0811 -0.0411 -0.1622
   74MPD2    H7 1141   4.481   2.939  13.917 -0.3789  1.2764 -0.3549
   75TCq2    C1 1142   4.089   4.267  14.105 -0.0850 -0.0078  0.3877
   75TCq2    O2 1143   4.078   4.262  14.229  0.8024  0.0767 -0.0976
   75TCq2    C2 1144   4.009   4.363  14.035 -0.8000 -0.0480  0.5397
   75TCq2    C3 1145   3.903   4.415  14.103  0.1725 -0.1924  0.3614
   75TCq2    C4 1146   3.828   4.510  14.039 -0.0677 -0.5916 -0.4377
   75TCq2    C5 1147   3.845   4.541  13.910 -0.0619 -0.4315 -0.2425
   75TCq2    C6 1148   3.945   4.485  13.844 -0.3233 -0.4480  1.0114
   75TCq2    C7 1149   4.033   4.392  13.901  0.2617 -0.0710  0.9653
   75TCq2    C8 1150   3.923   4.470  13.705 -0.0334 -0.4624  0.5369
   75TCq2    O4 1151   3.983   4.380  13.650  0.7362 -0.6367  0.4913
   75TCq2    C9 1152   3.731   4.581  14.126  0.2344 -0.1387  1.0722
   75TCq2    O5 1153   3.674   4.679  14.073 -0.0307  0.4606 -1.1322
   75TCq2    O6 1154   3.700   4.529  14.236 -0.6001 -0.8254  0.2081
   75TCq2    H2 1155   3.888   4.394  14.209  2.1557  0.9558  0.8661
   75TCq2    H3 1156   3.788   4.626  13.873  1.9167  0.4698 -1.1830
   75TCq2    H4 1157   4.108   4.345  13.838  1.1893  2.7504 -0.0545
   76MPD2     C 1158   2.966   0.164  12.034 -0.0824 -0.5742  0.4471
   76MPD2    C1 1159   2.953   0.082  11.921 -0.1728  0.2962  0.3314
   76MPD2    C2 1160   3.030   4.688  11.918  0.5012  0.0393 -0.1613
   76MPD2    C3 1161   3.108   4.650  12.027 -0.3275  0.3284  0.0736
   76MPD2    C4 1162   3.117   0.018  12.132 -0.5323 -0.0287  0.3617
   76MPD2    C5 1163   3.052   0.136  12.135  0.1859  0.9754  0.2735
   76MPD2     H 1164   3.020   4.619  11.835  1.5939  0.3282 -0.5344
   76MPD2    H1 1165   3.192   4.713  12.206 -1.1324 -1.1522  0.5509
   76MPD2    H2 1166   2.905   0.253  12.044  1.9995  0.8069  0.9380
   76MPD2    H3 1167   3.057   0.203  12.220 -0.7124 -0.1444  1.2146
   76MPD2     N 1168   3.173   4.529  12.030 -0.3176  0.3787  0.5185
   76MPD2    H5 1169   3.231   4.515  12.113  2.0918 -3.1909 -1.7498
   76MPD2    N1 1170   2.858   0.100  11.817  0.3399  0.5224  0.2560
   76MPD2    H7 1171   2.880   0.046  11.735  0.2142 -1.4940  1.5543
   77TCq2    C1 1172   3.170   4.428  11.935  0.2898 -0.3090 -0.0376
   77TCq2    O2 1173   3.094   4.416  11.836 -0.0634 -0.8394  1.0548
   77TCq2    C2 1174   3.258   4.318  11.971  0.4570  0.2376 -0.9002
   77TCq2    C3 1175   3.194   4.197  11.939 -0.5747  0.3285 -0.5645
   77TCq2    C4 1176   3.236   4.087  12.002  0.0714  0.7800  0.0798
   77TCq2    C5 1177   3.337   4.091  12.098  0.4118  0.7413 -0.1772
   77TCq2    C6 1178   3.394   4.209  12.125 -0.4038 -0.3347 -0.4531
   77TCq2    C7 1179   3.364   4.328  12.062 -0.1093 -0.1111 -0.3313
   77TCq2    C8 1180   3.493   4.201  12.237  0.3435 -0.1810  0.2237
   77TCq2    O4 1181   3.522   4.092  12.290 -0.1590  0.7032  0.1017
   77TCq2    C9 1182   3.176   3.962  11.971  0.3806 -0.0058 -0.1207
   77TCq2    O5 1183   3.096   3.962  11.876 -0.0176  0.2131  0.3064
   77TCq2    O6 1184   3.225   3.868  12.036 -0.1040  0.4068  0.0360
   77TCq2    H2 1185   3.109   4.186  11.873  0.4151 -3.5596 -1.1965
   77TCq2    H3 1186   3.358   4.001  12.155  0.6963  0.7355 -0.2928
   77TCq2    H4 1187   3.416   4.421  12.082  0.1121 -0.3423  0.1635
   78MPD1     C 1188   3.443   0.195   2.352 -0.4067 -0.3389  0.1511
   78MPD1    C1 1189   3.578   0.201   2.348  0.2563 -0.3012  0.7355
   78MPD1    C2 1190   3.645   0.185   2.231  0.5806  0.2670  0.3262
   78MPD1    C3 1191   3.571   0.165   2.117  0.2235  0.0234 -0.5501
   78MPD1    C4 1192   3.436   0.154   2.121  0.2422  0.8434 -0.7138
   78MPD1    C5 1193   3.371   0.163   2.242  0.1378 -0.1423 -0.3813
   78MPD1     H 1194   3.753   0.182   2.235  0.5993  2.1447  1.4301
   78MPD1    H1 1195   3.375   0.124   2.037 -0.3307  1.2677 -0.4520
   78MPD1    H2 1196   3.392   0.196   2.448  0.3644  0.8942  0.5447
   78MPD1    H3 1197   3.267   0.133   2.245  0.2280 -0.4710 -0.5462
   78MPD1     N 1198   3.630   0.167   1.989 -0.4065  0.2712 -0.1616
   78MPD1    H5 1199   3.574   0.129   1.913  2.2891 -1.0218 -1.5198
   78MPD1    N1 1200   3.643   0.215   2.474  0.4973  0.4606 -0.3884
   78MPD1    H6 1201   3.580   0.269   2.533 -0.6065 -0.0478 -1.1155
   78MPD1    H7 1202   3.732   0.263   2.460  0.1626  1.1708 -0.1052
   79TCq2    C1 1203   3.762   0.189   1.963  0.0103  0.0213  0.5577
   79TCq2    O2 1204   3.843   0.251   2.029 -0.1763  0.1929  0.2955
   79TCq2    C2 1205   3.791   0.164   1.815 -0.3203 -0.0807  0.2286
   79TCq2    C3 1206   3.729   0.059   1.760 -0.3651 -0.1444  0.0053
   79TCq2    C4 1207   3.755   0.035   1.627 -0.2283 -0.0407 -0.0534
   79TCq2    C5 1208   3.845   0.109   1.558  0.7844 -0.3754 -0.4202
   79TCq2    C6 1209   3.929   0.193   1.631  0.8800  0.2538 -0.1122
   79TCq2    C7 1210   3.907   0.216   1.762  0.0239  0.0081  0.5412
   79TCq2    C8 1211   4.055   0.241   1.585  0.0150  0.2606  0.2974
   79TCq2    O4 1212   4.134   0.290   1.669 -0.2714 -0.4316 -0.5812
   79TCq2    C9 1213   3.674   4.660   1.556  0.7650  0.1132 -0.4942
   79TCq2    O5 1214   3.730   4.601   1.456  0.1000  0.7508 -0.3083
   79TCq2    O6 1215   3.558   4.634   1.601  0.9652  0.5696 -0.2852
   79TCq2    H2 1216   3.650   0.002   1.808 -0.6229 -0.3134 -0.6218
   79TCq2    H3 1217   3.866   0.084   1.455  1.3164  0.7129 -0.5809
   79TCq2    H4 1218   3.957   0.298   1.811 -1.5450  1.3111 -0.0629
   80MPD2     C 1219   2.357   4.209  12.337  0.8123  0.2776  0.1662
   80MPD2    C1 1220   2.284   4.288  12.243  0.1260 -0.2567 -0.3296
   80MPD2    C2 1221   2.165   4.343  12.281 -1.0837 -0.9594  0.3474
   80MPD2    C3 1222   2.108   4.325  12.406  1.1436  0.0215 -0.0099
   80MPD2    C4 1223   2.173   4.243  12.494 -0.0726 -0.2275 -0.4165
   80MPD2    C5 1224   2.290   4.186  12.456 -0.0829 -0.3595  0.3446
   80MPD2     H 1225   2.103   4.395  12.208 -1.7304  1.0136  2.2981
   80MPD2    H1 1226   2.130   4.219  12.591  2.6981 -1.8599  0.4034
   80MPD2    H2 1227   2.450   4.157  12.318  0.9752 -0.1470  2.1418
   80MPD2    H3 1228   2.345   4.131  12.531  1.8069  0.7574 -0.2058
   80MPD2     N 1229   1.986   4.381  12.447 -0.0872  0.5698 -0.5107
   80MPD2    H5 1230   1.954   4.360  12.541  1.4180  0.5965  0.0072
   80MPD2    N1 1231   2.338   4.307  12.110 -0.7438 -0.4946 -0.0652
   80MPD2    H7 1232   2.290   4.362  12.040 -1.1665  0.3047  0.8409
   81TCq2    C1 1233   2.450   4.248  12.070  0.2177  1.0846 -0.0492
   81TCq2    O2 1234   2.551   4.210  12.125 -0.6798  0.0288 -0.0394
   81TCq2    C2 1235   2.455   4.252  11.925  0.0020  0.3289  0.6607
   81TCq2    C3 1236   2.583   4.245  11.872  0.2206  0.5552 -0.2035
   81TCq2    C4 1237   2.590   4.253  11.730  0.2910  0.0907  0.1238
   81TCq2    C5 1238   2.481   4.272  11.650 -0.6441 -0.3940 -0.0972
   81TCq2    C6 1239   2.358   4.272  11.708 -0.4472 -0.7402 -0.4332
   81TCq2    C7 1240   2.345   4.254  11.848 -0.2864 -0.1824  0.3896
   81TCq2    C8 1241   2.250   4.247  11.621  0.3260 -0.9623 -0.5495
   81TCq2    O4 1242   2.249   4.287  11.507 -0.5533 -0.0414 -0.2514
   81TCq2    C9 1243   2.715   4.225  11.666  0.7091 -0.2564 -0.0058
   81TCq2    O5 1244   2.826   4.209  11.731  0.2582 -0.1180 -0.8482
   81TCq2    O6 1245   2.718   4.220  11.539 -0.0031 -0.5304 -0.0847
   81TCq2    H2 1246   2.673   4.226  11.929 -0.4652 -1.0525  0.3179
   81TCq2    H3 1247   2.497   4.286  11.543  0.9137 -1.1033  0.0462
   81TCq2    H4 1248   2.251   4.232  11.898 -1.5639  0.9700 -1.5129
   82MPD2     C 1249   0.252   4.376  10.532  0.1368  0.0007 -0.1927
   82MPD2    C1 1250   0.180   4.266  10.494 -0.0423  0.9629 -0.5147
   82MPD2    C2 1251   0.202   4.146  10.564 -0.5154 -0.8950 -0.4854
   82MPD2    C3 1252   0.286   4.140  10.683 -0.1582  0.7802 -0.0271
   82MPD2    C4 1253   0.334   4.262  10.724  0.1639 -0.1542 -0.3256
   82MPD2    C5 1254   0.329   4.371  10.645 -0.6651 -0.6612  0.2105
   82MPD2     H 1255   0.156   4.055  10.527 -0.9281 -0.8180 -0.1583
   82MPD2    H1 1256   0.376   4.265  10.824 -2.4640 -1.6403  0.8165
   82MPD2    H2 1257   0.248   4.469  10.476 -0.3203 -0.0269 -0.2083
   82MPD2    H3 1258   0.370   4.462  10.688 -0.3862 -1.1292  0.9293
   82MPD2     N 1259   0.297   4.035  10.778  0.0279 -0.5455 -0.1576
   82MPD2    H5 1260   0.347   4.059  10.863  0.9644 -0.7080 -0.6628
   82MPD2    N1 1261   0.089   4.278  10.386  0.5905 -0.3043 -0.5607
   82MPD2    H7 1262   0.065   4.368  10.346 -0.2667 -0.1231  0.3418
   83TCq2    C1 1263   0.243   3.910  10.760 -0.0431  0.2159 -0.2698
   83TCq2    O2 1264   0.203   3.856  10.657  0.4876 -0.4797  0.2418
   83TCq2    C2 1265   0.225   3.839  10.885 -0.2345  0.1076  0.3105
   83TCq2    C3 1266   0.224   3.906  11.005 -0.0650 -0.0115  0.2192
   83TCq2    C4 1267   0.209   3.845  11.125  0.3413  0.4267 -0.0749
   83TCq2    C5 1268   0.173   3.710  11.126  0.8772  0.2164  0.2993
   83TCq2    C6 1269   0.166   3.646  11.012  0.0461  0.1649  0.0481
   83TCq2    C7 1270   0.178   3.708  10.888 -0.0710 -0.4941 -0.0308
   83TCq2    C8 1271   0.118   3.511  11.018  0.0526  0.3734 -0.5330
   83TCq2    O4 1272   0.068   3.477  11.124  0.2286 -0.3128  0.5293
   83TCq2    C9 1273   0.219   3.921  11.251  0.1737 -0.2181  0.6873
   83TCq2    O5 1274   0.280   4.031  11.252 -0.3614  0.3303 -0.1557
   83TCq2    O6 1275   0.153   3.881  11.353  0.7366  0.0909  0.3791
   83TCq2    H2 1276   0.249   4.012  11.012 -2.6826  0.5274  1.5965
   83TCq2    H3 1277   0.178   3.657  11.220  0.9576 -0.2087  0.0588
   83TCq2    H4 1278   0.166   3.647  10.799 -1.6468 -0.5036  0.1807
   84TCq2    C1 1279   1.568   2.860  10.419 -0.2449  0.6910 -0.0886
   84TCq2    O2 1280   1.464   2.814  10.463 -0.1345 -0.1854 -0.2204
   84TCq2    C2 1281   1.670   2.873  10.519  0.4671  0.2900 -0.8771
   84TCq2    C3 1282   1.795   2.922  10.482 -0.3012 -0.1801 -0.1009
   84TCq2    C4 1283   1.879   2.972  10.578 -0.9239 -0.9481  0.2023
   84TCq2    C5 1284   1.843   2.986  10.709  0.0938  0.5354  0.5086
   84TCq2    C6 1285   1.721   2.938  10.745 -0.3391  0.2531  0.0730
   84TCq2    C7 1286   1.634   2.875  10.654  0.7127 -0.6016  0.2792
   84TCq2    C8 1287   1.664   2.971  10.872  0.4959  0.0812 -0.9500
   84TCq2    O4 1288   1.561   2.913  10.907 -0.2546 -0.0961  0.4183
   84TCq2    C9 1289   2.008   3.016  10.546 -0.5707 -0.3701 -0.0447
   84TCq2    O5 1290   2.081   3.081  10.626 -0.3249 -0.1214  0.3178
   84TCq2    O6 1291   2.057   2.950  10.455 -0.8055 -0.6325 -0.0298
   84TCq2    H2 1292   1.839   2.909  10.384 -0.1929 -1.0759  0.0681
   84TCq2    H3 1293   1.925   3.014  10.774  1.8276 -2.2130 -0.4687
   84TCq2    H4 1294   1.534   2.848  10.685 -0.1295  2.4175  0.2511
   85MPD2     C 1295   1.769   0.705  16.317 -0.2150  0.2404 -0.1188
   85MPD2    C1 1296   1.732   0.643  16.197  0.1618 -0.5715  0.8962
   85MPD2    C2 1297   1.743   0.717  16.082  0.6126  0.1691 -0.6166
   85MPD2    C3 1298   1.769   0.852  16.091 -0.1460 -0.1036 -1.2197
   85MPD2    C4 1299   1.788   0.912  16.211 -0.4127  0.4130 -0.1099
   85MPD2    C5 1300   1.799   0.835  16.330  0.8968 -0.2849 -0.5269
   85MPD2     H 1301   1.707   0.671  15.990 -1.2417 -0.1664  0.2777
   85MPD2    H1 1302   1.816   1.016  16.218  3.1844 -0.4698 -0.8531
   85MPD2    H2 1303   1.768   0.652  16.412 -1.6399 -0.3501 -0.4524
   85MPD2    H3 1304   1.827   0.866  16.430 -2.8237  0.3404  0.3232
   85MPD2     N 1305   1.786   0.927  15.973 -0.1535 -0.1964 -0.0705
   85MPD2    H5 1306   1.765   0.870  15.892  0.3190  0.5956 -0.7487
   85MPD2    N1 1307   1.696   0.506  16.176 -0.4862 -0.2151 -0.4774
   85MPD2    H7 1308   1.670   0.485  16.080  0.8352 -0.0027 -0.8776
   86TCq2    C1 1309   1.791   1.061  15.961  0.2241  0.2906 -0.1291
   86TCq2    O2 1310   1.788   1.144  16.049 -0.6816  0.7212 -0.1266
   86TCq2    C2 1311   1.783   1.099  15.821  0.3448  0.2548 -0.2825
   86TCq2    C3 1312   1.754   1.229  15.801 -0.3497  0.1286  0.6659
   86TCq2    C4 1313   1.772   1.282  15.678  0.2867 -0.3407 -0.2215
   86TCq2    C5 1314   1.838   1.214  15.581  0.5555 -0.0983 -0.3438
   86TCq2    C6 1315   1.858   1.079  15.598  0.7669 -0.5533  0.3116
   86TCq2    C7 1316   1.833   1.021  15.725  0.0047  0.0733 -0.9608
   86TCq2    C8 1317   1.909   0.996  15.494  0.2597 -0.3798 -0.5170
   86TCq2    O4 1318   1.922   0.878  15.520  0.1737 -0.0804  0.2981
   86TCq2    C9 1319   1.704   1.409  15.646 -0.0918  0.2577 -0.0784
   86TCq2    O5 1320   1.605   1.439  15.719  0.6494 -0.6399  0.5604
   86TCq2    O6 1321   1.740   1.471  15.541 -0.1195  0.0633 -0.2861
   86TCq2    H2 1322   1.704   1.295  15.870 -1.0232 -0.1465  0.4414
   86TCq2    H3 1323   1.849   1.274  15.491 -1.3621 -1.3489 -1.4126
   86TCq2    H4 1324   1.867   0.920  15.743  2.8487  1.3798  1.0161
   87MPD2     C 1325   3.432   3.884   1.115 -0.5862 -0.4018  0.8311
   87MPD2    C1 1326   3.503   3.842   1.006  0.1520 -0.3902 -0.1694
   87MPD2    C2 1327   3.438   3.808   0.883  0.3701 -0.4450  0.0496
   87MPD2    C3 1328   3.303   3.846   0.860  0.6953 -0.1266  0.9203
   87MPD2    C4 1329   3.233   3.890   0.975  0.0608  0.1516  0.2018
   87MPD2    C5 1330   3.301   3.903   1.095  0.1553  0.3596 -0.3246
   87MPD2     H 1331   3.496   3.777   0.796 -0.6508  0.7443 -1.0672
   87MPD2    H1 1332   3.127   3.913   0.977 -0.6345 -2.7408 -4.3958
   87MPD2    H2 1333   3.479   3.892   1.212 -3.1407 -0.7460  2.1084
   87MPD2    H3 1334   3.246   3.933   1.184 -2.1883  1.2137 -2.0593
   87MPD2     N 1335   3.237   3.838   0.735  0.2876  0.5556 -0.1041
   87MPD2    H5 1336   3.145   3.881   0.730  0.0205 -0.2738 -2.5556
   87MPD2    N1 1337   3.644   3.827   1.030  0.4580  0.0494  0.4082
   87MPD2    H7 1338   3.681   3.866   1.117  1.8352 -0.8096  0.1994
   88TCq2    C1 1339   3.739   3.784   0.944  0.0157 -0.4371 -0.8005
   88TCq2    O2 1340   3.715   3.727   0.838  0.3478  0.0799 -0.1252
   88TCq2    C2 1341   3.880   3.803   0.991 -0.6413 -0.5341  0.0226
   88TCq2    C3 1342   3.899   3.875   1.101 -0.0539  0.0502 -0.6581
   88TCq2    C4 1343   4.013   3.938   1.111  0.4803 -0.1220  0.2112
   88TCq2    C5 1344   4.112   3.941   1.016  0.3408  0.2010  0.8415
   88TCq2    C6 1345   4.097   3.861   0.907  0.0433  0.0606 -0.9099
   88TCq2    C7 1346   3.977   3.797   0.893  0.2107  0.4845  0.0753
   88TCq2    C8 1347   4.203   3.851   0.808  0.2834 -0.5142 -0.6639
   88TCq2    O4 1348   4.283   3.945   0.800 -0.1284  0.0116 -0.2511
   88TCq2    C9 1349   4.022   4.041   1.211  0.2417 -0.5569  0.1004
   88TCq2    O5 1350   4.126   4.105   1.222  0.0702  0.2510 -0.2538
   88TCq2    O6 1351   3.920   4.081   1.266 -0.5938 -0.4369 -0.1574
   88TCq2    H2 1352   3.834   3.879   1.187 -2.4688  1.6469 -2.5689
   88TCq2    H3 1353   4.201   4.002   1.024  0.5207  0.1152 -0.4858
   88TCq2    H4 1354   3.947   3.759   0.796  0.5455 -0.4704  0.3438
   89MPD2     C 1355   0.254   2.185   1.322  1.0431  0.1758  0.1884
   89MPD2    C1 1356   0.170   2.173   1.429  0.1874 -0.0703  0.2214
   89MPD2    C2 1357   0.140   2.285   1.507  0.1756  0.0881  0.4333
   89MPD2    C3 1358   0.185   2.410   1.471 -0.4150  0.2583 -0.0151
   89MPD2    C4 1359   0.254   2.428   1.353 -1.1651  0.3538  0.1071
   89MPD2    C5 1360   0.296   2.316   1.287 -0.6403 -0.0847 -0.0459
   89MPD2     H 1361   0.081   2.276   1.597 -1.7281  0.6047 -0.7408
   89MPD2    H1 1362   0.273   2.525   1.308  0.0817  0.3935  0.7158
   89MPD2    H2 1363   0.286   2.102   1.261 -1.6870  0.5827 -1.8051
   89MPD2    H3 1364   0.352   2.322   1.194 -0.4170  1.2411  0.1805
   89MPD2     N 1365   0.160   2.529   1.552 -1.1182  0.4234 -0.5449
   89MPD2    H5 1366   0.118   2.500   1.640 -0.8020 -0.0456 -0.5479
   89MPD2    N1 1367   0.110   2.053   1.468 -0.6898 -0.6408 -0.7107
   89MPD2    H7 1368   0.060   2.054   1.557  1.2473  1.1715  0.3531
   90TCq2    C1 1369   0.192   2.661   1.525 -0.3072 -0.3642 -0.2117
   90TCq2    O2 1370   0.254   2.707   1.428 -0.2830 -0.1102  0.2983
   90TCq2    C2 1371   0.136   2.753   1.623 -0.0685  0.7771 -0.1225
   90TCq2    C3 1372   0.052   2.709   1.724 -0.2573 -0.1495  0.6583
   90TCq2    C4 1373   4.720   2.799   1.811 -0.0372  0.6189  0.2779
   90TCq2    C5 1374   0.039   2.929   1.803 -0.0204  0.4348 -0.0356
   90TCq2    C6 1375   0.129   2.969   1.707 -0.6694  0.4136 -0.0495
   90TCq2    C7 1376   0.185   2.878   1.626 -0.2725  0.7384 -0.3446
   90TCq2    C8 1377   0.136   3.106   1.666 -0.7386 -0.1477  0.5650
   90TCq2    O4 1378   0.050   3.174   1.709 -0.3026  0.0543 -0.6821
   90TCq2    C9 1379   4.613   2.778   1.900  0.1602 -0.3457 -0.0834
   90TCq2    O5 1380   4.533   2.679   1.880  0.2470 -0.2709  0.5211
   90TCq2    O6 1381   4.595   2.876   1.978  0.0096  0.0437  0.5064
   90TCq2    H2 1382   0.010   2.609   1.731 -0.6727  0.1273  2.0746
   90TCq2    H3 1383   4.708   3.003   1.862  0.5343  0.6478  0.2027
   90TCq2    H4 1384   0.231   2.909   1.532  0.7108  0.8363  0.1702
   91TMC2    C1 1385   1.893   1.648  16.167 -1.0833 -0.3478  0.6561
   91TMC2    C2 1386   1.920   1.768  16.222 -0.0267  0.1667  0.5430
   91TMC2    C3 1387   1.815   1.836  16.282  0.0197  0.7854 -0.3249
   91TMC2    C4 1388   1.767   1.596  16.176 -0.9917 -0.1675 -0.2551
   91TMC2    C5 1389   1.673   1.658  16.241 -0.2448 -0.1374  0.7494
   91TMC2    C6 1390   1.696   1.779  16.301 -0.2744  0.2832 -0.1249
   91TMC2     C 1391   1.992   1.577  16.083  0.0402 -0.6898  0.2134
   91TMC2     O 1392   1.946   1.491  16.008  0.3234  0.6476 -0.1046
   91TMC2     H 1393   2.019   1.811  16.211 -0.5245  1.1880  0.1113
   91TMC2    H1 1394   1.758   1.494  16.139 -0.4629 -0.6043  0.7916
   91TMC2    H2 1395   1.620   1.829  16.359 -0.0512  1.0352 -0.4789
   91TMC2    C7 1396   1.557   1.581  16.281  0.3838  0.1198  0.6513
   91TMC2    C8 1397   1.851   1.933  16.383  0.1276 -0.0602  0.2629
   91TMC2    O1 1398   1.503   1.604  16.385 -0.4159 -0.3317  0.0133
   91TMC2    O2 1399   1.926   2.030  16.377 -0.4686 -0.1940  0.2943
   91TMC2    O5 1400   1.782   1.906  16.500  0.3441  0.3661 -0.6189
   91TMC2    H5 1401   1.754   1.812  16.508 -1.7259  1.1255  1.1325
   92MPD2     C 1402   2.250   1.498  15.950  1.1480  0.5893 -0.0334
   92MPD2    C1 1403   2.241   1.560  16.069  0.7994  0.2409 -0.1706
   92MPD2    C2 1404   2.353   1.593  16.142 -0.3591  0.6669  0.0196
   92MPD2    C3 1405   2.477   1.557  16.098 -1.3470  0.0896 -0.5329
   92MPD2    C4 1406   2.488   1.484  15.975 -0.1199 -0.0656 -0.1155
   92MPD2    C5 1407   2.376   1.453  15.902  0.7592 -0.2465  0.3309
   92MPD2     H 1408   2.351   1.641  16.239 -1.4911  0.2113  0.2225
   92MPD2    H1 1409   2.585   1.464  15.930  0.2875  0.0045  0.7326
   92MPD2    H2 1410   2.163   1.464  15.894  0.2060 -1.1362  2.5147
   92MPD2    H3 1411   2.382   1.397  15.809 -1.9024  2.0954 -1.2358
   92MPD2     N 1412   2.585   1.616  16.175  0.0259 -0.1131  0.2543
   92MPD2    H5 1413   2.557   1.667  16.259 -0.0239 -1.5155  1.1012
   92MPD2    N1 1414   2.114   1.596  16.135  0.5600 -0.0503 -0.2675
   92MPD2    H7 1415   2.121   1.664  16.210  0.6098 -0.6487  0.2727
   93MPD2     C 1416   3.494   1.627  13.989 -0.4195  0.4005 -0.1685
   93MPD2    C1 1417   3.472   1.739  13.908 -0.5061 -0.2950  0.4026
   93MPD2    C2 1418   3.341   1.768  13.868  0.2997  0.1450  0.0210
   93MPD2    C3 1419   3.231   1.699  13.909  0.5846 -0.0436 -0.4177
   93MPD2    C4 1420   3.250   1.579  13.983  0.3053  0.0484  0.5787
   93MPD2    C5 1421   3.381   1.550  14.022 -0.3371  0.8329  0.2470
   93MPD2     H 1422   3.325   1.856  13.806  0.6583  0.3405  0.2053
   93MPD2    H1 1423   3.168   1.515  14.013 -0.8473  0.9616 -0.6121
   93MPD2    H2 1424   3.592   1.606  14.030 -1.1117 -1.0584  0.7872
   93MPD2    H3 1425   3.385   1.456  14.076 -0.5335 -0.7297 -2.4686
   93MPD2     N 1426   3.109   1.754  13.867  0.3292 -0.3041 -0.5899
   93MPD2    H5 1427   3.106   1.817  13.787 -1.4651  0.6152  0.2095
   93MPD2    N1 1428   3.579   1.827  13.876  0.3189 -0.0276  0.1953
   93MPD2    H7 1429   3.561   1.923  13.848  0.8663  0.8955  3.0149
   94TCq2    C1 1430   3.709   1.802  13.903 -0.6718 -0.1045  0.0657
   94TCq2    O2 1431   3.764   1.706  13.944 -0.0229  0.3388  0.1073
   94TCq2    C2 1432   3.791   1.925  13.889  0.0744  0.0081 -1.0012
   94TCq2    C3 1433   3.739   2.050  13.933 -0.0903 -0.4417  0.3296
   94TCq2    C4 1434   3.825   2.159  13.946 -0.5415 -1.0650  0.1082
   94TCq2    C5 1435   3.962   2.146  13.924 -0.2359  0.6296 -0.2624
   94TCq2    C6 1436   4.002   2.017  13.901  0.5202 -0.4039 -0.7800
   94TCq2    C7 1437   3.920   1.909  13.886  0.0784  0.2230  0.2021
   94TCq2    C8 1438   4.146   1.994  13.909 -0.1313 -0.0855  0.3181
   94TCq2    O4 1439   4.196   1.917  13.827  0.4920 -0.8408 -0.2501
   94TCq2    C9 1440   3.771   2.283  13.996  0.0951 -0.6103  0.0321
   94TCq2    O5 1441   3.663   2.278  14.059  0.3344 -0.5871 -0.2404
   94TCq2    O6 1442   3.855   2.369  14.021 -0.5625  0.0732 -0.2079
   94TCq2    H2 1443   3.632   2.062  13.946  0.2247 -0.1649  2.6757
   94TCq2    H3 1444   4.031   2.229  13.937  1.0249 -0.3392 -0.8246
   94TCq2    H4 1445   3.964   1.811  13.868 -0.2483  0.1354 -0.1227
   95TMC2    C1 1446   3.864   3.906  16.290  0.0735  0.1961  0.8090
   95TMC2    C2 1447   3.874   3.899  16.430  1.1227  0.0583 -0.0789
   95TMC2    C3 1448   3.836   4.005  16.509  0.0604 -0.1378 -0.0750
   95TMC2    C4 1449   3.812   4.026  16.239  0.3127 -0.2722  0.0093
   95TMC2    C5 1450   3.775   4.128  16.326  0.0040 -0.0166  0.6603
   95TMC2    C6 1451   3.781   4.118  16.460 -0.4920  0.0114 -0.7264
   95TMC2     C 1452   3.909   3.797  16.210  0.1737  0.4554  0.3060
   95TMC2     O 1453   3.979   3.702  16.250 -0.3464 -0.4375  0.2043
   95TMC2     H 1454   3.931   3.814  16.467  3.0999  0.8086 -1.3597
   95TMC2    H1 1455   3.814   4.040  16.132 -0.9370 -1.8363 -0.2240
   95TMC2    H2 1456   3.747   4.198  16.525  2.1085  0.4626  0.0840
   95TMC2    C7 1457   3.773   4.264  16.268  0.4107 -0.1502 -0.6957
   95TMC2    C8 1458   3.855   4.011  16.658  0.4487  0.4094 -0.5726
   95TMC2    O1 1459   3.827   4.281  16.162 -0.2912  0.0015  0.3533
   95TMC2    O2 1460   3.799   4.096  16.728  0.0430  0.1362  0.3438
   95TMC2    O5 1461   3.962   3.937  16.694  0.4485 -0.0498  0.1317
   95TMC2    H5 1462   4.021   3.913  16.619 -1.9508  0.1327 -1.8336
   96MPD2     C 1463   3.882   3.621  15.725 -0.2895 -0.1758 -0.2095
   96MPD2    C1 1464   3.991   3.618  15.816 -0.3753 -0.1766  0.2561
   96MPD2    C2 1465   3.971   3.661  15.950  0.4821  0.0541  0.1829
   96MPD2    C3 1466   3.848   3.727  15.976  0.0216  0.1246  0.1979
   96MPD2    C4 1467   3.742   3.727  15.891  0.2491 -0.5851 -0.2868
   96MPD2    C5 1468   3.757   3.668  15.764 -0.5021  0.0387  0.0988
   96MPD2     H 1469   4.040   3.658  16.034 -0.8106  1.1612  1.2924
   96MPD2    H1 1470   3.639   3.752  15.913 -0.4864 -2.7867 -1.2571
   96MPD2    H2 1471   3.897   3.577  15.627  2.4609  0.5173 -0.0935
   96MPD2    H3 1472   3.669   3.662  15.701  0.1442 -1.3643 -0.6729
   96MPD2     N 1473   3.831   3.798  16.102  0.3396 -0.2060  0.7077
   96MPD2    H5 1474   3.744   3.851  16.106  0.6746  0.3815  0.3204
   96MPD2    N1 1475   4.119   3.583  15.775  0.1042 -0.2871  0.3821
   96MPD2    H7 1476   4.130   3.560  15.677  0.7906 -0.0285  0.3997
   97MPD2     C 1477   0.621   0.969   0.399  0.9167 -0.0798  0.4945
   97MPD2    C1 1478   0.632   1.108   0.377  0.3509  0.2631  0.1749
   97MPD2    C2 1479   0.737   1.160   0.295 -0.1636  0.7207 -0.1777
   97MPD2    C3 1480   0.822   1.083   0.220  0.2100  0.1551  0.6626
   97MPD2    C4 1481   0.809   0.946   0.238 -0.5743  0.0872  0.3628
   97MPD2    C5 1482   0.714   0.891   0.325 -0.8191  0.5922 -0.5134
   97MPD2     H 1483   0.741   1.267   0.283  1.3984  0.5469 -1.2090
   97MPD2    H1 1484   0.856   0.868   0.180 -1.3364 -0.4614  0.4755
   97MPD2    H2 1485   0.546   0.914   0.453  0.3634 -0.5730 -0.7652
   97MPD2    H3 1486   0.697   0.785   0.311  3.0478 -0.1248  0.1019
   97MPD2     N 1487   0.904   1.147   0.127  0.4429 -0.1119 -0.3446
   97MPD2    H5 1488   0.899   1.248   0.113  3.4761 -0.0340 -0.8320
   97MPD2    N1 1489   0.537   1.196   0.438 -0.1939 -0.2610  0.1982
   97MPD2    H7 1490   0.481   1.155   0.513  0.6581  1.1428  1.5948
   98TCq2    C1 1491   1.004   1.083   0.061  0.0603  0.2823  0.5977
   98TCq2    O2 1492   1.015   0.964   0.045 -0.1278  0.0530  0.0852
   98TCq2    C2 1493   1.088   1.168  17.671  0.3943 -0.0536 -0.0109
   98TCq2    C3 1494   1.127   1.118  17.553 -0.2263  0.0531  0.1350
   98TCq2    C4 1495   1.176   1.206  17.460  0.5898 -0.1614  0.0769
   98TCq2    C5 1496   1.221   1.333  17.499  0.1127  0.2546  0.1192
   98TCq2    C6 1497   1.181   1.377  17.625 -0.1192 -0.0309 -0.1409
   98TCq2    C7 1498   1.102   1.297   0.016  0.3136  0.0303  0.1867
   98TCq2    C8 1499   1.221   1.509  17.671 -0.0494 -0.5372 -0.0692
   98TCq2    O4 1500   1.331   1.551  17.639  0.9699 -0.0841  0.5395
   98TCq2    C9 1501   1.197   1.159  17.334  0.5963 -0.3818 -0.0682
   98TCq2    O5 1502   1.122   1.063  17.289  0.4202  0.6638  0.4871
   98TCq2    O6 1503   1.279   1.230  17.262 -0.8027  0.2460 -0.2825
   98TCq2    H2 1504   1.079   1.027  17.518 -0.0836  0.4886 -1.2091
   98TCq2    H3 1505   1.269   1.404  17.432 -0.4331  0.0935 -0.4461
   98TCq2    H4 1506   1.091   1.325   0.120 -0.0281 -1.0896  0.4619
   99MPD2     C 1507   4.084   3.308   1.488  0.2628  0.4862 -0.0577
   99MPD2    C1 1508   4.129   3.412   1.563 -0.8683  0.1521  1.1070
   99MPD2    C2 1509   4.261   3.446   1.551  0.6951  0.2035 -0.3654
   99MPD2    C3 1510   4.345   3.385   1.453 -0.1238  0.2035  0.5251
   99MPD2    C4 1511   4.297   3.278   1.388 -0.1796 -0.6562  0.5653
   99MPD2    C5 1512   4.167   3.247   1.400  0.5543 -0.2879 -0.1523
   99MPD2     H 1513   4.294   3.527   1.616 -0.4166  1.1903 -1.0348
   99MPD2    H1 1514   4.357   3.213   1.326  0.5717 -0.7151  1.3602
   99MPD2    H2 1515   3.982   3.274   1.485 -0.5225  2.8455 -0.1919
   99MPD2    H3 1516   4.139   3.160   1.343 -2.2865 -1.5505  3.1480
   99MPD2     N 1517   4.481   3.430   1.450 -0.1791 -0.0289  0.0405
   99MPD2    H5 1518   4.500   3.521   1.492 -0.1682  1.1842 -2.5245
   99MPD2    N1 1519   4.049   3.472   1.669 -1.0515 -0.2021  0.0178
   99MPD2    H7 1520   4.079   3.555   1.718  0.4218  1.0646 -3.0172
  100TCq2    C1 1521   3.917   3.435   1.690 -0.0068 -0.6476 -0.2973
  100TCq2    O2 1522   3.847   3.357   1.627 -0.1341  0.6281 -0.1698
  100TCq2    C2 1523   3.852   3.518   1.787 -0.2333 -0.5047  0.2667
  100TCq2    C3 1524   3.925   3.570   1.889 -0.5744  0.4573  0.4948
  100TCq2    C4 1525   3.849   3.627   1.987  0.2301 -0.7875 -0.4563
  100TCq2    C5 1526   3.716   3.632   1.986 -0.2407  1.1983  0.5328
  100TCq2    C6 1527   3.647   3.580   1.879  0.0102 -0.1465  0.1481
  100TCq2    C7 1528   3.718   3.524   1.776 -0.6053  0.1773 -0.0207
  100TCq2    C8 1529   3.506   3.572   1.884 -0.0673  0.3421 -0.0636
  100TCq2    O4 1530   3.450   3.651   1.958  0.8055  0.0888  0.8280
  100TCq2    C9 1531   3.934   3.686   2.088 -0.5109  0.4634  0.2276
  100TCq2    O5 1532   3.883   3.715   2.201 -0.8152  0.2048 -0.0405
  100TCq2    O6 1533   4.052   3.705   2.054 -0.8295 -0.2205 -0.2701
  100TCq2    H2 1534   4.032   3.556   1.898 -0.5695  1.0991  1.3793
  100TCq2    H3 1535   3.668   3.673   2.075 -1.1774 -0.3226  0.7232
  100TCq2    H4 1536   3.665   3.495   1.686  2.0133 -0.6370 -1.2942
  101MPD2     C 1537   0.709   4.166  12.738  0.6794 -0.8139 -0.3561
  101MPD2    C1 1538   0.646   4.250  12.833 -0.1952  0.5308  1.3566
  101MPD2    C2 1539   0.601   4.204  12.958 -0.1655 -0.4811  0.2610
  101MPD2    C3 1540   0.617   4.064  12.984  0.4605 -0.2998  0.6622
  101MPD2    C4 1541   0.681   3.979  12.891 -0.9041  0.2259  0.0055
  101MPD2    C5 1542   0.728   4.033  12.777  0.4397  0.4301 -0.1276
  101MPD2     H 1543   0.565   4.272  13.035  1.8029  1.4952 -0.5707
  101MPD2    H1 1544   0.699   3.873  12.900 -1.6110  0.1851  1.0356
  101MPD2    H2 1545   0.745   4.205  12.643  1.0471 -0.2642  0.0080
  101MPD2    H3 1546   0.774   3.970  12.702  1.0722  2.6069 -1.5901
  101MPD2     N 1547   0.566   4.007  13.101  0.2093 -0.1967 -0.3155
  101MPD2    H5 1548   0.513   4.066  13.165 -1.4024 -1.8885 -0.0991
  101MPD2    N1 1549   0.643   4.384  12.783  0.6013  0.7062 -0.1863
  101MPD2    H7 1550   0.679   4.406  12.690 -0.0474  1.3852 -0.2721
  102TCq2    C1 1551   0.829   0.062  12.557 -0.2465  0.4609 -0.4373
  102TCq2    O2 1552   0.938   0.030  12.599  0.4020  0.5179  0.1328
  102TCq2    C2 1553   0.712   0.031  12.640 -0.5796  0.2131 -0.6257
  102TCq2    C3 1554   0.617   0.129  12.650 -0.0934  0.6964 -0.3657
  102TCq2    C4 1555   0.513   0.104  12.731  0.1961 -0.0720 -0.4209
  102TCq2    C5 1556   0.490   4.710  12.790 -0.0281  0.2067 -0.4950
  102TCq2    C6 1557   0.586   4.613  12.785 -0.0334 -0.2874 -0.2487
  102TCq2    C7 1558   0.697   4.632  12.706  0.1089  0.9156  0.1389
  102TCq2    C8 1559   0.561   4.480  12.839  0.1827  0.0040 -0.1513
  102TCq2    O4 1560   0.461   4.463  12.913 -0.2701  0.0929  0.2095
  102TCq2    C9 1561   0.420   0.209  12.758  0.4704  0.0408  0.2001
  102TCq2    O5 1562   0.447   0.325  12.717 -0.4918 -0.4279  0.7410
  102TCq2    O6 1563   0.298   0.169  12.755 -0.1324 -0.0367  0.7660
  102TCq2    H2 1564   0.617   0.224  12.598  0.4275 -0.4277 -2.4357
  102TCq2    H3 1565   0.407   4.687  12.856  0.6992  1.6596  0.9099
  102TCq2    H4 1566   0.774   4.557  12.688 -0.4134  0.6104 -0.8737
  103TMC2    C1 1567   3.665   0.089  12.680 -0.1019 -0.4712  0.2595
  103TMC2    C2 1568   3.676   0.223  12.655  0.3539  0.8617  0.4652
  103TMC2    C3 1569   3.654   0.298  12.766  0.4656 -0.0106 -0.2714
  103TMC2    C4 1570   3.634   0.035  12.801  0.4637 -0.1266 -0.4300
  103TMC2    C5 1571   3.602   0.120  12.900  0.1271  0.0296  0.3855
  103TMC2    C6 1572   3.623   0.255  12.890  0.3627  0.1423 -0.1930
  103TMC2     C 1573   3.685   4.721  12.568 -0.2664 -0.3747  0.4445
  103TMC2     O 1574   3.668   0.040  12.457 -0.1378  0.1683  0.5048
  103TMC2     H 1575   3.704   0.269  12.561 -0.5467  0.8883  0.2101
  103TMC2    H1 1576   3.636   4.650  12.820  0.8344 -0.1845 -0.7975
  103TMC2    H2 1577   3.595   0.320  12.973 -0.6143 -0.8421  0.2491
  103TMC2    C7 1578   3.534   0.068  13.019 -0.1568 -0.0310  0.3153
  103TMC2    C8 1579   3.653   0.440  12.739 -0.1804 -0.1447 -0.2302
  103TMC2    O1 1580   3.547   0.140  13.117  0.2389 -0.6910  0.6629
  103TMC2    O2 1581   3.657   0.477  12.621 -0.2922  0.8439  0.3761
  103TMC2    O5 1582   3.697   0.515  12.844  0.0396  0.3558  0.1530
  103TMC2    H5 1583   3.729   0.460  12.919  3.2002 -0.0832 -1.5147
  104MPD2     C 1584   3.840   4.394  12.569  0.5819  0.4317  0.2621
  104MPD2    C1 1585   3.747   4.488  12.532 -0.6974 -0.9849  0.4754
  104MPD2    C2 1586   3.658   4.464  12.430 -0.1333 -0.2237  0.2416
  104MPD2    C3 1587   3.637   4.342  12.377  0.4307  0.2828 -0.0225
  104MPD2    C4 1588   3.723   4.245  12.422  0.1208  0.3592 -0.0710
  104MPD2    C5 1589   3.832   4.274  12.501  0.2358 -0.3808  0.2772
  104MPD2     H 1590   3.603   4.553  12.402 -0.8868 -0.6551  0.3705
  104MPD2    H1 1591   3.724   4.141  12.390 -2.3794  0.5608 -0.7981
  104MPD2    H2 1592   3.914   4.408  12.647  1.7326  0.8711 -0.9066
  104MPD2    H3 1593   3.905   4.195  12.515 -0.3093 -1.0907 -0.8474
  104MPD2     N 1594   3.539   4.323  12.275  0.7409  0.9639  1.1471
  104MPD2    H5 1595   3.486   4.405  12.247 -0.7653 -0.2214  0.5589
  104MPD2    N1 1596   3.748   4.605  12.605  0.5984 -0.5875 -0.0248
  104MPD2    H7 1597   3.802   4.606  12.691 -1.0788  1.6954  1.0059
  105MPD2     C 1598   0.684   3.842  17.534 -0.4669 -0.4945  0.1707
  105MPD2    C1 1599   0.552   3.833  17.504  0.1917  0.2518 -0.4441
  105MPD2    C2 1600   0.458   3.847  17.599 -0.3741 -0.7440  0.2742
  105MPD2    C3 1601   0.497   3.873   0.038  0.0650  0.4597 -0.8366
  105MPD2    C4 1602   0.629   3.879   0.064  0.3145 -0.0890  0.4997
  105MPD2    C5 1603   0.725   3.862  17.662  0.3822  0.8143 -0.1122
  105MPD2     H 1604   0.352   3.839  17.577  0.1111 -0.2983 -2.3087
  105MPD2    H1 1605   0.662   3.905   0.164  1.2980 -2.7362  0.8586
  105MPD2    H2 1606   0.759   3.820  17.458  0.4488  2.4703  0.2310
  105MPD2    H3 1607   0.828   3.850   0.001  0.7338 -0.3107 -1.7330
  105MPD2     N 1608   0.391   3.888   0.127 -0.3460  0.7468  0.2012
  105MPD2    H5 1609   0.293   3.878   0.104 -0.0266  1.1315 -1.3497
  105MPD2    N1 1610   0.503   3.805  17.376 -0.1194  0.1473 -0.1446
  105MPD2    H7 1611   0.402   3.805  17.370 -0.1578 -0.4034  0.6159
  106TCq2    C1 1612   0.411   3.943   0.255 -0.2004  0.0711  0.0742
  106TCq2    O2 1613   0.513   3.991   0.305  0.5296 -0.3957  0.2376
  106TCq2    C2 1614   0.290   3.960   0.331 -0.4973 -0.2272 -0.3949
  106TCq2    C3 1615   0.292   4.054   0.432 -0.0046 -1.0207 -0.0400
  106TCq2    C4 1616   0.170   4.087   0.495 -0.1469  0.4360 -0.7508
  106TCq2    C5 1617   0.062   4.009   0.473  0.5183 -0.6016 -0.0247
  106TCq2    C6 1618   0.063   3.902   0.380  0.1878  0.4423 -0.2601
  106TCq2    C7 1619   0.180   3.870   0.313 -0.0172 -0.5513 -0.1747
  106TCq2    C8 1620   4.674   3.811   0.369  0.7390  0.1676  0.0453
  106TCq2    O4 1621   4.689   3.718   0.289 -0.6856 -0.1602  1.0123
  106TCq2    C9 1622   0.158   4.207   0.578  0.0230 -0.6649 -0.8385
  106TCq2    O5 1623   0.261   4.281   0.600 -0.1625  0.1320  0.0204
  106TCq2    O6 1624   0.043   4.230   0.619  0.1206  0.0044  0.0023
  106TCq2    H2 1625   0.381   4.105   0.468 -2.5723  0.9697  3.4596
  106TCq2    H3 1626   4.692   4.038   0.521  0.9448  0.3281  0.2432
  106TCq2    H4 1627   0.185   3.792   0.237 -0.2194 -0.9711  0.2469
  107TMC2    C1 1628   1.264   3.082  11.737  0.1275  0.3962 -0.2027
  107TMC2    C2 1629   1.323   2.963  11.753  0.0724 -0.2541 -0.0819
  107TMC2    C3 1630   1.423   2.923  11.670 -0.3789 -0.5935 -0.2156
  107TMC2    C4 1631   1.306   3.163  11.637 -0.0263 -0.7136  0.6664
  107TMC2    C5 1632   1.413   3.121  11.556 -0.7103  0.2125 -0.6105
  107TMC2    C6 1633   1.471   3.000  11.575 -0.5257 -0.7650  0.1928
  107TMC2     C 1634   1.137   3.097  11.791  0.1651  0.4459  0.1293
  107TMC2     O 1635   1.106   3.033  11.890 -0.0563 -0.2685 -0.2562
  107TMC2     H 1636   1.273   2.890  11.815  0.3550 -1.3836 -1.1872
  107TMC2    H1 1637   1.278   3.264  11.609  1.7683 -0.5897 -0.6587
  107TMC2    H2 1638   1.552   2.962  11.514  0.4816  0.8422  0.5146
  107TMC2    C7 1639   1.457   3.212  11.458 -0.9650  0.4193 -0.4010
  107TMC2    C8 1640   1.488   2.803  11.709  0.1981 -0.3034 -0.0731
  107TMC2    O1 1641   1.452   3.330  11.481  0.1905 -0.4973 -0.6625
  107TMC2    O2 1642   1.483   2.710  11.635 -0.0638 -0.5145  0.1289
  107TMC2    O5 1643   1.596   2.834  11.784 -0.0229  0.1322 -0.0158
  107TMC2    H5 1644   1.578   2.923  11.820  2.8820 -0.0525  1.9188
  108MPD2     C 1645   0.929   3.405  11.721 -0.2746  0.5249  0.6362
  108MPD2    C1 1646   0.953   3.280  11.783  0.2213 -0.8630 -0.7197
  108MPD2    C2 1647   0.870   3.232  11.881 -0.3979 -0.1180  0.4450
  108MPD2    C3 1648   0.768   3.310  11.928 -0.0909 -0.3442 -0.5364
  108MPD2    C4 1649   0.739   3.433  11.861  0.0774 -0.2581  0.4189
  108MPD2    C5 1650   0.826   3.480  11.771  0.2524 -0.4518 -0.2313
  108MPD2     H 1651   0.885   3.131  11.920  0.1283 -0.5609 -0.8824
  108MPD2    H1 1652   0.654   3.491  11.894 -0.5081 -0.8731  0.0111
  108MPD2    H2 1653   0.988   3.436  11.637  4.4697 -3.0048  2.6680
  108MPD2    H3 1654   0.807   3.578  11.730  1.2489 -0.5265 -0.8781
  108MPD2     N 1655   0.682   3.269  12.031  0.4803 -0.0136 -0.0530
  108MPD2    H5 1656   0.602   3.329  12.046 -0.1659 -0.9755  0.2778
  108MPD2    N1 1657   1.072   3.211  11.742  0.2889  0.0059 -0.2152
  108MPD2    H7 1658   1.114   3.249  11.657  0.9494  1.0888  0.5801
  109MPD2     C 1659   0.101   0.760   1.969  0.2296 -0.5546 -0.4219
  109MPD2    C1 1660   0.171   0.745   1.852 -0.9106  0.2206 -0.2077
  109MPD2    C2 1661   0.244   0.855   1.805 -0.0594 -0.6969  0.2758
  109MPD2    C3 1662   0.250   0.979   1.867 -0.4880 -0.0756 -0.3936
  109MPD2    C4 1663   0.186   0.987   1.990 -0.0584 -0.0308  0.2753
  109MPD2    C5 1664   0.113   0.881   2.039  0.3507 -0.0354  0.3614
  109MPD2     H 1665   0.297   0.855   1.711  1.5717 -0.4192  1.1981
  109MPD2    H1 1666   0.182   1.078   2.050 -2.9721  0.1443 -0.1763
  109MPD2    H2 1667   0.049   0.675   2.011 -1.2170 -0.2240 -1.5139
  109MPD2    H3 1668   0.068   0.884   2.138 -1.6795  0.0972 -0.5656
  109MPD2     N 1669   0.307   1.093   1.799 -0.0347  0.3690  0.6609
  109MPD2    H5 1670   0.334   1.078   1.702  1.1793  0.4519  0.9799
  109MPD2    N1 1671   0.165   0.618   1.788 -0.0024 -0.1106 -0.6516
  109MPD2    H7 1672   0.082   0.563   1.807  0.0874 -1.3129 -3.7395
  110TCq2    C1 1673   0.313   1.218   1.851 -0.0589  0.5602 -0.7337
  110TCq2    O2 1674   0.281   1.255   1.964  0.7503  0.0175  0.3391
  110TCq2    C2 1675   0.345   1.325   1.755 -0.1638 -0.9908 -0.9000
  110TCq2    C3 1676   0.336   1.458   1.792 -0.8159  0.6503 -0.7920
  110TCq2    C4 1677   0.344   1.558   1.704  0.3136  0.3608 -0.3970
  110TCq2    C5 1678   0.361   1.533   1.570 -0.3069  0.7147 -0.2499
  110TCq2    C6 1679   0.362   1.407   1.530  0.3962  0.1582  0.0851
  110TCq2    C7 1680   0.352   1.297   1.619  0.3058  0.1798 -0.1097
  110TCq2    C8 1681   0.336   1.380   1.387 -0.0699 -0.5063  0.2222
  110TCq2    O4 1682   0.313   1.469   1.307 -0.0538  0.3428 -0.8230
  110TCq2    C9 1683   0.355   1.698   1.736 -1.0463 -0.4847  0.2335
  110TCq2    O5 1684   0.405   1.770   1.646 -0.5253 -0.1750 -0.4382
  110TCq2    O6 1685   0.340   1.727   1.854 -0.2731  0.3720 -0.2947
  110TCq2    H2 1686   0.295   1.483   1.889 -1.6703  0.3586 -1.0748
  110TCq2    H3 1687   0.357   1.616   1.499 -0.6869  1.9494  1.2271
  110TCq2    H4 1688   0.356   1.195   1.584  1.8013  0.7451 -1.5714
  111TMC2    C1 1689   1.544   0.522  11.217  0.2572 -0.1294  0.4171
  111TMC2    C2 1690   1.572   0.425  11.115  0.3849 -0.0012 -0.3924
  111TMC2    C3 1691   1.658   0.318  11.135  0.6252 -0.0728 -0.1452
  111TMC2    C4 1692   1.616   0.504  11.331  0.7571 -0.6342 -0.0498
  111TMC2    C5 1693   1.709   0.404  11.345  1.1512  0.2589  0.2040
  111TMC2    C6 1694   1.733   0.309  11.248  0.5059  0.4236  0.8010
  111TMC2     C 1695   1.443   0.616  11.194  1.1312 -0.3856 -0.7234
  111TMC2     O 1696   1.405   0.627  11.080  0.2359 -0.3580 -0.1227
  111TMC2     H 1697   1.524   0.431  11.018  1.1746  0.1900 -0.7643
  111TMC2    H1 1698   1.618   0.577  11.411 -1.9606 -0.9928  0.3288
  111TMC2    H2 1699   1.788   0.220  11.273  1.9755  0.7518 -1.2621
  111TMC2    C7 1700   1.721   0.354  11.481  0.4038  1.3698 -0.7954
  111TMC2    C8 1701   1.643   0.190  11.071 -0.0938 -0.3929  0.1756
  111TMC2    O1 1702   1.633   0.391  11.557  0.9767 -0.0855  0.1250
  111TMC2    O2 1703   1.701   0.091  11.114 -0.1534 -0.3176  0.0028
  111TMC2    O5 1704   1.520   0.195  11.031  0.0051  0.1007  0.3701
  111TMC2    H5 1705   1.478   0.108  11.014  2.8328 -1.1343 -0.3315
  112MPD2     C 1706   1.127   1.000  11.353  0.3442 -0.1435 -0.3593
  112MPD2    C1 1707   1.162   0.958  11.222  0.1935 -0.1557  0.2855
  112MPD2    C2 1708   1.243   0.846  11.208 -0.4811 -0.1180 -0.0701
  112MPD2    C3 1709   1.313   0.792  11.317  0.2596  0.0696 -0.0465
  112MPD2    C4 1710   1.289   0.851  11.440 -0.3227  0.4531  0.0143
  112MPD2    C5 1711   1.203   0.950  11.457  0.3523 -0.2713  0.4910
  112MPD2     H 1712   1.264   0.808  11.109 -3.4888 -0.8923 -0.4008
  112MPD2    H1 1713   1.340   0.807  11.525 -0.0108 -2.4472 -1.6712
  112MPD2    H2 1714   1.064   1.084  11.379  0.1149 -0.3957 -0.1023
  112MPD2    H3 1715   1.180   0.984  11.557 -1.2096  1.3967 -0.4186
  112MPD2     N 1716   1.404   0.683  11.310  0.4821  0.1453  0.6323
  112MPD2    H5 1717   1.446   0.649  11.396  1.5019  0.4298  0.2568
  112MPD2    N1 1718   1.108   1.018  11.105 -0.1220  0.1436 -0.7341
  112MPD2    H7 1719   1.108   0.965  11.018 -2.3195 -0.6102 -0.2812
  113MPD2     C 1720   3.349   2.835   1.264 -0.2275  0.1104  0.5274
  113MPD2    C1 1721   3.261   2.865   1.160 -0.3128  0.4205  0.0607
  113MPD2    C2 1722   3.218   2.770   1.067  0.0212  0.6896 -0.0145
  113MPD2    C3 1723   3.268   2.642   1.068  0.3750 -0.0963  0.4872
  113MPD2    C4 1724   3.365   2.615   1.167  0.0698 -0.7165  0.1333
  113MPD2    C5 1725   3.397   2.706   1.265 -0.2350 -0.8160 -0.1457
  113MPD2     H 1726   3.152   2.799   0.986  0.1545  1.5026  0.1595
  113MPD2    H1 1727   3.409   2.516   1.175 -0.7748 -1.4804 -5.0348
  113MPD2    H2 1728   3.387   2.905   1.337 -0.3528 -0.1458  0.8379
  113MPD2    H3 1729   3.462   2.675   1.346 -1.6540 -3.7507 -0.1342
  113MPD2     N 1730   3.225   2.543   0.982 -0.8473  0.6424 -0.5572
  113MPD2    H5 1731   3.272   2.453   0.991 -1.6809  0.2696  0.1022
  113MPD2    N1 1732   3.206   2.999   1.147 -0.3496  0.3412  0.3844
  113MPD2    H7 1733   3.137   3.009   1.074 -0.7480 -0.6675  0.6284
  114TCq2    C1 1734   3.138   2.562   0.876 -0.0156 -0.2264 -0.2976
  114TCq2    O2 1735   3.049   2.646   0.873  0.0845  0.0800 -0.3560
  114TCq2    C2 1736   3.147   2.464   0.766 -0.5304  0.3490 -0.5874
  114TCq2    C3 1737   3.118   2.499   0.641 -0.4754  0.2901  0.4712
  114TCq2    C4 1738   3.140   2.414   0.540  0.0194 -0.0812  0.1175
  114TCq2    C5 1739   3.173   2.283   0.570  0.4537  0.1747 -0.6044
  114TCq2    C6 1740   3.184   2.246   0.697 -0.3149  0.1248  0.3099
  114TCq2    C7 1741   3.172   2.332   0.800  0.3743 -0.7473 -0.6861
  114TCq2    C8 1742   3.227   2.106   0.717  0.0966  0.4302 -0.2883
  114TCq2    O4 1743   3.300   2.059   0.633 -0.2206  0.7687  0.9620
  114TCq2    C9 1744   3.123   2.444   0.399  0.6780  0.3481  0.2336
  114TCq2    O5 1745   3.087   2.342   0.334  0.0978  0.1363  0.0919
  114TCq2    O6 1746   3.111   2.571   0.368  0.5641  0.1199  0.3926
  114TCq2    H2 1747   3.074   2.597   0.622 -1.7892 -0.0062  2.0421
  114TCq2    H3 1748   3.187   2.208   0.493  4.1359  0.6668 -0.4140
  114TCq2    H4 1749   3.184   2.304   0.904  2.1615 -2.0723 -1.2634
  115TMC2    C1 1750   4.170   1.208  17.323  0.0477 -0.4592  0.1723
  115TMC2    C2 1751   4.158   1.280  17.204  0.6161  0.2957  0.1034
  115TMC2    C3 1752   4.244   1.383  17.197 -0.0425 -0.2854 -0.1696
  115TMC2    C4 1753   4.278   1.221  17.406  0.8956  0.0413  0.2577
  115TMC2    C5 1754   4.368   1.323  17.380  0.5730  0.2875 -0.6197
  115TMC2    C6 1755   4.346   1.411  17.283 -0.3665 -0.5287 -1.1402
  115TMC2     C 1756   4.104   1.080  17.318 -0.6760 -0.2825 -0.0689
  115TMC2     O 1757   4.064   1.032  17.214 -0.3364 -0.3062 -0.8499
  115TMC2     H 1758   4.071   1.275  17.140  1.2104 -0.6602 -0.6387
  115TMC2    H1 1759   4.291   1.149  17.486  0.2956 -1.3665 -0.9016
  115TMC2    H2 1760   4.421   1.481  17.247  0.9071 -0.1286  2.2315
  115TMC2    C7 1761   4.443   1.374  17.496 -0.0204 -0.4399  0.1907
  115TMC2    C8 1762   4.247   1.470  17.079 -0.1369 -0.1912 -0.1951
  115TMC2    O1 1763   4.399   1.343  17.610  0.2758  0.1514  0.0531
  115TMC2    O2 1764   4.315   1.571  17.086 -0.1457 -0.5261 -0.2149
  115TMC2    O5 1765   4.178   1.425  16.973  0.0320  0.2517  0.1480
  115TMC2    H5 1766   4.139   1.336  16.968 -0.3332  0.2857  2.6693
  116MPD2     C 1767   3.928   0.676  17.597 -0.6807  0.4214 -0.1502
  116MPD2    C1 1768   3.958   0.681  17.463  0.0971 -0.4057  0.2238
  116MPD2    C2 1769   4.002   0.799  17.403 -0.1952 -0.1703  0.3423
  116MPD2    C3 1770   4.022   0.914  17.484 -0.1302  0.3882  0.0995
  116MPD2    C4 1771   4.000   0.907  17.618 -0.3874  0.1181  0.4258
  116MPD2    C5 1772   3.954   0.788  17.669 -0.1139  0.4141  0.2080
  116MPD2     H 1773   4.023   0.794  17.297 -1.5760 -0.2671  0.0757
  116MPD2    H1 1774   4.020   0.992  17.682 -0.6995 -0.4841  1.3218
  116MPD2    H2 1775   3.889   0.586  17.645 -0.3149  0.3446  0.0030
  116MPD2    H3 1776   3.939   0.775   0.084 -2.9142  1.8860 -0.0171
  116MPD2     N 1777   4.079   1.035  17.444 -0.0700  0.2637  0.7725
  116MPD2    H5 1778   4.094   1.102  17.519 -0.5568 -1.4363  2.4054
  116MPD2    N1 1779   3.956   0.562  17.393 -0.2050 -0.0056  0.5316
  116MPD2    H7 1780   3.941   0.480  17.450  2.6203  0.3508  1.7811
  117TMC2    C1 1781   3.571   2.254  13.678  0.5819 -0.2531 -0.2415
  117TMC2    C2 1782   3.653   2.173  13.607 -0.5074 -0.2869 -0.2794
  117TMC2    C3 1783   3.771   2.213  13.560  0.3002 -0.1479 -0.0098
  117TMC2    C4 1784   3.612   2.374  13.714  0.7248 -0.4345  0.3019
  117TMC2    C5 1785   3.733   2.414  13.666  0.0395  0.3454  0.0802
  117TMC2    C6 1786   3.820   2.335  13.604  0.8643  0.1510  0.0134
  117TMC2     C 1787   3.450   2.190  13.735  0.0052  0.1525 -0.1983
  117TMC2     O 1788   3.458   2.065  13.744  0.2235 -0.2944 -0.2044
  117TMC2     H 1789   3.602   2.084  13.572 -0.4524 -0.3345 -0.2370
  117TMC2    H1 1790   3.538   2.444  13.751 -0.9731 -1.8231 -0.4707
  117TMC2    H2 1791   3.905   2.383  13.557  0.1934 -1.1424 -2.5104
  117TMC2    C7 1792   3.769   2.553  13.684  0.7296  0.5990 -0.8331
  117TMC2    C8 1793   3.865   2.114  13.542  0.4090 -0.2817  0.2491
  117TMC2    O1 1794   3.857   2.598  13.616  0.1782  0.6986  0.4331
  117TMC2    O2 1795   3.839   2.001  13.561 -0.1157  0.3237  0.0379
  117TMC2    O5 1796   3.985   2.171  13.539  0.0081 -0.0528 -0.2534
  117TMC2    H5 1797   3.983   2.253  13.485 -1.9441  1.4213  2.0122
  118MPD2     C 1798   3.694   2.770  13.964 -0.4064  0.6522 -0.3642
  118MPD2    C1 1799   3.734   2.739  13.835  0.5547 -0.1368 -0.0651
  118MPD2    C2 1800   3.779   2.846  13.758 -0.2995 -0.1120 -0.8091
  118MPD2    C3 1801   3.786   2.978  13.808 -0.2944  0.9952 -0.7066
  118MPD2    C4 1802   3.737   2.997  13.935  0.2495 -0.4895  0.2744
  118MPD2    C5 1803   3.692   2.894  14.009 -0.2254 -0.2367 -0.2117
  118MPD2     H 1804   3.815   2.815  13.661 -1.8200 -0.9065 -1.1178
  118MPD2    H1 1805   3.729   3.092  13.986  1.0005  0.4013 -1.2728
  118MPD2    H2 1806   3.653   2.692  14.027 -1.2513  0.2602 -1.4029
  118MPD2    H3 1807   3.663   2.900  14.114 -1.7922 -0.0388 -0.6565
  118MPD2     N 1808   3.833   3.094  13.741  0.3822 -0.5452 -0.4296
  118MPD2    H5 1809   3.825   3.181  13.792  1.7104  0.9941 -2.8376
  118MPD2    N1 1810   3.725   2.604  13.800  0.2721 -0.2089  0.1039
  118MPD2    H7 1811   3.674   2.542  13.863 -1.4426  2.4774  1.3660
  119MPD2     C 1812   1.998   4.136  14.180 -0.0711 -0.2274 -0.2439
  119MPD2    C1 1813   1.871   4.083  14.192  0.3250 -0.0471 -0.4686
  119MPD2    C2 1814   1.768   4.122  14.106  0.1736 -0.3347 -0.2264
  119MPD2    C3 1815   1.794   4.191  13.988  0.0515  0.3005 -0.3669
  119MPD2    C4 1816   1.927   4.236  13.979  0.3103 -0.3584 -0.4252
  119MPD2    C5 1817   2.018   4.223  14.080 -0.0564 -0.6965  0.1080
  119MPD2     H 1818   1.665   4.099  14.132  1.1299 -1.6311  2.4378
  119MPD2    H1 1819   1.962   4.293  13.893  1.6328 -1.7243 -0.7884
  119MPD2    H2 1820   2.079   4.110  14.247 -0.3036  0.4841  0.3161
  119MPD2    H3 1821   2.121   4.254  14.066 -0.6047  2.1396  2.4009
  119MPD2     N 1822   1.709   4.203  13.878  0.3794 -0.1158 -0.2393
  119MPD2    H5 1823   1.751   4.247  13.797  1.6455  0.0998  0.5295
  119MPD2    N1 1824   1.861   4.002  14.307  1.0741 -0.0777  0.3331
  119MPD2    H7 1825   1.936   3.993  14.375 -0.5416 -0.9718  1.9917
  120TCq2    C1 1826   1.578   4.156  13.871  0.2635  0.5091 -0.9801
  120TCq2    O2 1827   1.495   4.129  13.955 -0.3558  0.0021 -0.1128
  120TCq2    C2 1828   1.541   4.124  13.735 -0.3335  0.5226  0.5741
  120TCq2    C3 1829   1.613   4.180  13.626 -0.7000  1.0114  0.3762
  120TCq2    C4 1830   1.600   4.126  13.501  0.0885  0.4391  0.5423
  120TCq2    C5 1831   1.508   4.030  13.476 -0.3213 -0.5698  0.3390
  120TCq2    C6 1832   1.435   3.982  13.583  0.1372 -0.5951  0.4772
  120TCq2    C7 1833   1.443   4.034  13.710 -0.3234 -0.0942 -0.3696
  120TCq2    C8 1834   1.319   3.902  13.553  0.0643  0.0870 -0.9328
  120TCq2    O4 1835   1.276   3.919  13.446  0.2538 -0.2924  0.3811
  120TCq2    C9 1836   1.669   4.178  13.394  0.1993 -0.0852  0.3541
  120TCq2    O5 1837   1.709   4.104  13.305 -0.1950  0.2592  0.7112
  120TCq2    O6 1838   1.699   4.302  13.395  0.8642 -0.4829  0.3633
  120TCq2    H2 1839   1.688   4.258  13.632  0.9107 -0.4767 -0.5594
  120TCq2    H3 1840   1.494   3.995  13.374  1.4639  1.4061 -0.5996
  120TCq2    H4 1841   1.397   3.974  13.788 -0.5257  2.0576  1.1403
  121TMC2    C1 1842   3.218   0.767  14.291  0.4588 -0.3566 -0.5145
  121TMC2    C2 1843   3.171   0.891  14.318 -0.3221 -0.3023  0.1646
  121TMC2    C3 1844   3.055   0.900  14.388  0.1297 -0.5510 -0.4041
  121TMC2    C4 1845   3.156   0.652  14.324  0.2609  0.0735 -0.7002
  121TMC2    C5 1846   3.033   0.664  14.381  0.2090 -0.0409 -0.1764
  121TMC2    C6 1847   2.982   0.787  14.434  0.2675 -0.0477 -0.4821
  121TMC2     C 1848   3.327   0.765  14.200  0.8735  0.4427 -0.3862
  121TMC2     O 1849   3.413   0.682  14.220 -0.1194  0.1327  0.5808
  121TMC2     H 1850   3.226   0.976  14.281 -0.4879 -0.2386  0.0634
  121TMC2    H1 1851   3.201   0.561  14.285  1.8167  0.3122  0.5340
  121TMC2    H2 1852   2.894   0.790  14.498  0.5757 -0.2541 -0.0426
  121TMC2    C7 1853   2.941   0.558  14.357  0.5576  0.0192 -0.3149
  121TMC2    C8 1854   3.009   1.030  14.434  0.7797 -0.2641  0.0428
  121TMC2    O1 1855   2.987   0.451  14.319  0.4855  0.1197  0.1563
  121TMC2    O2 1856   3.046   1.135  14.383 -0.9065 -0.2436 -0.1230
  121TMC2    O5 1857   2.986   1.015  14.565 -0.0522 -0.0366 -0.0604
  121TMC2    H5 1858   2.972   0.929  14.610  0.0246  1.0558  2.0935
  122MPD2     C 1859   3.544   0.827  14.006 -0.3801  0.8454  0.5528
  122MPD2    C1 1860   3.412   0.861  13.988  0.0865  0.4774 -0.4911
  122MPD2    C2 1861   3.372   0.912  13.869  0.3691  0.1075  0.3991
  122MPD2    C3 1862   3.464   0.927  13.767  0.0733  0.3066 -0.6552
  122MPD2    C4 1863   3.596   0.901  13.794 -0.0285 -0.0341 -0.6284
  122MPD2    C5 1864   3.638   0.849  13.912 -0.7578  0.1800  0.0955
  122MPD2     H 1865   3.268   0.930  13.843  0.6427  0.9993 -0.0475
  122MPD2    H1 1866   3.666   0.894  13.712  0.8114  0.6040  0.0285
  122MPD2    H2 1867   3.572   0.788  14.104 -1.0804 -2.2264 -0.4820
  122MPD2    H3 1868   3.743   0.831  13.928 -0.9274 -1.4860 -0.7073
  122MPD2     N 1869   3.427   0.978  13.635 -0.3312 -0.6592  0.1500
  122MPD2    H5 1870   3.501   0.983  13.566  0.0889 -0.1735  0.6352
  122MPD2    N1 1871   3.314   0.849  14.089 -0.0202  0.3773 -0.1389
  122MPD2    H7 1872   3.220   0.885  14.075 -0.2414  1.1495  3.1915
  123MPD2     C 1873   1.404   3.798  11.563 -0.1086  0.4113 -0.5028
  123MPD2    C1 1874   1.400   3.783  11.422  0.0431  0.1152  0.7337
  123MPD2    C2 1875   1.448   3.882  11.339 -0.3668 -0.9808 -0.4448
  123MPD2    C3 1876   1.508   3.999  11.394 -0.1724 -0.0766  0.1643
  123MPD2    C4 1877   1.510   4.009  11.530  0.7668 -0.3722 -0.6739
  123MPD2    C5 1878   1.454   3.914  11.613 -0.7381 -0.6734 -0.0551
  123MPD2     H 1879   1.448   3.878  11.231 -1.1768 -0.0734 -0.4836
  123MPD2    H1 1880   1.540   4.105  11.572 -1.0830  0.4967 -1.3286
  123MPD2    H2 1881   1.372   3.729  11.640 -1.8210 -1.7137 -3.0897
  123MPD2    H3 1882   1.447   3.930  11.720 -3.5091  0.3170 -0.3752
  123MPD2     N 1883   1.533   4.106  11.304 -0.0231 -0.0187  0.4990
  123MPD2    H5 1884   1.523   4.096  11.204  0.4370 -3.5364  0.8042
  123MPD2    N1 1885   1.351   3.658  11.369  0.1791 -0.8113 -0.1461
  123MPD2    H7 1886   1.317   3.590  11.436 -1.0625 -0.3827 -0.3324
  124TCq2    C1 1887   1.549   4.239  11.345 -0.0181 -0.2562 -0.4165
  124TCq2    O2 1888   1.520   4.293  11.452 -0.9553 -0.0879 -0.2440
  124TCq2    C2 1889   1.570   4.316  11.218 -0.5331  0.3859  0.5196
  124TCq2    C3 1890   1.499   4.431  11.210  0.5418 -0.2112  0.3408
  124TCq2    C4 1891   1.499   4.495  11.086  0.5125  0.7499  0.6149
  124TCq2    C5 1892   1.569   4.440  10.980 -0.1696  0.4026  0.6067
  124TCq2    C6 1893   1.642   4.324  10.997  0.0079 -0.4038  0.0965
  124TCq2    C7 1894   1.641   4.264  11.114 -0.1117  0.3822 -0.0455
  124TCq2    C8 1895   1.726   4.267  10.900  0.5273  0.2469 -0.9582
  124TCq2    O4 1896   1.772   4.163  10.937 -0.4973 -0.7086 -0.2070
  124TCq2    C9 1897   1.424   4.618  11.065  0.4711  0.3466 -0.2418
  124TCq2    O5 1898   1.381   4.676  11.168 -0.6955 -0.4602  0.1131
  124TCq2    O6 1899   1.435   4.668  10.956  0.5248  0.3164  0.3208
  124TCq2    H2 1900   1.443   4.466  11.295  0.1634 -2.3512  0.9799
  124TCq2    H3 1901   1.575   4.507  10.895 -0.2881 -0.0853  0.2148
  124TCq2    H4 1902   1.695   4.172  11.135 -0.1934  0.4526  0.4914
  125TMC2    C1 1903   3.073   4.615   9.281 -0.3221  0.3407 -0.4032
  125TMC2    C2 1904   3.053   4.680   9.164  0.3995  0.4029 -0.6994
  125TMC2    C3 1905   3.149   0.055   9.131  0.5071  0.1475  0.0623
  125TMC2    C4 1906   3.188   4.638   9.366 -0.4764 -0.2927 -0.8968
  125TMC2    C5 1907   3.269   0.022   9.333  0.7562  0.3605 -0.0339
  125TMC2    C6 1908   3.249   0.093   9.217 -0.4420  0.8739 -0.7422
  125TMC2     C 1909   2.988   4.498   9.293 -0.3365  0.7133  1.0790
  125TMC2     O 1910   2.916   4.475   9.196  0.2762  0.1914  0.0946
  125TMC2     H 1911   2.982   4.640   9.092 -0.0862  3.1195 -1.7356
  125TMC2    H1 1912   3.214   4.572   9.448  0.7568  1.7759  0.3781
  125TMC2    H2 1913   3.326   0.160   9.181  1.1028 -0.3671  0.2884
  125TMC2    C7 1914   3.335   0.083   9.446 -0.5628  0.3406 -0.6307
  125TMC2    C8 1915   3.137   0.125   9.006 -0.4542  0.1529 -0.3733
  125TMC2    O1 1916   3.333   0.008   9.545 -0.8985  0.2492 -0.0620
  125TMC2    O2 1917   3.234   0.164   8.936  0.3447 -0.7059  0.6080
  125TMC2    O5 1918   3.011   0.155   8.981 -0.4734  0.3058  0.2594
  125TMC2    H5 1919   2.950   0.138   9.056 -1.5064 -1.4668 -0.9854
  126MPD1     C 1920   2.778   4.104   9.543  0.3534  0.0200 -1.0279
  126MPD1    C1 1921   2.882   4.150   9.615 -0.0923  0.3629  0.2629
  126MPD1    C2 1922   2.945   4.268   9.572  0.2275 -0.4791 -1.3378
  126MPD1    C3 1923   2.913   4.321   9.447  0.8049 -0.5143 -1.3382
  126MPD1    C4 1924   2.809   4.274   9.380  0.6775 -0.5089  0.5190
  126MPD1    C5 1925   2.744   4.168   9.425  0.2412  0.6166 -0.6264
  126MPD1     H 1926   3.029   4.310   9.627  0.0025 -0.2213 -1.1935
  126MPD1    H1 1927   2.779   4.325   9.289  1.0183 -0.4540  0.4356
  126MPD1    H2 1928   2.718   4.016   9.565  0.6376  0.4764  1.4926
  126MPD1    H3 1929   2.657   4.131   9.372  0.1947  1.3065 -1.0262
  126MPD1     N 1930   2.996   4.428   9.409  0.1811  0.3531 -0.2073
  126MPD1    H5 1931   3.065   4.457   9.477 -0.9655  1.4096  0.5024
  126MPD1    N1 1932   2.910   4.089   9.741  0.4720 -0.0900 -0.4926
  126MPD1    H6 1933   3.006   4.092   9.773  0.6570 -0.0211 -1.0588
  126MPD1    H7 1934   2.863   3.999   9.750 -0.4839  0.2143 -2.2023
  127MPD2     C 1935   3.962   4.583   9.575 -0.3777  0.4741 -0.0157
  127MPD2    C1 1936   4.019   4.542   9.697 -0.4336 -0.0967  0.7467
  127MPD2    C2 1937   4.091   4.635   9.767  0.2794 -0.3547 -0.3685
  127MPD2    C3 1938   4.131   0.034   9.719 -1.3205  0.5676  0.3764
  127MPD2    C4 1939   4.075   0.073   9.603 -0.3181 -0.1518  1.0353
  127MPD2    C5 1940   3.987   4.712   9.530  0.6114 -0.6009 -0.5274
  127MPD2     H 1941   4.138   4.609   9.862 -0.6080  0.1183  0.1981
  127MPD2    H1 1942   4.102   0.171   9.565  0.2462 -0.3753  0.8604
  127MPD2    H2 1943   3.899   4.514   9.520 -0.2712  1.0086 -0.8139
  127MPD2    H3 1944   3.934   0.034   9.447  2.0051  1.0236 -0.5459
  127MPD2     N 1945   4.209   0.121   9.800 -0.0037  0.5431 -0.8097
  127MPD2    H5 1946   4.243   0.076   9.885  0.2855 -0.7261 -1.5995
  127MPD2    N1 1947   3.997   4.410   9.741  0.3499  0.2633 -0.1176
  127MPD2    H7 1948   3.944   4.352   9.676  1.6399  0.0752 -0.9977
  128TCq2    C1 1949   4.068   4.343   9.835  0.0688 -0.4213  0.2298
  128TCq2    O2 1950   4.161   4.385   9.895 -0.1205 -0.4599 -0.0730
  128TCq2    C2 1951   4.025   4.200   9.853 -0.9550 -0.3830  0.3972
  128TCq2    C3 1952   4.063   4.146   9.972 -0.0403  0.3952  0.0597
  128TCq2    C4 1953   3.988   4.042  10.016  0.1366  0.1948 -0.6384
  128TCq2    C5 1954   3.869   4.003   9.957  0.4964 -0.4516 -0.0221
  128TCq2    C6 1955   3.837   4.058   9.827  0.3787 -0.3178 -0.4577
  128TCq2    C7 1956   3.916   4.165   9.782 -0.1025 -0.6902 -0.2915
  128TCq2    C8 1957   3.703   4.049   9.769  0.7410  0.4451  0.4056
  128TCq2    O4 1958   3.678   4.099   9.658  0.2506  0.0140  0.0057
  128TCq2    C9 1959   4.033   3.991  10.144 -0.2990  0.5831  0.0781
  128TCq2    O5 1960   3.946   3.919  10.204  0.1208  0.2977  0.4747
  128TCq2    O6 1961   4.119   4.067  10.203 -0.0287  0.1106  0.4920
  128TCq2    H2 1962   4.155   4.172  10.022 -1.2558  1.8152  1.5746
  128TCq2    H3 1963   3.827   3.922  10.015  1.0535  0.4267  1.6081
  128TCq2    H4 1964   3.888   4.210   9.687  1.2761  1.1346  0.1702
  129MPD2     C 1965   0.970   0.259   1.253 -0.3330  0.0535  0.0901
  129MPD2    C1 1966   1.062   0.191   1.334 -0.3958 -0.0329 -0.5055
  129MPD2    C2 1967   1.198   0.187   1.298  0.0186 -0.4226 -0.1084
  129MPD2    C3 1968   1.238   0.247   1.181  0.1541  0.1159 -0.2534
  129MPD2    C4 1969   1.148   0.316   1.103  0.0835  0.2677 -0.0821
  129MPD2    C5 1970   1.015   0.322   1.137 -0.5364  0.2575 -0.3160
  129MPD2     H 1971   1.273   0.134   1.356  0.6842  1.4374  0.7459
  129MPD2    H1 1972   1.177   0.361   1.009 -0.1995  0.6837  0.0289
  129MPD2    H2 1973   0.863   0.267   1.271 -0.2368 -1.4310  1.2554
  129MPD2    H3 1974   0.948   0.383   1.077 -0.3869 -1.7579 -2.5478
  129MPD2     N 1975   1.375   0.241   1.152  0.0794  0.0930 -0.6758
  129MPD2    H5 1976   1.431   0.216   1.233 -1.5631 -0.5407  0.2753
  129MPD2    N1 1977   1.026   0.128   1.459 -0.2987 -0.3305  0.1960
  129MPD2    H7 1978   1.094   0.066   1.502 -1.4221 -1.2970  0.5595
  130TCq2    C1 1979   0.902   0.148   1.518  0.4179  0.3026  0.0158
  130TCq2    O2 1980   0.823   0.238   1.504  0.3791 -0.1489 -0.8138
  130TCq2    C2 1981   0.876   0.049   1.616 -0.4259  0.9261  0.0013
  130TCq2    C3 1982   0.940   4.647   1.610 -0.0572  0.1597  0.0497
  130TCq2    C4 1983   0.890   4.542   1.684  0.0955  0.3145  0.0271
  130TCq2    C5 1984   0.762   4.550   1.733 -0.9803 -0.4618 -0.5096
  130TCq2    C6 1985   0.704   4.675   1.749 -0.1228  0.3792 -0.3238
  130TCq2    C7 1986   0.768   0.062   1.701  1.0179 -0.4998  0.3266
  130TCq2    C8 1987   0.567   4.686   1.791 -0.5463 -0.3701  0.9779
  130TCq2    O4 1988   0.488   4.591   1.785  0.2827  0.5174  0.0133
  130TCq2    C9 1989   0.967   4.419   1.678 -0.5278  0.3535  0.0060
  130TCq2    O5 1990   0.909   4.317   1.727 -0.6575 -0.4222 -0.2827
  130TCq2    O6 1991   1.082   4.428   1.630 -0.3237  0.6942 -0.2139
  130TCq2    H2 1992   1.030   4.638   1.550 -1.3259  1.0463 -2.0008
  130TCq2    H3 1993   0.707   4.468   1.779  0.2388 -1.6349 -1.1532
  130TCq2    H4 1994   0.731   0.163   1.715 -0.4478 -0.5913 -2.7874
  131MPD2     C 1995   1.168   3.444  10.407  0.2931 -0.7302 -0.1759
  131MPD2    C1 1996   1.241   3.540  10.470 -0.1102 -0.0008  0.4848
  131MPD2    C2 1997   1.249   3.520  10.604 -0.1515  0.6727 -0.3173
  131MPD2    C3 1998   1.197   3.419  10.678 -1.0859 -0.7698  0.4160
  131MPD2    C4 1999   1.105   3.338  10.615 -0.3808  0.2409  0.2556
  131MPD2    C5 2000   1.094   3.351  10.481 -0.2493  0.2250 -0.3849
  131MPD2     H 2001   1.321   3.588  10.650 -1.4172  1.1897  0.8882
  131MPD2    H1 2002   1.058   3.250  10.658  0.2953 -0.6776 -0.8784
  131MPD2    H2 2003   1.147   3.448  10.300 -0.0877 -2.2682 -0.1668
  131MPD2    H3 2004   1.026   3.291  10.421  0.0192  0.2465 -0.7114
  131MPD2     N 2005   1.219   3.419  10.818  0.5468  0.1401 -0.7441
  131MPD2    H5 2006   1.289   3.480  10.859 -0.5060  0.4713  0.5866
  131MPD2    N1 2007   1.307   3.644  10.396  0.1862  0.2984 -0.0963
  131MPD2    H7 2008   1.312   3.634  10.295 -4.8386  0.3306 -0.3024
  132TCq2    C1 2009   1.374   4.237  10.336  0.8159 -0.1592 -0.6563
  132TCq2    O2 2010   1.323   4.250  10.443  0.5464  0.8849  0.1944
  132TCq2    C2 2011   1.381   4.094  10.287 -0.5493  0.0838 -0.1809
  132TCq2    C3 2012   1.389   4.062  10.155 -0.1882  0.6144  0.4632
  132TCq2    C4 2013   1.402   3.932  10.118 -0.4917  0.6629  0.0064
  132TCq2    C5 2014   1.390   3.833  10.210  0.0498 -0.0893  0.1761
  132TCq2    C6 2015   1.384   3.863  10.343 -0.3473  0.2871  0.1447
  132TCq2    C7 2016   1.368   3.990  10.377 -0.2911 -0.3158  1.2054
  132TCq2    C8 2017   1.361   3.759  10.446 -0.6346  0.0658  0.0698
  132TCq2    O4 2018   1.366   3.794  10.561  0.3836 -0.2602 -0.0096
  132TCq2    C9 2019   1.396   3.901   9.973 -1.1214 -0.2171  0.6990
  132TCq2    O5 2020   1.334   3.794   9.943  0.5856 -0.3398  0.0319
  132TCq2    O6 2021   1.405   4.004   9.901  0.4127  0.1089  0.1132
  132TCq2    H2 2022   1.398   4.136  10.077  1.1111  2.1808  2.1267
  132TCq2    H3 2023   1.386   3.732  10.172  0.0642 -0.3205  0.7911
  132TCq2    H4 2024   1.355   4.027  10.478 -1.9401  2.1181  0.1156
  133MPD2     C 2025   0.426   3.660   9.897 -0.3265  0.0597  0.0437
  133MPD2    C1 2026   0.523   3.604   9.814  0.4298  0.6088 -0.6122
  133MPD2    C2 2027   0.610   3.687   9.741 -0.3374  0.2530 -0.1918
  133MPD2    C3 2028   0.602   3.822   9.761 -0.3791 -0.3795 -0.5153
  133MPD2    C4 2029   0.503   3.877   9.837 -0.5397 -0.0894  0.0373
  133MPD2    C5 2030   0.415   3.799   9.906  0.5120  0.2034 -0.1735
  133MPD2     H 2031   0.688   3.638   9.684 -1.5623  0.0318 -1.7095
  133MPD2    H1 2032   0.481   3.983   9.838 -2.0153 -0.3798 -0.6704
  133MPD2    H2 2033   0.356   3.600   9.954  0.9879 -0.4853  1.0891
  133MPD2    H3 2034   0.335   3.845   9.964 -0.3596 -0.0192 -1.1995
  133MPD2     N 2035   0.684   3.916   9.686  0.1469  0.0794 -0.0599
  133MPD2    H5 2036   0.661   4.014   9.704  0.5952  0.4007 -1.2452
  133MPD2    N1 2037   0.512   3.465   9.804  0.4854  0.2245 -0.5363
  133MPD2    H7 2038   0.430   3.426   9.848  1.1018 -0.8543 -0.3479
  134TCq2    C1 2039   0.595   3.389   9.731  0.2093 -0.4965  0.0614
  134TCq2    O2 2040   0.692   3.413   9.658 -0.4690  0.1112  0.0843
  134TCq2    C2 2041   0.535   3.259   9.727  0.3821 -0.8247 -0.3080
  134TCq2    C3 2042   0.618   3.154   9.706 -0.4385 -0.0060  0.1167
  134TCq2    C4 2043   0.570   3.024   9.692 -0.2011 -0.8422  0.0022
  134TCq2    C5 2044   0.437   3.002   9.713  0.4567 -0.1151 -0.0933
  134TCq2    C6 2045   0.358   3.111   9.747 -0.3162  0.6702 -0.5366
  134TCq2    C7 2046   0.406   3.238   9.760 -0.2713  0.0531  0.0840
  134TCq2    C8 2047   0.219   3.094   9.798 -0.1638 -0.5242 -0.2024
  134TCq2    O4 2048   0.154   3.188   9.836 -0.0949 -0.1537  0.5939
  134TCq2    C9 2049   0.656   2.930   9.634  0.2289  0.1221 -0.7165
  134TCq2    O5 2050   0.611   2.817   9.603  0.6290  0.3572  0.4798
  134TCq2    O6 2051   0.775   2.967   9.626  0.1600  0.2312  0.3841
  134TCq2    H2 2052   0.722   3.174   9.682 -0.5315  0.9071  0.4481
  134TCq2    H3 2053   0.404   2.902   9.690  1.4008 -0.5304  0.3330
  134TCq2    H4 2054   0.334   3.319   9.763 -0.2662 -0.0233  2.0217
  135MPD2     C 2055   2.901   1.791   9.171 -0.2940  0.3851 -0.3931
  135MPD2    C1 2056   2.964   1.672   9.203  0.6961 -0.1260 -0.1503
  135MPD2    C2 2057   3.087   1.633   9.144  0.1308 -0.2441  0.5083
  135MPD2    C3 2058   3.151   1.727   9.064 -0.4508  0.4172  0.0212
  135MPD2    C4 2059   3.095   1.852   9.038  0.3709 -0.2361  0.0946
  135MPD2    C5 2060   2.974   1.874   9.091 -0.0784 -0.1132 -0.1908
  135MPD2     H 2061   3.111   1.529   9.166  0.2718 -0.3917 -0.3281
  135MPD2    H1 2062   3.142   1.931   8.982 -1.8604  3.1444  3.0109
  135MPD2    H2 2063   2.814   1.830   9.223  0.0864 -0.5414  0.9285
  135MPD2    H3 2064   2.933   1.973   9.071 -1.0681 -0.3673  0.5785
  135MPD2     N 2065   3.273   1.709   8.997 -0.5129 -0.4086  0.2553
  135MPD2    H5 2066   3.306   1.784   8.937  1.4315 -1.2422  0.2942
  135MPD2    N1 2067   2.919   1.591   9.308 -0.5447 -0.3938 -0.5934
  135MPD2    H7 2068   2.980   1.515   9.337 -1.3974 -0.9483 -0.2414
  136TCq2    C1 2069   2.808   1.613   9.387  0.2681  0.3322 -0.3540
  136TCq2    O2 2070   2.720   1.698   9.393 -0.3935 -0.2133 -0.3437
  136TCq2    C2 2071   2.801   1.509   9.490 -0.6439  0.0538  0.6575
  136TCq2    C3 2072   2.851   1.386   9.478  0.3652 -0.2608 -0.1864
  136TCq2    C4 2073   2.843   1.290   9.578  0.0298  0.7920 -0.1491
  136TCq2    C5 2074   2.776   1.321   9.693 -0.2501 -0.2278  0.1312
  136TCq2    C6 2075   2.720   1.446   9.703  0.1051  0.0564 -0.3340
  136TCq2    C7 2076   2.740   1.540   9.606  0.1894  0.7524  0.3896
  136TCq2    C8 2077   2.672   1.495   9.831 -0.3144 -0.2182 -0.3040
  136TCq2    O4 2078   2.599   1.594   9.833 -0.3253  0.0720  0.1275
  136TCq2    C9 2079   2.875   1.155   9.550  0.3492 -0.5470  0.3002
  136TCq2    O5 2080   2.906   1.099   9.657  0.2302 -0.0820  0.1516
  136TCq2    O6 2081   2.826   1.101   9.448 -0.1515  0.3466 -0.1446
  136TCq2    H2 2082   2.881   1.345   9.382  1.1820  1.4217 -0.6328
  136TCq2    H3 2083   2.749   1.235   9.755 -1.5072  1.5488  2.0348
  136TCq2    H4 2084   2.708   1.643   9.616 -1.5778 -0.0376  2.7745
  137MPD2     C 2085   2.720   4.636   9.550 -0.5303  0.9253 -0.1524
  137MPD2    C1 2086   2.767   4.721   9.449  0.0351  0.2367 -0.6253
  137MPD2    C2 2087   2.873   0.082   9.465 -0.0518 -0.5891  0.3464
  137MPD2    C3 2088   2.933   0.088   9.591 -0.4399 -0.0161  0.0013
  137MPD2    C4 2089   2.888   0.005   9.694  0.0695 -0.0095  0.4030
  137MPD2    C5 2090   2.784   4.637   9.675 -0.3042 -0.1057 -0.1309
  137MPD2     H 2091   2.896   0.153   9.386  0.3499 -3.7266 -2.3390
  137MPD2    H1 2092   2.927   0.008   9.794  1.5112  0.4703 -0.1778
  137MPD2    H2 2093   2.639   4.567   9.536  2.1044 -1.9963 -0.9892
  137MPD2    H3 2094   2.773   4.586   9.770 -1.1971 -0.0381 -0.2008
  137MPD2     N 2095   3.037   0.178   9.611 -0.4157  0.5145  0.0611
  137MPD2    H5 2096   3.047   0.255   9.546  0.6454  1.3407  1.2029
  137MPD2    N1 2097   2.693   4.722   9.328 -0.2598 -0.1182  0.2422
  137MPD2    H7 2098   2.605   4.670   9.329 -1.0085  1.1413  0.5552
  138TCq2    C1 2099   2.720   0.075   9.214 -0.3839 -0.4402 -0.0424
  138TCq2    O2 2100   2.817   0.142   9.182  0.4086  0.2042 -0.1734
  138TCq2    C2 2101   2.612   0.067   9.108 -0.5151 -0.3442  0.0466
  138TCq2    C3 2102   2.650   0.108   8.986  0.7218  0.4980 -0.0012
  138TCq2    C4 2103   2.548   0.112   8.885  0.3717  0.6203 -0.3196
  138TCq2    C5 2104   2.421   0.076   8.911 -0.7110  0.1098  0.6395
  138TCq2    C6 2105   2.393   0.041   9.041  0.4811 -0.7701  0.4476
  138TCq2    C7 2106   2.485   0.029   9.137 -0.3804 -0.2463 -0.2895
  138TCq2    C8 2107   2.260   0.014   9.071  0.1864 -0.3572 -0.1583
  138TCq2    O4 2108   2.197   4.698   8.970  0.3332  0.1750  0.7278
  138TCq2    C9 2109   2.590   0.162   8.761  0.6772 -0.6573 -0.2252
  138TCq2    O5 2110   2.710   0.209   8.748  0.6724 -0.2046  0.1994
  138TCq2    O6 2111   2.494   0.177   8.680  0.4190  0.2948 -0.5440
  138TCq2    H2 2112   2.749   0.146   8.962 -0.2130  2.8970 -0.0014
  138TCq2    H3 2113   2.345   0.082   8.834 -1.4973  0.1544  1.4253
  138TCq2    H4 2114   2.463   4.708   9.234  0.7854  0.1329  0.1382
  139TMC2    C1 2115   2.899   3.161  13.298  0.5114  0.3878 -0.9248
  139TMC2    C2 2116   2.873   3.124  13.169 -0.1647 -0.2664  0.2150
  139TMC2    C3 2117   2.768   3.173  13.108 -0.7425  0.0566 -0.9137
  139TMC2    C4 2118   2.824   3.258  13.360  0.5618 -0.1452 -0.8381
  139TMC2    C5 2119   2.707   3.289  13.301  0.1223  0.1768 -0.1804
  139TMC2    C6 2120   2.680   3.257  13.170  0.1332 -0.4364 -0.0001
  139TMC2     C 2121   3.030   3.113  13.353 -0.3842  0.4565 -0.8622
  139TMC2     O 2122   3.089   3.029  13.288 -0.2152  0.1358 -0.0172
  139TMC2     H 2123   2.940   3.058  13.115 -0.8260 -0.4756 -0.3531
  139TMC2    H1 2124   2.851   3.288  13.461 -0.7948 -0.4075 -0.3948
  139TMC2    H2 2125   2.580   3.277  13.133  0.5626 -0.6406 -1.2763
  139TMC2    C7 2126   2.617   3.375  13.370 -0.1017  1.1068  0.3242
  139TMC2    C8 2127   2.771   3.144  12.963 -0.1769  0.5707 -0.2128
  139TMC2    O1 2128   2.533   3.439  13.305 -0.1698  0.3424  0.2262
  139TMC2    O2 2129   2.819   3.044  12.915  0.1889  0.5732  0.2764
  139TMC2    O5 2130   2.711   3.245  12.902 -0.0244 -0.6808  0.4116
  139TMC2    H5 2131   2.678   3.316  12.960  0.3052 -0.2048  0.0177
  140MPD2     C 2132   3.237   3.251  13.633  0.0887 -0.2670  0.3311
  140MPD2    C1 2133   3.196   3.157  13.530 -0.5989 -0.3499  0.2392
  140MPD2    C2 2134   3.269   3.035  13.519 -0.2908  0.6017 -0.1252
  140MPD2    C3 2135   3.387   3.013  13.586 -0.2316  0.3939 -0.0057
  140MPD2    C4 2136   3.433   3.110  13.671  0.1852  0.2822  0.5263
  140MPD2    C5 2137   3.359   3.225  13.696 -0.4907  0.7806 -0.5659
  140MPD2     H 2138   3.240   2.959  13.448  0.0496  0.7012 -0.3677
  140MPD2    H1 2139   3.523   3.099  13.730 -0.3559 -1.5375  1.0067
  140MPD2    H2 2140   3.175   3.340  13.640  0.4948  0.0392  0.0493
  140MPD2    H3 2141   3.404   3.305  13.753 -0.4984  0.0046  0.5342
  140MPD2     N 2142   3.464   2.897  13.575  1.2962 -0.0113  0.0538
  140MPD2    H5 2143   3.559   2.888  13.609  1.8017  3.5369 -0.4686
  140MPD2    N1 2144   3.075   3.186  13.459  0.3130  0.0679 -0.2517
  140MPD2    H7 2145   3.025   3.272  13.476  0.0038 -0.3492  0.9754
  141TCq2    C1 2146   3.112   0.097  14.507 -1.0117 -0.1680 -1.2343
  141TCq2    O2 2147   3.201   0.140  14.429 -0.4140  0.0141  0.3261
  141TCq2    C2 2148   3.057   0.193  14.601 -0.4178  0.1915 -0.2659
  141TCq2    C3 2149   2.926   0.178  14.636  0.3153  0.2327  0.2401
  141TCq2    C4 2150   2.871   0.274  14.714  0.0066  0.5621 -0.6777
  141TCq2    C5 2151   2.936   0.391  14.744  0.3537 -0.4779 -0.0475
  141TCq2    C6 2152   3.069   0.400  14.705  0.2915 -0.3371 -0.5384
  141TCq2    C7 2153   3.131   0.309  14.620 -0.4174  0.0157  0.0416
  141TCq2    C8 2154   3.119   0.529  14.710 -0.1607  0.1359  0.5147
  141TCq2    O4 2155   3.048   0.625  14.715 -0.7167 -0.2449 -0.0268
  141TCq2    C9 2156   2.727   0.257  14.747  0.3032 -0.6845 -0.0132
  141TCq2    O5 2157   2.660   0.357  14.758  0.1441  0.2361 -0.3141
  141TCq2    O6 2158   2.680   0.142  14.765 -0.2571 -0.8102  0.3194
  141TCq2    H2 2159   2.870   0.090  14.608 -1.9931  1.9408 -0.4580
  141TCq2    H3 2160   2.881   0.466  14.800  0.4767  0.7933 -1.6305
  141TCq2    H4 2161   3.229   0.320  14.576  0.0288  0.2417  1.0935
  142MPD2     C 2162   1.463   3.217  10.638 -0.0884 -0.0930  0.3090
  142MPD2    C1 2163   1.509   3.254  10.513 -0.4069 -0.1261 -0.2222
  142MPD2    C2 2164   1.624   3.331  10.502  0.2621 -0.6196 -0.1832
  142MPD2    C3 2165   1.687   3.380  10.616  0.2726 -0.0595 -0.0091
  142MPD2    C4 2166   1.625   3.360  10.738 -0.5763 -0.0023  0.0116
  142MPD2    C5 2167   1.521   3.271  10.750  0.2903  0.7777  0.3629
  142MPD2     H 2168   1.673   3.364  10.411 -0.4030 -0.6787 -0.5574
  142MPD2    H1 2169   1.650   3.392  10.838  1.5433  0.7206 -0.7538
  142MPD2    H2 2170   1.373   3.157  10.647  0.3586 -0.9934 -1.1762
  142MPD2    H3 2171   1.465   3.253  10.841 -2.1778 -0.5769 -1.4070
  142MPD2     N 2172   1.803   3.452  10.611 -0.4375 -0.5963  0.2557
  142MPD2    H5 2173   1.831   3.501  10.696  2.0030 -0.3514 -0.6760
  142MPD2    N1 2174   1.426   3.221  10.401  0.1806 -0.7471 -0.1535
  142MPD2    H7 2175   1.342   3.167  10.420 -1.0098  0.6815 -1.3443
  143TCq2    C1 2176   1.886   3.465  10.507 -0.3342 -0.3491 -0.2520
  143TCq2    O2 2177   1.896   3.390  10.406  0.1278  0.2058 -0.0478
  143TCq2    C2 2178   1.993   3.565  10.528 -0.4183 -1.3389 -0.2110
  143TCq2    C3 2179   2.108   3.554  10.464 -0.4663  0.0732 -0.4734
  143TCq2    C4 2180   2.207   3.650  10.468  0.2212  0.1224  0.0222
  143TCq2    C5 2181   2.189   3.767  10.531 -0.0814 -0.4770  0.1004
  143TCq2    C6 2182   2.069   3.788  10.580 -0.6911 -0.1749 -0.3283
  143TCq2    C7 2183   1.974   3.689  10.589 -0.3623  0.3236 -0.7622
  143TCq2    C8 2184   2.033   3.915  10.647 -1.0610  0.1604  0.0887
  143TCq2    O4 2185   1.957   3.900  10.742  0.3334 -0.5554 -0.2366
  143TCq2    C9 2186   2.330   3.634  10.392  0.0561  0.1095 -0.1741
  143TCq2    O5 2187   2.426   3.711  10.423  0.3820  0.1159  0.0282
  143TCq2    O6 2188   2.335   3.539  10.308 -0.3945 -0.2912 -0.0137
  143TCq2    H2 2189   2.118   3.467  10.400  1.6624  1.9575 -2.7099
  143TCq2    H3 2190   2.262   3.845  10.513 -0.9963  0.3025 -0.2388
  143TCq2    H4 2191   1.883   3.710  10.643  0.5347  1.1176  0.4455
  144MPD2     C 2192   3.773   2.158   0.485  0.7514 -0.3356  0.3703
  144MPD2    C1 2193   3.652   2.148   0.551 -0.0274 -0.1758 -0.0741
  144MPD2    C2 2194   3.659   2.146   0.689 -0.5791 -0.0536 -0.0183
  144MPD2    C3 2195   3.780   2.155   0.757 -0.6497 -0.6149  0.6855
  144MPD2    C4 2196   3.897   2.163   0.689 -0.4997 -0.1397 -0.1516
  144MPD2    C5 2197   3.893   2.160   0.550  0.4878  0.2195  0.1539
  144MPD2     H 2198   3.563   2.138   0.738  0.4069  2.1316  2.2631
  144MPD2    H1 2199   3.996   2.164   0.734 -0.3297 -3.0397 -0.4229
  144MPD2    H2 2200   3.776   2.151   0.377  0.5547 -0.2084  0.3572
  144MPD2    H3 2201   3.990   2.178   0.504  0.7388 -1.0008  0.1892
  144MPD2     N 2202   3.796   2.180   0.898  0.9662 -0.5208  0.2611
  144MPD2    H5 2203   3.887   2.202   0.935  1.5865  0.5788 -1.9560
  144MPD2    N1 2204   3.533   2.133   0.482 -0.7401 -0.2653 -0.2428
  144MPD2    H7 2205   3.450   2.140   0.540 -1.7471 -1.1640 -1.5802
  145TCq2    C1 2206   3.691   2.187   0.989 -0.4242  0.4284 -0.3520
  145TCq2    O2 2207   3.574   2.158   0.969 -0.0648 -0.5121 -0.4564
  145TCq2    C2 2208   3.727   2.233   1.125  0.1736  0.1192  0.3288
  145TCq2    C3 2209   3.860   2.275   1.155 -0.1865 -0.3663  0.7161
  145TCq2    C4 2210   3.921   2.262   1.275  0.1919  0.1251  0.2981
  145TCq2    C5 2211   3.849   2.205   1.371 -0.5802  0.1316 -0.0177
  145TCq2    C6 2212   3.719   2.165   1.351 -0.6809  0.2520  0.1069
  145TCq2    C7 2213   3.652   2.186   1.232  0.1786 -0.4974  0.0359
  145TCq2    C8 2214   3.643   2.140   1.475  0.3822 -0.3822  0.1037
  145TCq2    O4 2215   3.699   2.080   1.566  0.2668 -0.2542 -0.3707
  145TCq2    C9 2216   4.062   2.285   1.297  0.1097 -0.0121  0.2497
  145TCq2    O5 2217   4.129   2.328   1.197  0.1892 -0.8584  0.3832
  145TCq2    O6 2218   4.109   2.278   1.411  0.7997 -0.2968 -1.2333
  145TCq2    H2 2219   3.911   2.340   1.084  1.0611 -0.4315  1.5403
  145TCq2    H3 2220   3.895   2.207   1.469 -0.3810 -0.8230 -0.0900
  145TCq2    H4 2221   3.565   2.122   1.218 -0.4573  0.6806 -1.2913
  146TMC2    C1 2222   0.525   0.793  12.110 -0.7402  0.0532 -0.9105
  146TMC2    C2 2223   0.463   0.781  11.991 -0.6031 -0.5686 -0.2533
  146TMC2    C3 2224   0.518   0.700  11.885  0.0434  0.9262  0.0806
  146TMC2    C4 2225   0.639   0.718  12.122 -0.0553  0.4763 -0.3986
  146TMC2    C5 2226   0.700   0.654  12.018 -0.7829 -0.3182 -0.3721
  146TMC2    C6 2227   0.639   0.643  11.896 -0.7807  0.0702 -0.6878
  146TMC2     C 2228   0.467   0.859  12.223 -0.2446  0.8757  0.0432
  146TMC2     O 2229   0.380   0.941  12.205 -0.1451  0.6917 -0.0566
  146TMC2     H 2230   0.373   0.838  11.970  0.6263  1.3361 -0.3059
  146TMC2    H1 2231   0.700   0.719  12.211  0.2844  0.4510 -0.6327
  146TMC2    H2 2232   0.688   0.588  11.817  0.0575  3.5343 -2.5701
  146TMC2    C7 2233   0.820   0.572  12.034 -0.7122  0.0117 -0.3409
  146TMC2    C8 2234   0.472   0.716  11.749  0.3069  0.0864 -0.7168
  146TMC2    O1 2235   0.887   0.552  11.937 -0.2170 -0.4017 -0.5431
  146TMC2    O2 2236   0.486   0.636  11.656 -0.0194 -0.6076 -0.6960
  146TMC2    O5 2237   0.450   0.847  11.736  0.4670  0.0237 -0.2159
  146TMC2    H5 2238   0.484   0.907  11.805 -0.6845  0.9725 -0.4742
  147MPD2     C 2239   1.240   0.501  12.326  0.4120 -0.3277  0.1111
  147MPD2    C1 2240   1.126   0.481  12.404  1.2067  0.0194 -0.0086
  147MPD2    C2 2241   0.995   0.476  12.346 -0.3333 -0.2751  0.7467
  147MPD2    C3 2242   0.988   0.509  12.209  0.3740  0.3673 -0.1956
  147MPD2    C4 2243   1.090   0.529  12.132 -0.0821  0.1842  0.0378
  147MPD2    C5 2244   1.215   0.525  12.190 -0.8798 -0.1834 -0.4314
  147MPD2     H 2245   0.911   0.441  12.405 -2.0857 -0.3464 -1.8087
  147MPD2    H1 2246   1.082   0.521  12.024  1.1178 -0.7097  0.0083
  147MPD2    H2 2247   1.342   0.497  12.361  0.4428 -2.3548 -0.2115
  147MPD2    H3 2248   1.298   0.541  12.121 -1.1845 -0.4208 -0.8534
  147MPD2     N 2249   0.858   0.550  12.166  0.1803 -0.2484  0.2679
  147MPD2    H5 2250   0.779   0.542  12.229  0.2053 -0.9630  0.2102
  147MPD2    N1 2251   1.157   0.459  12.538 -0.1401 -0.0112 -0.3366
  147MPD2    H7 2252   1.254   0.469  12.568 -0.1978 -1.2650  0.2603
  148MPD2     C 2253   0.785   4.581  10.865  0.2782  0.3645  0.0345
  148MPD2    C1 2254   0.845   4.453  10.869  0.6891 -0.3526 -0.1148
  148MPD2    C2 2255   0.797   4.357  10.782  0.8796  0.0108  0.9132
  148MPD2    C3 2256   0.700   4.375  10.691  0.8371  0.0625 -0.6459
  148MPD2    C4 2257   0.656   4.507  10.681  0.3648  0.4534  0.1333
  148MPD2    C5 2258   0.708   4.607  10.764  0.8129 -0.5987  0.7319
  148MPD2     H 2259   0.849   4.263  10.788  2.6455  0.8731 -0.6439
  148MPD2    H1 2260   0.586   4.540  10.605 -1.2567 -0.9832  1.0102
  148MPD2    H2 2261   0.820   4.664  10.927  4.8921 -1.8766  0.3837
  148MPD2    H3 2262   0.682   4.712  10.756 -1.4155 -1.1384  0.8137
  148MPD2     N 2263   0.657   4.274  10.602 -0.3563 -0.0733  0.0153
  148MPD2    H5 2264   0.594   4.315  10.534  1.0908 -0.6824 -1.7136
  148MPD2    N1 2265   0.944   4.422  10.959  0.3012  0.0609  0.6769
  148MPD2    H7 2266   0.977   4.328  10.938 -0.4563 -0.1899  0.5948
  149TCq2    C1 2267   1.004   4.501  11.054 -0.3600 -1.5526 -0.2823
  149TCq2    O2 2268   0.987   4.620  11.070 -0.4892 -0.1215 -0.9457
  149TCq2    C2 2269   1.093   4.429  11.146  0.3072  0.1398  0.3042
  149TCq2    C3 2270   1.138   4.500  11.255  0.5614  0.5665 -0.0195
  149TCq2    C4 2271   1.195   4.431  11.359 -0.1774 -0.1350  0.6017
  149TCq2    C5 2272   1.178   4.293  11.372  0.0314  0.0801  0.2626
  149TCq2    C6 2273   1.130   4.223  11.264 -0.9219  0.1110 -0.1400
  149TCq2    C7 2274   1.096   4.286  11.146 -0.3466  1.1309  0.9041
  149TCq2    C8 2275   1.136   4.078  11.250  0.4103  0.4073  0.6868
  149TCq2    O4 2276   1.155   4.034  11.139 -0.2800  0.0682 -0.1722
  149TCq2    C9 2277   1.226   4.517  11.478 -0.2487 -0.0269 -0.4075
  149TCq2    O5 2278   1.216   4.647  11.461  0.9099  0.1195 -0.3822
  149TCq2    O6 2279   1.250   4.458  11.584 -0.6356 -0.4006  0.4607
  149TCq2    H2 2280   1.147   4.607  11.241  1.9417  0.6272  1.2350
  149TCq2    H3 2281   1.195   4.237  11.463 -2.2023 -0.8306  0.1160
  149TCq2    H4 2282   1.042   4.225  11.075  0.6780  3.0256 -1.4831
  150MPD2     C 2283   2.658   3.404  12.242 -0.0979 -0.2769 -0.3775
  150MPD2    C1 2284   2.610   3.510  12.165  0.4140 -0.8181 -0.2543
  150MPD2    C2 2285   2.667   3.635  12.182  0.4190  0.1357 -1.2902
  150MPD2    C3 2286   2.771   3.656  12.276 -0.0687 -0.5333  0.4619
  150MPD2    C4 2287   2.826   3.549  12.345 -0.0001  0.2555  0.0354
  150MPD2    C5 2288   2.773   3.425  12.319  0.1923  0.0283  0.6051
  150MPD2     H 2289   2.639   3.728  12.134  0.2250 -0.3768 -2.1725
  150MPD2    H1 2290   2.907   3.565  12.415  0.1829 -0.5304  0.0034
  150MPD2    H2 2291   2.619   3.303  12.239  2.4806 -1.2441 -1.2956
  150MPD2    H3 2292   2.813   3.338  12.370 -0.6286 -1.3116 -1.0374
  150MPD2     N 2293   2.814   3.794  12.293  0.8583 -0.6366 -0.1057
  150MPD2    H5 2294   2.759   3.870  12.253  0.4242  0.2632  2.2091
  150MPD2    N1 2295   2.494   3.496  12.085  0.4092  0.4012  0.1592
  150MPD2    H7 2296   2.460   3.401  12.070 -3.0567  1.5818  0.5282
  151TCq2    C1 2297   2.920   3.834  12.372  0.5440 -0.2523 -0.4078
  151TCq2    O2 2298   2.994   3.771  12.450 -0.0630 -0.5681  0.2604
  151TCq2    C2 2299   2.947   3.977  12.350 -0.1062 -0.1774  0.1107
  151TCq2    C3 2300   2.904   4.036  12.235  0.7551 -0.5434  1.4117
  151TCq2    C4 2301   2.942   4.165  12.219 -1.5267 -0.0232 -0.3130
  151TCq2    C5 2302   3.046   4.223  12.289 -0.3749  0.2033  0.2023
  151TCq2    C6 2303   3.103   4.146  12.387 -0.5727 -0.3781  0.2730
  151TCq2    C7 2304   3.050   4.030  12.422  0.4387 -0.0707 -0.7910
  151TCq2    C8 2305   3.215   4.195  12.464 -0.1684 -0.4354 -0.2998
  151TCq2    O4 2306   3.241   4.316  12.448  0.2229 -0.5892  0.0059
  151TCq2    C9 2307   2.902   4.236  12.101 -0.5841  0.4327 -0.7339
  151TCq2    O5 2308   2.868   4.164  12.005 -0.1554 -0.3376  0.4078
  151TCq2    O6 2309   2.922   4.359  12.090  0.6053  0.2644  0.0749
  151TCq2    H2 2310   2.851   3.986  12.155 -0.1634  0.3498  1.4615
  151TCq2    H3 2311   3.093   4.317  12.259  1.5025 -1.4275 -1.9870
  151TCq2    H4 2312   3.084   3.977  12.511 -1.1083  0.6965  0.2716
  152MPD2     C 2313   2.277   3.280  12.510  0.4154  0.2479 -0.2803
  152MPD2    C1 2314   2.310   3.404  12.458  1.0261  0.7092  0.0317
  152MPD2    C2 2315   2.221   3.467  12.371 -0.0475 -0.0132 -0.6164
  152MPD2    C3 2316   2.105   3.407  12.320 -0.4589  0.0380 -0.3991
  152MPD2    C4 2317   2.088   3.279  12.363  0.0064  0.1793  0.6340
  152MPD2    C5 2318   2.165   3.221  12.461 -1.1211  0.0205  0.2708
  152MPD2     H 2319   2.247   3.569  12.348 -0.9875  1.1226  3.3223
  152MPD2    H1 2320   2.006   3.216  12.331  1.0452 -1.0984  0.4700
  152MPD2    H2 2321   2.342   3.225  12.577 -0.4775  0.5640  0.8510
  152MPD2    H3 2322   2.144   3.119  12.490  0.3801 -0.7529 -1.3802
  152MPD2     N 2323   2.021   3.479  12.231  0.5552 -0.0482 -0.3743
  152MPD2    H5 2324   2.058   3.566  12.195 -0.6341  0.5499 -0.1556
  152MPD2    N1 2325   2.416   3.465  12.523  0.5651  0.1839  0.5695
  152MPD2    H7 2326   2.468   3.396  12.575 -1.1612  0.6355  2.8701
  153TCq2    C1 2327   2.446   3.602  12.522 -0.4266 -0.4287  1.1392
  153TCq2    O2 2328   2.409   3.692  12.447  0.0925  0.1706  0.0306
  153TCq2    C2 2329   2.547   3.640  12.625  0.0612  1.0010  0.5596
  153TCq2    C3 2330   2.582   3.561  12.734  0.6923  0.0384  0.0474
  153TCq2    C4 2331   2.669   3.620  12.822  0.0536  0.0449 -0.3870
  153TCq2    C5 2332   2.708   3.752  12.822 -0.1897  0.1602  0.2971
  153TCq2    C6 2333   2.669   3.826  12.710  0.2415  0.4330 -0.1609
  153TCq2    C7 2334   2.597   3.769  12.609 -0.2782  0.2396 -0.5458
  153TCq2    C8 2335   2.744   3.941  12.673  0.3002  0.5906  0.5138
  153TCq2    O4 2336   2.711   4.005  12.571 -0.6510  0.0431 -0.4821
  153TCq2    C9 2337   2.723   3.546  12.932 -0.1376  0.5373 -0.2049
  153TCq2    O5 2338   2.637   3.466  12.982  0.5441  0.3834  0.3005
  153TCq2    O6 2339   2.834   3.578  12.980 -0.1176  0.0008  0.0686
  153TCq2    H2 2340   2.557   3.458  12.757  1.7320 -0.4231 -0.9038
  153TCq2    H3 2341   2.772   3.789  12.901 -1.2968  2.0646  0.3009
  153TCq2    H4 2342   2.581   3.823  12.516  0.5829 -0.4918 -1.1212
  154MPD2     C 2343   3.677   2.498   0.418  0.4675 -0.2763 -0.5133
  154MPD2    C1 2344   3.567   2.531   0.489  0.0094 -1.1887 -0.7579
  154MPD2    C2 2345   3.450   2.570   0.423 -0.1961 -0.2913 -0.0752
  154MPD2    C3 2346   3.460   2.592   0.279 -0.4331  0.3698 -0.3404
  154MPD2    C4 2347   3.578   2.560   0.212 -1.0152 -0.0028  0.1072
  154MPD2    C5 2348   3.681   2.501   0.284  0.3186  0.3580 -0.3111
  154MPD2     H 2349   3.356   2.596   0.470 -0.1750 -1.6058  0.6792
  154MPD2    H1 2350   3.589   2.572   0.105  1.9768  1.4774  0.5933
  154MPD2    H2 2351   3.769   2.473   0.470  0.1304  1.9734  1.1988
  154MPD2    H3 2352   3.772   2.486   0.227  1.1658  2.8991  0.4025
  154MPD2     N 2353   3.351   2.652   0.213  0.2570 -0.9304 -0.5847
  154MPD2    H5 2354   3.268   2.661   0.270 -1.3969 -1.7392 -2.8718
  154MPD2    N1 2355   3.576   2.549   0.630 -0.0220 -0.1448  0.0989
  154MPD2    H7 2356   3.666   2.524   0.670  0.1747  0.3686 -0.0228
  155TCq2    C1 2357   3.482   2.613   0.703 -0.0192  0.4043 -0.6772
  155TCq2    O2 2358   3.379   2.670   0.675 -0.3174  0.1759 -0.4987
  155TCq2    C2 2359   3.532   2.646   0.840  0.1291 -0.2854  0.4817
  155TCq2    C3 2360   3.655   2.598   0.880 -0.1859 -0.6551  0.0748
  155TCq2    C4 2361   3.718   2.667   0.978  0.0591  0.0324 -0.7416
  155TCq2    C5 2362   3.674   2.792   1.021  0.2228 -0.1937  0.5843
  155TCq2    C6 2363   3.552   2.836   0.978  0.1811 -0.3314  0.2019
  155TCq2    C7 2364   3.485   2.770   0.875  0.7287  0.0323 -0.1756
  155TCq2    C8 2365   3.540   2.989   0.979 -0.3687 -0.6352  0.2704
  155TCq2    O4 2366   3.511   3.041   0.872  0.0996 -0.4410  0.2777
  155TCq2    C9 2367   3.857   2.634   1.017 -0.0829  0.3871  0.1793
  155TCq2    O5 2368   3.907   2.729   1.081 -0.1971 -0.6564  0.0476
  155TCq2    O6 2369   3.916   2.556   0.941 -0.0598  0.4501  0.5717
  155TCq2    H2 2370   3.689   2.503   0.841  0.2697  0.3802 -2.0522
  155TCq2    H3 2371   3.731   2.861   1.083  1.2845 -0.0439 -0.5699
  155TCq2    H4 2372   3.399   2.822   0.834 -0.5642  0.8534  3.5543
  156MPD2     C 2373   2.320   0.737  12.154  0.0669  0.4997 -0.1597
  156MPD2    C1 2374   2.444   0.704  12.107  0.0233  0.1290  1.1856
  156MPD2    C2 2375   2.543   0.680  12.198  0.2796  0.5741 -0.0891
  156MPD2    C3 2376   2.519   0.669  12.331 -0.3885 -0.2340 -0.5221
  156MPD2    C4 2377   2.394   0.697  12.383  0.3972  0.2487  0.1131
  156MPD2    C5 2378   2.296   0.732  12.292 -0.3411  0.2728  0.0515
  156MPD2     H 2379   2.640   0.644  12.165 -0.2488  0.1903 -1.1992
  156MPD2    H1 2380   2.371   0.699  12.489  0.6508 -2.8266  0.2240
  156MPD2    H2 2381   2.231   0.759  12.095  0.2093  2.1382  0.2168
  156MPD2    H3 2382   2.199   0.751  12.336 -0.7859 -0.0827 -0.7741
  156MPD2     N 2383   2.638   0.638  12.410  0.2456 -0.1485  0.3371
  156MPD2    H5 2384   2.712   0.596  12.354 -0.0418  0.5854 -0.5788
  156MPD2    N1 2385   2.464   0.708  11.966  0.1641 -0.1374 -0.0389
  156MPD2    H7 2386   2.383   0.745  11.917 -0.7485 -1.3178  0.5975
  157TCq2    C1 2387   2.574   0.662  11.899 -0.1462 -0.0734 -0.8762
  157TCq2    O2 2388   2.664   0.596  11.946 -0.0082 -0.5965 -0.2101
  157TCq2    C2 2389   2.573   0.688  11.756 -0.2073 -0.5489  0.0043
  157TCq2    C3 2390   2.671   0.622  11.680  0.0973 -0.5328  0.3318
  157TCq2    C4 2391   2.687   0.665  11.554  0.8122 -0.1716  0.6799
  157TCq2    C5 2392   2.597   0.756  11.505 -0.0810 -0.5430 -0.5048
  157TCq2    C6 2393   2.499   0.817  11.581 -0.0450  1.0711  0.5138
  157TCq2    C7 2394   2.485   0.789  11.709 -0.8011 -0.1063 -0.2670
  157TCq2    C8 2395   2.414   0.913  11.526  0.8148  0.2002 -0.1405
  157TCq2    O4 2396   2.448   0.974  11.423 -0.0576  0.2006  0.2028
  157TCq2    C9 2397   2.770   0.580  11.473 -0.4700  0.8152  0.1840
  157TCq2    O5 2398   2.755   0.606  11.351 -0.1488 -0.1214  0.0532
  157TCq2    O6 2399   2.837   0.484  11.521  0.4082  0.1246 -0.0456
  157TCq2    H2 2400   2.734   0.541  11.717  1.4352  0.5410  0.4160
  157TCq2    H3 2401   2.604   0.787  11.402  0.7678  0.8556 -0.0301
  157TCq2    H4 2402   2.425   0.843  11.781  0.7091  2.3190 -0.8292
  158TMC2    C1 2403   3.120   0.109  13.281 -0.3512 -0.5928 -0.3254
  158TMC2    C2 2404   3.201   0.184  13.201  0.3583  0.3889 -0.2442
  158TMC2    C3 2405   3.168   0.189  13.071 -0.4943 -0.1121  0.5374
  158TMC2    C4 2406   3.009   0.040  13.235  0.3088  0.4946  0.0041
  158TMC2    C5 2407   2.969   0.069  13.101 -0.4547 -0.6103  1.0311
  158TMC2    C6 2408   3.054   0.141  13.023  0.1519 -0.1588  0.0117
  158TMC2     C 2409   3.133   0.129  13.421  0.0676  0.5679 -0.4780
  158TMC2     O 2410   3.201   0.227  13.460  0.3754 -0.3727  0.4872
  158TMC2     H 2411   3.298   0.213  13.240  0.4708 -1.1028  0.5925
  158TMC2    H1 2412   2.947   4.706  13.303  0.0069  0.7636 -0.0457
  158TMC2    H2 2413   3.027   0.153  12.918  0.2272  0.7788  0.0968
  158TMC2    C7 2414   2.858   4.719  13.041  0.4023 -0.3017 -0.3046
  158TMC2    C8 2415   3.254   0.265  12.983 -0.6536  0.2662 -0.2442
  158TMC2    O1 2416   2.836   0.028  12.925  0.7714  0.0636 -0.5125
  158TMC2    O2 2417   3.269   0.240  12.866 -0.4460 -0.3504  0.0715
  158TMC2    O5 2418   3.281   0.386  13.042  0.0872 -0.2655  0.1219
  158TMC2    H5 2419   3.245   0.406  13.131  1.9084  0.0950  0.7965
  159MPD2     C 2420   3.007   0.007  13.901  0.2085 -0.2573 -0.1688
  159MPD2    C1 2421   2.988   4.614  13.821  0.1652 -0.1859 -0.4254
  159MPD2    C2 2422   3.017   4.628  13.689 -0.0039 -0.2424 -0.1614
  159MPD2    C3 2423   3.066   0.022  13.630  1.0070  0.5342 -0.2429
  159MPD2    C4 2424   3.082   0.130  13.710  0.2170  0.6644 -0.4336
  159MPD2    C5 2425   3.047   0.122  13.840 -0.9184 -0.3177 -0.5684
  159MPD2     H 2426   2.995   4.544  13.623  0.8663 -0.6838  0.1075
  159MPD2    H1 2427   3.122   0.224  13.675  0.3559 -0.0214 -2.1290
  159MPD2    H2 2428   2.986   4.720  14.007 -2.9567  0.2872 -0.7554
  159MPD2    H3 2429   3.072   0.205  13.905 -0.4027 -0.9138 -0.0077
  159MPD2     N 2430   3.090   0.022  13.492 -0.8231 -0.7270 -0.2642
  159MPD2    H5 2431   3.068   4.662  13.437 -0.9467  0.1516 -1.5570
  159MPD2    N1 2432   2.931   4.492  13.880  0.3229  0.8303 -0.0959
  159MPD2    H7 2433   2.913   4.479  13.979  1.5425 -0.7393 -0.0817
  160TMC2    C1 2434   2.929   2.345   1.400  0.2095  0.2113  0.2762
  160TMC2    C2 2435   3.039   2.271   1.433 -0.4820  0.7827 -1.1542
  160TMC2    C3 2436   3.110   2.205   1.335  0.6302 -0.4192 -0.3542
  160TMC2    C4 2437   2.878   2.337   1.268  0.0659 -0.3592 -0.6306
  160TMC2    C5 2438   2.944   2.259   1.174  0.0610 -0.0112 -0.8002
  160TMC2    C6 2439   3.056   2.187   1.203  0.1456  0.7744  0.0493
  160TMC2     C 2440   2.889   2.450   1.483 -0.6775  0.0893  0.2150
  160TMC2     O 2441   2.915   2.438   1.602  0.0751 -0.0109  0.2095
  160TMC2     H 2442   3.079   2.290   1.532  0.3196  0.8830 -1.4979
  160TMC2    H1 2443   2.787   2.383   1.230  0.0274  0.3506  0.3188
  160TMC2    H2 2444   3.113   2.128   1.133 -2.0511  0.2545 -1.2901
  160TMC2    C7 2445   2.899   2.243   1.039  0.6613  0.2388 -0.0597
  160TMC2    C8 2446   3.240   2.144   1.363 -0.2136  0.1366  0.3853
  160TMC2    O1 2447   2.956   2.154   0.977 -0.7137 -0.3912 -0.7087
  160TMC2    O2 2448   3.334   2.164   1.283  0.3107  0.1236  0.0430
  160TMC2    O5 2449   3.203   2.027   1.412  0.2726  0.5658 -0.3481
  160TMC2    H5 2450   3.138   2.031   1.485  0.4667  0.1442 -0.1499
  161MPD2     C 2451   2.759   2.690   1.599 -0.1313 -0.3851  0.7944
  161MPD2    C1 2452   2.738   2.648   1.474  0.1739 -0.6560  0.1088
  161MPD2    C2 2453   2.652   2.722   1.398 -0.0638  0.5395 -0.0415
  161MPD2    C3 2454   2.577   2.832   1.447  0.0069  0.7561  0.0780
  161MPD2    C4 2455   2.585   2.868   1.577  0.3805 -1.0209 -0.4766
  161MPD2    C5 2456   2.683   2.800   1.653  0.0781 -0.1999  0.7301
  161MPD2     H 2457   2.642   2.683   1.297 -0.8558  1.5500 -0.3511
  161MPD2    H1 2458   2.529   2.950   1.620  2.2804 -0.1261  0.2900
  161MPD2    H2 2459   2.838   2.651   1.662 -0.8117 -3.5974 -0.3859
  161MPD2    H3 2460   2.704   2.839   1.752  0.9320  0.7243  0.1835
  161MPD2     N 2461   2.501   2.919   1.357  0.1943 -0.0384 -0.7641
  161MPD2    H5 2462   2.465   3.001   1.405  1.8834  0.2462  0.0310
  161MPD2    N1 2463   2.803   2.534   1.416  0.2552  0.1786  0.1343
  161MPD2    H7 2464   2.790   2.520   1.317  2.6141 -1.4943  0.0922
  162TMC2    C1 2465   0.130   0.166   0.669  0.2956  0.0648  0.6298
  162TMC2    C2 2466   0.111   0.265   0.574  0.2402  0.3584 -0.4006
  162TMC2    C3 2467   4.703   0.298   0.555 -0.2064 -0.2182 -0.0698
  162TMC2    C4 2468   0.027   0.093   0.725  0.9125  0.8061 -0.1355
  162TMC2    C5 2469   4.616   0.132   0.692 -0.2326 -0.5093  0.3545
  162TMC2    C6 2470   4.594   0.237   0.607 -0.1577  0.5040  0.6599
  162TMC2     C 2471   0.267   0.124   0.707  0.6937 -0.8050  0.3452
  162TMC2     O 2472   0.359   0.173   0.647  0.2799 -0.4366 -0.3951
  162TMC2     H 2473   0.189   0.320   0.523  0.6731  1.1122  1.0736
  162TMC2    H1 2474   0.041   4.719   0.772 -1.1661  1.4855  1.8445
  162TMC2    H2 2475   4.492   0.256   0.576  0.6787  1.3047 -1.6160
  162TMC2    C7 2476   4.513   0.069   0.769  0.7127  0.5115 -0.4763
  162TMC2    C8 2477   4.683   0.408   0.459  0.1738 -0.2615 -0.4791
  162TMC2    O1 2478   4.399   0.072   0.722 -0.7931  0.4941  0.1553
  162TMC2    O2 2479   0.044   0.499   0.434 -0.1151  0.2455 -0.3562
  162TMC2    O5 2480   4.580   0.370   0.378 -0.5467  0.4115 -0.0528
  162TMC2    H5 2481   4.561   0.274   0.385  1.0850  0.1625  1.0558
  163MPD2     C 2482   0.593   4.552   0.969 -0.7912 -0.1709  0.6457
  163MPD2    C1 2483   0.598   4.601   0.842 -0.2840 -0.2064 -0.0725
  163MPD2    C2 2484   0.493   4.674   0.792 -0.5439  0.0068 -0.6827
  163MPD2    C3 2485   0.382   4.717   0.875 -0.0914 -0.3082 -0.7649
  163MPD2    C4 2486   0.389   4.684   1.010  0.3542  0.1780  0.0640
  163MPD2    C5 2487   0.484   4.590   1.047  0.4463  0.0677  0.1184
  163MPD2     H 2488   0.487   4.696   0.686 -0.4813 -2.1820 -1.1581
  163MPD2    H1 2489   0.308   4.700   1.081  0.3095  0.4901 -0.0574
  163MPD2    H2 2490   0.668   4.488   1.015  0.3796  2.4828  2.4773
  163MPD2    H3 2491   0.473   4.550   1.147  0.5610 -1.2864 -0.4122
  163MPD2     N 2492   0.268   0.060   0.826  0.3433 -0.3528  0.0421
  163MPD2    H5 2493   0.198   0.073   0.898  1.6126 -4.4743  1.9958
  163MPD2    N1 2494   0.700   4.567   0.751 -0.2701 -0.3559 -0.3129
  163MPD2    H7 2495   0.682   4.587   0.654 -0.4848  2.6166  0.3372
  164TCq2    C1 2496   0.725   4.193  11.197 -0.3088 -0.2528  0.0917
  164TCq2    O2 2497   0.673   4.258  11.111  0.5188 -0.1529  0.4133
  164TCq2    C2 2498   0.745   4.266  11.323  0.1714  0.1739 -0.2766
  164TCq2    C3 2499   0.831   4.204  11.413 -0.3850 -0.1911  0.6914
  164TCq2    C4 2500   0.874   4.288  11.515 -0.5065  0.4513  0.1886
  164TCq2    C5 2501   0.847   4.419  11.524  0.3543  1.1365  0.0909
  164TCq2    C6 2502   0.768   4.471  11.430  0.2641  0.2964  0.6203
  164TCq2    C7 2503   0.723   4.400  11.323 -0.2546 -0.0063 -0.6488
  164TCq2    C8 2504   0.725   4.610  11.437  0.0115 -0.1935 -0.0310
  164TCq2    O4 2505   0.671   4.658  11.340 -0.3399  0.5346 -0.2389
  164TCq2    C9 2506   0.954   4.226  11.616  0.5165  0.6300 -0.0699
  164TCq2    O5 2507   0.996   4.300  11.709  0.0868 -0.3767 -0.4664
  164TCq2    O6 2508   1.003   4.114  11.585  0.0892 -0.4881 -0.5465
  164TCq2    H2 2509   0.840   4.096  11.411  0.2346 -0.0496 -3.8869
  164TCq2    H3 2510   0.891   4.470  11.610 -1.5342  0.0711  1.6730
  164TCq2    H4 2511   0.647   4.440  11.256 -0.4861 -0.0420 -0.4094
  165MPD2     C 2512   2.998   0.708   1.795  0.5103  0.0277 -0.5923
  165MPD2    C1 2513   2.873   0.653   1.832 -0.5304 -0.5652  0.7254
  165MPD2    C2 2514   2.804   0.722   1.938 -0.6412  0.3594 -0.6192
  165MPD2    C3 2515   2.853   0.844   1.987  0.6992  0.0981  0.2072
  165MPD2    C4 2516   2.983   0.888   1.950  0.0557 -0.8003  1.1214
  165MPD2    C5 2517   3.052   0.823   1.848 -0.1418 -0.4192  0.5934
  165MPD2     H 2518   2.707   0.689   1.975 -0.2949 -0.3586 -0.3415
  165MPD2    H1 2519   3.037   0.976   1.984  0.3190 -0.2932 -0.6224
  165MPD2    H2 2520   3.068   0.653   1.734  1.5519  1.0127 -0.2810
  165MPD2    H3 2521   3.154   0.849   1.826  0.0395  0.4317  2.4467
  165MPD2     N 2522   2.765   0.919   2.065  0.3344  0.2659 -0.2459
  165MPD2    H5 2523   2.802   1.009   2.095  0.4020  1.1839 -3.0499
  165MPD2    N1 2524   2.832   0.535   1.771 -0.3975  0.2632 -0.9108
  165MPD2    H7 2525   2.886   0.507   1.690  1.6216  0.8047  0.2410
  166TCq2    C1 2526   2.640   0.888   2.109 -0.0925 -0.1507  0.2853
  166TCq2    O2 2527   2.562   0.801   2.074  0.1948  0.6545 -0.3068
  166TCq2    C2 2528   2.593   0.987   2.207 -0.5119 -0.4454  0.5519
  166TCq2    C3 2529   2.456   0.982   2.227  0.2380  0.0978 -0.1571
  166TCq2    C4 2530   2.394   1.103   2.246 -0.3200 -0.6868 -0.0530
  166TCq2    C5 2531   2.463   1.221   2.260 -0.1856  0.5039  0.3749
  166TCq2    C6 2532   2.602   1.217   2.245  0.0661  1.1961  0.5618
  166TCq2    C7 2533   2.667   1.099   2.227 -0.4809  0.3620 -0.4718
  166TCq2    C8 2534   2.668   1.328   2.173  0.1518 -0.0990  0.2305
  166TCq2    O4 2535   2.756   1.285   2.099 -0.8178  0.4902 -0.3856
  166TCq2    C9 2536   2.251   1.104   2.255  0.7966 -0.2942 -0.5845
  166TCq2    O5 2537   2.192   0.997   2.281 -0.2442  0.0697 -0.4222
  166TCq2    O6 2538   2.200   1.222   2.285  0.2516 -0.0948  0.4683
  166TCq2    H2 2539   2.389   0.902   2.199  0.1519 -0.2842  1.1583
  166TCq2    H3 2540   2.408   1.314   2.268 -0.6754  0.3959 -1.6264
  166TCq2    H4 2541   2.775   1.093   2.223 -0.6641 -2.4800 -0.9302
  167TMC2    C1 2542   0.213   4.612  12.530 -0.2423  0.3549 -0.2526
  167TMC2    C2 2543   0.154   4.672  12.634  0.7621 -0.4977  0.4043
  167TMC2    C3 2544   0.142   4.603  12.754  0.5769 -0.5415  0.1174
  167TMC2    C4 2545   0.261   4.484  12.539  0.7800 -0.9687 -0.0741
  167TMC2    C5 2546   0.253   4.423  12.664  0.3610 -0.3008  0.2721
  167TMC2    C6 2547   0.195   4.479  12.772  0.0827  0.0361 -0.3467
  167TMC2     C 2548   0.218   4.683  12.404 -0.6427  0.0283  0.4179
  167TMC2     O 2549   0.190   0.079  12.414 -0.2289 -0.2256  0.0660
  167TMC2     H 2550   0.098   0.041  12.616 -0.5759 -1.3229  0.3189
  167TMC2    H1 2551   0.288   4.429  12.450  0.2506  0.6656 -1.2397
  167TMC2    H2 2552   0.189   4.431  12.869  2.7498  1.5608  0.5724
  167TMC2    C7 2553   0.279   4.281  12.680  0.4899 -1.1545 -0.2711
  167TMC2    C8 2554   0.074   4.664  12.864 -0.2401 -0.2457  0.1274
  167TMC2    O1 2555   0.224   4.226  12.769  0.6856 -0.2157  0.0398
  167TMC2    O2 2556   0.014   4.603  12.952 -0.0469  0.4659 -0.7362
  167TMC2    O5 2557   0.076   0.075  12.844 -0.0916 -0.0442  0.8962
  167TMC2    H5 2558   0.150   0.105  12.787 -1.4062 -0.5986 -1.1205
  168MPD2     C 2559   0.123   0.020  12.119  0.4767 -0.1567  0.5597
  168MPD2    C1 2560   0.169   4.615  12.164 -0.0946 -0.3873  0.3194
  168MPD2    C2 2561   0.186   4.509  12.075 -0.1106 -0.7933 -0.0613
  168MPD2    C3 2562   0.144   4.535  11.945 -0.3217 -0.1326  0.2203
  168MPD2    C4 2563   0.082   4.653  11.902  0.0638  0.6609  0.2833
  168MPD2    C5 2564   0.081   0.035  11.987  0.3934 -0.7044 -0.7387
  168MPD2     H 2565   0.208   4.408  12.108  2.6903  0.1397  0.8851
  168MPD2    H1 2566   0.046   4.666  11.801  1.2798 -1.0228 -0.3679
  168MPD2    H2 2567   0.118   0.107  12.182  0.9760  1.8005 -2.1040
  168MPD2    H3 2568   0.057   0.131  11.943 -0.9107 -0.3904  0.6661
  168MPD2     N 2569   0.142   4.433  11.847  0.1476  0.5849 -0.4749
  168MPD2    H5 2570   0.084   4.456  11.767  1.4031  3.0716 -0.6653
  168MPD2    N1 2571   0.216   4.596  12.295  0.3497  0.1358 -0.5242
  168MPD2    H7 2572   0.240   4.502  12.325 -3.9481 -0.5944  0.6462
  169MPD1     C 2573   2.655   2.379   9.952  0.1905 -0.2359 -0.5848
  169MPD1    C1 2574   2.593   2.497   9.953 -0.8018  0.5957  0.2665
  169MPD1    C2 2575   2.659   2.611   9.913  0.2842 -0.3735  0.5799
  169MPD1    C3 2576   2.799   2.608   9.880  0.6168 -0.3203  0.3646
  169MPD1    C4 2577   2.860   2.483   9.879  0.8908 -0.6671 -0.3479
  169MPD1    C5 2578   2.787   2.374   9.919 -0.3359  0.5720 -0.1406
  169MPD1     H 2579   2.595   2.696   9.893 -0.7034 -1.2820 -0.1334
  169MPD1    H1 2580   2.967   2.478   9.862  1.0698 -0.4960  0.7486
  169MPD1    H2 2581   2.592   2.293   9.971 -0.2865  0.3527  0.5116
  169MPD1    H3 2582   2.842   2.280   9.919 -0.0279  0.7531  0.8113
  169MPD1     N 2583   2.859   2.729   9.835  0.9733 -0.2988  0.0210
  169MPD1    H5 2584   2.803   2.812   9.826 -0.5421 -1.3535 -0.1648
  169MPD1    N1 2585   2.457   2.498   9.986 -0.7247  0.3907  0.0719
  169MPD1    H6 2586   2.436   2.431  10.060 -0.3369 -0.5396 -0.6434
  169MPD1    H7 2587   2.424   2.592  10.006 -0.8457 -0.3754  3.4547
  170MPD1     C 2588   1.037   1.486  13.072  0.2075  0.3626  1.5608
  170MPD1    C1 2589   1.073   1.616  13.115  0.9485  0.3134 -0.4509
  170MPD1    C2 2590   1.100   1.626  13.249 -0.0123  1.0975  1.1621
  170MPD1    C3 2591   1.114   1.515  13.338 -0.2751  0.2793 -0.4735
  170MPD1    C4 2592   1.064   1.394  13.290  0.1421  0.0725 -0.4893
  170MPD1    C5 2593   1.039   1.380  13.159 -0.1132 -0.2667 -0.0025
  170MPD1     H 2594   1.128   1.722  13.290 -0.8276  2.4691 -1.5410
  170MPD1    H1 2595   1.054   1.302  13.347  1.4646  1.1838  1.5634
  170MPD1    H2 2596   0.990   1.469  12.976  0.8504 -0.9263  1.4735
  170MPD1    H3 2597   1.009   1.285  13.114 -0.1677 -0.6303  0.7912
  170MPD1     N 2598   1.183   1.535  13.458  0.1220  0.0169 -0.0664
  170MPD1    H5 2599   1.197   1.629  13.494  0.4384  0.7622 -2.1339
  170MPD1    N1 2600   1.063   1.733  13.039  0.2000  0.1452 -0.5473
  170MPD1    H6 2601   1.091   1.714  12.943 -1.4845  0.7330 -1.1718
  170MPD1    H7 2602   1.138   1.794  13.070  0.1339 -0.5152  0.8849
  171MPD1     C 2603   4.235   2.926  15.398  0.7918  0.0625  0.6154
  171MPD1    C1 2604   4.344   2.981  15.466 -0.7370  0.0348  0.3604
  171MPD1    C2 2605   4.447   2.901  15.509 -0.1939 -0.4358 -1.7043
  171MPD1    C3 2606   4.437   2.763  15.511 -0.6953  0.1219 -0.1592
  171MPD1    C4 2607   4.326   2.713  15.438  0.0478  0.3119  0.6934
  171MPD1    C5 2608   4.226   2.788  15.385 -0.2104 -0.0385  0.5103
  171MPD1     H 2609   4.535   2.941  15.558 -1.7531 -1.2143  1.7491
  171MPD1    H1 2610   4.319   2.606  15.424  0.5656  0.2707  0.7393
  171MPD1    H2 2611   4.155   2.988  15.359 -2.1343 -1.3035  4.3477
  171MPD1    H3 2612   4.143   2.730  15.347  0.2884 -0.2852 -0.2174
  171MPD1     N 2613   4.535   2.672  15.565  0.3286 -0.3797 -0.0978
  171MPD1    H5 2614   4.514   2.578  15.533  0.2839 -0.6527  0.7110
  171MPD1    N1 2615   4.355   3.119  15.499  0.2882  0.3640  0.0297
  171MPD1    H6 2616   4.451   3.151  15.502  0.0493  0.8743  1.9465
  171MPD1    H7 2617   4.318   3.176  15.423  0.8423  1.1036  0.3170
  172MPD1     C 2618   3.604   1.776  17.015  0.7599 -0.0476 -0.5460
  172MPD1    C1 2619   3.663   1.894  17.038 -0.1096  0.5646 -0.0629
  172MPD1    C2 2620   3.694   1.927  17.165 -1.0224  0.2675 -0.8687
  172MPD1    C3 2621   3.669   1.841  17.275 -0.2922 -0.2947 -0.4889
  172MPD1    C4 2622   3.607   1.723  17.244  0.2089  0.2235  0.1328
  172MPD1    C5 2623   3.579   1.688  17.117 -0.2939 -0.0309 -0.1077
  172MPD1     H 2624   3.731   2.027  17.185 -0.9038  0.0344  0.0911
  172MPD1    H1 2625   3.573   1.648  17.315 -0.5845  0.3959 -0.0681
  172MPD1    H2 2626   3.591   1.748  16.912 -0.5779 -0.6267 -0.2116
  172MPD1    H3 2627   3.524   1.597  17.098 -0.8502  0.0124  1.2971
  172MPD1     N 2628   3.716   1.859  17.412  0.4857  0.3152  0.1644
  172MPD1    H5 2629   3.682   1.788  17.476 -2.1045 -1.1460 -2.7994
  172MPD1    N1 2630   3.675   1.986  16.934 -0.2892 -0.3784  0.0277
  172MPD1    H6 2631   3.748   2.050  16.965  0.0929 -1.2247  0.9063
  172MPD1    H7 2632   3.707   1.939  16.850  0.8511 -1.3796  1.0273
  173MPD1     C 2633   1.406   2.002  13.912  0.2006 -0.5809 -0.8625
  173MPD1    C1 2634   1.429   1.913  14.014 -0.3568  0.6867 -0.5055
  173MPD1    C2 2635   1.339   1.907  14.116  0.0705  0.2201 -0.2883
  173MPD1    C3 2636   1.219   1.967  14.107  0.0061  0.1559 -0.3265
  173MPD1    C4 2637   1.188   2.046  13.998  0.3886  0.5074 -0.9290
  173MPD1    C5 2638   1.282   2.059  13.904 -0.0605  0.4492  0.7059
  173MPD1     H 2639   1.366   1.844  14.200 -1.6394 -1.3809 -0.9463
  173MPD1    H1 2640   1.095   2.102  13.992  0.5200  0.7512 -0.6861
  173MPD1    H2 2641   1.482   2.024  13.839  0.1822 -0.9107 -0.9802
  173MPD1    H3 2642   1.266   2.124  13.818  1.1559 -0.1102  0.0694
  173MPD1     N 2643   1.119   1.928  14.203 -0.6437 -0.2400  0.1681
  173MPD1    H5 2644   1.151   1.861  14.272 -0.9697 -1.0405 -0.4684
  173MPD1    N1 2645   1.562   1.865  14.014 -0.2684  0.0354  0.2376
  173MPD1    H6 2646   1.595   1.840  13.921 -0.8751  0.1016  0.0046
  173MPD1    H7 2647   1.559   1.775  14.062  0.0743 -0.3464 -0.4615
  174MPD1     C 2648   0.930   1.188  14.789  0.5755  0.1039  0.0039
  174MPD1    C1 2649   1.031   1.280  14.774 -0.0724  0.1787 -0.4458
  174MPD1    C2 2650   1.001   1.403  14.705  0.1152 -0.3486 -0.1003
  174MPD1    C3 2651   0.878   1.418  14.647 -0.0765 -0.3362 -0.1981
  174MPD1    C4 2652   0.781   1.327  14.670 -0.4858  0.0497  0.5997
  174MPD1    C5 2653   0.807   1.213  14.737 -0.0237  0.3508 -0.1283
  174MPD1     H 2654   1.075   1.481  14.693 -0.5801  0.6271  1.9672
  174MPD1    H1 2655   0.681   1.341  14.629 -0.2479  1.6310  0.5579
  174MPD1    H2 2656   0.948   1.098  14.847  0.2396 -1.1955 -1.8928
  174MPD1    H3 2657   0.730   1.143  14.769  0.5073 -0.8992 -1.6134
  174MPD1     N 2658   0.852   1.524  14.561 -0.4573  0.5202  0.3042
  174MPD1    H5 2659   0.756   1.537  14.531 -1.7568 -2.0911  3.3255
  174MPD1    N1 2660   1.154   1.275  14.843 -0.1887  0.0058  0.0719
  174MPD1    H6 2661   1.183   1.178  14.834 -0.9173 -0.1084 -1.0752
  174MPD1    H7 2662   1.221   1.341  14.805 -0.0132 -0.5053 -0.4969
  175MPD1     C 2663   3.410   2.477  15.755  0.1192  0.1309 -0.0167
  175MPD1    C1 2664   3.414   2.613  15.717  0.1117 -0.2584 -0.9189
  175MPD1    C2 2665   3.462   2.704  15.814  0.3185 -0.0524  1.0156
  175MPD1    C3 2666   3.511   2.658  15.933  0.4672 -0.5449 -0.1351
  175MPD1    C4 2667   3.517   2.523  15.953 -0.5561 -0.3228  0.5847
  175MPD1    C5 2668   3.468   2.428  15.865  0.2274  0.7831  0.1311
  175MPD1     H 2669   3.469   2.811  15.801 -0.1735 -0.1063  0.3216
  175MPD1    H1 2670   3.564   2.485  16.043 -1.9130  0.5972  1.6764
  175MPD1    H2 2671   3.360   2.400  15.695  0.1446  0.7223 -0.7995
  175MPD1    H3 2672   3.468   2.322  15.888  0.6560  0.4733 -1.3287
  175MPD1     N 2673   3.560   2.742  16.039  0.0111 -0.1028 -0.6811
  175MPD1    H5 2674   3.615   2.694  16.109 -1.6608  0.0584  0.7425
  175MPD1    N1 2675   3.389   2.659  15.584  0.1231  0.3699  0.0958
  175MPD1    H6 2676   3.325   2.738  15.591  0.4500  0.7548 -1.2994
  175MPD1    H7 2677   3.333   2.599  15.525  0.0973  0.6641 -0.1791
  176MPD1     C 2678   0.407   4.378   0.291  0.4810 -0.0763 -0.4215
  176MPD1    C1 2679   0.522   4.393   0.225  0.5824 -0.1351  0.0180
  176MPD1    C2 2680   0.526   4.468   0.109 -0.1052 -0.6041 -0.4604
  176MPD1    C3 2681   0.408   4.500   0.040  0.6948 -0.2664  0.1673
  176MPD1    C4 2682   0.285   4.478   0.112 -0.2692 -0.7505  0.4379
  176MPD1    C5 2683   0.287   4.420   0.236  0.7006 -0.3213 -0.3238
  176MPD1     H 2684   0.621   4.484   0.058 -0.6516 -1.2555 -1.6911
  176MPD1    H1 2685   0.187   4.508   0.077 -0.6937 -1.8091  0.7266
  176MPD1    H2 2686   0.400   4.335   0.390 -0.5096 -2.3514 -1.4783
  176MPD1    H3 2687   0.199   4.416   0.298  1.7194  1.8601  1.2480
  176MPD1     N 2688   0.414   4.553  17.603 -0.3432  0.2587 -0.6579
  176MPD1    H5 2689   0.501   4.548  17.550  0.7342 -1.9740  1.3628
  176MPD1    N1 2690   0.645   4.349   0.278 -0.5151  0.3940  0.0621
  176MPD1    H6 2691   0.705   4.322   0.200  0.5670  0.1480  0.9862
  176MPD1    H7 2692   0.644   4.273   0.346  3.6197  0.6839  0.4158
  177MPD1     C 2693   4.431   4.707  10.609  0.5198  0.6121 -0.3138
  177MPD1    C1 2694   4.373   4.643  10.504 -0.1373 -0.4805  0.1207
  177MPD1    C2 2695   4.351   4.711  10.385  0.5430  0.1593  0.1422
  177MPD1    C3 2696   4.369   0.124  10.384  0.5509  0.0814 -0.0542
  177MPD1    C4 2697   4.416   0.190  10.494  0.0908 -0.2782  0.2405
  177MPD1    C5 2698   4.443   0.122  10.605 -0.2115 -0.0417 -0.7344
  177MPD1     H 2699   4.291   4.658  10.312 -1.4600  0.1680  1.7901
  177MPD1    H1 2700   4.453   0.291  10.505 -0.2351  0.2201 -3.3834
  177MPD1    H2 2701   4.466   4.654  10.697  0.0691  0.3217 -0.3073
  177MPD1    H3 2702   4.484   0.181  10.686 -3.0445  0.1598  0.5357
  177MPD1     N 2703   4.361   0.185  10.263  0.0439  0.4203  0.1969
  177MPD1    H5 2704   4.347   0.126  10.181  0.5334 -1.7541  1.6750
  177MPD1    N1 2705   4.374   4.504  10.496  0.6432 -0.2203 -0.5232
  177MPD1    H6 2706   4.304   4.467  10.433  0.0605  0.3564 -0.2219
  177MPD1    H7 2707   4.358   4.458  10.586 -1.9478 -0.0305 -0.8810
  178MPD1     C 2708   1.417   1.205   0.364  0.2971 -0.1374  0.3886
  178MPD1    C1 2709   1.385   1.076   0.331 -0.1886  0.1539  0.0837
  178MPD1    C2 2710   1.413   1.030   0.198 -0.7049 -0.6729 -0.1476
  178MPD1    C3 2711   1.463   1.122   0.106 -0.0376  0.1217  0.0386
  178MPD1    C4 2712   1.474   1.254   0.140  0.0552 -0.4705 -0.1021
  178MPD1    C5 2713   1.458   1.297   0.270  0.1167  0.2363 -1.4191
  178MPD1     H 2714   1.408   0.924   0.173  1.1206 -1.2642  1.9438
  178MPD1    H1 2715   1.508   1.326   0.066  0.5381  0.8611  1.4297
  178MPD1    H2 2716   1.413   1.242   0.467  0.7716 -0.0950  0.3905
  178MPD1    H3 2717   1.475   1.404   0.285 -1.3473  0.2828 -0.1041
  178MPD1     N 2718   1.495   1.095  17.663  0.1734 -0.3287 -0.4890
  178MPD1    H5 2719   1.531   1.170  17.606  3.2604  0.0530  1.9858
  178MPD1    N1 2720   1.354   0.984   0.427 -0.0641 -0.1947 -0.4071
  178MPD1    H6 2721   1.296   1.036   0.493  0.7634  0.0256  0.1394
  178MPD1    H7 2722   1.290   0.911   0.396  0.6612 -0.9370 -0.1629
  179MPD1     C 2723   1.005   4.089  16.529 -0.4528  0.4473  0.1511
  179MPD1    C1 2724   0.974   4.106  16.396 -0.1857 -0.0777 -0.1393
  179MPD1    C2 2725   0.985   3.991  16.313 -0.3679 -0.0928 -0.3608
  179MPD1    C3 2726   1.006   3.865  16.372  0.4751  0.3197 -0.1977
  179MPD1    C4 2727   1.020   3.852  16.513 -0.4321 -0.5816  0.0288
  179MPD1    C5 2728   1.019   3.964  16.587  0.2202 -0.0155  0.4381
  179MPD1     H 2729   0.994   4.004  16.206  1.4736  3.0664  0.1602
  179MPD1    H1 2730   1.044   3.758  16.562  0.8546  0.1472  0.8251
  179MPD1    H2 2731   1.004   4.172  16.599  1.1654  1.8315 -1.4468
  179MPD1    H3 2732   1.053   3.954  16.689 -0.6093 -0.1382  0.7002
  179MPD1     N 2733   1.008   3.747  16.296 -0.8477 -0.0922 -0.0291
  179MPD1    H5 2734   1.029   3.663  16.350 -0.6067 -1.3207 -2.0341
  179MPD1    N1 2735   0.943   4.238  16.342  0.4199  0.1061  0.9249
  179MPD1    H6 2736   0.884   4.233  16.260  1.2442  0.3785  0.3125
  179MPD1    H7 2737   0.911   4.302  16.415  0.3483  0.3363  0.6902
  180MPD1     C 2738   0.609   0.620  14.987 -0.0109  0.1250 -0.3557
  180MPD1    C1 2739   0.714   0.632  14.892  0.3019 -0.8311 -0.7990
  180MPD1    C2 2740   0.703   0.578  14.770  0.1636  0.2877 -0.8712
  180MPD1    C3 2741   0.579   0.526  14.733  0.3394 -0.0581 -0.4204
  180MPD1    C4 2742   0.483   0.513  14.825 -0.0782  0.5847  0.2122
  180MPD1    C5 2743   0.492   0.550  14.960 -0.3583 -0.1168  0.0815
  180MPD1     H 2744   0.784   0.587  14.699  1.1030  1.7523  0.3681
  180MPD1    H1 2745   0.393   0.456  14.802  0.2599  0.5957 -1.1266
  180MPD1    H2 2746   0.628   0.669  15.082  1.0792 -1.0889  0.0544
  180MPD1    H3 2747   0.414   0.523  15.030  0.2783  0.5075  1.0325
  180MPD1     N 2748   0.568   0.477  14.600 -0.0982 -0.6081  0.5550
  180MPD1    H5 2749   0.649   0.496  14.541 -0.2924  1.5368  0.9607
  180MPD1    N1 2750   0.837   0.673  14.938  0.2697  0.3908  0.7862
  180MPD1    H6 2751   0.889   0.717  14.863  1.1024  0.8311  1.6074
  180MPD1    H7 2752   0.831   0.738  15.016 -0.4228 -0.2787  1.2918
  181MPD1     C 2753   2.242   2.196  10.504 -0.6547  0.2285 -0.2656
  181MPD1    C1 2754   2.255   2.331  10.497 -0.2028  0.3212  0.0326
  181MPD1    C2 2755   2.358   2.380  10.425  0.2677 -0.3563 -0.1222
  181MPD1    C3 2756   2.468   2.304  10.382  0.2525 -0.6723  0.5823
  181MPD1    C4 2757   2.460   2.167  10.396  0.2200 -0.1297 -0.0721
  181MPD1    C5 2758   2.346   2.113  10.454 -0.1496  0.2364 -0.2305
  181MPD1     H 2759   2.359   2.487  10.409  2.9774 -0.2462  0.7700
  181MPD1    H1 2760   2.537   2.104  10.353 -1.3114 -0.1238 -2.8091
  181MPD1    H2 2761   2.154   2.146  10.542 -0.3653 -0.7639 -0.9097
  181MPD1    H3 2762   2.336   2.006  10.460 -1.2631  0.4359  1.3696
  181MPD1     N 2763   2.584   2.354  10.325 -0.0736  0.1159  0.2475
  181MPD1    H5 2764   2.649   2.281  10.295  1.8940  0.6003  3.3614
  181MPD1    N1 2765   2.143   2.418  10.531 -0.5363 -0.5108  0.1314
  181MPD1    H6 2766   2.172   2.514  10.551  0.0936 -0.4277 -1.1634
  181MPD1    H7 2767   2.089   2.391  10.612  0.4184 -0.9458  0.6154
  182MPD1     C 2768   4.220   0.973   1.273  0.2664  0.0702  0.0761
  182MPD1    C1 2769   4.190   1.006   1.404  0.1231  0.6450  0.5079
  182MPD1    C2 2770   4.055   0.989   1.449 -0.6620  0.4599  0.4183
  182MPD1    C3 2771   3.963   0.943   1.362  0.1666  0.0452 -0.1895
  182MPD1    C4 2772   4.000   0.908   1.234 -0.0105 -0.6026  0.3034
  182MPD1    C5 2773   4.125   0.919   1.189 -0.0959  0.0728  0.4221
  182MPD1     H 2774   4.029   1.028   1.547 -2.9126 -0.2898  0.1134
  182MPD1    H1 2775   3.930   0.868   1.161  1.5306  1.0136 -2.0507
  182MPD1    H2 2776   4.316   0.991   1.224  0.2855 -1.7922 -0.5627
  182MPD1    H3 2777   4.149   0.891   1.088  2.2647  1.2916  0.6488
  182MPD1     N 2778   3.828   0.916   1.403 -0.5311 -0.6934 -0.4782
  182MPD1    H5 2779   3.768   0.870   1.335 -3.5591  1.0078  1.0792
  182MPD1    N1 2780   4.299   1.036   1.495  0.3093 -0.4310  0.0981
  182MPD1    H6 2781   4.275   1.111   1.560  3.2923 -0.6415  1.4161
  182MPD1    H7 2782   4.384   1.064   1.447 -1.7925 -0.7367 -3.8011
  183MPD1     C 2783   3.925   1.678   8.898  0.0271  0.0874  0.2223
  183MPD1    C1 2784   3.927   1.815   8.906 -0.0009 -0.0575 -0.3344
  183MPD1    C2 2785   3.974   1.872   9.019  0.3987 -0.3169  0.3681
  183MPD1    C3 2786   4.028   1.793   9.119 -0.5396  0.3255 -0.2616
  183MPD1    C4 2787   4.042   1.657   9.112  0.1612 -0.3720  0.1835
  183MPD1    C5 2788   3.989   1.603   8.991  0.6514 -0.2018  0.4061
  183MPD1     H 2789   3.971   1.979   9.033 -1.7285 -0.4885  1.2337
  183MPD1    H1 2790   4.090   1.588   9.181  3.6433 -0.6354 -2.5010
  183MPD1    H2 2791   3.879   1.623   8.816 -0.2431  1.1100 -0.3115
  183MPD1    H3 2792   4.002   1.495   8.982 -0.4796 -0.3424  0.4633
  183MPD1     N 2793   4.075   1.871   9.231 -0.7336 -0.9400  0.2001
  183MPD1    H5 2794   4.087   1.970   9.212  1.1300 -1.2467 -0.2458
  183MPD1    N1 2795   3.841   1.894   8.821 -0.1904  0.1424 -0.3550
  183MPD1    H6 2796   3.880   1.987   8.807  1.3806 -0.0630  2.6969
  183MPD1    H7 2797   3.830   1.841   8.735  0.2983 -1.9081  0.8249
  184MPD1     C 2798   3.472   3.965  10.243  0.0987 -0.6102  0.4388
  184MPD1    C1 2799   3.602   3.996  10.221 -0.5149 -0.4589 -0.2426
  184MPD1    C2 2800   3.628   4.112  10.146  0.1826  0.9670  0.0289
  184MPD1    C3 2801   3.522   4.181  10.086 -0.2484  0.4648  0.0836
  184MPD1    C4 2802   3.394   4.138  10.095  0.5703  0.4151  0.4415
  184MPD1    C5 2803   3.371   4.031  10.180 -0.2818  0.7969 -0.4171
  184MPD1     H 2804   3.733   4.140  10.143  1.1361 -2.9368 -2.5364
  184MPD1    H1 2805   3.307   4.180  10.045  0.7886 -0.5275 -0.7249
  184MPD1    H2 2806   3.460   3.888  10.318 -0.0354 -0.2458  0.7904
  184MPD1    H3 2807   3.267   4.001  10.188 -0.1991  0.4924 -0.4769
  184MPD1     N 2808   3.548   4.290   9.999  0.1956  0.3878  0.2322
  184MPD1    H5 2809   3.473   4.312   9.934  0.0270 -2.0382 -0.3807
  184MPD1    N1 2810   3.702   3.938  10.302 -0.2904 -0.2274 -0.0556
  184MPD1    H6 2811   3.794   3.934  10.258 -0.7848  0.5457 -1.1773
  184MPD1    H7 2812   3.676   3.841  10.321  0.3589 -0.4004 -0.0631
  185MPD1     C 2813   3.238   4.237   9.176  0.3295 -0.1885  0.1274
  185MPD1    C1 2814   3.315   4.352   9.156 -0.1621  0.6447  0.0327
  185MPD1    C2 2815   3.398   4.396   9.268 -0.1469 -0.1843 -0.2758
  185MPD1    C3 2816   3.382   4.345   9.391 -0.3876  0.0926 -0.2648
  185MPD1    C4 2817   3.289   4.252   9.410  0.2015  0.4447 -0.7671
  185MPD1    C5 2818   3.218   4.194   9.310  0.3375 -0.3551  0.4434
  185MPD1     H 2819   3.474   4.472   9.253 -0.5336  0.1769 -0.4368
  185MPD1    H1 2820   3.276   4.226   9.515  2.4328 -2.2435 -1.1420
  185MPD1    H2 2821   3.172   4.200   9.099  0.8983  0.8040 -0.8456
  185MPD1    H3 2822   3.138   4.124   9.328  0.0961 -0.1690  0.0941
  185MPD1     N 2823   3.444   4.391   9.508  0.2299  0.2983  0.0696
  185MPD1    H5 2824   3.394   4.353   9.587  1.3145  1.0045  1.1067
  185MPD1    N1 2825   3.338   4.395   9.026 -0.1823 -0.4362  0.5055
  185MPD1    H6 2826   3.378   4.489   9.021 -2.4477  0.4739 -1.0026
  185MPD1    H7 2827   3.252   4.401   8.971  1.3842 -1.2282 -2.0622
  186MPD1     C 2828   1.495   3.482  15.858 -0.2884 -0.0563 -1.2430
  186MPD1    C1 2829   1.564   3.594  15.812  0.4632 -0.3929 -0.9888
  186MPD1    C2 2830   1.547   3.716  15.871  0.1217  0.2739 -0.3307
  186MPD1    C3 2831   1.476   3.730  15.983  0.2876 -0.4354  0.6911
  186MPD1    C4 2832   1.431   3.615  16.048 -0.1008  0.5543  0.6022
  186MPD1    C5 2833   1.433   3.497  15.979  1.0283  0.4218  0.3840
  186MPD1     H 2834   1.581   3.804  15.818  0.4054  1.2994  1.5747
  186MPD1    H1 2835   1.372   3.618  16.138  1.3388  0.4659  1.5493
  186MPD1    H2 2836   1.496   3.388  15.805 -0.3759 -0.7661  0.0060
  186MPD1    H3 2837   1.377   3.423  16.035  2.0379  0.3589  1.3330
  186MPD1     N 2838   1.464   3.859  16.038 -0.9616  0.1212  0.2303
  186MPD1    H5 2839   1.505   3.939  15.991 -1.9742  0.6294  0.2173
  186MPD1    N1 2840   1.644   3.577  15.693  0.2503 -0.9834 -0.0528
  186MPD1    H6 2841   1.725   3.638  15.677  0.4529 -1.8474 -2.4721
  186MPD1    H7 2842   1.681   3.482  15.683  0.6146 -0.7869 -0.6235
  187MPD1     C 2843   0.060   1.095   0.525 -0.2977 -0.2787  0.4795
  187MPD1    C1 2844   0.125   0.981   0.474 -0.3722 -0.0861  0.2631
  187MPD1    C2 2845   0.201   0.986   0.363 -0.0484 -0.2122 -0.6275
  187MPD1    C3 2846   0.206   1.104   0.290  0.6284  0.5146 -0.4137
  187MPD1    C4 2847   0.131   1.210   0.333 -0.5007  0.0854  0.2150
  187MPD1    C5 2848   0.062   1.214   0.455  0.8227  0.6808  0.3793
  187MPD1     H 2849   0.245   0.893   0.328 -0.1726 -0.5422  0.0997
  187MPD1    H1 2850   0.115   1.298   0.272  1.1817  0.8536  0.8821
  187MPD1    H2 2851   4.718   1.098   0.613 -1.9842  1.3050 -0.8135
  187MPD1    H3 2852   4.710   1.290   0.476 -0.3830  0.0566 -1.6322
  187MPD1     N 2853   0.289   1.118   0.174  0.1972  0.3216 -0.0073
  187MPD1    H5 2854   0.273   1.204   0.123 -0.9359 -0.2104 -0.5635
  187MPD1    N1 2855   0.131   0.865   0.550  0.1732  0.5563  0.5228
  187MPD1    H6 2856   0.073   0.864   0.634  1.1171 -0.8784  1.1656
  187MPD1    H7 2857   0.125   0.779   0.495 -0.0367  0.6945  0.3329
  188MPD1     C 2858   0.418   1.382  10.100 -0.0646 -0.2127  0.5450
  188MPD1    C1 2859   0.456   1.333   9.977  0.3991 -0.3250  0.3089
  188MPD1    C2 2860   0.507   1.203   9.966 -0.2578  0.6618 -0.0463
  188MPD1    C3 2861   0.501   1.116  10.077  0.2639 -0.0696  0.1257
  188MPD1    C4 2862   0.458   1.170  10.196 -0.2208 -0.2086 -0.0397
  188MPD1    C5 2863   0.420   1.299  10.206 -0.6711 -0.4580  0.3959
  188MPD1     H 2864   0.561   1.174   9.877 -1.7944 -2.5133  0.0627
  188MPD1    H1 2865   0.459   1.105  10.283  1.1379  0.3814  0.3879
  188MPD1    H2 2866   0.378   1.483  10.112  0.6214  0.1194  0.0102
  188MPD1    H3 2867   0.378   1.345  10.295 -1.0127 -0.1993  0.1016
  188MPD1     N 2868   0.546   0.986  10.080  0.4506  0.1223 -0.3010
  188MPD1    H5 2869   0.542   0.937  10.169 -2.6019 -2.3462 -1.7615
  188MPD1    N1 2870   0.439   1.407   9.859 -0.0385  0.2508  0.0984
  188MPD1    H6 2871   0.442   1.351   9.774  2.6380  1.6578 -0.7193
  188MPD1    H7 2872   0.354   1.464   9.860 -0.0010  0.2903  1.5244
  189MPD1     C 2873   2.213   1.491   0.536  0.0866 -0.5571 -0.5046
  189MPD1    C1 2874   2.094   1.445   0.500  0.0889  0.5200  0.5772
  189MPD1    C2 2875   1.993   1.536   0.470 -0.5382 -0.7457 -0.1352
  189MPD1    C3 2876   2.015   1.670   0.476 -0.0890 -1.0728 -0.1320
  189MPD1    C4 2877   2.139   1.711   0.517 -0.3303  0.8664 -0.0636
  189MPD1    C5 2878   2.238   1.623   0.542  0.0632  0.1390  0.1901
  189MPD1     H 2879   1.895   1.497   0.447 -1.9870  2.0514  1.1926
  189MPD1    H1 2880   2.166   1.816   0.530  1.7375  0.0212  2.6047
  189MPD1    H2 2881   2.303   1.435   0.559 -0.9643 -2.5526 -1.2283
  189MPD1    H3 2882   2.337   1.654   0.574 -0.0329 -0.0711  0.6907
  189MPD1     N 2883   1.916   1.762   0.436  0.0540 -0.0456  0.4410
  189MPD1    H5 2884   1.834   1.723   0.390  0.0774  1.0343 -0.5004
  189MPD1    N1 2885   2.077   1.305   0.467 -0.5822 -0.1236 -0.2927
  189MPD1    H6 2886   1.980   1.276   0.466 -1.2990  2.2280  0.3026
  189MPD1    H7 2887   2.141   1.242   0.515 -0.3799  0.9682  0.8881
  190MPD1     C 2888   0.745   0.036  15.282 -0.5295 -0.1352 -0.0372
  190MPD1    C1 2889   0.844   0.091  15.208 -0.3399  0.2640  0.0141
  190MPD1    C2 2890   0.953   0.147  15.276 -0.2989  0.2765 -0.1270
  190MPD1    C3 2891   0.965   0.150  15.414  0.0452 -0.1035  0.4194
  190MPD1    C4 2892   0.864   0.096  15.487 -0.0397  0.1261 -0.2169
  190MPD1    C5 2893   0.766   0.035  15.417 -0.2130  0.0089 -0.0947
  190MPD1     H 2894   1.031   0.200  15.224  2.4628 -0.0369  3.6356
  190MPD1    H1 2895   0.868   0.108  15.595 -0.2213 -0.3564 -0.1569
  190MPD1    H2 2896   0.659   4.702  15.248 -0.0004 -2.3085  2.1907
  190MPD1    H3 2897   0.700   4.702  15.481 -1.8214  0.3790 -1.4337
  190MPD1     N 2898   1.080   0.207  15.469  0.2134 -0.8384  0.3474
  190MPD1    H5 2899   1.138   0.242  15.394 -1.4028  0.4403 -0.3098
  190MPD1    N1 2900   0.837   0.091  15.068  0.0495 -0.5669 -0.3102
  190MPD1    H6 2901   0.867   0.179  15.028  1.3112 -0.4750  0.8415
  190MPD1    H7 2902   0.739   0.078  15.042  0.2354 -2.0776 -0.2677
  191MPD1     C 2903   0.369   1.500  13.387  0.1966  0.2489  0.0861
  191MPD1    C1 2904   0.244   1.527  13.334 -0.1194  0.2199 -0.4100
  191MPD1    C2 2905   0.213   1.660  13.307 -0.1452  0.0250 -0.4418
  191MPD1    C3 2906   0.308   1.763  13.330 -1.0189 -0.2809  0.3585
  191MPD1    C4 2907   0.432   1.730  13.382 -0.1975 -0.3208 -0.7895
  191MPD1    C5 2908   0.462   1.601  13.415 -1.0527  0.3281  0.1528
  191MPD1     H 2909   0.120   1.688  13.260 -0.1087  0.6020 -0.1676
  191MPD1    H1 2910   0.517   1.797  13.375 -0.4944  0.4205  2.7215
  191MPD1    H2 2911   0.399   1.398  13.409 -0.4142  0.3224  1.2558
  191MPD1    H3 2912   0.562   1.583  13.454  0.3110  1.8017 -2.5993
  191MPD1     N 2913   0.278   1.889  13.271 -0.4674 -1.2029 -0.2513
  191MPD1    H5 2914   0.186   1.900  13.230 -0.4587  0.8024  0.2931
  191MPD1    N1 2915   0.159   1.429  13.278 -0.3815 -0.7046  0.0335
  191MPD1    H6 2916   0.159   1.336  13.319 -0.5208 -0.8616 -0.3288
  191MPD1    H7 2917   0.060   1.450  13.283 -0.5132 -1.4361  0.5116
  192MPD1     C 2918   4.229   2.162  13.271 -0.5653  0.4599 -0.6002
  192MPD1    C1 2919   4.271   2.265  13.196 -0.6820  0.2617  0.7706
  192MPD1    C2 2920   4.411   2.282  13.177 -1.0032  0.1086  0.7549
  192MPD1    C3 2921   4.498   2.182  13.222  0.0901  0.6416 -0.2826
  192MPD1    C4 2922   4.451   2.076  13.291  0.2240 -1.2237 -0.1607
  192MPD1    C5 2923   4.319   2.072  13.320 -0.4036  0.1373  0.3180
  192MPD1     H 2924   4.449   2.368  13.124  0.2435 -0.2724  1.0424
  192MPD1    H1 2925   4.511   1.990  13.315  1.4669 -0.0463  0.9573
  192MPD1    H2 2926   4.125   2.159  13.304  0.1656 -1.6718  1.4695
  192MPD1    H3 2927   4.280   1.989  13.378 -0.3701 -0.9062 -1.1499
  192MPD1     N 2928   4.635   2.176  13.185 -0.0095  0.0223 -0.0314
  192MPD1    H5 2929   4.675   2.085  13.204 -0.1706 -0.4479 -1.9263
  192MPD1    N1 2930   4.180   2.359  13.139 -0.2930 -0.1493 -0.7043
  192MPD1    H6 2931   4.228   2.385  13.053  0.4927 -0.7599 -0.4544
  192MPD1    H7 2932   4.094   2.312  13.112  0.5070 -2.1879  0.2915
  193MPD1     C 2933   4.560   2.367  15.881 -0.5298 -0.0620  0.8303
  193MPD1    C1 2934   4.536   2.464  15.979  0.6103  0.7741 -0.3634
  193MPD1    C2 2935   4.618   2.470  16.088  0.0943  0.1559  0.0603
  193MPD1    C3 2936   0.001   2.383  16.107  0.1445 -0.4258 -0.1535
  193MPD1    C4 2937   0.013   2.284  16.015 -0.2153  0.9521 -0.1773
  193MPD1    C5 2938   4.665   2.281  15.896  0.2983 -0.4575  0.2845
  193MPD1     H 2939   4.599   2.542  16.167 -1.6886 -0.5508  0.2749
  193MPD1    H1 2940   0.079   2.200  16.030 -3.3134 -1.2507  1.1708
  193MPD1    H2 2941   4.500   2.358  15.792 -0.0360  2.7102  0.2213
  193MPD1    H3 2942   4.689   2.209  15.820  2.4680  1.0134 -0.4168
  193MPD1     N 2943   0.089   2.377  16.223 -0.4054  0.7651  0.1989
  193MPD1    H5 2944   0.154   2.300  16.218 -2.0342 -0.5888 -0.2239
  193MPD1    N1 2945   4.437   2.566  15.957  0.5856 -0.5689  0.0255
  193MPD1    H6 2946   4.404   2.609  16.043  1.6963  2.1542 -0.9261
  193MPD1    H7 2947   4.364   2.540  15.891  0.7099 -1.5312  0.2730
  194MPD1     C 2948   2.914   0.793  17.193 -0.0377 -0.7455  1.2212
  194MPD1    C1 2949   2.972   0.731  17.078  0.3283  0.3851  0.6633
  194MPD1    C2 2950   3.043   0.616  17.093 -0.1648 -0.0432  0.5720
  194MPD1    C3 2951   3.059   0.564  17.220  0.0880 -0.4888 -0.0801
  194MPD1    C4 2952   3.019   0.632  17.333 -0.5322 -0.0846 -0.1797
  194MPD1    C5 2953   2.942   0.746  17.315 -0.1296 -0.4698 -0.3656
  194MPD1     H 2954   3.076   0.559  17.008 -0.7407 -0.9898  0.9777
  194MPD1    H1 2955   3.032   0.602  17.436 -0.1229  0.3396 -0.1091
  194MPD1    H2 2956   2.843   0.874  17.181  1.5099 -0.0214 -2.8532
  194MPD1    H3 2957   2.898   0.793  17.402  1.1623  0.2229 -0.0929
  194MPD1     N 2958   3.131   0.446  17.250  0.0186  0.5004  0.4394
  194MPD1    H5 2959   3.128   0.416  17.347  1.4080  0.9754  0.6179
  194MPD1    N1 2960   2.925   0.772  16.946 -0.1304  0.1758  0.4454
  194MPD1    H6 2961   2.993   0.767  16.871  0.4102  0.7720  0.9022
  194MPD1    H7 2962   2.891   0.868  16.942 -3.0276 -0.8670 -0.1711
  195MPD1     C 2963   4.519   1.230  17.050 -0.2480 -0.0971  0.4261
  195MPD1    C1 2964   4.577   1.188  17.167  0.5930  0.4099 -0.9315
  195MPD1    C2 2965   4.524   1.072  17.226  0.1531  0.6622 -0.5600
  195MPD1    C3 2966   4.413   0.995  17.173 -0.1571 -0.1839 -0.2822
  195MPD1    C4 2967   4.365   1.041  17.054 -0.3418 -0.0498  0.2712
  195MPD1    C5 2968   4.421   1.153  16.997 -0.1551  0.1683  0.4180
  195MPD1     H 2969   4.564   1.045  17.323 -1.4200 -0.9016 -0.3460
  195MPD1    H1 2970   4.280   0.995  17.005  0.6813 -0.2677 -1.3126
  195MPD1    H2 2971   4.569   1.304  16.990 -2.4366 -0.7098 -2.1713
  195MPD1    H3 2972   4.371   1.183  16.906 -1.2421 -0.2752  0.8724
  195MPD1     N 2973   4.359   0.883  17.238 -0.1076 -0.6839 -0.0690
  195MPD1    H5 2974   4.288   0.838  17.181 -0.4995  1.9100 -1.6199
  195MPD1    N1 2975   4.673   1.269  17.230 -0.6707  0.1642 -0.0272
  195MPD1    H6 2976   0.006   1.207  17.289 -0.9477 -0.0491  0.0068
  195MPD1    H7 2977   0.003   1.313  17.155 -0.0367  1.3392  1.0944
  196MPD1     C 2978   4.681   0.459  17.467  0.5348  0.6302 -0.2341
  196MPD1    C1 2979   4.684   0.597  17.475 -0.1895  0.2874 -0.0533
  196MPD1    C2 2980   4.664   0.651  17.598  0.1827  0.3749 -0.2139
  196MPD1    C3 2981   4.627   0.576   0.016  0.2922  0.1990 -0.2287
  196MPD1    C4 2982   4.632   0.439   0.001 -0.0847 -0.5562  0.4298
  196MPD1    C5 2983   4.664   0.378  17.576 -0.6344 -0.4160 -0.3921
  196MPD1     H 2984   4.669   0.754  17.631  0.8563  0.5003 -0.7045
  196MPD1    H1 2985   4.609   0.365   0.077 -1.3769 -1.3817 -0.7730
  196MPD1    H2 2986   4.689   0.415  17.368  2.2796 -1.1712  0.6996
  196MPD1    H3 2987   4.662   0.271  17.562  1.0134 -0.4698 -0.2593
  196MPD1     N 2988   4.597   0.622   0.152  0.2874 -0.6616  0.5223
  196MPD1    H5 2989   4.592   0.552   0.226  3.0297 -2.4306 -0.9591
  196MPD1    N1 2990   4.719   0.684  17.369  0.2888 -0.2394 -0.0731
  196MPD1    H6 2991   4.719   0.636  17.280  1.3683 -2.2090  0.9901
  196MPD1    H7 2992   4.673   0.775  17.366  2.2230  0.7033 -0.6074
  197MPD1     C 2993   4.136   3.287   0.339  0.3241 -0.5331  0.8237
  197MPD1    C1 2994   4.038   3.382   0.325 -0.4778  0.2628 -0.4243
  197MPD1    C2 2995   3.997   3.411   0.200 -0.4247 -0.0416  0.6376
  197MPD1    C3 2996   4.047   3.363   0.085 -1.1469  0.3555  0.5121
  197MPD1    C4 2997   4.156   3.277   0.095  0.2212 -0.1898 -0.6535
  197MPD1    C5 2998   4.194   3.240   0.225  0.4025 -0.7524  0.6685
  197MPD1     H 2999   3.907   3.471   0.187 -0.7962 -0.8488 -0.4460
  197MPD1    H1 3000   4.202   3.230   0.009  0.9213 -1.3713  0.3702
  197MPD1    H2 3001   4.163   3.238   0.432 -0.5652 -0.1312  1.2917
  197MPD1    H3 3002   4.261   3.157   0.242  0.3351 -0.6053  1.6649
  197MPD1     N 3003   3.989   3.381  17.648 -0.6702 -0.2426  0.8098
  197MPD1    H5 3004   4.033   3.328  17.573 -0.5421  1.5855 -0.3996
  197MPD1    N1 3005   3.953   3.412   0.437  0.1460 -0.5039  0.6005
  197MPD1    H6 3006   3.918   3.506   0.420  1.7017  0.0052  0.2257
  197MPD1    H7 3007   4.003   3.410   0.525 -1.3602 -0.7581  1.4439
  198MPD1     C 3008   1.256   0.892  15.039 -0.4675 -0.0192  1.0263
  198MPD1    C1 3009   1.298   0.865  15.169  0.8826  0.4569  0.2465
  198MPD1    C2 3010   1.232   0.929  15.274 -0.4704  0.3022  0.2957
  198MPD1    C3 3011   1.126   1.013  15.253 -0.1848 -0.4940  0.7034
  198MPD1    C4 3012   1.091   1.038  15.125  0.4849 -0.3000 -0.3774
  198MPD1    C5 3013   1.148   0.974  15.021 -1.4197 -0.3185  0.2723
  198MPD1     H 3014   1.266   0.913  15.376  0.1671  2.5167  0.4358
  198MPD1    H1 3015   1.013   1.109  15.098  0.1277 -0.2230  0.8682
  198MPD1    H2 3016   1.300   0.840  14.955 -1.2897 -0.2724  0.7550
  198MPD1    H3 3017   1.113   0.998  14.921 -2.7524  0.6240  0.9617
  198MPD1     N 3018   1.046   1.069  15.358  0.3887  0.6341  0.5647
  198MPD1    H5 3019   0.964   1.124  15.334  1.6900  1.4289 -2.0707
  198MPD1    N1 3020   1.418   0.799  15.192 -0.0040 -0.2682  0.5301
  198MPD1    H6 3021   1.436   0.727  15.122 -1.2669  0.1523 -0.2180
  198MPD1    H7 3022   1.438   0.767  15.287  0.4407 -2.7427 -0.3962
  199MPD1     C 3023   1.814   3.729  10.062  0.0757 -0.4299  0.4819
  199MPD1    C1 3024   1.738   3.612  10.086  0.7543 -0.2299 -0.2525
  199MPD1    C2 3025   1.771   3.504  10.005  0.5777 -0.3053 -0.3737
  199MPD1    C3 3026   1.865   3.506   9.906  0.4938 -0.1530 -1.0551
  199MPD1    C4 3027   1.940   3.620   9.887  0.0853 -0.3733  0.3567
  199MPD1    C5 3028   1.907   3.735   9.962  0.3927 -0.5697 -0.1920
  199MPD1     H 3029   1.719   3.413  10.033 -0.9435  0.8469  0.5520
  199MPD1    H1 3030   2.015   3.641   9.812 -1.1914 -1.8514 -1.3283
  199MPD1    H2 3031   1.805   3.820  10.120  1.0777  0.3786 -0.6385
  199MPD1    H3 3032   1.960   3.827   9.945 -1.6091  0.2715 -1.8707
  199MPD1     N 3033   1.895   3.395   9.827  0.3272  0.6804 -0.0693
  199MPD1    H5 3034   1.975   3.409   9.766  0.7762  1.6369  0.7417
  199MPD1    N1 3035   1.636   3.606  10.184  0.3738 -0.0257 -0.5227
  199MPD1    H6 3036   1.619   3.513  10.222 -1.5434  0.6427  0.2419
  199MPD1    H7 3037   1.661   3.673  10.256 -2.0222 -0.8753  1.0985
  200MPD1     C 3038   1.575   2.558  15.188 -0.5286  0.3426 -0.2933
  200MPD1    C1 3039   1.626   2.452  15.110  0.2968  0.3843  0.3958
  200MPD1    C2 3040   1.725   2.482  15.019 -0.2225  0.0108  0.6550
  200MPD1    C3 3041   1.789   2.606  15.011 -0.3816 -0.8874  0.8792
  200MPD1    C4 3042   1.746   2.701  15.105 -0.4649  0.2866  0.6114
  200MPD1    C5 3043   1.646   2.668  15.190  0.2158 -0.3743 -0.1202
  200MPD1     H 3044   1.758   2.402  14.954  1.0135  1.6202 -0.6945
  200MPD1    H1 3045   1.792   2.799  15.114 -1.7001  1.0234 -1.1515
  200MPD1    H2 3046   1.490   2.536  15.252 -1.0331 -2.1454 -1.8495
  200MPD1    H3 3047   1.609   2.743  15.259 -2.3305 -1.3135 -0.4498
  200MPD1     N 3048   1.886   2.626  14.906  0.0464 -0.2899 -0.3413
  200MPD1    H5 3049   1.905   2.544  14.850 -0.2517 -0.6102  0.0355
  200MPD1    N1 3050   1.544   2.336  15.094  0.2164 -0.2579 -0.6536
  200MPD1    H6 3051   1.606   2.262  15.061 -0.9216 -1.8767  0.8658
  200MPD1    H7 3052   1.504   2.310  15.184  1.1384 -1.9927 -0.7428
  201MPD1     C 3053   4.282   1.989  12.791  0.7076 -0.0549 -0.5256
  201MPD1    C1 3054   4.288   1.872  12.723 -0.0773 -0.1638  0.2810
  201MPD1    C2 3055   4.260   1.756  12.788  0.0395  0.9350  0.9098
  201MPD1    C3 3056   4.242   1.750  12.923  0.6148  0.3011  0.5228
  201MPD1    C4 3057   4.257   1.863  13.004  0.1946  0.1015 -0.1748
  201MPD1    C5 3058   4.276   1.982  12.933 -0.3812  0.5824  0.0426
  201MPD1     H 3059   4.260   1.665  12.730 -0.6962  1.6525 -0.2145
  201MPD1    H1 3060   4.241   1.868  13.111  0.3969 -0.0243 -0.1380
  201MPD1    H2 3061   4.301   2.082  12.739  1.0570 -0.0936 -0.4714
  201MPD1    H3 3062   4.276   2.069  12.997 -0.4789  1.5996 -1.3453
  201MPD1     N 3063   4.232   1.616  12.980 -0.3632  0.0309 -0.2971
  201MPD1    H5 3064   4.196   1.548  12.914  0.3163 -1.3917  0.8215
  201MPD1    N1 3065   4.324   1.877  12.585  0.4705  0.8617  0.0567
  201MPD1    H6 3066   4.345   1.974  12.563  0.5133  0.5470 -1.2754
  201MPD1    H7 3067   4.242   1.861  12.528 -0.5682  0.1303  1.7383
  202MPD1     C 3068   4.458   1.128   9.087  0.0439 -0.0924 -0.6242
  202MPD1    C1 3069   4.503   1.015   9.150 -0.7558 -0.6411  0.7695
  202MPD1    C2 3070   4.571   1.026   9.269 -0.2860  0.3877 -0.1639
  202MPD1    C3 3071   4.599   1.150   9.319 -0.5103 -0.0632 -0.4984
  202MPD1    C4 3072   4.561   1.259   9.249  0.1977  0.6727  0.3348
  202MPD1    C5 3073   4.494   1.252   9.127 -0.4344 -0.6555  0.3668
  202MPD1     H 3074   4.575   0.934   9.327  1.0323  1.4016  1.3363
  202MPD1    H1 3075   4.578   1.358   9.290  1.8130  0.5722 -0.0751
  202MPD1    H2 3076   4.400   1.132   8.996 -0.1014 -2.7243 -0.6528
  202MPD1    H3 3077   4.458   1.341   9.078 -0.2155 -0.7510  0.0339
  202MPD1     N 3078   4.652   1.179   9.448 -0.0098  0.2656 -0.2616
  202MPD1    H5 3079   4.639   1.268   9.494  0.5301  0.4261 -0.4145
  202MPD1    N1 3080   4.432   0.893   9.124  0.1017  0.6908 -0.0824
  202MPD1    H6 3081   4.506   0.823   9.131  0.0150  0.5218 -0.8649
  202MPD1    H7 3082   4.407   0.892   9.025  0.3519  1.8472 -0.1660
  203MPD1     C 3083   3.147   2.662  12.595 -0.2268 -0.1760 -0.1892
  203MPD1    C1 3084   3.113   2.558  12.513  0.6356  0.9470  0.8580
  203MPD1    C2 3085   3.175   2.433  12.533  0.5584  0.5300 -0.4992
  203MPD1    C3 3086   3.281   2.411  12.627 -0.4148 -0.0274 -0.2519
  203MPD1    C4 3087   3.308   2.525  12.708  0.2804 -0.3984 -0.1243
  203MPD1    C5 3088   3.238   2.642  12.690  0.0072 -0.3177  0.7659
  203MPD1     H 3089   3.146   2.351  12.468  0.0367  1.1839 -1.0978
  203MPD1    H1 3090   3.390   2.521  12.779  0.2052  2.0572  0.1017
  203MPD1    H2 3091   3.106   2.762  12.587  0.3489 -0.0106 -1.0974
  203MPD1    H3 3092   3.259   2.728  12.751  3.3151  1.9921 -3.6927
  203MPD1     N 3093   3.341   2.281  12.637  0.0789 -0.5586  0.4865
  203MPD1    H5 3094   3.320   2.216  12.561 -1.6913 -0.7466  1.1474
  203MPD1    N1 3095   3.017   2.575  12.411  0.1017  0.0750  0.2411
  203MPD1    H6 3096   3.049   2.539  12.322 -1.9223  0.9234 -0.8163
  203MPD1    H7 3097   2.977   2.668  12.405  0.3102  0.1296 -0.3339
  204MPD1     C 3098   2.256   2.878  17.663  0.3379 -0.2505  0.0201
  204MPD1    C1 3099   2.335   2.880  17.552 -0.2789  0.3394  0.0501
  204MPD1    C2 3100   2.383   2.757  17.512  0.2061  0.0853  0.1096
  204MPD1    C3 3101   2.357   2.641  17.585  0.0737  0.2434  0.0231
  204MPD1    C4 3102   2.272   2.649   0.005 -0.0457 -0.1025  0.0976
  204MPD1    C5 3103   2.219   2.770   0.036 -0.1154 -0.1801  0.5801
  204MPD1     H 3104   2.457   2.764  17.434  0.5215  1.2343  0.5165
  204MPD1    H1 3105   2.240   2.567   0.068 -0.5224 -0.4895 -0.6479
  204MPD1    H2 3106   2.207   2.968   0.008  0.4439 -0.1343 -0.1218
  204MPD1    H3 3107   2.164   2.787   0.128 -1.9208 -0.6708 -0.4224
  204MPD1     N 3108   2.401   2.526  17.536  0.6475 -0.8255 -0.1457
  204MPD1    H5 3109   2.454   2.534  17.450  0.0467  2.8438 -0.1801
  204MPD1    N1 3110   2.356   2.993  17.470  0.0903  0.0442  0.1637
  204MPD1    H6 3111   2.449   2.987  17.430 -0.2893 -2.9687 -0.3092
  204MPD1    H7 3112   2.357   3.082  17.519  0.2420 -0.5305  1.2123
  205MPD1     C 3113   2.500   0.922  16.886  0.5126 -0.0484 -0.2359
  205MPD1    C1 3114   2.365   0.911  16.926 -0.5382 -0.5047  0.4040
  205MPD1    C2 3115   2.340   0.952  17.060 -0.0359  0.2451  0.4303
  205MPD1    C3 3116   2.440   0.987  17.149 -0.1704 -0.3327 -0.5736
  205MPD1    C4 3117   2.569   0.988  17.105  0.0519 -0.3780 -0.1338
  205MPD1    C5 3118   2.597   0.956  16.975  0.2901  0.2620  0.4963
  205MPD1     H 3119   2.237   0.948  17.093 -0.3859  2.7379 -0.3446
  205MPD1    H1 3120   2.653   1.002  17.172 -0.1790  0.3036  0.0145
  205MPD1    H2 3121   2.539   0.889  16.791  0.4411  0.7526 -0.5401
  205MPD1    H3 3122   2.696   0.965  16.931 -0.1683 -0.6559 -0.7165
  205MPD1     N 3123   2.408   1.041  17.272  0.4288 -0.9017  0.2998
  205MPD1    H5 3124   2.484   1.097  17.309 -0.4895  1.1398 -0.9095
  205MPD1    N1 3125   2.260   0.874  16.840  0.1650  0.4128  0.2291
  205MPD1    H6 3126   2.190   0.812  16.881  0.1149  1.4786  1.7816
  205MPD1    H7 3127   2.287   0.832  16.751  0.5690 -0.8508  0.9431
  206MPD1     C 3128   2.890   0.357  16.897  0.3363 -0.2904  0.0734
  206MPD1    C1 3129   2.803   0.421  16.809 -0.3625  0.1228 -0.1141
  206MPD1    C2 3130   2.742   0.345  16.705 -0.1326 -0.2463  0.3429
  206MPD1    C3 3131   2.791   0.216  16.675  0.1972  0.2390 -0.1308
  206MPD1    C4 3132   2.884   0.160  16.757 -0.2013  0.8067 -0.2646
  206MPD1    C5 3133   2.930   0.228  16.868 -0.0269 -0.5692 -0.6810
  206MPD1     H 3134   2.660   0.384  16.647  0.3119 -2.1014 -1.5399
  206MPD1    H1 3135   2.908   0.055  16.746 -0.2717  0.5084  2.4393
  206MPD1    H2 3136   2.932   0.412  16.980 -0.3826 -1.1500  0.9951
  206MPD1    H3 3137   2.967   0.178  16.957 -0.9760  0.8825  0.5235
  206MPD1     N 3138   2.739   0.133  16.580 -0.5748  0.0880 -0.0959
  206MPD1    H5 3139   2.779   0.040  16.586 -0.0524  0.2962 -0.3099
  206MPD1    N1 3140   2.749   0.539  16.851 -0.3023 -0.2987  0.2699
  206MPD1    H6 3141   2.715   0.591  16.771 -1.6972  0.1148  1.1254
  206MPD1    H7 3142   2.822   0.603  16.883 -0.4413  0.4090 -0.8482
  207MPD1     C 3143   1.400   2.861   9.381  0.0773  0.0764  0.2500
  207MPD1    C1 3144   1.273   2.862   9.437  0.3585 -0.3126 -0.0388
  207MPD1    C2 3145   1.240   2.945   9.541  0.3430 -0.1246  0.7443
  207MPD1    C3 3146   1.337   3.023   9.606 -0.4153  0.4199 -0.3878
  207MPD1    C4 3147   1.467   3.018   9.561 -0.2790  0.1911  0.2653
  207MPD1    C5 3148   1.494   2.938   9.448 -0.1337 -0.0117 -0.6480
  207MPD1     H 3149   1.136   2.957   9.570 -0.0090  0.2580 -0.6973
  207MPD1    H1 3150   1.546   3.065   9.619 -1.4635  0.3774  1.7294
  207MPD1    H2 3151   1.420   2.797   9.295  0.1577 -1.5002  1.4389
  207MPD1    H3 3152   1.596   2.927   9.414  0.0805 -1.9194  0.6307
  207MPD1     N 3153   1.292   3.094   9.716 -0.0027 -0.1031 -0.4332
  207MPD1    H5 3154   1.193   3.091   9.737  0.0381 -0.0956 -0.2381
  207MPD1    N1 3155   1.172   2.792   9.365  0.6392  0.0108 -0.1618
  207MPD1    H6 3156   1.214   2.723   9.304 -1.8219 -2.2195  0.6791
  207MPD1    H7 3157   1.102   2.743   9.420  0.3347  1.6227  0.8960
  208MPD1     C 3158   3.304   0.957   0.017  0.4762  0.1987 -0.1671
  208MPD1    C1 3159   3.246   0.832   0.008 -0.6449 -0.4870  0.3293
  208MPD1    C2 3160   3.203   0.774   0.128 -0.0327 -0.2732  0.6233
  208MPD1    C3 3161   3.225   0.829   0.252 -0.2808 -0.3104  0.1910
  208MPD1    C4 3162   3.287   0.958   0.254 -0.0064  0.6471 -0.0523
  208MPD1    C5 3163   3.330   1.015   0.138 -0.1897 -0.8943 -0.9105
  208MPD1     H 3164   3.153   0.679   0.120 -1.1367  0.4545 -1.2297
  208MPD1    H1 3165   3.323   0.997   0.349  0.9939  1.5118 -0.8027
  208MPD1    H2 3166   3.330   1.010  17.617 -0.6769  2.3363  0.7434
  208MPD1    H3 3167   3.384   1.109   0.133 -1.1452 -0.2951 -0.1382
  208MPD1     N 3168   3.175   0.755   0.368 -0.1764 -0.0797 -0.4086
  208MPD1    H5 3169   3.118   0.673   0.355 -0.1796 -0.5727  2.6309
  208MPD1    N1 3170   3.213   0.780  17.571 -0.3987 -0.0456  0.4124
  208MPD1    H6 3171   3.264   0.825  17.496 -2.5169  1.8734  0.1241
  208MPD1    H7 3172   3.236   0.682  17.556  0.4257  0.1282  0.5366
  209MPD1     C 3173   0.086   1.858  10.384  0.4152  0.1746  0.0086
  209MPD1    C1 3174   0.164   1.856  10.495 -0.1418 -0.3051 -0.1930
  209MPD1    C2 3175   0.276   1.933  10.497  0.1376  0.5902  0.1347
  209MPD1    C3 3176   0.307   2.019  10.397 -0.1143  0.1869  0.5205
  209MPD1    C4 3177   0.234   2.019  10.280 -0.4321 -0.0741 -0.2469
  209MPD1    C5 3178   0.123   1.931  10.274 -0.3437 -0.0851 -0.5453
  209MPD1     H 3179   0.328   1.947  10.592  0.8067 -2.3198  0.2026
  209MPD1    H1 3180   0.264   2.074  10.191  3.3598  1.7401  2.0930
  209MPD1    H2 3181   4.717   1.801  10.382  0.2646  0.3615  1.2784
  209MPD1    H3 3182   0.071   1.933  10.179 -1.3441 -1.2102 -0.0143
  209MPD1     N 3183   0.410   2.109  10.429  0.2806 -0.0897  0.4862
  209MPD1    H5 3184   0.452   2.092  10.519  1.1229 -0.4381  0.0315
  209MPD1    N1 3185   0.121   1.805  10.619 -0.1467  0.1739  0.0373
  209MPD1    H6 3186   0.198   1.770  10.674 -0.4858  0.9419  0.9982
  209MPD1    H7 3187   0.039   1.746  10.610 -0.1230 -0.3436  3.3836
  210MPD1     C 3188   1.144   2.188  11.081  0.1887 -0.0251 -0.4564
  210MPD1    C1 3189   1.087   2.093  10.993  0.2818 -0.5668  0.1974
  210MPD1    C2 3190   1.001   2.126  10.896 -0.8742  0.5070  0.2081
  210MPD1    C3 3191   0.958   2.252  10.872  0.1063  0.0009 -0.0214
  210MPD1    C4 3192   1.000   2.345  10.963  0.0824  0.9209 -0.5386
  210MPD1    C5 3193   1.088   2.315  11.069 -0.3342 -0.6361 -0.3538
  210MPD1     H 3194   0.959   2.049  10.832 -0.0884 -0.8155  1.2761
  210MPD1    H1 3195   0.981   2.452  10.959  0.3526  1.0027  0.5108
  210MPD1    H2 3196   1.204   2.164  11.168  0.3496  0.3698 -0.4598
  210MPD1    H3 3197   1.103   2.396  11.139 -1.2976 -0.9659  0.2424
  210MPD1     N 3198   0.883   2.295  10.761 -0.7038  0.3873 -0.3448
  210MPD1    H5 3199   0.879   2.396  10.761  1.2120  0.4738 -2.2690
  210MPD1    N1 3200   1.144   1.963  11.001  0.2718 -0.2201 -0.0756
  210MPD1    H6 3201   1.173   1.933  11.094  0.6066 -0.8946 -0.3975
  210MPD1    H7 3202   1.090   1.884  10.968  1.0352 -0.5002 -0.6630
  211MPD1     C 3203   3.496   1.342  16.666 -0.5777  0.2495  0.2300
  211MPD1    C1 3204   3.507   1.476  16.653 -0.6005  0.3336  0.0878
  211MPD1    C2 3205   3.415   1.545  16.579 -0.4439  0.1613 -0.3349
  211MPD1    C3 3206   3.321   1.479  16.505 -0.3482  0.3386  0.7011
  211MPD1    C4 3207   3.325   1.343  16.506 -0.3107  0.0202  0.0883
  211MPD1    C5 3208   3.414   1.277  16.579  0.6543 -0.2715 -0.0823
  211MPD1     H 3209   3.421   1.653  16.581 -1.2824  0.1825  0.9950
  211MPD1    H1 3210   3.258   1.281  16.447  0.4254 -0.5334 -0.1655
  211MPD1    H2 3211   3.568   1.292  16.729 -0.1446  0.6270  0.0300
  211MPD1    H3 3212   3.412   1.168  16.577 -2.3833 -0.1867 -2.3027
  211MPD1     N 3213   3.230   1.557  16.440  0.2933 -0.2923 -0.2321
  211MPD1    H5 3214   3.234   1.658  16.456 -0.8480 -0.3013  0.1628
  211MPD1    N1 3215   3.592   1.549  16.738 -0.7750 -0.1769  0.6549
  211MPD1    H6 3216   3.622   1.625  16.677  0.4673 -0.9600  0.2920
  211MPD1    H7 3217   3.681   1.504  16.756  1.1579  2.7850 -1.4618
  212MPD1     C 3218   2.557   0.142  17.212 -0.3487  0.1938 -0.2210
  212MPD1    C1 3219   2.584   0.066  17.102 -0.0264 -0.6140  0.3169
  212MPD1    C2 3220   2.488   4.699  17.065  0.1476 -0.4631 -0.8076
  212MPD1    C3 3221   2.366   4.695  17.132 -0.0455  0.5260 -0.2874
  212MPD1    C4 3222   2.341   0.048  17.239 -0.0859 -0.4251  0.7729
  212MPD1    C5 3223   2.440   0.131  17.278 -0.3545 -0.6694  0.3060
  212MPD1     H 3224   2.509   4.639  16.976 -0.0646 -1.2526 -0.3238
  212MPD1    H1 3225   2.244   0.049  17.286 -1.0836 -2.4098 -1.2398
  212MPD1    H2 3226   2.633   0.214  17.240 -2.9372  2.7340  0.3458
  212MPD1    H3 3227   2.421   0.202  17.357 -0.6952  2.2363 -2.4145
  212MPD1     N 3228   2.256   4.616  17.088 -0.1922  0.3022 -0.3633
  212MPD1    H5 3229   2.171   4.618  17.143  0.6615 -2.8086  1.0731
  212MPD1    N1 3230   2.697   0.087  17.021 -0.0115 -0.3949  0.0848
  212MPD1    H6 3231   2.772   0.127  17.077 -0.3951  1.2466 -0.5568
  212MPD1    H7 3232   2.739   0.012  16.966  0.7984 -1.4162  2.1224
  213MPD1     C 3233   0.656   0.652  15.825 -0.1985  0.5052  0.1296
  213MPD1    C1 3234   0.536   0.584  15.825  0.2444  0.0675 -0.3038
  213MPD1    C2 3235   0.464   0.597  15.707 -0.4408 -0.5385  0.0155
  213MPD1    C3 3236   0.510   0.647  15.590 -0.3311  0.1831 -0.3731
  213MPD1    C4 3237   0.640   0.691  15.591 -0.7034 -0.0181 -0.4768
  213MPD1    C5 3238   0.710   0.703  15.709 -0.8863  0.1784  0.7947
  213MPD1     H 3239   0.361   0.565  15.714 -0.0275 -1.3297  2.1890
  213MPD1    H1 3240   0.689   0.735  15.505 -0.5909 -0.7705 -0.7982
  213MPD1    H2 3241   0.715   0.663  15.915  1.7422  1.3549 -1.2314
  213MPD1    H3 3242   0.799   0.764  15.712 -1.1675  0.7911 -2.9674
  213MPD1     N 3243   0.425   0.651  15.479  0.0383  0.7331  0.3558
  213MPD1    H5 3244   0.333   0.608  15.489  0.8285 -1.7174 -3.2342
  213MPD1    N1 3245   0.484   0.561  15.951  0.4670 -0.1714  0.2983
  213MPD1    H6 3246   0.426   0.477  15.955 -0.8309  0.6249 -1.8913
  213MPD1    H7 3247   0.554   0.533  16.019  1.5267  0.9524 -0.3362
  214MPD1     C 3248   4.611   0.182  14.775  0.4087  0.0942 -0.0684
  214MPD1    C1 3249   0.003   0.161  14.851  0.0892  0.2056  0.0068
  214MPD1    C2 3250   0.047   0.274  14.918 -0.2303  0.6816  0.6780
  214MPD1    C3 3251   4.709   0.400  14.921  0.2885 -0.2335 -0.1178
  214MPD1    C4 3252   4.592   0.413  14.850 -0.2291 -0.1864  0.1025
  214MPD1    C5 3253   4.539   0.303  14.773 -0.3788  0.0821  0.5569
  214MPD1     H 3254   0.138   0.265  14.977 -0.3761 -0.3521  0.7342
  214MPD1    H1 3255   4.526   0.498  14.864  0.7413  0.3158  1.5024
  214MPD1    H2 3256   4.572   0.101  14.714  1.9976 -0.2471 -0.6096
  214MPD1    H3 3257   4.444   0.317  14.724 -0.9231  0.3979  1.6993
  214MPD1     N 3258   0.029   0.509  14.997  0.5287 -0.0054 -0.1014
  214MPD1    H5 3259   4.705   0.599  14.982  0.7208  0.1051 -0.0377
  214MPD1    N1 3260   0.079   0.047  14.846  0.1192  0.2471  0.2585
  214MPD1    H6 3261   0.141   0.030  14.925 -1.2740  0.6353  1.4556
  214MPD1    H7 3262   0.020   4.686  14.844 -1.6181  1.4988 -0.1875
  215MPD1     C 3263   1.138   1.535  10.779  0.7276  0.1643  0.1599
  215MPD1    C1 3264   1.137   1.520  10.917  0.1572  0.4453 -0.5685
  215MPD1    C2 3265   1.048   1.602  10.991 -0.4246 -0.4807  0.7596
  215MPD1    C3 3266   0.958   1.684  10.925  0.0957  0.0107 -0.4836
  215MPD1    C4 3267   0.953   1.681  10.782 -0.1526  0.4579 -0.2475
  215MPD1    C5 3268   1.049   1.616  10.711 -0.4616 -0.2540  0.4000
  215MPD1     H 3269   1.043   1.611  11.099  3.4704 -0.5789  0.9302
  215MPD1    H1 3270   0.879   1.741  10.730  0.0277  0.0318 -0.9990
  215MPD1    H2 3271   1.208   1.478  10.718  0.3764  1.0155 -1.0543
  215MPD1    H3 3272   1.048   1.623  10.602 -0.8430  0.2943  0.4381
  215MPD1     N 3273   0.870   1.756  11.008  0.3350  0.9821  0.1648
  215MPD1    H5 3274   0.887   1.758  11.108  1.1047 -0.0594  0.0492
  215MPD1    N1 3275   1.236   1.434  10.970  0.5958 -0.2878 -0.8389
  215MPD1    H6 3276   1.268   1.363  10.904  0.0612 -0.5704 -0.7895
  215MPD1    H7 3277   1.220   1.390  11.060 -1.9737  2.0285 -0.1709
  216MPD1     C 3278   2.454   3.963  15.990  0.6605 -0.6311  0.0167
  216MPD1    C1 3279   2.495   3.836  16.025 -0.1213  0.1206  0.3739
  216MPD1    C2 3280   2.489   3.795  16.152 -0.1016 -0.0900  0.4915
  216MPD1    C3 3281   2.441   3.881  16.254 -0.4936 -0.3842 -0.2003
  216MPD1    C4 3282   2.420   4.014  16.220 -0.7158 -0.0510 -0.2717
  216MPD1    C5 3283   2.419   4.050  16.087 -0.2488  0.4444  0.4545
  216MPD1     H 3284   2.514   3.695  16.184 -1.6835 -0.6605 -0.0648
  216MPD1    H1 3285   2.388   4.084  16.297 -0.1102  1.1297 -1.1008
  216MPD1    H2 3286   2.455   3.998  15.888  1.0208 -1.0023 -0.1081
  216MPD1    H3 3287   2.388   4.152  16.068  0.4041  0.3107 -1.3643
  216MPD1     N 3288   2.441   3.840  16.388  0.3049 -0.3388  0.3785
  216MPD1    H5 3289   2.462   3.742  16.402  0.2363 -0.5369 -0.9626
  216MPD1    N1 3290   2.554   3.757  15.925  0.8911 -0.0265 -0.1877
  216MPD1    H6 3291   2.558   3.657  15.945 -0.2413 -0.2276 -0.9953
  216MPD1    H7 3292   2.529   3.774  15.828 -2.2385  2.8294  1.1225
  217MPD1     C 3293   3.618   2.216   8.412  0.3982  0.2666  0.1975
  217MPD1    C1 3294   3.645   2.087   8.365  0.0517  1.0496 -0.2629
  217MPD1    C2 3295   3.601   1.984   8.443  0.0169 -0.0194  0.8606
  217MPD1    C3 3296   3.564   1.994   8.574 -0.2824 -0.4423  0.0546
  217MPD1    C4 3297   3.547   2.119   8.623  0.3980  0.4636 -0.2758
  217MPD1    C5 3298   3.573   2.226   8.540  0.5349  0.3406 -0.0357
  217MPD1     H 3299   3.598   1.888   8.392  3.4648  0.9051 -1.1091
  217MPD1    H1 3300   3.519   2.123   8.728 -1.0649  0.1208 -0.6622
  217MPD1    H2 3301   3.643   2.307   8.358  0.1751  0.8632  1.0972
  217MPD1    H3 3302   3.555   2.328   8.570 -0.9062  0.1847 -0.3811
  217MPD1     N 3303   3.557   1.882   8.659 -0.1898  0.1021 -0.4901
  217MPD1    H5 3304   3.518   1.904   8.750  0.5890  0.4901 -0.2535
  217MPD1    N1 3305   3.675   2.067   8.231  0.5325  0.0328  0.4104
  217MPD1    H6 3306   3.731   1.981   8.233  2.5596  1.3493 -0.0795
  217MPD1    H7 3307   3.748   2.133   8.207  0.6193 -0.0667  0.3968
  218MPD1     C 3308   0.130   2.420  12.120 -0.6750  0.1734  0.2431
  218MPD1    C1 3309   0.122   2.302  12.177 -0.3782  0.1134 -0.5460
  218MPD1    C2 3310   0.226   2.272  12.262 -0.0529  0.3958  0.5983
  218MPD1    C3 3311   0.342   2.341  12.270 -0.3928 -1.6053  0.1133
  218MPD1    C4 3312   0.358   2.461  12.196 -0.4781  0.0171 -0.1990
  218MPD1    C5 3313   0.246   2.497  12.117  0.7528 -0.6061  0.0830
  218MPD1     H 3314   0.217   2.179  12.316 -0.0713 -1.0814 -1.9657
  218MPD1    H1 3315   0.442   2.528  12.208 -1.4770  1.3075 -0.4004
  218MPD1    H2 3316   0.054   2.460  12.054  0.1269 -1.6419 -1.8238
  218MPD1    H3 3317   0.241   2.587  12.057 -2.0610 -1.2408 -0.6679
  218MPD1     N 3318   0.433   2.307  12.368  0.4506 -0.7412 -0.1303
  218MPD1    H5 3319   0.390   2.244  12.434 -1.5683 -0.6566 -1.3697
  218MPD1    N1 3320   0.010   2.225  12.166 -0.1246 -0.4386  0.2540
  218MPD1    H6 3321   4.687   2.251  12.079  0.2680 -0.0000  0.1834
  218MPD1    H7 3322   0.028   2.125  12.159  0.5249 -0.3677  0.9503
  219MPD1     C 3323   1.520   2.208  12.514  0.5034 -0.5238  0.0006
  219MPD1    C1 3324   1.455   2.326  12.509 -0.4055 -0.7678 -0.6493
  219MPD1    C2 3325   1.315   2.330  12.508  0.0402  0.2736 -0.0184
  219MPD1    C3 3326   1.244   2.210  12.530 -0.0812 -0.7437  0.1077
  219MPD1    C4 3327   1.312   2.088  12.540 -0.4629 -0.0343 -0.7683
  219MPD1    C5 3328   1.450   2.090  12.526  0.2307 -0.2122 -0.3048
  219MPD1     H 3329   1.260   2.422  12.492  0.0348 -0.0280 -1.8153
  219MPD1    H1 3330   1.265   1.991  12.554  0.8446 -0.5817 -0.0668
  219MPD1    H2 3331   1.628   2.201  12.509  0.3572 -1.3962 -2.3089
  219MPD1    H3 3332   1.491   1.990  12.521 -2.1686 -1.0801 -2.6088
  219MPD1     N 3333   1.105   2.200  12.547 -0.3348 -0.2014  0.1751
  219MPD1    H5 3334   1.068   2.107  12.564  0.3228 -0.1499  1.8402
  219MPD1    N1 3335   1.533   2.439  12.475  0.0445 -0.5857 -0.2570
  219MPD1    H6 3336   1.626   2.430  12.516  0.9046  3.9293 -1.2223
  219MPD1    H7 3337   1.493   2.527  12.507 -0.0709 -0.8757  0.4004
  220MPD1     C 3338   4.672   2.067   9.499 -0.6505 -0.8900  0.9302
  220MPD1    C1 3339   4.553   2.129   9.544  0.3814 -0.8177  0.1046
  220MPD1    C2 3340   4.554   2.169   9.676 -0.4589  0.1443 -0.1009
  220MPD1    C3 3341   4.666   2.173   9.758  0.3435 -0.4977 -1.1712
  220MPD1    C4 3342   0.055   2.097   9.716 -0.0741 -0.0252  0.3941
  220MPD1    C5 3343   0.054   2.047   9.589 -0.2691 -0.5648 -0.7543
  220MPD1     H 3344   4.462   2.198   9.725 -0.8149 -0.8025 -0.2099
  220MPD1    H1 3345   0.142   2.096   9.780 -0.3573  3.2212  0.8256
  220MPD1    H2 3346   4.681   2.019   9.403 -0.2197  0.4062  0.3187
  220MPD1    H3 3347   0.145   2.000   9.554 -0.8870 -1.5066 -1.1021
  220MPD1     N 3348   4.644   2.213   9.894  0.0952  0.2461  0.0807
  220MPD1    H5 3349   4.548   2.239   9.915  1.2511  2.5798  2.4146
  220MPD1    N1 3350   4.433   2.117   9.466 -0.2080  0.2378  1.1750
  220MPD1    H6 3351   4.358   2.179   9.494  0.0017 -0.1771  2.6636
  220MPD1    H7 3352   4.455   2.136   9.369 -1.1771 -1.5101  0.6209
  221MPD1     C 3353   2.687   1.554  16.605 -0.2112  0.1674 -0.0164
  221MPD1    C1 3354   2.596   1.503  16.510 -0.3524 -0.0972  0.1606
  221MPD1    C2 3355   2.632   1.403  16.422 -0.2408  0.1664  0.1789
  221MPD1    C3 3356   2.753   1.342  16.432  0.1606  0.3496  0.4546
  221MPD1    C4 3357   2.836   1.384  16.535  0.5116 -0.2458 -0.4252
  221MPD1    C5 3358   2.807   1.485  16.620 -0.0782 -0.1100 -0.3410
  221MPD1     H 3359   2.564   1.394  16.338  0.0541  0.5608 -0.1002
  221MPD1    H1 3360   2.934   1.337  16.538  0.5467 -0.1347  0.0482
  221MPD1    H2 3361   2.659   1.638  16.668  1.5767  0.1096  0.8465
  221MPD1    H3 3362   2.883   1.509  16.694  0.1414  0.3766 -0.7208
  221MPD1     N 3363   2.804   1.264  16.327 -0.5179 -0.6105  0.0282
  221MPD1    H5 3364   2.903   1.241  16.321 -0.4027 -0.0072 -0.3658
  221MPD1    N1 3365   2.479   1.575  16.490 -0.2026  1.2780 -0.1613
  221MPD1    H6 3366   2.412   1.517  16.441 -1.7852  2.3334  0.7468
  221MPD1    H7 3367   2.438   1.609  16.577 -0.2090  0.0230  0.3271
  222MPD1     C 3368   2.353   4.254  17.345  0.0174 -0.5682 -0.1499
  222MPD1    C1 3369   2.351   4.392  17.334 -0.1820  1.0004 -0.3512
  222MPD1    C2 3370   2.233   4.452  17.370 -0.5942 -1.2056  0.2472
  222MPD1    C3 3371   2.114   4.385  17.388  0.0717  0.3645 -0.4920
  222MPD1    C4 3372   2.113   4.246  17.380 -0.7265 -0.0183  0.5303
  222MPD1    C5 3373   2.233   4.186  17.364  0.9979  0.1243 -0.3687
  222MPD1     H 3374   2.246   4.557  17.394 -1.9726 -0.7377 -1.0497
  222MPD1    H1 3375   2.027   4.186  17.408 -0.9526  0.4474  0.8264
  222MPD1    H2 3376   2.439   4.188  17.341  1.1698  0.8987  0.3697
  222MPD1    H3 3377   2.240   4.078  17.368 -0.7026  0.0187 -0.3146
  222MPD1     N 3378   1.999   4.459  17.409 -0.3616 -0.1530  0.2376
  222MPD1    H5 3379   1.912   4.409  17.427 -0.0510 -0.6980  0.2080
  222MPD1    N1 3380   2.468   4.462  17.320 -0.4449 -0.0246  0.1695
  222MPD1    H6 3381   2.530   4.431  17.245 -2.4990 -3.1931 -0.2021
  222MPD1    H7 3382   2.448   4.558  17.295 -2.8608 -0.9237 -1.2960
  223MPD1     C 3383   1.495   4.127   0.260 -0.2435 -0.2451 -0.3767
  223MPD1    C1 3384   1.576   4.083   0.162 -0.4499  0.7625 -0.3824
  223MPD1    C2 3385   1.611   4.173   0.070  0.1701  0.5258 -0.2813
  223MPD1    C3 3386   1.568   4.306   0.083 -0.5912 -0.7103  0.8928
  223MPD1    C4 3387   1.469   4.344   0.172 -0.6028 -0.0123 -0.5227
  223MPD1    C5 3388   1.441   4.250   0.264  0.3134 -0.0570 -0.1389
  223MPD1     H 3389   1.686   4.144  17.689 -0.4986  2.5878 -1.7822
  223MPD1    H1 3390   1.433   4.445   0.188  1.7582  0.3963  2.2389
  223MPD1    H2 3391   1.481   4.064   0.347  0.0010  0.9145  0.5086
  223MPD1    H3 3392   1.393   4.290   0.353 -0.9999  1.5796 -1.5696
  223MPD1     N 3393   1.621   4.401  17.680 -0.8613  0.4005  0.7242
  223MPD1    H5 3394   1.685   4.369  17.608  0.5678  2.3569  1.1233
  223MPD1    N1 3395   1.644   3.960   0.188 -0.0326  0.4452  0.9736
  223MPD1    H6 3396   1.576   3.889   0.213  0.8355 -1.0305 -0.8455
  223MPD1    H7 3397   1.691   3.920   0.107  0.2412 -0.9084  1.8060
  224MPD1     C 3398   3.208   2.453   9.051 -0.0397 -0.0055 -0.0931
  224MPD1    C1 3399   3.327   2.390   9.038 -0.0078 -0.9589  0.5824
  224MPD1    C2 3400   3.364   2.293   9.132 -0.5706 -0.4961 -0.3573
  224MPD1    C3 3401   3.292   2.272   9.244  0.2044 -0.1224  0.6527
  224MPD1    C4 3402   3.171   2.334   9.256  0.5339  0.5352 -0.6028
  224MPD1    C5 3403   3.133   2.428   9.160  0.1174  0.8973 -0.4367
  224MPD1     H 3404   3.463   2.249   9.124 -0.3888  0.0673 -1.2162
  224MPD1    H1 3405   3.102   2.323   9.339  0.3338  0.0204 -0.8324
  224MPD1    H2 3406   3.177   2.532   8.983  0.5152  0.9128  0.7408
  224MPD1    H3 3407   3.040   2.484   9.165  0.3421  1.0753  1.6161
  224MPD1     N 3408   3.333   2.188   9.352  0.0023  0.0529  0.1108
  224MPD1    H5 3409   3.262   2.183   9.424 -0.4686 -0.5959 -0.3908
  224MPD1    N1 3410   3.394   2.403   8.923  0.0248  0.0681 -0.2987
  224MPD1    H6 3411   3.494   2.401   8.941 -0.6453 -0.3071  3.2866
  224MPD1    H7 3412   3.371   2.485   8.868 -2.2302  0.3765  1.1368
  225MPD1     C 3413   4.637   2.965  12.793 -0.6166 -0.0086 -1.3010
  225MPD1    C1 3414   4.707   2.944  12.678 -0.2019 -0.0755 -0.5108
  225MPD1    C2 3415   4.641   2.969  12.562 -0.7405 -0.4568  0.3268
  225MPD1    C3 3416   4.509   2.990  12.555 -0.1780  0.0499 -0.4205
  225MPD1    C4 3417   4.444   3.018  12.667  0.7011 -0.1255  0.2452
  225MPD1    C5 3418   4.508   3.001  12.791 -0.4208 -0.5148 -0.8331
  225MPD1     H 3419   4.700   2.973  12.471 -0.7510 -2.7515  0.2411
  225MPD1    H1 3420   4.338   3.040  12.674  0.7767 -0.2273  1.6099
  225MPD1    H2 3421   4.680   2.950  12.891  0.0271  0.8040 -1.4650
  225MPD1    H3 3422   4.451   3.029  12.879 -0.8918 -2.5660 -0.4970
  225MPD1     N 3423   4.444   3.006  12.431  0.2482 -0.0688  0.2961
  225MPD1    H5 3424   4.352   3.048  12.439  1.5158  2.8443 -0.3860
  225MPD1    N1 3425   0.124   2.938  12.686  0.2540 -0.2551 -0.6037
  225MPD1    H6 3426   0.160   2.888  12.767 -0.5568  3.6744  2.1337
  225MPD1    H7 3427   0.158   2.883  12.607 -0.9818  3.5350 -3.7862
  226MPD1     C 3428   2.574   2.848   9.509 -0.0136  0.0415  0.2254
  226MPD1    C1 3429   2.621   2.729   9.552 -0.2413 -0.4221  0.3265
  226MPD1    C2 3430   2.744   2.690   9.511  0.3084  0.0655  0.3432
  226MPD1    C3 3431   2.829   2.767   9.434 -0.2635 -0.3625 -0.2445
  226MPD1    C4 3432   2.783   2.891   9.392  0.5729 -1.0353  0.8271
  226MPD1    C5 3433   2.656   2.929   9.433  0.0636  0.1421 -0.4277
  226MPD1     H 3434   2.790   2.594   9.531  1.4472  0.7516  1.0634
  226MPD1    H1 3435   2.842   2.966   9.340 -0.3543 -0.8384  0.0507
  226MPD1    H2 3436   2.474   2.883   9.530 -0.5733 -1.3271 -0.1663
  226MPD1    H3 3437   2.622   3.031   9.419 -0.7429 -0.2151 -1.0967
  226MPD1     N 3438   2.961   2.716   9.424 -0.4098  0.2672  0.3622
  226MPD1    H5 3439   2.982   2.638   9.485  0.3359  0.1270 -0.0726
  226MPD1    N1 3440   2.524   2.645   9.611  0.0764 -0.3435  0.5057
  226MPD1    H6 3441   2.466   2.705   9.669  1.3605  0.5102  0.8990
  226MPD1    H7 3442   2.570   2.584   9.678 -0.8606 -2.0714 -0.4047
  227MPD1     C 3443   3.690   3.144   8.909 -0.3881 -0.4752 -0.0663
  227MPD1    C1 3444   3.597   3.202   8.991  0.0964  0.4138 -0.2970
  227MPD1    C2 3445   3.523   3.126   9.077  0.0951  0.9431 -0.2229
  227MPD1    C3 3446   3.558   2.988   9.089  0.1589  0.3223  0.2850
  227MPD1    C4 3447   3.665   2.936   9.024  0.3149  0.3811 -0.1298
  227MPD1    C5 3448   3.728   3.015   8.936  0.6982 -0.0401 -0.8594
  227MPD1     H 3449   3.446   3.169   9.139  0.4877 -2.9930  3.0200
  227MPD1    H1 3450   3.691   2.831   9.037  1.1644  0.5046 -0.8764
  227MPD1    H2 3451   3.744   3.203   8.836 -0.4047  0.8911  1.0299
  227MPD1    H3 3452   3.806   2.966   8.880  0.9053 -0.0017 -0.6030
  227MPD1     N 3453   3.479   2.907   9.170  0.9943  0.0547  0.4055
  227MPD1    H5 3454   3.391   2.952   9.193 -0.1463 -0.6383 -2.6035
  227MPD1    N1 3455   3.561   3.336   8.972 -0.2659  0.3075 -0.1510
  227MPD1    H6 3456   3.508   3.382   9.046  0.0642 -0.8064  0.7870
  227MPD1    H7 3457   3.639   3.391   8.938  0.9754 -1.2306  0.1993
  228MPD1     C 3458   1.364   1.080  13.240 -0.4591 -0.1587  0.5285
  228MPD1    C1 3459   1.293   0.991  13.311  0.1998 -0.4520 -0.6151
  228MPD1    C2 3460   1.256   0.870  13.251 -0.0235  0.3323 -0.6425
  228MPD1    C3 3461   1.302   0.833  13.127  0.0047 -0.1324 -0.0811
  228MPD1    C4 3462   1.390   0.919  13.057 -0.3307  0.0561 -0.2024
  228MPD1    C5 3463   1.416   1.041  13.117 -0.3705 -0.1022 -0.3520
  228MPD1     H 3464   1.181   0.811  13.302  0.1435 -1.0345 -2.0142
  228MPD1    H1 3465   1.412   0.909  12.951 -3.8505 -0.7364 -0.8579
  228MPD1    H2 3466   1.389   1.180  13.273 -1.4642 -0.0186  0.8657
  228MPD1    H3 3467   1.477   1.112  13.062  1.1952 -0.9222  0.3410
  228MPD1     N 3468   1.260   0.709  13.079 -0.6156  0.4804 -0.0393
  228MPD1    H5 3469   1.171   0.675  13.113 -0.1478  0.0959  0.8019
  228MPD1    N1 3470   1.225   1.039  13.420  0.4481 -0.0998 -0.4999
  228MPD1    H6 3471   1.233   0.975  13.499 -0.7534  1.1109  0.5846
  228MPD1    H7 3472   1.258   1.128  13.456  0.5657  0.1559 -1.2512
  229MPD1     C 3473   1.128   4.342  14.532  0.0748  0.1583 -0.4378
  229MPD1    C1 3474   1.144   4.212  14.484  0.5128 -0.7753  0.2009
  229MPD1    C2 3475   1.191   4.121  14.578  0.4388 -0.6198 -0.5030
  229MPD1    C3 3476   1.207   4.153  14.718 -0.3291  0.5863  0.2438
  229MPD1    C4 3477   1.176   4.280  14.767 -0.0959 -0.3867  0.0769
  229MPD1    C5 3478   1.151   4.370  14.668 -0.3678 -0.1391 -0.7968
  229MPD1     H 3479   1.196   4.019  14.544 -0.9240 -0.5110 -1.0103
  229MPD1    H1 3480   1.182   4.305  14.873  2.7450  1.4470 -0.5288
  229MPD1    H2 3481   1.091   4.423  14.470  0.6990  0.1767 -0.7909
  229MPD1    H3 3482   1.136   4.471  14.705 -0.1804  0.0847 -1.3261
  229MPD1     N 3483   1.233   4.052  14.817  0.1626 -0.3525  0.3518
  229MPD1    H5 3484   1.216   4.073  14.915 -1.9533  3.1860 -0.7670
  229MPD1    N1 3485   1.120   4.182  14.347 -0.0952  0.5393  0.3224
  229MPD1    H6 3486   1.165   4.252  14.288 -0.3383  0.3037 -0.1400
  229MPD1    H7 3487   1.150   4.087  14.328  0.0908  0.4573  1.0016
  230MPD1     C 3488   1.807   3.942  15.606 -0.2890 -0.2884  0.5570
  230MPD1    C1 3489   1.818   3.817  15.556 -0.2021  0.3335 -0.4099
  230MPD1    C2 3490   1.728   3.773  15.462 -0.2798  0.4908  0.0509
  230MPD1    C3 3491   1.636   3.859  15.406 -0.5889 -0.0338 -0.2210
  230MPD1    C4 3492   1.630   3.986  15.461  0.0258 -0.3138  0.5678
  230MPD1    C5 3493   1.721   4.034  15.549  0.1594 -0.0965  0.1397
  230MPD1     H 3494   1.741   3.671  15.428  2.8742  0.6753  0.6320
  230MPD1    H1 3495   1.554   4.059  15.438  0.7870  0.1259 -0.5737
  230MPD1    H2 3496   1.871   3.977  15.686 -0.7167 -1.0112  1.2269
  230MPD1    H3 3497   1.713   4.136  15.586  2.1300 -0.0080  0.3106
  230MPD1     N 3498   1.547   3.815  15.307  0.4895  0.2205 -0.3364
  230MPD1    H5 3499   1.558   3.717  15.283 -0.4212 -0.1327  0.6840
  230MPD1    N1 3500   1.900   3.726  15.626 -0.7478 -0.8178 -0.2112
  230MPD1    H6 3501   1.928   3.651  15.563  0.1720 -1.6866  1.2359
  230MPD1    H7 3502   1.986   3.753  15.673 -0.8391  1.1521 -1.1908
  231MPD1     C 3503   0.015   0.850  15.438 -0.3117  0.1118  1.1303
  231MPD1    C1 3504   4.657   0.830  15.336  0.4429 -0.6185  0.2585
  231MPD1    C2 3505   4.650   0.925  15.238  0.3392 -0.4144  0.1101
  231MPD1    C3 3506   0.005   1.040  15.247  0.7089  0.3340  0.1585
  231MPD1    C4 3507   0.088   1.058  15.354 -0.1311 -0.5326  0.6429
  231MPD1    C5 3508   0.102   0.958  15.450  0.0390 -0.3058  0.2508
  231MPD1     H 3509   4.584   0.908  15.154  0.2909  0.1767  0.0325
  231MPD1    H1 3510   0.147   1.149  15.358  0.0720 -0.7230  2.0910
  231MPD1    H2 3511   0.034   0.771  15.511  2.5039 -0.1042  0.1478
  231MPD1    H3 3512   0.162   0.964  15.540  1.3633  0.7960 -0.7063
  231MPD1     N 3513   4.711   1.141  15.143  0.4365 -0.1503  0.3538
  231MPD1    H5 3514   4.660   1.124  15.057 -1.2188 -1.0901  1.5300
  231MPD1    N1 3515   4.547   0.735  15.345 -0.1364  0.1138 -0.1411
  231MPD1    H6 3516   4.574   0.657  15.405 -0.1102  0.7006  0.5977
  231MPD1    H7 3517   4.516   0.706  15.252 -1.3874  1.1884 -0.0477
  232MPD1     C 3518   0.950   2.949  17.655  0.6746 -0.2524 -0.8998
  232MPD1    C1 3519   0.847   3.025  17.608  0.0499 -1.0201  0.2656
  232MPD1    C2 3520   0.832   3.151  17.652  0.2948 -0.2261 -0.0214
  232MPD1    C3 3521   0.889   3.190   0.079  0.3256  0.1387  0.0073
  232MPD1    C4 3522   0.977   3.107   0.139 -0.1049  0.7923 -0.8731
  232MPD1    C5 3523   1.017   2.989   0.076  0.0736 -0.2899 -0.0777
  232MPD1     H 3524   0.757   3.216  17.610 -2.0382 -1.4425  2.2225
  232MPD1    H1 3525   1.018   3.117   0.239  0.7968  0.0439 -1.1625
  232MPD1    H2 3526   0.973   2.853  17.610 -0.0811 -0.8531  0.0105
  232MPD1    H3 3527   1.093   2.934   0.129 -0.9487 -1.8409 -0.2205
  232MPD1     N 3528   0.844   3.311   0.135  0.6013 -0.2569  0.0695
  232MPD1    H5 3529   0.781   3.363   0.074  1.5351  1.3175  0.4437
  232MPD1    N1 3530   0.781   2.971  17.493  0.4558  0.0558 -0.0578
  232MPD1    H6 3531   0.775   2.869  17.486  1.0081  0.0606 -0.7050
  232MPD1    H7 3532   0.683   2.996  17.503  0.8267  1.7772 -0.6568
  233MPD1     C 3533   2.129   1.639   1.850 -0.4874  0.1870  0.5021
  233MPD1    C1 3534   2.079   1.513   1.875 -0.3117 -0.5518 -0.3249
  233MPD1    C2 3535   2.172   1.409   1.875  0.1400 -0.2104  0.6056
  233MPD1    C3 3536   2.298   1.437   1.846  0.0572 -0.3751 -0.3442
  233MPD1    C4 3537   2.341   1.564   1.816 -0.3929 -0.1679  0.1503
  233MPD1    C5 3538   2.261   1.670   1.824 -0.5546 -0.0892 -0.1927
  233MPD1     H 3539   2.134   1.316   1.916 -1.1147  1.0683  2.3614
  233MPD1    H1 3540   2.445   1.578   1.788 -0.1472 -1.8078  0.2513
  233MPD1    H2 3541   2.057   1.719   1.835 -0.4181  0.1649  0.0537
  233MPD1    H3 3542   2.301   1.768   1.801  0.2943 -0.2102  0.7695
  233MPD1     N 3543   2.395   1.338   1.841  0.5366 -0.1318 -0.1814
  233MPD1    H5 3544   2.485   1.366   1.803  0.4258 -0.8309 -0.9762
  233MPD1    N1 3545   1.944   1.493   1.923 -0.5886 -0.1342  0.3150
  233MPD1    H6 3546   1.923   1.394   1.918 -0.7155  0.0435 -2.4995
  233MPD1    H7 3547   1.887   1.533   1.849 -1.1164  0.1283  0.8612
  234MPD1     C 3548   4.579   0.580   9.601 -0.4356 -0.0553  0.3402
  234MPD1    C1 3549   4.480   0.605   9.506  0.0878  0.4506  0.2272
  234MPD1    C2 3550   4.419   0.723   9.516 -0.5067 -0.7517 -0.3098
  234MPD1    C3 3551   4.453   0.829   9.599 -0.3152 -0.0833 -0.1837
  234MPD1    C4 3552   4.559   0.808   9.679  0.6434  0.1373  0.0468
  234MPD1    C5 3553   4.617   0.683   9.680  0.5020 -0.4850 -0.2368
  234MPD1     H 3554   4.338   0.754   9.451 -1.4927 -0.2858  1.1415
  234MPD1    H1 3555   4.602   0.885   9.742  1.7634  1.0391 -1.8269
  234MPD1    H2 3556   4.624   0.482   9.608 -0.8681 -0.4650 -2.4286
  234MPD1    H3 3557   4.689   0.667   9.759 -0.7448 -1.7165  0.6483
  234MPD1     N 3558   4.397   0.956   9.574 -0.2001 -1.0416 -0.2238
  234MPD1    H5 3559   4.324   0.958   9.503  1.0597  1.1387 -1.4704
  234MPD1    N1 3560   4.420   0.497   9.433  0.3270  0.6836  0.1398
  234MPD1    H6 3561   4.368   0.530   9.353  0.3048  0.7206  0.1691
  234MPD1    H7 3562   4.489   0.436   9.390  0.9740  0.2173  1.8431
  235MPD1     C 3563   0.938   2.733  11.480 -0.5063 -0.4590  0.1976
  235MPD1    C1 3564   1.013   2.734  11.368  0.4559 -0.0440  0.4780
  235MPD1    C2 3565   1.052   2.859  11.320  0.8162 -0.4173 -0.1572
  235MPD1    C3 3566   1.049   2.981  11.391  0.1914  0.2367  0.3175
  235MPD1    C4 3567   0.978   2.968  11.507 -0.0867 -0.5674  0.1566
  235MPD1    C5 3568   0.937   2.847  11.562 -0.4334  0.2696  0.6234
  235MPD1     H 3569   1.097   2.860  11.222  1.7519  0.1431  0.2782
  235MPD1    H1 3570   0.962   3.054  11.570  1.1123 -1.4427  1.6587
  235MPD1    H2 3571   0.877   2.648  11.508  0.0741 -0.1670  2.3440
  235MPD1    H3 3572   0.876   2.853  11.651 -1.1097 -1.6435  0.2913
  235MPD1     N 3573   1.103   3.096  11.328 -0.3784 -0.0286  0.1525
  235MPD1    H5 3574   1.148   3.084  11.237  1.5279 -0.5114  1.1539
  235MPD1    N1 3575   1.017   2.622  11.280 -0.3936  0.0450  0.3728
  235MPD1    H6 3576   1.103   2.638  11.229  0.5016 -2.4210  1.1093
  235MPD1    H7 3577   1.036   2.536  11.331  0.3894  0.4695  0.7779
  236MPD1     C 3578   0.292   4.576   9.939 -0.4306  0.9787 -0.6407
  236MPD1    C1 3579   0.319   4.452   9.889  0.3512  0.1008  0.2895
  236MPD1    C2 3580   0.341   4.347   9.980 -0.8763 -0.0597 -0.2880
  236MPD1    C3 3581   0.367   4.377  10.110 -0.2960  0.0235 -0.0497
  236MPD1    C4 3582   0.348   4.506  10.156 -0.0411  0.1064  0.4740
  236MPD1    C5 3583   0.302   4.604  10.074  0.6648  0.1988  0.6639
  236MPD1     H 3584   0.336   4.244   9.946  1.9407  0.0549 -1.0320
  236MPD1    H1 3585   0.360   4.529  10.262 -0.9480  0.0186  0.6016
  236MPD1    H2 3586   0.265   4.658   9.873 -2.0646  1.3000  0.4357
  236MPD1    H3 3587   0.273   4.701  10.115 -0.1766  0.8744 -1.5177
  236MPD1     N 3588   0.412   4.278  10.205  0.5913  0.2506  0.0616
  236MPD1    H5 3589   0.446   4.319  10.292  0.8616 -0.0752  0.1113
  236MPD1    N1 3590   0.293   4.424   9.749 -0.3920 -0.6049 -0.9514
  236MPD1    H6 3591   0.330   4.499   9.691  0.2889 -2.4967 -2.9244
  236MPD1    H7 3592   0.337   4.336   9.724  2.0430  0.8154 -1.6441
  237MPD1     C 3593   0.156   2.790  15.315 -0.6217  0.2672 -0.3522
  237MPD1    C1 3594   0.029   2.857  15.316 -0.0535 -0.4039  0.7315
  237MPD1    C2 3595   4.650   2.790  15.245 -0.2781  0.3816  0.3913
  237MPD1    C3 3596   4.658   2.652  15.211  0.2962 -0.1584  0.1879
  237MPD1    C4 3597   0.056   2.588  15.233 -0.1925 -0.4348 -0.1686
  237MPD1    C5 3598   0.162   2.660  15.280 -0.0389 -0.8359  0.3850
  237MPD1     H 3599   4.560   2.846  15.222 -0.6745 -0.1402  0.6674
  237MPD1    H1 3600   0.057   2.485  15.201 -0.4623 -1.4562  3.1047
  237MPD1    H2 3601   0.244   2.845  15.348 -0.5893 -0.0665  0.1126
  237MPD1    H3 3602   0.255   2.610  15.303  1.7950  1.3541 -2.1760
  237MPD1     N 3603   4.560   2.576  15.148 -0.3033  0.5762 -0.3788
  237MPD1    H5 3604   4.573   2.475  15.147  1.6267  0.8387 -0.9740
  237MPD1    N1 3605   0.026   3.000  15.318 -0.0666  0.0816 -0.2781
  237MPD1    H6 3606   4.660   3.044  15.344  0.0352  0.0395  0.1368
  237MPD1    H7 3607   0.086   3.038  15.391 -0.3391  4.2037 -2.2173
  238MPD1     C 3608   1.795   4.624  15.102  0.2629 -0.8494 -0.1239
  238MPD1    C1 3609   1.827   4.693  14.987  1.0020 -0.1613  0.0825
  238MPD1    C2 3610   1.749   0.084  14.960 -0.4505  0.5429  0.2141
  238MPD1    C3 3611   1.667   0.137  15.057  0.2464 -0.0773  0.2592
  238MPD1    C4 3612   1.650   0.075  15.173  0.2896 -0.5627  0.3523
  238MPD1    C5 3613   1.712   4.677  15.197 -0.0003 -0.1818 -0.0603
  238MPD1     H 3614   1.770   0.145  14.873 -1.0014 -0.9990 -0.9965
  238MPD1    H1 3615   1.592   0.128  15.248 -2.4482 -2.4817 -0.3923
  238MPD1    H2 3616   1.846   4.536  15.137 -0.4273 -1.3568 -0.3852
  238MPD1    H3 3617   1.706   4.643  15.299  1.3373  0.2329  0.1538
  238MPD1     N 3618   1.586   0.255  15.032  0.0128  0.1615 -0.6391
  238MPD1    H5 3619   1.525   0.280  15.109 -1.2999  3.0686 -2.6110
  238MPD1    N1 3620   1.921   4.646  14.898  0.0426  0.7277 -0.4147
  238MPD1    H6 3621   1.948   4.717  14.832 -2.2321  1.6020 -0.4078
  238MPD1    H7 3622   2.000   4.602  14.945 -0.4587  0.4000  0.1407
  239MPD1     C 3623   1.638   1.177  14.998 -0.2293  0.1691 -0.5769
  239MPD1    C1 3624   1.520   1.239  14.970  0.2452  0.2119 -0.4369
  239MPD1    C2 3625   1.513   1.340  14.877 -0.0689 -0.6406  0.2443
  239MPD1    C3 3626   1.628   1.378  14.805  0.4887  0.6703 -0.7376
  239MPD1    C4 3627   1.748   1.315  14.838  0.0632  0.0374 -0.1937
  239MPD1    C5 3628   1.749   1.213  14.928  0.6101  0.6889  1.1621
  239MPD1     H 3629   1.416   1.384  14.856  0.2947  0.6801  1.2890
  239MPD1    H1 3630   1.842   1.340  14.791  0.6739  0.8444  1.4471
  239MPD1    H2 3631   1.655   1.099  15.071 -1.4504  1.4407  1.0828
  239MPD1    H3 3632   1.839   1.155  14.944 -0.1629 -1.7215 -3.2548
  239MPD1     N 3633   1.631   1.484  14.713  0.2291 -0.0965  0.5693
  239MPD1    H5 3634   1.725   1.507  14.680  0.2472  0.0369  0.7129
  239MPD1    N1 3635   1.400   1.211  15.039  0.2592 -0.7279 -0.4251
  239MPD1    H6 3636   1.384   1.121  15.083 -1.6178  1.0590  2.5472
  239MPD1    H7 3637   1.318   1.268  15.017  1.8526  1.1889 -1.4175
  240MPD1     C 3638   1.032   1.749  13.869  0.4473 -0.9364 -0.3341
  240MPD1    C1 3639   0.914   1.734  13.941 -0.7295  0.1653  0.4291
  240MPD1    C2 3640   0.912   1.645  14.045  0.7755  0.8236  0.1915
  240MPD1    C3 3641   1.020   1.559  14.075 -0.1479  0.9118 -1.0090
  240MPD1    C4 3642   1.126   1.562  13.989 -0.5868  0.1039 -0.1252
  240MPD1    C5 3643   1.133   1.664  13.900 -0.6008 -0.2463  0.3461
  240MPD1     H 3644   0.826   1.635  14.109  1.7361 -1.6132  1.1226
  240MPD1    H1 3645   1.207   1.490  13.994 -0.4587  0.1653 -1.5770
  240MPD1    H2 3646   1.059   1.834  13.808  0.5661  2.4091  4.3724
  240MPD1    H3 3647   1.218   1.662  13.832 -0.1723 -0.3661  0.8909
  240MPD1     N 3648   1.009   1.462  14.181 -0.2664 -0.7388  0.1804
  240MPD1    H5 3649   0.913   1.452  14.212 -1.1335  1.1041 -1.8887
  240MPD1    N1 3650   0.802   1.813  13.919  0.0323  0.0769  0.1318
  240MPD1    H6 3651   0.714   1.780  13.957  0.4070 -1.3369 -0.2345
  240MPD1    H7 3652   0.781   1.821  13.820  1.4467 -1.1139 -0.2642
  241MPD1     C 3653   1.694   0.958  14.724 -0.5498 -0.1183  0.3508
  241MPD1    C1 3654   1.573   0.899  14.770  0.3104 -0.5470 -0.3077
  241MPD1    C2 3655   1.451   0.937  14.716 -0.8150 -0.3339  0.1496
  241MPD1    C3 3656   1.452   1.023  14.606  1.0164 -0.4516 -0.1180
  241MPD1    C4 3657   1.566   1.088  14.565 -0.0657 -0.2653  0.6667
  241MPD1    C5 3658   1.685   1.050  14.619  0.3171  0.2767 -0.0655
  241MPD1     H 3659   1.358   0.900  14.758 -1.4905  2.1439  0.8063
  241MPD1    H1 3660   1.577   1.162  14.486 -0.7239  0.0543  0.8733
  241MPD1    H2 3661   1.791   0.930  14.761 -0.3575 -0.8418 -0.6877
  241MPD1    H3 3662   1.770   1.097  14.571  0.9392  0.0622  0.8153
  241MPD1     N 3663   1.336   1.072  14.542  0.2601 -0.2841  0.4565
  241MPD1    H5 3664   1.356   1.119  14.454  0.1645 -0.0978  0.5347
  241MPD1    N1 3665   1.574   0.817  14.876 -0.1282  0.2576  0.7854
  241MPD1    H6 3666   1.535   0.867  14.955 -0.3207  0.1907  0.7329
  241MPD1    H7 3667   1.668   0.779  14.885 -0.1147  0.0635 -0.1165
  242MPD1     C 3668   0.682   4.468  16.062 -0.1107  0.3100 -0.0953
  242MPD1    C1 3669   0.605   4.407  15.968  0.5090  0.0915 -0.4280
  242MPD1    C2 3670   0.656   4.392  15.840  0.2346  0.6312  0.0898
  242MPD1    C3 3671   0.783   4.441  15.804 -0.2074  0.1078  0.6448
  242MPD1    C4 3672   0.861   4.503  15.906 -0.2841  0.5164  0.4148
  242MPD1    C5 3673   0.795   4.530  16.025  0.1355 -0.0212  0.0184
  242MPD1     H 3674   0.604   4.326  15.772  1.9713 -0.8767  0.2309
  242MPD1    H1 3675   0.960   4.540  15.882  1.2614 -2.7367  1.7268
  242MPD1    H2 3676   0.650   4.466  16.166 -0.9935  1.3939 -0.3494
  242MPD1    H3 3677   0.853   4.573  16.106  1.8014  1.2599 -1.8609
  242MPD1     N 3678   0.833   4.435  15.673 -0.9236  0.3831  0.7409
  242MPD1    H5 3679   0.925   4.476  15.660 -0.5075 -0.3511  1.3526
  242MPD1    N1 3680   0.485   4.344  16.011  0.3189  0.1218 -0.6272
  242MPD1    H6 3681   0.416   4.334  15.938 -0.8803 -0.3487  0.5788
  242MPD1    H7 3682   0.432   4.380  16.090  0.3823  0.2021 -0.6207
  243MPD1     C 3683   1.812   3.274   0.086 -0.5076  0.2204  0.5647
  243MPD1    C1 3684   1.905   3.268  17.677  0.1383 -0.2089 -0.0951
  243MPD1    C2 3685   1.914   3.154  17.602 -0.1273 -0.1772 -0.2625
  243MPD1    C3 3686   1.821   3.054  17.610 -0.5292  0.0510 -0.3888
  243MPD1    C4 3687   1.729   3.062   0.018  0.5858  0.2954  0.2536
  243MPD1    C5 3688   1.727   3.164   0.101 -0.1984 -0.0718  0.3519
  243MPD1     H 3689   1.993   3.146  17.528  0.2002 -0.2144  0.0978
  243MPD1    H1 3690   1.662   2.977   0.029  1.5324 -0.7814 -2.1070
  243MPD1    H2 3691   1.790   3.366   0.140 -1.9143  2.4748 -3.7931
  243MPD1    H3 3692   1.648   3.174   0.175 -0.8866 -0.5652 -0.3163
  243MPD1     N 3693   1.833   2.935  17.526 -0.3435  0.2473  0.8423
  243MPD1    H5 3694   1.917   2.933  17.470 -2.7887 -2.5472 -2.6984
  243MPD1    N1 3695   2.001   3.369  17.652  0.1507 -0.6526 -0.1923
  243MPD1    H6 3696   2.053   3.339  17.570  1.2139 -0.3785  0.3849
  243MPD1    H7 3697   1.982   3.469  17.643  0.4382 -0.9560 -3.9631
  244MPD1     C 3698   2.101   2.095   0.150 -0.3811 -0.7534 -0.5809
  244MPD1    C1 3699   2.094   2.212   0.217  0.0740 -0.0508  0.6006
  244MPD1    C2 3700   2.057   2.324   0.142 -0.3717  0.3115  0.3355
  244MPD1    C3 3701   2.043   2.318   0.004 -0.3467  1.0153  0.1644
  244MPD1    C4 3702   2.073   2.201  17.637  0.0557 -0.3716 -0.2700
  244MPD1    C5 3703   2.094   2.088   0.012 -0.4877 -0.0789  0.1519
  244MPD1     H 3704   2.045   2.424   0.183  1.9645  0.6504  0.2134
  244MPD1    H1 3705   2.066   2.193  17.529 -0.6784 -0.4333 -0.2156
  244MPD1    H2 3706   2.126   2.005   0.204 -1.7066  0.0474  1.3725
  244MPD1    H3 3707   2.110   1.995  17.651  0.3302  0.1522 -0.0088
  244MPD1     N 3708   2.002   2.436  17.633  0.2552  0.0058 -0.0680
  244MPD1    H5 3709   1.982   2.519  17.688  1.3473 -0.7462  1.4524
  244MPD1    N1 3710   2.133   2.233   0.347 -0.0909 -0.2423  0.2315
  244MPD1    H6 3711   2.096   2.300   0.413 -0.9125  0.6542 -1.1482
  244MPD1    H7 3712   2.123   2.140   0.387  2.0929 -0.3244  0.5826
  245MPD1     C 3713   0.164   3.741  12.887 -0.3120  0.0166  0.5195
  245MPD1    C1 3714   0.033   3.724  12.922 -0.4820 -0.1841 -0.6384
  245MPD1    C2 3715   4.708   3.805  13.027 -0.4185  0.1639  0.0627
  245MPD1    C3 3716   0.062   3.898  13.087 -0.3945 -0.5733  0.4186
  245MPD1    C4 3717   0.191   3.919  13.040 -0.1300 -0.1641  0.8625
  245MPD1    C5 3718   0.242   3.839  12.942 -0.3170 -0.0836 -0.5873
  245MPD1     H 3719   4.607   3.789  13.064 -0.2761  1.0225  0.8300
  245MPD1    H1 3720   0.252   3.997  13.084  2.7758  0.2921 -4.0109
  245MPD1    H2 3721   0.206   3.669  12.817  1.8982  1.3242  0.4953
  245MPD1    H3 3722   0.347   3.839  12.913 -0.2266 -3.2398 -0.2108
  245MPD1     N 3723   0.006   3.966  13.198  0.6071 -0.4631 -0.2718
  245MPD1    H5 3724   4.636   3.950  13.237  0.7760 -0.0681  0.3064
  245MPD1    N1 3725   4.677   3.614  12.863 -0.2220  0.0325  0.2196
  245MPD1    H6 3726   4.577   3.631  12.851 -0.7949 -1.3743  3.0567
  245MPD1    H7 3727   4.718   3.586  12.775 -1.3145  2.8078 -1.1634
  246MPD1     C 3728   4.523   2.779   9.836 -0.4227 -0.1606 -0.1447
  246MPD1    C1 3729   4.636   2.703   9.803  0.1376 -0.1610  0.1571
  246MPD1    C2 3730   0.035   2.774   9.795 -0.8544 -0.6637  0.6146
  246MPD1    C3 3731   0.049   2.910   9.803  0.3899 -0.2480  0.5277
  246MPD1    C4 3732   4.663   2.982   9.820 -0.1671 -0.9345  0.2155
  246MPD1    C5 3733   4.544   2.919   9.832 -0.6691 -0.5981  0.8949
  246MPD1     H 3734   0.124   2.712   9.798 -0.4330 -0.1384 -1.3421
  246MPD1    H1 3735   4.669   3.088   9.841 -0.1411 -1.2215  1.6668
  246MPD1    H2 3736   4.431   2.728   9.863  1.0533 -3.0622 -0.5821
  246MPD1    H3 3737   4.474   2.985   9.881 -0.5616  1.3248 -1.5448
  246MPD1     N 3738   0.183   2.959   9.796 -0.3891 -0.4093 -0.1213
  246MPD1    H5 3739   0.261   2.894   9.792 -1.7165 -1.8676 -2.0763
  246MPD1    N1 3740   4.629   2.566   9.833 -0.7699 -0.6880  0.1295
  246MPD1    H6 3741   4.544   2.514   9.809 -2.6330  2.0449  0.8482
  246MPD1    H7 3742   4.711   2.530   9.786 -1.4629 -0.3435 -1.3210
  247MPD1     C 3743   3.586   0.006  16.259 -0.8138  0.0474 -0.5313
  247MPD1    C1 3744   3.642   4.665  16.153 -0.1122  0.0874 -0.5180
  247MPD1    C2 3745   3.687   4.538  16.181  0.3704  0.6048  0.1812
  247MPD1    C3 3746   3.656   4.477  16.301 -0.3798 -0.1689  0.3043
  247MPD1    C4 3747   3.589   4.541  16.401 -0.0009 -1.0170  0.2124
  247MPD1    C5 3748   3.560   4.675  16.385  0.1281  0.4784  0.2133
  247MPD1     H 3749   3.743   4.482  16.107 -2.6336 -0.5283 -1.2343
  247MPD1    H1 3750   3.562   4.500  16.498 -1.0902 -0.4332  0.1573
  247MPD1    H2 3751   3.553   0.108  16.243  1.1461  0.0994 -4.2057
  247MPD1    H3 3752   3.503   0.008  16.459 -1.2905  0.5097 -0.9023
  247MPD1     N 3753   3.688   4.341  16.334  0.1836  0.0292 -0.2210
  247MPD1    H5 3754   3.629   4.311  16.410 -1.9069 -1.5102 -2.4380
  247MPD1    N1 3755   3.673   0.006  16.028 -0.1975 -0.4009  0.2686
  247MPD1    H6 3756   3.680   4.677  15.940 -0.3943  1.1975 -0.6778
  247MPD1    H7 3757   3.609   0.084  16.012  2.2921  1.2123 -1.7884
  248MPD1     C 3758   3.601   3.473   1.151 -0.3479  0.1754  0.7818
  248MPD1    C1 3759   3.638   3.387   1.253 -0.2177  0.1302 -1.2474
  248MPD1    C2 3760   3.619   3.247   1.231 -0.3595  0.1625  0.1005
  248MPD1    C3 3761   3.576   3.196   1.108 -0.0300 -0.1838 -0.5509
  248MPD1    C4 3762   3.550   3.290   1.006 -0.6333 -0.2908  0.1613
  248MPD1    C5 3763   3.556   3.419   1.032 -0.4744 -0.3106  0.4578
  248MPD1     H 3764   3.630   3.179   1.314 -1.2300 -1.2852 -0.9850
  248MPD1    H1 3765   3.518   3.267   0.905 -0.2224  2.2246 -0.5534
  248MPD1    H2 3766   3.611   3.579   1.166 -4.3779  0.4738  1.2569
  248MPD1    H3 3767   3.531   3.487   0.951  1.8271 -1.8783 -1.5653
  248MPD1     N 3768   3.568   3.054   1.096  0.0682 -0.1661  0.4405
  248MPD1    H5 3769   3.595   3.003   1.179  1.8180  0.3686  0.1995
  248MPD1    N1 3770   3.657   3.435   1.381 -0.3039  0.6327 -0.3263
  248MPD1    H6 3771   3.700   3.363   1.440 -1.0065 -0.0494 -0.6360
  248MPD1    H7 3772   3.704   3.524   1.390  0.1642  0.2403  1.1727
  249MPD1     C 3773   1.163   2.108  10.618 -0.1077  0.4368 -0.3926
  249MPD1    C1 3774   1.204   2.235  10.598  0.0235  0.2063  0.3423
  249MPD1    C2 3775   1.167   2.301  10.482  0.0052 -0.5837  0.9640
  249MPD1    C3 3776   1.089   2.240  10.391  0.8976  0.2488  0.4335
  249MPD1    C4 3777   1.054   2.107  10.403 -0.3355 -0.3122 -0.0969
  249MPD1    C5 3778   1.102   2.035  10.513  0.3743  0.1164 -0.6093
  249MPD1     H 3779   1.194   2.402  10.454  0.0036 -1.8061 -3.3708
  249MPD1    H1 3780   1.012   2.053  10.319  0.2900 -0.1346 -0.5241
  249MPD1    H2 3781   1.196   2.054  10.706 -1.6866 -0.0315 -0.1001
  249MPD1    H3 3782   1.083   1.929  10.528 -0.4225  0.2828 -0.4594
  249MPD1     N 3783   1.044   2.325  10.282 -0.3099  0.6255  0.3242
  249MPD1    H5 3784   1.063   2.424  10.289 -5.0259  1.4283  1.5896
  249MPD1    N1 3785   1.288   2.304  10.688  0.2937  0.1104  0.0921
  249MPD1    H6 3786   1.277   2.406  10.691  3.0901  0.3852  0.6503
  249MPD1    H7 3787   1.286   2.282  10.787 -3.0941  0.2105  0.0475
  250MPD2     C 3788   3.202   2.063  12.942  0.1777  0.2034  0.2433
  250MPD2    C1 3789   3.088   2.112  13.000 -0.1915  0.3491  0.6885
  250MPD2    C2 3790   2.992   2.019  13.041  0.0808  0.3536  0.7327
  250MPD2    C3 3791   2.998   1.888  12.988 -0.0696 -0.3977 -0.0698
  250MPD2    C4 3792   3.117   1.840  12.927  0.0888  0.1986 -0.2481
  250MPD2    C5 3793   3.222   1.932  12.905  0.0792  0.1125 -0.2865
  250MPD2     H 3794   2.901   2.054  13.088  0.1298  2.7918 -0.9771
  250MPD2    H1 3795   3.131   1.736  12.898 -0.9845  0.2958 -1.1169
  250MPD2    H2 3796   3.271   2.138  12.907 -0.5068  1.3279  1.2632
  250MPD2    H3 3797   3.306   1.909  12.841 -1.3735 -1.7242 -1.5592
  250MPD2     N 3798   2.888   1.794  12.994 -0.0692  0.4654  0.1088
  250MPD2    H5 3799   2.899   1.715  12.932  3.0235  0.1454  1.0663
  250MPD2    N1 3800   3.084   2.247  13.029  0.0447 -0.8277 -0.5851
  250MPD2    H7 3801   3.160   2.310  13.005 -1.1833  0.4021 -1.2089
  251TMC3    C1 3802   2.990   2.462  13.100 -0.1829 -1.5118 -0.0227
  251TMC3    C2 3803   2.890   2.538  13.157  0.0982 -0.5039 -0.6229
  251TMC3    C3 3804   2.920   2.664  13.199 -0.2371  0.9626 -0.5055
  251TMC3    C4 3805   3.109   2.524  13.068  0.9236  0.2912 -0.2166
  251TMC3    C5 3806   3.129   2.651  13.106  0.3386 -0.4873  0.2623
  251TMC3    C6 3807   3.037   2.719  13.179  0.0207 -0.6606  0.2137
  251TMC3     C 3808   2.974   2.322  13.075 -0.2031  0.7957  0.4329
  251TMC3     O 3809   2.867   2.282  13.118 -0.4126  0.3342 -0.1624
  251TMC3     H 3810   2.792   2.494  13.170 -0.1206  0.3033  0.4219
  251TMC3    H1 3811   3.181   2.476  13.002 -0.7151 -0.1848 -1.6385
  251TMC3    H2 3812   3.053   2.823  13.208  3.8808 -1.6104  1.5140
  251TMC3    C7 3813   3.267   2.697  13.097  0.0500 -0.1122 -0.1063
  251TMC3    C8 3814   2.808   2.751  13.237 -0.2412 -0.6695  0.0892
  251TMC3    O1 3815   3.350   2.616  13.053 -0.0298 -0.0831  0.2798
  251TMC3    O2 3816   2.829   2.839  13.319  0.5031  0.3812 -0.0123
  252TMC3    C1 3817   3.027   2.861   9.722  1.1796  0.0287 -0.5520
  252TMC3    C2 3818   3.158   2.883   9.695 -0.1934  0.7902 -0.2161
  252TMC3    C3 3819   3.203   3.008   9.662 -0.6410 -0.2924 -0.7179
  252TMC3    C4 3820   2.939   2.949   9.675  0.0699 -0.3228  0.9614
  252TMC3    C5 3821   2.985   3.069   9.622  0.4252 -0.5681 -0.7780
  252TMC3    C6 3822   3.116   3.100   9.616 -0.1856  0.6587  0.6654
  252TMC3     C 3823   2.991   2.733   9.785  0.7985 -0.4424 -0.1627
  252TMC3     O 3824   3.085   2.656   9.801  0.2364  0.0067  0.2961
  252TMC3     H 3825   3.231   2.814   9.735 -1.3179  0.2032  0.8515
  252TMC3    H1 3826   2.833   2.927   9.661  0.3082  0.6314 -2.3426
  252TMC3    H2 3827   3.152   3.200   9.594 -1.2672  0.4140 -2.1094
  252TMC3    C7 3828   2.901   3.182   9.593  0.3545  0.5793 -0.3640
  252TMC3    C8 3829   3.336   3.015   9.608  0.6597 -0.4051  0.1621
  252TMC3    O1 3830   2.957   3.277   9.537  0.4875 -0.3025 -0.3864
  252TMC3    O2 3831   3.387   2.904   9.579 -0.3013 -0.1286  0.0604
  253MPD2     C 3832   4.004   2.444  15.884  0.0538  0.7158  0.0653
  253MPD2    C1 3833   3.925   2.349  15.824 -0.1933  0.4460 -0.0072
  253MPD2    C2 3834   3.862   2.256  15.900  0.0398  0.5359  0.2785
  253MPD2    C3 3835   3.880   2.242  16.034  0.1448  1.3456  0.0299
  253MPD2    C4 3836   3.975   2.327  16.090 -0.1143  0.2269 -0.0649
  253MPD2    C5 3837   4.031   2.428  16.018  0.5225 -0.3425  0.2303
  253MPD2     H 3838   3.795   2.190  15.846  1.3133  1.1545 -2.1102
  253MPD2    H1 3839   4.011   2.314  16.191  4.2779  1.3835 -1.4663
  253MPD2    H2 3840   4.050   2.526  15.829  0.3058  0.2280 -0.4555
  253MPD2    H3 3841   4.102   2.500  16.058  2.6129 -2.7052  0.8031
  253MPD2     N 3842   3.815   2.148  16.112 -0.3687  0.6149  0.3308
  253MPD2    H5 3843   3.818   2.154  16.213 -0.8105  0.6104  0.3439
  253MPD2    N1 3844   3.883   2.357  15.691  0.0080  0.0101  0.2125
  253MPD2    H7 3845   3.811   2.288  15.674 -1.5617  1.7895 -0.3867
  254TMC3    C1 3846   3.639   1.990  16.176 -0.5364 -0.1059 -0.4791
  254TMC3    C2 3847   3.500   1.967  16.163 -0.6767 -0.4384 -0.1070
  254TMC3    C3 3848   3.442   1.891  16.259  0.1882  0.4179  0.1661
  254TMC3    C4 3849   3.710   1.956  16.286 -0.5980  0.6701 -0.5723
  254TMC3    C5 3850   3.644   1.879  16.377 -0.5573 -0.3434  0.3449
  254TMC3    C6 3851   3.512   1.847  16.366  0.0022  0.3111  0.0277
  254TMC3     C 3852   3.708   2.067  16.069 -0.3710 -0.4929 -0.0343
  254TMC3     O 3853   3.650   2.053  15.958  0.2521 -0.1202  0.2509
  254TMC3     H 3854   3.453   1.999  16.071  2.0477 -1.8551 -1.9876
  254TMC3    H1 3855   3.817   1.971  16.287 -0.2878 -1.4323 -0.8889
  254TMC3    H2 3856   3.466   1.769  16.427 -0.7049  1.5543  1.0918
  254TMC3    C7 3857   3.707   1.851  16.505 -1.3344 -0.1126 -0.2433
  254TMC3    C8 3858   3.300   1.888  16.263  0.6719 -0.1153  0.0756
  254TMC3    O1 3859   3.640   1.774  16.577  0.3662 -0.2956 -0.4308
  254TMC3    O2 3860   3.245   1.869  16.372  0.4899  0.0984  0.5423
  255MPD2     C 3861   3.061   0.483  10.501  0.2312  0.0011 -0.3685
  255MPD2    C1 3862   3.001   0.563  10.403 -0.5409  0.1499  0.1341
  255MPD2    C2 3863   3.057   0.565  10.282 -0.1102  0.1334 -0.6975
  255MPD2    C3 3864   3.162   0.480  10.251 -0.0519 -0.0586  0.5799
  255MPD2    C4 3865   3.216   0.399  10.350  0.8146  0.2807  0.4061
  255MPD2    C5 3866   3.160   0.396  10.478 -0.1090 -0.0044  0.4864
  255MPD2     H 3867   3.006   0.605  10.195  0.1663 -0.4405 -1.1192
  255MPD2    H1 3868   3.296   0.329  10.329  0.2524 -0.0501 -0.6257
  255MPD2    H2 3869   3.029   0.503  10.602  1.1083  1.9374 -0.4611
  255MPD2    H3 3870   3.195   0.332  10.558  0.0582 -0.5494 -0.0224
  255MPD2     N 3871   3.214   0.470  10.116 -0.3254  0.4043 -0.3077
  255MPD2    H5 3872   3.291   0.405  10.102 -2.1749 -2.3025  1.9879
  255MPD2    N1 3873   2.879   0.630  10.433 -0.5878 -0.2513  0.3664
  255MPD2    H7 3874   2.825   0.609  10.517  3.2879  1.7184  3.3506
  256TMC3    C1 3875   2.716   0.785  10.390 -0.5410  0.0004  0.4448
  256TMC3    C2 3876   2.696   0.919  10.393 -0.6607  0.1851  0.1700
  256TMC3    C3 3877   2.569   0.962  10.433 -0.3364 -0.5207 -0.6933
  256TMC3    C4 3878   2.613   0.697  10.418 -0.6274 -0.1886 -0.2371
  256TMC3    C5 3879   2.486   0.751  10.431 -1.0371 -0.0107  0.0350
  256TMC3    C6 3880   2.459   0.886  10.449 -0.4390 -0.3363 -0.5641
  256TMC3     C 3881   2.837   0.732  10.353  0.2799  0.4908  0.5530
  256TMC3     O 3882   2.893   0.789  10.263 -0.4759  0.8827 -0.0229
  256TMC3     H 3883   2.781   0.986  10.391 -0.6942  0.2525  1.4572
  256TMC3    H1 3884   2.632   0.590  10.423  2.0857  0.3725  1.2294
  256TMC3    H2 3885   2.359   0.926  10.454  0.7731  2.5836  0.1824
  256TMC3    C7 3886   2.379   0.662  10.395 -0.8984 -0.6336  0.4261
  256TMC3    C8 3887   2.558   1.109  10.424  0.1990 -0.2822  0.1641
  256TMC3    O1 3888   2.414   0.556  10.334  0.0104 -0.3788  0.4540
  256TMC3    O2 3889   2.479   1.156  10.498  0.1277 -0.1759 -0.4038
  257MPD2     C 3890   1.676   2.176  13.418 -0.1742  0.8014 -0.1169
  257MPD2    C1 3891   1.586   2.108  13.348  0.7200 -0.4284  0.2769
  257MPD2    C2 3892   1.544   1.986  13.389  0.2828  0.0641  0.1554
  257MPD2    C3 3893   1.579   1.944  13.515  0.2743 -0.0303  0.0713
  257MPD2    C4 3894   1.663   2.020  13.595  0.1311 -0.5155  0.6425
  257MPD2    C5 3895   1.720   2.131  13.537  0.3892  0.6646 -0.1351
  257MPD2     H 3896   1.469   1.925  13.341  2.1654 -0.8748 -1.5931
  257MPD2    H1 3897   1.707   1.990  13.690  2.5571  0.0768 -0.2913
  257MPD2    H2 3898   1.698   2.278  13.388  2.6770  0.0876 -0.5059
  257MPD2    H3 3899   1.784   2.191  13.600 -0.0436 -0.6853  1.5732
  257MPD2     N 3900   1.518   1.827  13.561 -0.7642 -0.8484 -0.6045
  257MPD2    H5 3901   1.463   1.780  13.489 -1.0632 -0.5874 -0.5473
  257MPD2    N1 3902   1.527   2.175  13.233 -0.3790  0.6373  0.2878
  257MPD2    H7 3903   1.562   2.269  13.213  0.9500  0.1236  0.2114
  258TMC3    C1 3904   1.490   1.638  13.698  0.7163 -0.9303 -0.3131
  258TMC3    C2 3905   1.376   1.607  13.632 -0.2866  0.7165 -0.3091
  258TMC3    C3 3906   1.314   1.483  13.651 -0.1531  0.1145  0.0924
  258TMC3    C4 3907   1.527   1.557  13.799 -0.2378  0.0753  0.1041
  258TMC3    C5 3908   1.465   1.441  13.814 -0.7944  0.8129 -0.0015
  258TMC3    C6 3909   1.359   1.397  13.742  1.0495  0.8468  0.2306
  258TMC3     C 3910   1.559   1.766  13.673 -0.8279 -0.5054  0.0365
  258TMC3     O 3911   1.640   1.789  13.764 -0.5178 -0.1840  0.2520
  258TMC3     H 3912   1.349   1.670  13.548 -0.9505 -0.1327 -0.7318
  258TMC3    H1 3913   1.619   1.575  13.853 -2.0978  5.2916  1.4773
  258TMC3    H2 3914   1.313   1.299  13.750 -0.9436  1.9382  2.0374
  258TMC3    C7 3915   1.544   1.331  13.879  0.3980  0.4825  1.3174
  258TMC3    C8 3916   1.246   1.437  13.534 -0.0325  0.0691  0.5175
  258TMC3    O1 3917   1.521   1.223  13.837 -0.1560  0.0301 -0.1686
  258TMC3    O2 3918   1.267   1.318  13.499 -0.1047  0.1424  0.3010
  259MPD2     C 3919   4.533   3.822   1.247  0.2686 -0.2019  0.9214
  259MPD2    C1 3920   4.421   3.745   1.225 -0.1212  0.7328 -0.1182
  259MPD2    C2 3921   4.410   3.662   1.112  0.3928 -0.2764  0.3965
  259MPD2    C3 3922   4.520   3.656   1.024  0.3148 -0.3275  0.2607
  259MPD2    C4 3923   4.632   3.727   1.049 -0.5520  0.3449  0.2124
  259MPD2    C5 3924   4.634   3.813   1.157  0.1390  0.2447  0.2939
  259MPD2     H 3925   4.316   3.609   1.099 -0.2100  1.5928 -2.8870
  259MPD2    H1 3926   4.713   3.731   0.977 -1.2698 -0.2571 -0.6142
  259MPD2    H2 3927   4.531   3.890   1.331  0.3283 -0.5873  1.2342
  259MPD2    H3 3928   4.717   3.879   1.180  1.4049 -0.8294 -1.2260
  259MPD2     N 3929   4.502   3.573   0.915 -0.1264  0.6474 -0.8085
  259MPD2    H5 3930   4.415   3.522   0.907  1.3338 -1.9546  0.2160
  259MPD2    N1 3931   4.320   3.776   1.321  0.3697 -0.3462 -0.2981
  259MPD2    H7 3932   4.350   3.827   1.404 -0.3523 -0.0402 -0.2235
  260TMC3    C1 3933   4.549   3.457   0.709 -0.5966  0.1446 -0.5058
  260TMC3    C2 3934   4.600   3.464   0.579  0.4674 -0.3561 -0.2020
  260TMC3    C3 3935   4.542   3.376   0.490  0.3222  0.2319 -0.2282
  260TMC3    C4 3936   4.462   3.362   0.753 -0.8028 -1.0071 -0.8539
  260TMC3    C5 3937   4.415   3.270   0.656 -0.3739  0.0644 -0.3752
  260TMC3    C6 3938   4.444   3.288   0.521 -0.0359 -0.3648 -0.3686
  260TMC3     C 3939   4.589   3.555   0.807  0.1469  0.5474  0.1802
  260TMC3     O 3940   4.696   3.613   0.790 -0.3431 -0.1602 -0.0138
  260TMC3     H 3941   4.678   3.535   0.550 -0.2109 -0.0367 -1.2482
  260TMC3    H1 3942   4.438   3.340   0.857  0.8838  0.4155 -0.1563
  260TMC3    H2 3943   4.398   3.226   0.445 -0.3159  0.5881 -0.9756
  260TMC3    C7 3944   4.383   3.133   0.691  0.1149 -0.3133 -0.1800
  260TMC3    C8 3945   4.609   3.356   0.365 -0.0808 -0.1839 -0.3739
  260TMC3    O1 3946   4.386   3.048   0.602 -0.3021  0.3333 -0.0142
  260TMC3    O2 3947   4.566   3.261   0.304  0.2239 -0.7768 -0.1923
  261MPD2     C 3948   2.167   2.043  12.851 -0.2219 -0.0894  0.7672
  261MPD2    C1 3949   2.293   2.005  12.795 -0.0928 -0.2540 -0.0921
  261MPD2    C2 3950   2.345   2.079  12.686  0.0016 -0.7261 -0.5251
  261MPD2    C3 3951   2.280   2.185  12.640  0.2475  0.5928 -0.3491
  261MPD2    C4 3952   2.162   2.221  12.707  0.1752  0.2001 -0.3823
  261MPD2    C5 3953   2.115   2.161  12.815 -0.5956 -0.3322  0.2507
  261MPD2     H 3954   2.445   2.060  12.650 -0.2914  1.0030 -2.2268
  261MPD2    H1 3955   2.098   2.300  12.669  0.2258  0.3929 -0.0633
  261MPD2    H2 3956   2.117   2.004  12.940 -0.5124 -1.3552  0.0503
  261MPD2    H3 3957   2.017   2.189  12.853 -0.5929 -1.1099  0.8178
  261MPD2     N 3958   2.328   2.255  12.527  0.1956 -0.0562  0.3808
  261MPD2    H5 3959   2.417   2.225  12.490  0.2176 -0.1373  0.5017
  261MPD2    N1 3960   2.364   1.896  12.836 -0.0240  0.1801 -0.3041
  261MPD2    H7 3961   2.458   1.891  12.799 -0.3537  1.8433 -1.3573
  262TMC3    C1 3962   2.337   2.424  12.353 -0.1035  0.2406 -0.2136
  262TMC3    C2 3963   2.268   2.530  12.304 -0.3835  0.6460 -0.2119
  262TMC3    C3 3964   2.267   2.565  12.173 -0.7892 -0.3147  0.4973
  262TMC3    C4 3965   2.390   2.335  12.258 -0.1311 -0.1409 -0.8450
  262TMC3    C5 3966   2.397   2.374  12.129 -0.7800 -0.1579 -1.0683
  262TMC3    C6 3967   2.341   2.489  12.087  0.3062  0.1420 -0.0374
  262TMC3     C 3968   2.268   2.357  12.459  0.8261  0.0949  1.1413
  262TMC3     O 3969   2.158   2.407  12.479 -0.4813  0.6271  0.0614
  262TMC3     H 3970   2.227   2.595  12.380 -0.1148  1.3842 -0.6953
  262TMC3    H1 3971   2.427   2.235  12.275 -0.5320 -0.3081 -0.9677
  262TMC3    H2 3972   2.358   2.536  11.991 -1.5914  2.8515  0.9620
  262TMC3    C7 3973   2.478   2.289  12.043  0.6202  0.2911  0.5407
  262TMC3    C8 3974   2.225   2.704  12.141 -0.6122 -0.0478  0.2418
  262TMC3    O1 3975   2.516   2.180  12.080 -0.2479  0.6223  0.3105
  262TMC3    O2 3976   2.266   2.748  12.036  0.3037  0.1411  0.7445
  263MPD2     C 3977   3.060   1.592  11.719  0.3930 -0.0701 -0.0120
  263MPD2    C1 3978   3.140   1.593  11.609 -0.1713  0.6659  0.2768
  263MPD2    C2 3979   3.084   1.575  11.484 -0.3595 -0.4845 -0.8522
  263MPD2    C3 3980   2.949   1.572  11.467  0.7527 -0.3457  0.3449
  263MPD2    C4 3981   2.868   1.567  11.586  0.5428 -0.0815  0.0975
  263MPD2    C5 3982   2.924   1.571  11.709  0.0879  0.0350  0.3592
  263MPD2     H 3983   3.149   1.573  11.397  0.7346 -1.2894 -0.0142
  263MPD2    H1 3984   2.760   1.568  11.584  0.5550  2.6420 -0.2937
  263MPD2    H2 3985   3.103   1.598  11.819 -0.0938  1.2145  0.1302
  263MPD2    H3 3986   2.858   1.571  11.795 -1.2515 -0.5693 -0.6625
  263MPD2     N 3987   2.897   1.566  11.333 -0.2140  0.2700 -0.1673
  263MPD2    H5 3988   2.967   1.580  11.261 -1.1600  1.2656 -0.9078
  263MPD2    N1 3989   3.279   1.615  11.638 -0.3095 -0.0247  0.0823
  263MPD2    H7 3990   3.298   1.628  11.736 -1.5889  1.2745  0.1592
  264TMC3    C1 3991   2.757   1.583  11.143  0.2075  0.1562  0.4813
  264TMC3    C2 3992   2.716   1.706  11.108  0.0402 -0.7983 -0.1429
  264TMC3    C3 3993   2.764   1.762  10.993  0.5993 -0.4547  0.6176
  264TMC3    C4 3994   2.845   1.519  11.059 -0.0978  0.1977 -0.3354
  264TMC3    C5 3995   2.881   1.570  10.938  0.2530 -0.0935  0.4077
  264TMC3    C6 3996   2.823   1.683  10.896  0.0298  0.4230  0.3172
  264TMC3     C 3997   2.766   1.570  11.291 -0.1232 -0.1274 -0.5872
  264TMC3     O 3998   2.666   1.598  11.360 -0.3428 -0.0495 -0.1956
  264TMC3     H 3999   2.645   1.755  11.173  3.3189  1.3780  1.8351
  264TMC3    H1 4000   2.888   1.423  11.085  1.0286  0.9242  0.4348
  264TMC3    H2 4001   2.848   1.726  10.800  0.4237  2.0922  1.1607
  264TMC3    C7 4002   3.017   1.549  10.888  0.2331  0.2641  0.2495
  264TMC3    C8 4003   2.806   1.903  10.998  0.2614  1.0418  0.1377
  264TMC3    O1 4004   3.032   1.577  10.770 -0.5490  0.1872  0.0263
  264TMC3    O2 4005   2.879   1.947  10.912 -0.3530 -0.2778  0.0526
  265MPD2     C 4006   0.105   1.998  15.424  0.1772 -0.2080 -0.2307
  265MPD2    C1 4007   0.202   2.089  15.385  0.3932 -0.5380  0.2052
  265MPD2    C2 4008   0.314   2.047  15.315  0.1725  0.9506  0.5673
  265MPD2    C3 4009   0.326   1.923  15.260 -0.8799  0.9273  0.0930
  265MPD2    C4 4010   0.241   1.829  15.313  0.0676  1.0352  0.3386
  265MPD2    C5 4011   0.137   1.863  15.390 -0.6715  0.0645  0.7595
  265MPD2     H 4012   0.387   2.125  15.298 -0.6684  2.4029  3.6992
  265MPD2    H1 4013   0.257   1.725  15.287 -0.5261  0.4006  2.4795
  265MPD2    H2 4014   0.025   2.015  15.494  0.2527 -0.5813 -0.0507
  265MPD2    H3 4015   0.069   1.786  15.425  1.3433 -2.6112 -1.3024
  265MPD2     N 4016   0.420   1.894  15.165  0.2563  0.7490  0.1597
  265MPD2    H5 4017   0.436   1.795  15.149 -0.1505  0.2920  2.5608
  265MPD2    N1 4018   0.194   2.222  15.416 -0.7643  0.4147  0.1534
  265MPD2    H7 4019   0.270   2.286  15.395 -0.6630  0.5068  0.7926
  266TMC3    C1 4020   0.119   2.411  15.535 -0.0775 -1.0296 -0.5776
  266TMC3    C2 4021   0.213   2.402  15.634  0.6720  0.2352  0.1114
  266TMC3    C3 4022   0.193   2.484  15.744 -0.1582  0.5625 -0.2767
  266TMC3    C4 4023   0.026   2.504  15.539  0.1205 -0.3942 -0.4473
  266TMC3    C5 4024   0.018   2.586  15.641  0.4291 -0.0765 -0.0181
  266TMC3    C6 4025   0.103   2.585  15.748 -0.3227  0.3760 -0.2704
  266TMC3     C 4026   0.085   2.291  15.465  0.2493 -0.2031 -0.4586
  266TMC3     O 4027   4.687   2.261  15.460 -0.4610  0.1321 -0.1495
  266TMC3     H 4028   0.298   2.336  15.635 -1.1791 -2.1402  0.8671
  266TMC3    H1 4029   4.685   2.504  15.451  1.5202  2.6919 -1.4417
  266TMC3    H2 4030   0.095   2.668  15.818 -1.2336 -2.2222  2.7251
  266TMC3    C7 4031   4.656   2.706  15.620 -0.4353  0.1418  0.1901
  266TMC3    C8 4032   0.294   2.484  15.850  0.6796 -0.0832 -0.4634
  266TMC3    O1 4033   4.680   2.806  15.688  0.2385  0.0540 -0.0679
  266TMC3    O2 4034   0.400   2.427  15.816  0.5613 -0.5823 -0.2827
  267MPD2     C 4035   2.734   4.318  17.235 -0.2322 -0.7934  0.1152
  267MPD2    C1 4036   2.696   4.193  17.279  0.3779  1.1181 -0.3259
  267MPD2    C2 4037   2.617   4.114  17.191  0.6535  0.6157  0.1233
  267MPD2    C3 4038   2.595   4.154  17.059 -0.0765  0.3236 -1.0839
  267MPD2    C4 4039   2.616   4.284  17.028  0.0730  0.6406 -0.8565
  267MPD2    C5 4040   2.684   4.365  17.113  0.4810 -0.2246  0.3773
  267MPD2     H 4041   2.580   4.020  17.229 -0.4108  1.6137  1.5286
  267MPD2    H1 4042   2.598   4.314  16.925  0.6641 -1.7893 -1.6918
  267MPD2    H2 4043   2.792   4.385  17.298  0.7480 -0.7035 -0.8746
  267MPD2    H3 4044   2.711   4.464  17.079 -1.6650  1.3176  3.1326
  267MPD2     N 4045   2.528   4.080  16.959  0.2623 -0.4391  0.7043
  267MPD2    H5 4046   2.504   4.131  16.875 -0.8970 -3.1795 -0.6152
  267MPD2    N1 4047   2.727   4.152  17.415 -0.1310 -0.0044 -0.0214
  267MPD2    H7 4048   2.787   4.211  17.472 -1.2388  2.3817 -1.3684
  268TMC3    C1 4049   2.715   4.031  17.614 -0.0615 -0.2839 -0.2158
  268TMC3    C2 4050   2.771   4.135  17.683  0.5673 -0.6517  0.2536
  268TMC3    C3 4051   2.837   4.108   0.109  0.1416  0.9633  0.0245
  268TMC3    C4 4052   2.722   3.909  17.667 -0.3849  0.3131 -0.7684
  268TMC3    C5 4053   2.789   3.882   0.087 -0.6176  0.1052 -0.7087
  268TMC3    C6 4054   2.841   3.983   0.168  0.5681 -0.0627 -0.3956
  268TMC3     C 4055   2.665   4.047  17.476 -0.4173  0.0660  0.0465
  268TMC3     O 4056   2.583   3.966  17.440  0.2558  0.2984  0.1662
  268TMC3     H 4057   2.763   4.237  17.646  2.9449 -0.9810 -1.2147
  268TMC3    H1 4058   2.686   3.831  17.600  2.3490 -2.0439  0.4869
  268TMC3    H2 4059   2.897   3.959   0.257 -0.7856  0.3627  0.5842
  268TMC3    C7 4060   2.813   3.739   0.124 -0.3121 -0.4925 -0.5936
  268TMC3    C8 4061   2.911   4.213   0.169  0.6505  0.5580 -0.1005
  268TMC3    O1 4062   2.820   3.717   0.242 -0.6542 -0.0376  0.2941
  268TMC3    O2 4063   2.945   4.201   0.284 -0.4137 -0.0788 -0.1878
  269MPD2     C 4064   3.018   2.588  15.831  0.2857  0.0625  0.1530
  269MPD2    C1 4065   2.911   2.591  15.749 -0.2621 -0.6916 -0.5002
  269MPD2    C2 4066   2.882   2.705  15.676 -0.1066 -0.4743 -0.2071
  269MPD2    C3 4067   2.955   2.820  15.690  0.1398  0.5178 -0.0713
  269MPD2    C4 4068   3.072   2.817  15.766 -0.4827 -0.1310 -0.8782
  269MPD2    C5 4069   3.103   2.698  15.834 -1.0123  0.2271 -0.5967
  269MPD2     H 4070   2.813   2.693  15.594 -0.6609 -0.1826  0.2130
  269MPD2    H1 4071   3.136   2.904  15.779 -0.5563 -0.0250 -1.2393
  269MPD2    H2 4072   3.040   2.504  15.897  0.1213  1.4485  1.9604
  269MPD2    H3 4073   3.197   2.694  15.887 -1.2992  1.8142  0.0266
  269MPD2     N 4074   2.903   2.933  15.622 -0.8708 -0.1310  0.4933
  269MPD2    H5 4075   2.813   2.928  15.574  0.8225 -0.8087 -2.6261
  269MPD2    N1 4076   2.826   2.478  15.740  0.3693  0.2819  0.2915
  269MPD2    H7 4077   2.857   2.395  15.789  0.0812  2.2752  3.8808
  270TMC3    C1 4078   2.628   2.349  15.680 -0.2382  0.2608  0.5913
  270TMC3    C2 4079   2.507   2.341  15.621 -0.5416  0.1708  0.6587
  270TMC3    C3 4080   2.457   2.216  15.602  0.2223 -0.9093  0.2282
  270TMC3    C4 4081   2.700   2.231  15.725 -0.3896  0.3282 -0.5603
  270TMC3    C5 4082   2.646   2.108  15.697  0.2128  0.2211  0.4266
  270TMC3    C6 4083   2.525   2.104  15.638 -0.0868 -0.3789 -0.8289
  270TMC3     C 4084   2.698   2.478  15.682 -0.4585  0.2178  0.4753
  270TMC3     O 4085   2.631   2.569  15.638 -0.3259  0.0182 -0.5190
  270TMC3     H 4086   2.457   2.411  15.556 -0.0800  0.0715  0.2058
  270TMC3    H1 4087   2.802   2.234  15.763 -0.4100  1.7465 -0.6089
  270TMC3    H2 4088   2.485   2.006  15.613  0.0978 -0.2976 -1.4396
  270TMC3    C7 4089   2.743   2.021  15.641 -0.0720  0.3961  0.3520
  270TMC3    C8 4090   2.379   2.191  15.487  0.3095 -0.3579 -0.4156
  270TMC3    O1 4091   2.839   1.981  15.707  0.2949  0.3115 -0.2871
  270TMC3    O2 4092   2.283   2.111  15.495 -0.0428 -0.1411  0.1154
  271MPD2     C 4093   2.113   2.619  13.875  0.1330 -0.2673 -0.2488
  271MPD2    C1 4094   2.067   2.517  13.954  0.7285  0.9262  0.0996
  271MPD2    C2 4095   1.938   2.471  13.928 -0.2654 -0.6009 -0.4229
  271MPD2    C3 4096   1.863   2.520  13.822  0.2034  0.0822  0.2842
  271MPD2    C4 4097   1.911   2.629  13.753 -0.3507 -0.7885 -0.4487
  271MPD2    C5 4098   2.033   2.681  13.780 -0.2007 -0.2844  0.6561
  271MPD2     H 4099   1.905   2.384  13.983 -0.4001  0.6472  1.4791
  271MPD2    H1 4100   1.863   2.679  13.670  1.4755  0.9539 -0.4538
  271MPD2    H2 4101   2.215   2.654  13.887  1.1132 -2.8061 -1.1995
  271MPD2    H3 4102   2.082   2.757  13.719 -0.4274  0.9570  2.0084
  271MPD2     N 4103   1.735   2.467  13.784 -0.0311  0.2398  0.1788
  271MPD2    H5 4104   1.688   2.513  13.706  0.9828 -0.1734 -0.6861
  271MPD2    N1 4105   2.144   2.454  14.053  0.0904 -0.3637  0.0324
  271MPD2    H7 4106   2.100   2.390  14.118 -1.7176  0.5858 -0.2572
  272TMC3    C1 4107   2.338   2.387  14.163  0.3050 -0.7762 -1.1978
  272TMC3    C2 4108   2.470   2.356  14.154  0.6649 -0.0450  0.2851
  272TMC3    C3 4109   2.533   2.325  14.270  0.5791 -0.0270 -0.6011
  272TMC3    C4 4110   2.263   2.371  14.279  0.0251  0.0340 -0.7806
  272TMC3    C5 4111   2.331   2.339  14.392  0.7413 -0.8651  0.0824
  272TMC3    C6 4112   2.466   2.311  14.389 -0.0724  0.1003  0.7715
  272TMC3     C 4113   2.281   2.461  14.053 -0.3860  0.3814 -0.6899
  272TMC3     O 4114   2.353   2.516  13.975 -0.1323 -0.3467  0.5052
  272TMC3     H 4115   2.525   2.371  14.062 -2.3753 -0.8334 -1.6565
  272TMC3    H1 4116   2.159   2.401  14.292  0.1158  0.2455 -0.5482
  272TMC3    H2 4117   2.516   2.299  14.484  0.5706  2.6627  0.7530
  272TMC3    C7 4118   2.256   2.318  14.513 -0.1381 -0.1991  0.5233
  272TMC3    C8 4119   2.670   2.291  14.264  0.7130  0.0141  0.0323
  272TMC3    O1 4120   2.149   2.258  14.505 -0.2824  0.7628  0.2053
  272TMC3    O2 4121   2.738   2.333  14.171  0.5041  0.2473  0.4636
  273MPD2     C 4122   3.629   0.936  11.572 -0.2001 -0.1474  0.0132
  273MPD2    C1 4123   3.750   0.987  11.602  0.7769  1.5140  0.5417
  273MPD2    C2 4124   3.850   0.957  11.508 -0.1674 -0.5175  0.3045
  273MPD2    C3 4125   3.826   0.881  11.395  0.3571  0.6367 -0.1532
  273MPD2    C4 4126   3.708   0.845  11.361 -0.5429  0.3936 -0.1976
  273MPD2    C5 4127   3.614   0.866  11.454 -0.1294 -0.5816  0.7119
  273MPD2     H 4128   3.955   0.973  11.530 -0.3897 -0.4322  1.2957
  273MPD2    H1 4129   3.690   0.792  11.268 -2.2404 -2.2009  1.6306
  273MPD2    H2 4130   3.546   0.950  11.641 -0.9948 -0.1551 -0.9445
  273MPD2    H3 4131   3.513   0.830  11.436 -1.0535  3.0149 -1.3661
  273MPD2     N 4132   3.920   0.854  11.295  0.5110  0.5463 -0.5757
  273MPD2    H5 4133   3.883   0.816  11.209  0.3695  0.1151 -0.3220
  273MPD2    N1 4134   3.771   1.072  11.711  0.2831  0.1319 -0.3818
  273MPD2    H7 4135   3.688   1.102  11.762  0.9431  0.6599  0.3867
  274TMC3    C1 4136   4.124   0.876  11.174 -0.1289  0.6710 -0.2802
  274TMC3    C2 4137   4.051   0.856  11.061 -0.8176 -0.0860  0.6801
  274TMC3    C3 4138   4.058   0.954  10.960 -0.4643 -0.2155  0.3590
  274TMC3    C4 4139   4.217   0.976  11.184  0.1665  0.2478 -0.3009
  274TMC3    C5 4140   4.218   1.064  11.087 -0.5032  0.5660  0.0126
  274TMC3    C6 4141   4.152   1.052  10.967 -0.2581  0.1347  1.2628
  274TMC3     C 4142   4.058   0.858  11.306  0.8819  0.1575  0.6347
  274TMC3     O 4143   4.130   0.877  11.403 -0.4499 -0.3549 -0.6338
  274TMC3     H 4144   3.968   0.787  11.062 -0.5812 -0.3912 -0.7452
  274TMC3    H1 4145   4.278   0.991  11.273 -2.2878 -0.0801  1.4509
  274TMC3    H2 4146   4.126   1.141  10.913  3.9118  0.5353 -0.0968
  274TMC3    C7 4147   4.247   1.205  11.131 -0.8202 -0.3361  0.0130
  274TMC3    C8 4148   3.935   0.990  10.895  0.3109 -0.2604 -0.1650
  274TMC3    O1 4149   4.279   1.290  11.048  0.2910  0.0098  0.1490
  274TMC3    O2 4150   3.834   0.952  10.950 -0.6628 -0.1516  0.4297
  275MPD2     C 4151   3.495   3.678  14.462  0.4016 -0.7569  0.1438
  275MPD2    C1 4152   3.436   3.585  14.542 -0.2878  0.1428 -0.5315
  275MPD2    C2 4153   3.304   3.558  14.520  0.5148 -0.1343  0.4420
  275MPD2    C3 4154   3.226   3.626  14.427  0.4872  0.6482 -0.1693
  275MPD2    C4 4155   3.292   3.721  14.348  0.1310 -0.4223 -0.6590
  275MPD2    C5 4156   3.426   3.738  14.366 -0.1671 -0.4357  0.5242
  275MPD2     H 4157   3.267   3.479  14.584 -0.5270  1.5221  1.8724
  275MPD2    H1 4158   3.233   3.785  14.284  1.9311  0.3526 -1.5317
  275MPD2    H2 4159   3.599   3.707  14.469  0.2915 -0.5623  1.0891
  275MPD2    H3 4160   3.475   3.812  14.303  0.5424 -2.2196 -0.9940
  275MPD2     N 4161   3.093   3.593  14.401  0.3795 -0.3434 -0.8215
  275MPD2    H5 4162   3.055   3.626  14.313  0.0393  2.9234  0.5528
  275MPD2    N1 4163   3.508   3.514  14.636 -0.2235  0.7843 -0.4054
  275MPD2    H7 4164   3.473   3.426  14.671  1.1105  0.9789  1.4219
  276TMC3    C1 4165   3.691   3.429  14.770 -0.7328  0.4543  0.0037
  276TMC3    C2 4166   3.651   3.305  14.737 -0.9659 -0.5881  0.0261
  276TMC3    C3 4167   3.725   3.203  14.797 -0.1037 -0.9443 -0.7886
  276TMC3    C4 4168   3.792   3.455  14.861  0.1000 -0.6110  0.4146
  276TMC3    C5 4169   3.853   3.346  14.924  0.3384 -0.5739  0.5867
  276TMC3    C6 4170   3.828   3.216  14.883 -0.7333 -0.9489 -1.0591
  276TMC3     C 4171   3.639   3.535  14.685 -0.5933  0.1188 -0.3922
  276TMC3     O 4172   3.720   3.629  14.673 -0.0661  0.2259 -0.7910
  276TMC3     H 4173   3.596   3.278  14.648 -1.7562  0.8898  0.0795
  276TMC3    H1 4174   3.825   3.556  14.887 -1.0097 -0.0500 -0.3704
  276TMC3    H2 4175   3.868   3.136  14.945 -0.8071 -0.0328  0.1672
  276TMC3    C7 4176   3.957   3.368  15.024 -0.1372  0.0380 -0.0327
  276TMC3    C8 4177   3.696   3.070  14.752  0.2401 -0.1804  0.5234
  276TMC3    O1 4178   3.950   3.460  15.100 -0.1539 -0.1955 -0.6446
  276TMC3    O2 4179   3.652   3.052  14.642 -0.0683  0.4553  0.1428
  277MPD2     C 4180   0.691   2.321  13.374 -0.7108  0.2312  0.1677
  277MPD2    C1 4181   0.551   2.333  13.383 -0.2087 -0.0121  0.4444
  277MPD2    C2 4182   0.483   2.238  13.458 -0.3132  0.6951 -0.4637
  277MPD2    C3 4183   0.550   2.139  13.529 -0.2453 -0.0565  0.2189
  277MPD2    C4 4184   0.691   2.137  13.533  0.0764 -0.4180 -0.6504
  277MPD2    C5 4185   0.759   2.223  13.445 -0.1749 -0.0232 -0.2327
  277MPD2     H 4186   0.377   2.242  13.481 -0.1262 -1.2490  0.7079
  277MPD2    H1 4187   0.738   2.062  13.594 -1.8882 -1.8303 -0.8693
  277MPD2    H2 4188   0.750   2.388  13.310  2.8421  0.2081  3.4129
  277MPD2    H3 4189   0.867   2.220  13.446 -0.1343  0.7432 -3.6922
  277MPD2     N 4190   0.469   2.056  13.608  0.2106 -0.1862  0.4104
  277MPD2    H5 4191   0.369   2.072  13.611  0.0960 -1.1029  1.5971
  277MPD2    N1 4192   0.479   2.422  13.306  1.1787 -0.1004  0.6655
  277MPD2    H7 4193   0.533   2.483  13.246 -0.4727  1.2018  0.4992
  278TMC3    C1 4194   0.385   1.895  13.744  0.0709 -0.3350 -0.6748
  278TMC3    C2 4195   0.358   1.765  13.735 -0.0274  0.2232 -0.1354
  278TMC3    C3 4196   0.224   1.730  13.765 -0.2270  1.2229 -0.7041
  278TMC3    C4 4197   0.298   1.988  13.798 -0.6731 -0.5117  0.4639
  278TMC3    C5 4198   0.166   1.950  13.822  0.6156  0.6402  0.1657
  278TMC3    C6 4199   0.124   1.819  13.802  0.2461 -0.1533  0.9121
  278TMC3     C 4200   0.502   1.947  13.676  0.4793  0.0771 -0.6399
  278TMC3     O 4201   0.607   1.882  13.678  0.4350  0.6878  0.4516
  278TMC3     H 4202   0.418   1.705  13.667 -0.8716  0.0963 -0.7658
  278TMC3    H1 4203   0.327   2.092  13.808 -1.6701 -0.0384 -1.5911
  278TMC3    H2 4204   0.023   1.795  13.835 -0.8995  2.3218 -0.7856
  278TMC3    C7 4205   0.085   2.044  13.892 -0.1172 -0.2515  0.5017
  278TMC3    C8 4206   0.184   1.595  13.730  0.2905  0.5039 -0.7334
  278TMC3    O1 4207   0.138   2.149  13.925  0.1949 -0.4660 -0.4074
  278TMC3    O2 4208   0.267   1.510  13.759 -0.0247  0.1048  0.1557
  279MPD2     C 4209   3.477   1.490   0.166  0.1883 -0.3572  0.6920
  279MPD2    C1 4210   3.573   1.564   0.230 -0.1799  0.6609  0.7022
  279MPD2    C2 4211   3.616   1.523   0.355  0.2805 -0.2766 -0.2828
  279MPD2    C3 4212   3.591   1.397   0.403  0.5826 -0.3742 -0.6078
  279MPD2    C4 4213   3.502   1.319   0.338 -0.3041  0.7681  0.7761
  279MPD2    C5 4214   3.439   1.370   0.226 -0.5321 -0.5913 -0.5574
  279MPD2     H 4215   3.686   1.591   0.401  1.4695 -0.9359 -1.1019
  279MPD2    H1 4216   3.464   1.230   0.388  0.3708 -0.3725 -0.7346
  279MPD2    H2 4217   3.437   1.515   0.068  1.6527  2.4103  0.8069
  279MPD2    H3 4218   3.380   1.300   0.167 -1.2989 -0.1056 -0.3775
  279MPD2     N 4219   3.641   1.343   0.527 -0.2117  0.2251  0.3687
  279MPD2    H5 4220   3.584   1.266   0.561  0.1369 -0.4129 -0.4991
  279MPD2    N1 4221   3.616   1.686   0.174  0.5608  0.3949  0.4447
  279MPD2    H7 4222   3.588   1.699   0.077 -0.4937 -1.5339  0.4873
  280TMC3    C1 4223   3.747   1.874   0.130 -0.3976 -0.3103  0.3775
  280TMC3    C2 4224   3.718   1.875  17.689  0.5802  0.3629  0.0987
  280TMC3    C3 4225   3.803   1.949  17.609 -0.0545  0.1263 -0.2914
  280TMC3    C4 4226   3.854   1.942   0.177 -0.1635 -0.2380  0.4827
  280TMC3    C5 4227   3.933   2.017   0.093 -0.2957 -0.1328  0.0838
  280TMC3    C6 4228   3.918   2.007  17.652 -0.2929  0.2213  0.5051
  280TMC3     C 4229   3.709   1.770   0.218 -0.2714  0.4988  0.2713
  280TMC3     O 4230   3.752   1.779   0.334 -0.1542  0.0311 -0.0231
  280TMC3     H 4231   3.624   1.833  17.654  0.9099 -1.6484  1.6662
  280TMC3    H1 4232   3.875   1.948   0.284  2.5070  0.0204 -0.0529
  280TMC3    H2 4233   3.983   2.053  17.578 -0.2916 -1.0339 -0.2745
  280TMC3    C7 4234   3.986   2.138   0.149 -0.2401  0.2079  0.6005
  280TMC3    C8 4235   3.772   1.968  17.463  0.3232  0.3455 -0.4583
  280TMC3    O1 4236   4.024   2.133   0.266 -0.1824 -0.5701 -0.6104
  280TMC3    O2 4237   3.810   2.064  17.397 -0.4091  0.1161  0.4556
  281TMC3    C1 4238   3.500   2.674  13.505 -0.9941 -0.2502  0.4076
  281TMC3    C2 4239   3.616   2.715  13.445 -0.6623 -0.1652  0.2544
  281TMC3    C3 4240   3.694   2.637  13.359  0.1295 -0.0187  0.5498
  281TMC3    C4 4241   3.446   2.553  13.479 -0.4501  0.5840  0.1472
  281TMC3    C5 4242   3.512   2.479  13.382 -0.9260  0.2653  0.2154
  281TMC3    C6 4243   3.633   2.520  13.325 -0.3586  0.2922 -0.7087
  281TMC3     C 4244   3.407   2.778  13.536  0.2525  0.4064  0.0788
  281TMC3     O 4245   3.292   2.746  13.512  0.1952 -0.3824  0.3339
  281TMC3     H 4246   3.647   2.818  13.436  0.3580 -0.5781 -0.9009
  281TMC3    H1 4247   3.348   2.529  13.520 -0.1995  0.4777  0.6905
  281TMC3    H2 4248   3.676   2.468  13.241 -1.0269 -0.5816 -0.5106
  281TMC3    C7 4249   3.465   2.345  13.355 -0.6616  0.4645  0.9375
  281TMC3    C8 4250   3.796   2.697  13.264 -0.3991 -0.0372  0.2151
  281TMC3    O1 4251   3.547   2.267  13.306 -0.2474 -0.0591  0.1247
  281TMC3    O2 4252   3.902   2.638  13.260 -0.0889 -0.7832  0.0710
  282MPD2     C 4253   0.486   3.954  15.168  0.3241 -0.1384 -0.3015
  282MPD2    C1 4254   0.360   4.002  15.209 -0.3350  0.2936 -0.1898
  282MPD2    C2 4255   0.280   4.071  15.127  0.1494  0.4852 -0.2577
  282MPD2    C3 4256   0.312   4.091  14.992 -0.4433 -0.0067  0.5641
  282MPD2    C4 4257   0.440   4.059  14.955  0.4801 -0.3939 -0.3387
  282MPD2    C5 4258   0.520   3.992  15.046 -0.1656  0.4891 -0.3964
  282MPD2     H 4259   0.183   4.110  15.156  1.0081  2.1141  0.4194
  282MPD2    H1 4260   0.481   4.091  14.860 -1.2152  3.8080  0.3319
  282MPD2    H2 4261   0.566   3.913  15.228  0.9690 -0.5378 -1.4350
  282MPD2    H3 4262   0.620   3.961  15.019 -0.5435 -0.8967 -0.1999
  282MPD2     N 4263   0.219   4.151  14.905  0.5051  0.2048 -0.2661
  282MPD2    H5 4264   0.127   4.182  14.935  0.2495  0.3325 -1.1847
  282MPD2    N1 4265   0.305   3.971  15.340 -0.2988 -0.2509  0.5512
  282MPD2    H7 4266   0.213   4.011  15.355 -0.5904 -0.1192 -1.5682
  283TMC3    C1 4267   0.283   3.887  15.558 -0.2631  0.0237 -0.1550
  283TMC3    C2 4268   0.260   4.009  15.615 -0.1371 -0.3442  0.5315
  283TMC3    C3 4269   0.243   4.019  15.747  0.0699  0.8791  0.1833
  283TMC3    C4 4270   0.287   3.780  15.637 -0.4563 -0.1899  0.9318
  283TMC3    C5 4271   0.260   3.792  15.774  0.2682 -0.4207  0.1989
  283TMC3    C6 4272   0.231   3.912  15.828 -0.2640 -0.3360 -0.4240
  283TMC3     C 4273   0.355   3.880  15.435 -0.1902  0.8909  0.7404
  283TMC3     O 4274   0.443   3.792  15.417 -0.3395 -0.4769  1.1762
  283TMC3     H 4275   0.247   4.093  15.546 -1.8718 -0.4940  0.6745
  283TMC3    H1 4276   0.320   3.686  15.594  1.4434  0.1757  1.6014
  283TMC3    H2 4277   0.217   3.934  15.933 -1.2866  0.6548 -0.7590
  283TMC3    C7 4278   0.212   3.682  15.852 -0.2325  0.7197 -1.0841
  283TMC3    C8 4279   0.235   4.156  15.798 -0.1958  0.3217 -0.3100
  283TMC3    O1 4280   0.181   3.720  15.963  0.2771  0.1599 -0.2214
  283TMC3    O2 4281   0.213   4.162  15.916  0.1072 -0.0634  0.3128
  284MPD2     C 4282   2.767   3.091  11.598  0.1690  0.1253  0.1411
  284MPD2    C1 4283   2.855   3.200  11.618  0.0387 -0.6707  0.4758
  284MPD2    C2 4284   2.905   3.224  11.743 -0.0659  0.2617 -0.4919
  284MPD2    C3 4285   2.879   3.129  11.843 -0.7574  0.0995 -0.0274
  284MPD2    C4 4286   2.792   3.026  11.816  0.0200 -0.5561 -0.3167
  284MPD2    C5 4287   2.746   2.998  11.697 -0.5806  0.7398 -0.1087
  284MPD2     H 4288   2.975   3.305  11.762 -0.2286  0.2491  0.1844
  284MPD2    H1 4289   2.763   2.968  11.903  2.2799 -1.4678 -0.1607
  284MPD2    H2 4290   2.717   3.078  11.503  0.2765  0.4310  0.0427
  284MPD2    H3 4291   2.680   2.912  11.690 -1.5053  1.3997  0.4557
  284MPD2     N 4292   2.950   3.148  11.962  0.2208  0.2873  0.0401
  284MPD2    H5 4293   3.007   3.230  11.977  2.6119 -1.2290 -0.6678
  284MPD2    N1 4294   2.890   3.288  11.517 -0.5228  0.3053  0.7236
  284MPD2    H7 4295   2.866   3.253  11.425 -0.4955 -0.8120  1.1391
  285TMC3    C1 4296   3.021   3.441  11.406 -0.2873  0.0151  0.5899
  285TMC3    C2 4297   3.066   3.342  11.329 -0.5386  0.0119  1.1865
  285TMC3    C3 4298   3.166   3.372  11.243  0.5629 -0.0914 -0.7804
  285TMC3    C4 4299   3.089   3.562  11.423 -0.1739 -0.3830 -0.6262
  285TMC3    C5 4300   3.201   3.580  11.346 -0.2898 -0.7014 -0.1340
  285TMC3    C6 4301   3.229   3.496  11.242 -0.0427  0.0055  1.4420
  285TMC3     C 4302   2.954   3.403  11.521 -0.2097 -0.7193 -0.1380
  285TMC3     O 4303   2.971   3.475  11.624  0.8307  0.8896 -0.7527
  285TMC3     H 4304   3.020   3.245  11.316 -3.1947  1.2493  1.4715
  285TMC3    H1 4305   3.055   3.646  11.483  0.5177 -0.0234 -0.7464
  285TMC3    H2 4306   3.302   3.514  11.164 -0.0491 -0.2580  1.3743
  285TMC3    C7 4307   3.249   3.715  11.319  0.0987 -0.1034  0.4293
  285TMC3    C8 4308   3.221   3.268  11.168  0.3534 -0.2325  0.3177
  285TMC3    O1 4309   3.167   3.802  11.322  0.1685 -0.3851 -0.5472
  285TMC3    O2 4310   3.148   3.182  11.120  0.4895 -0.3166 -0.6089
  286MPD2     C 4311   3.534   1.447   1.714 -0.0298  0.2017  0.1328
  286MPD2    C1 4312   3.481   1.446   1.587 -0.5453 -0.3879  0.0124
  286MPD2    C2 4313   3.547   1.391   1.493  0.1816 -0.8315 -0.6211
  286MPD2    C3 4314   3.670   1.335   1.513  0.0140 -0.8403 -0.3805
  286MPD2    C4 4315   3.735   1.348   1.634 -0.2300  0.2964 -0.6517
  286MPD2    C5 4316   3.667   1.408   1.735 -0.8307  0.2596 -0.2599
  286MPD2     H 4317   3.497   1.388   1.397  1.3472  0.9309 -1.2816
  286MPD2    H1 4318   3.839   1.319   1.646 -1.1811 -1.9709  2.1895
  286MPD2    H2 4319   3.473   1.476   1.799  0.0679  1.2016 -0.1378
  286MPD2    H3 4320   3.718   1.423   1.829  0.2835  0.4072 -0.8877
  286MPD2     N 4321   3.740   1.273   1.405 -0.3666 -0.1895 -0.1973
  286MPD2    H5 4322   3.825   1.220   1.423 -0.4511 -0.8206 -1.5960
  286MPD2    N1 4323   3.350   1.497   1.555  0.2876 -0.6669  0.0695
  286MPD2    H7 4324   3.325   1.487   1.457  2.3605  2.7572 -0.7938
  287TMC3    C1 4325   3.815   1.235   1.185  0.2800  0.5270 -0.2649
  287TMC3    C2 4326   3.774   1.185   1.063 -0.5863  0.7481  0.5678
  287TMC3    C3 4327   3.873   1.164   0.968 -0.0543 -0.2429 -0.3632
  287TMC3    C4 4328   3.946   1.255   1.214  0.4132  0.4236  0.2380
  287TMC3    C5 4329   4.038   1.219   1.117 -0.1809 -0.1773  0.2209
  287TMC3    C6 4330   4.005   1.180   0.993 -0.5709 -0.2074  0.4779
  287TMC3     C 4331   3.707   1.286   1.270 -0.0025  0.7578 -1.1409
  287TMC3     O 4332   3.592   1.292   1.224  0.4171  0.4012  0.0430
  287TMC3     H 4333   3.671   1.180   1.031 -0.9132 -0.6542  1.8856
  287TMC3    H1 4334   3.980   1.302   1.305  1.1172  2.0710 -0.8604
  287TMC3    H2 4335   4.085   1.147   0.928 -1.1074  1.3904 -0.9874
  287TMC3    C7 4336   4.176   1.262   1.149 -0.0792 -0.4722 -0.6347
  287TMC3    C8 4337   3.835   1.108   0.844  0.4129  0.2524  0.7545
  287TMC3    O1 4338   4.185   1.322   1.251  0.0609 -0.2768  0.7880
  287TMC3    O2 4339   3.721   1.059   0.837  0.3277  0.2375  0.0833
  288TMC3    C1 4340   0.878   1.723  14.430 -0.1897  0.2919 -0.2430
  288TMC3    C2 4341   0.749   1.758  14.458 -0.2093  0.2407 -0.4327
  288TMC3    C3 4342   0.709   1.881  14.399 -0.2967 -0.3309  0.0052
  288TMC3    C4 4343   0.957   1.804  14.363 -0.3263  0.3944 -0.2746
  288TMC3    C5 4344   0.918   1.926  14.320 -0.4620 -0.1987  0.2542
  288TMC3    C6 4345   0.792   1.968  14.336  0.0844 -0.0261  0.2153
  288TMC3     C 4346   0.942   1.613  14.501  0.2369  0.1237  0.5882
  288TMC3     O 4347   1.063   1.620  14.515  0.4293  0.3196 -0.4090
  288TMC3     H 4348   0.683   1.697  14.519  2.2884 -0.1294  1.8937
  288TMC3    H1 4349   1.046   1.755  14.327 -0.3720 -0.7084  1.1054
  288TMC3    H2 4350   0.757   2.065  14.303 -0.5230  0.1779  1.4360
  288TMC3    C7 4351   0.993   1.984  14.213 -0.4983 -0.3657  0.2124
  288TMC3    C8 4352   0.593   1.948  14.462  0.4132  0.6653  0.1359
  288TMC3    O1 4353   0.942   2.080  14.152  0.7292  0.1172  0.2698
  288TMC3    O2 4354   0.596   2.068  14.475  0.0781  0.2162  0.1109
  289MPD2     C 4355   0.575   0.858  14.605  0.5956 -0.4076 -0.1898
  289MPD2    C1 4356   0.609   0.935  14.493 -0.0883  0.3807 -0.5096
  289MPD2    C2 4357   0.516   0.930  14.395 -0.6197 -0.0394 -0.3189
  289MPD2    C3 4358   0.393   0.869  14.404  0.2802  0.8022 -0.6548
  289MPD2    C4 4359   0.364   0.802  14.518  0.0086  0.3500 -0.1451
  289MPD2    C5 4360   0.451   0.806  14.622  0.3745 -0.8456 -0.0024
  289MPD2     H 4361   0.544   0.978  14.302 -4.0135  0.1488 -1.2085
  289MPD2    H1 4362   0.262   0.768  14.527  0.1915 -0.8845 -2.7857
  289MPD2    H2 4363   0.648   0.850  14.685 -0.1442 -1.8216  0.3404
  289MPD2    H3 4364   0.430   0.764  14.720 -0.6218 -2.5235 -0.9504
  289MPD2     N 4365   0.287   0.890  14.307  0.0031  0.2913  0.0818
  289MPD2    H5 4366   0.202   0.840  14.331  1.2568 -1.9442 -0.1367
  289MPD2    N1 4367   0.730   0.996  14.482 -0.4942  0.3893  0.2519
  289MPD2    H7 4368   0.801   0.981  14.553  0.9803  1.2098 -1.0400
  290TMC3    C1 4369   0.163   0.984  14.134  0.3128  0.3520  0.6167
  290TMC3    C2 4370   0.139   1.113  14.084 -0.8982  0.3770 -0.0441
  290TMC3    C3 4371   0.015   1.123  14.011  0.5346  0.0607  0.4274
  290TMC3    C4 4372   0.085   0.871  14.119 -0.1568  0.1484 -0.4994
  290TMC3    C5 4373   4.688   0.894  14.055  0.1610  0.2585  0.4144
  290TMC3    C6 4374   4.659   1.010  13.991  0.0147 -0.3734 -0.5044
  290TMC3     C 4375   0.288   0.966  14.197 -0.2827 -0.0871 -0.0697
  290TMC3     O 4376   0.368   1.051  14.166 -0.0956 -0.1134  0.3558
  290TMC3     H 4377   0.202   1.197  14.111 -0.6197  0.4141 -0.8130
  290TMC3    H1 4378   0.115   0.774  14.157 -1.8011 -0.0846  0.2260
  290TMC3    H2 4379   4.562   1.011  13.944  0.5744  0.8237 -1.6417
  290TMC3    C7 4380   4.590   0.791  14.062  0.0193 -0.0500 -0.7170
  290TMC3    C8 4381   4.668   1.252  14.006  0.0055 -0.1464  0.0827
  290TMC3    O1 4382   4.492   0.801  13.990 -0.6339  0.6158  0.8388
  290TMC3    O2 4383   4.548   1.248  14.005  0.0952  0.2524 -0.3524
  291MPD2     C 4384   3.983   0.610   0.439  0.3408  0.7279  0.0681
  291MPD2    C1 4385   4.011   0.490   0.370  0.1545  0.3742  0.0901
  291MPD2    C2 4386   4.090   0.498   0.253  0.1469 -0.5598 -0.4357
  291MPD2    C3 4387   4.142   0.615   0.205 -0.0385 -0.8679 -0.2878
  291MPD2    C4 4388   4.120   0.724   0.282  0.2673  0.6628 -0.1695
  291MPD2    C5 4389   4.042   0.723   0.391 -0.4140 -0.1866 -0.3495
  291MPD2     H 4390   4.106   0.407   0.196  0.1477 -1.8498  1.6310
  291MPD2    H1 4391   4.150   0.824   0.254  2.1882  0.8133  2.3967
  291MPD2    H2 4392   3.909   0.619   0.518  1.8413 -1.6017  1.7320
  291MPD2    H3 4393   4.022   0.818   0.439 -2.9285  0.0514 -1.8669
  291MPD2     N 4394   4.216   0.622   0.084  0.3487  0.5129  0.0486
  291MPD2    H5 4395   4.233   0.715   0.048 -1.6480  1.5575  1.7764
  291MPD2    N1 4396   3.950   0.368   0.411  0.0523 -0.3774  0.1415
  291MPD2    H7 4397   3.972   0.291   0.348 -2.2209 -0.7407 -0.2043
  292TMC3    C1 4398   3.814   0.211   0.520 -0.0104 -0.0725  0.3658
  292TMC3    C2 4399   3.696   0.182   0.578 -0.8176  0.0448  0.4093
  292TMC3    C3 4400   3.667   0.053   0.610 -0.3689  0.5366  0.2987
  292TMC3    C4 4401   3.896   0.107   0.473 -0.5226  0.4333  0.5164
  292TMC3    C5 4402   3.865   4.698   0.507  0.2055  0.3624  0.2031
  292TMC3    C6 4403   3.753   4.677   0.585  0.5622 -0.3694  0.0458
  292TMC3     C 4404   3.872   0.343   0.523 -0.5913  0.4412  0.7183
  292TMC3     O 4405   3.823   0.425   0.597 -0.2718 -0.7732 -0.1020
  292TMC3     H 4406   3.625   0.258   0.608 -1.7611 -0.9735  0.7610
  292TMC3    H1 4407   3.987   0.126   0.417 -1.4965  2.8166 -0.2709
  292TMC3    H2 4408   3.719   4.578   0.615  0.5168 -0.1413  0.7386
  292TMC3    C7 4409   3.960   4.588   0.496 -0.2817 -0.4556 -0.0679
  292TMC3    C8 4410   3.525   0.037   0.628  0.2751  0.1327  0.1956
  292TMC3    O1 4411   4.041   4.591   0.405 -0.2026  0.5371  0.0376
  292TMC3    O2 4412   3.461   0.108   0.702 -0.4430 -0.1678  0.4132
  293MPD2     C 4413   1.653   1.931  12.792 -0.7081 -0.7576 -0.2091
  293MPD2    C1 4414   1.695   1.822  12.861  0.3239 -0.8720 -0.5636
  293MPD2    C2 4415   1.766   1.841  12.978  0.0580 -0.5615  0.6078
  293MPD2    C3 4416   1.792   1.965  13.022 -0.4532 -0.1786 -0.0240
  293MPD2    C4 4417   1.754   2.077  12.953 -0.2743  0.0461  0.0785
  293MPD2    C5 4418   1.677   2.061  12.844  0.3252 -0.3372  0.1225
  293MPD2     H 4419   1.807   1.759  13.036 -1.7725 -1.8818  0.0214
  293MPD2    H1 4420   1.769   2.179  12.986 -2.4746  0.7890 -1.2206
  293MPD2    H2 4421   1.580   1.932  12.711 -0.0625  0.5593 -0.7790
  293MPD2    H3 4422   1.636   2.149  12.796 -1.1639 -0.4348  1.2130
  293MPD2     N 4423   1.863   1.985  13.146 -0.3329  0.4471  0.1212
  293MPD2    H5 4424   1.906   1.903  13.188 -0.9687  0.3103  0.5213
  293MPD2    N1 4425   1.679   1.699  12.791 -0.1028 -0.0154 -0.2472
  293MPD2    H7 4426   1.643   1.711  12.697 -2.0699  0.0905  0.5243
  294TMC3    C1 4427   1.671   1.459  12.775  0.0308 -0.1830  0.2855
  294TMC3    C2 4428   1.611   1.357  12.847 -0.8460  0.7660 -0.4893
  294TMC3    C3 4429   1.559   1.247  12.776 -0.3745  0.3238 -0.4488
  294TMC3    C4 4430   1.690   1.453  12.638 -0.1465 -0.0328  0.3404
  294TMC3    C5 4431   1.656   1.332  12.581 -0.2429  0.0256 -0.7887
  294TMC3    C6 4432   1.581   1.237  12.642 -0.0565  0.0967  0.7018
  294TMC3     C 4433   1.699   1.577  12.856 -0.4657 -0.4782 -0.5581
  294TMC3     O 4434   1.742   1.558  12.971  0.2023 -0.3571 -0.4291
  294TMC3     H 4435   1.595   1.364  12.954 -1.6261  0.7471 -0.6085
  294TMC3    H1 4436   1.736   1.530  12.577  1.8120 -1.5551 -0.0987
  294TMC3    H2 4437   1.545   1.151  12.587  0.6060 -0.0038  0.4212
  294TMC3    C7 4438   1.678   1.326  12.441  0.4561 -0.5079 -0.3838
  294TMC3    C8 4439   1.413   1.258  12.802 -0.3605 -0.3158  0.1760
  294TMC3    O1 4440   1.593   1.266  12.371  0.0971 -0.1401  0.7085
  294TMC3    O2 4441   1.378   1.284  12.915  0.4776  0.4745 -1.0531
  295MPD2     C 4442   2.156   0.770   0.617  0.4098 -0.3440  0.4085
  295MPD2    C1 4443   2.028   0.740   0.571 -0.2279  1.0568  0.3311
  295MPD2    C2 4444   1.950   0.657   0.644  0.3592  0.1068 -1.1377
  295MPD2    C3 4445   1.997   0.599   0.760  0.3489 -0.0484  0.0133
  295MPD2    C4 4446   2.127   0.626   0.802 -0.3743  0.2634 -0.1206
  295MPD2    C5 4447   2.211   0.716   0.731 -0.2520  0.2521 -0.0454
  295MPD2     H 4448   1.849   0.636   0.610  0.2209 -0.0506 -0.6395
  295MPD2    H1 4449   2.168   0.579   0.890 -1.7557 -1.1090 -0.2081
  295MPD2    H2 4450   2.217   0.845   0.568 -1.0647 -0.4908 -1.6085
  295MPD2    H3 4451   2.312   0.735   0.766  0.3219 -0.9231 -1.0400
  295MPD2     N 4452   1.926   0.507   0.831  0.6589 -0.2046 -0.0765
  295MPD2    H5 4453   1.979   0.457   0.902  0.5941 -0.8253 -0.4732
  295MPD2    N1 4454   1.969   0.797   0.458 -0.4194 -0.0463  0.3902
  295MPD2    H7 4455   1.886   0.755   0.417 -1.2020 -0.8406  2.7921
  296TMC3    C1 4456   1.754   0.398   0.930  0.0080  0.3135 -0.1876
  296TMC3    C2 4457   1.832   0.304   0.994  0.0350  0.5516  0.0622
  296TMC3    C3 4458   1.781   0.233   1.102  0.0600 -0.3074  0.3397
  296TMC3    C4 4459   1.615   0.396   0.939  0.0806 -0.1658 -0.3746
  296TMC3    C5 4460   1.575   0.323   1.044 -0.2700 -0.1849  0.6045
  296TMC3    C6 4461   1.646   0.240   1.124 -0.3166 -0.2068  0.1199
  296TMC3     C 4462   1.802   0.461   0.811 -0.2833  0.5086  0.5264
  296TMC3     O 4463   1.726   0.498   0.726 -0.1038  0.1330 -0.1060
  296TMC3     H 4464   1.934   0.284   0.964 -0.3725 -0.7433 -0.4896
  296TMC3    H1 4465   1.550   0.459   0.881  0.4199 -1.6014 -2.2914
  296TMC3    H2 4466   1.602   0.168   1.193 -1.9575 -0.7974 -1.5343
  296TMC3    C7 4467   1.435   0.305   1.045 -0.0806 -0.4363 -0.0340
  296TMC3    C8 4468   1.860   0.139   1.177 -0.8159 -0.1908  0.0186
  296TMC3    O1 4469   1.387   0.326   0.937  0.0223 -0.2874 -0.1192
  296TMC3    O2 4470   1.805   0.052   1.245  0.0382 -0.5846 -0.4574
  297MPD2     C 4471   4.131   2.802  16.548  0.0556  0.1436 -0.3417
  297MPD2    C1 4472   4.118   2.914  16.466 -0.1875  1.2130 -0.7839
  297MPD2    C2 4473   4.225   2.998  16.452  0.2799 -0.2577 -0.7090
  297MPD2    C3 4474   4.345   2.967  16.514  0.1104  0.0892 -0.2717
  297MPD2    C4 4475   4.354   2.853  16.592  0.2041 -0.9249 -0.2383
  297MPD2    C5 4476   4.242   2.773  16.612  0.2643  0.1722 -0.4400
  297MPD2     H 4477   4.213   3.073  16.375  0.2335  0.3537 -0.1086
  297MPD2    H1 4478   4.443   2.835  16.652  1.7302  3.5485 -1.1725
  297MPD2    H2 4479   4.051   2.730  16.560 -1.7586  1.6561 -3.2769
  297MPD2    H3 4480   4.255   2.684  16.672  1.8427 -0.3732 -1.6067
  297MPD2     N 4481   4.453   3.056  16.489  0.4250  0.6448  0.3154
  297MPD2    H5 4482   4.437   3.130  16.422 -1.1556 -0.5043 -0.5799
  297MPD2    N1 4483   4.003   2.935  16.385  0.3696  0.0989  0.5161
  297MPD2    H7 4484   3.997   3.029  16.347  0.0162 -0.4976 -0.8670
  298TMC3    C1 4485   3.785   2.924  16.307  0.2184 -0.1512 -0.2565
  298TMC3    C2 4486   3.715   2.864  16.206 -0.6860  0.0379  0.0498
  298TMC3    C3 4487   3.623   2.947  16.152 -0.1269  0.4812  0.5576
  298TMC3    C4 4488   3.749   3.047  16.352 -0.0591  0.1105  0.8389
  298TMC3    C5 4489   3.652   3.125  16.296 -0.3325  0.9413  0.1885
  298TMC3    C6 4490   3.586   3.071  16.189 -0.1740 -0.3614  0.3141
  298TMC3     C 4491   3.893   2.856  16.373  0.7564  0.3827  0.2505
  298TMC3     O 4492   3.876   2.737  16.405  0.2118 -0.0721 -0.2682
  298TMC3     H 4493   3.753   2.770  16.170  1.6913  0.9483  0.1444
  298TMC3    H1 4494   3.798   3.080  16.443 -1.2932  0.8666  1.2285
  298TMC3    H2 4495   3.500   3.118  16.142 -0.1566 -1.5368 -0.8920
  298TMC3    C7 4496   3.628   3.257  16.332  0.3780 -0.5373  0.0483
  298TMC3    C8 4497   3.543   2.882  16.045  0.4541 -0.2826 -0.7447
  298TMC3    O1 4498   3.676   3.283  16.441  0.3816  0.4216 -0.6587
  298TMC3    O2 4499   3.460   2.949  15.981  0.5716 -0.0183 -0.4046
  299MPD2     C 4500   4.385   2.372  10.921  0.3771  0.5397 -0.7046
  299MPD2    C1 4501   4.436   2.422  10.807  0.5229  0.3547  0.6119
  299MPD2    C2 4502   4.384   2.385  10.683 -0.2596 -0.6314 -0.5702
  299MPD2    C3 4503   4.269   2.310  10.677 -0.0182 -0.4489  0.6386
  299MPD2    C4 4504   4.220   2.254  10.799  0.5643  0.8088  0.2810
  299MPD2    C5 4505   4.270   2.292  10.918  0.1072 -0.1363  0.4453
  299MPD2     H 4506   4.428   2.427  10.593  0.8248  2.0887  1.2162
  299MPD2    H1 4507   4.131   2.192  10.804 -0.8474  3.0581  2.4137
  299MPD2    H2 4508   4.428   2.397  11.018 -0.7828 -1.4873  0.3425
  299MPD2    H3 4509   4.227   2.250  11.008  3.0610 -3.0552  0.5016
  299MPD2     N 4510   4.202   2.274  10.555  0.6981  0.4893  0.3501
  299MPD2    H5 4511   4.134   2.205  10.585  1.8771 -0.5754  0.5793
  299MPD2    N1 4512   4.555   2.497  10.825  0.1062  0.1684  0.0038
  299MPD2    H7 4513   4.596   2.499  10.918 -2.4031  0.6447  1.0989
  300TMC3    C1 4514   4.146   2.250  10.330  0.0616  0.2852 -0.2127
  300TMC3    C2 4515   4.190   2.264  10.206  0.4578  0.2323  0.8169
  300TMC3    C3 4516   4.102   2.260  10.105 -0.1352 -0.4106  0.1567
  300TMC3    C4 4517   4.020   2.224  10.360  0.6289 -0.2251 -0.4984
  300TMC3    C5 4518   3.940   2.201  10.254 -0.1046 -0.2220 -0.4680
  300TMC3    C6 4519   3.974   2.215  10.124 -0.5629 -0.0263  0.1401
  300TMC3     C 4520   4.224   2.316  10.429 -0.0515  0.0139 -0.0413
  300TMC3     O 4521   4.313   2.395  10.392  0.2303  0.3172 -0.0479
  300TMC3     H 4522   4.295   2.284  10.188 -0.0519  3.1610  1.1473
  300TMC3    H1 4523   3.992   2.210  10.464  0.4661 -2.3790 -0.8423
  300TMC3    H2 4524   3.899   2.232  10.048  1.3419  1.4415 -1.4130
  300TMC3    C7 4525   3.804   2.150  10.284  0.3325  0.4176  0.5462
  300TMC3    C8 4526   4.099   2.384  10.026 -0.7595 -0.2488  0.3255
  300TMC3    O1 4527   3.742   2.088  10.195 -0.0411 -0.2466  0.6744
  300TMC3    O2 4528   4.027   2.396   9.928  0.0631 -0.0285  0.0723
  301MPD2     C 4529   2.346   3.774   1.433  0.3403 -0.3693  0.2165
  301MPD2    C1 4530   2.228   3.700   1.403 -0.3489  0.1596  0.1528
  301MPD2    C2 4531   2.240   3.570   1.355 -0.2449 -0.7532 -0.1131
  301MPD2    C3 4532   2.363   3.511   1.329  0.0014 -0.2660 -0.0287
  301MPD2    C4 4533   2.479   3.579   1.369 -0.4705  0.2787  0.2459
  301MPD2    C5 4534   2.469   3.709   1.411 -0.4955 -0.1859 -0.2293
  301MPD2     H 4535   2.151   3.513   1.333 -0.0124 -0.3612 -2.0875
  301MPD2    H1 4536   2.581   3.546   1.358  0.3034  2.9775 -0.4753
  301MPD2    H2 4537   2.347   3.876   1.468  0.0862 -0.5710  0.8141
  301MPD2    H3 4538   2.552   3.773   1.437 -0.7112 -0.6836  1.7144
  301MPD2     N 4539   2.375   3.394   1.257  0.6039 -0.4867  0.3736
  301MPD2    H5 4540   2.464   3.346   1.247  0.6454  0.3185 -3.0958
  301MPD2    N1 4541   2.096   3.752   1.419 -0.3091 -0.1458 -0.3258
  301MPD2    H7 4542   2.024   3.683   1.396  0.6977 -0.8889 -1.2236
  302TMC3    C1 4543   2.304   3.199   1.140  0.4505 -0.6235  0.2801
  302TMC3    C2 4544   2.390   3.116   1.209  0.5183 -0.2176  0.2757
  302TMC3    C3 4545   2.396   2.993   1.157 -0.6146  0.4380  0.0319
  302TMC3    C4 4546   2.221   3.166   1.036  0.2170 -0.5675 -0.6075
  302TMC3    C5 4547   2.240   3.040   0.995 -0.8573 -0.1693 -0.5153
  302TMC3    C6 4548   2.316   2.941   1.052 -0.1541  0.3161  0.2520
  302TMC3     C 4549   2.271   3.335   1.187 -0.2605  0.2924  0.5235
  302TMC3     O 4550   2.154   3.371   1.160  0.1141 -0.0927  0.3542
  302TMC3     H 4551   2.444   3.160   1.292  0.8809  0.7698 -0.4735
  302TMC3    H1 4552   2.160   3.234   0.977 -0.5359 -0.4979  0.2402
  302TMC3    H2 4553   2.337   2.848   1.001 -0.8203  0.1433  0.2945
  302TMC3    C7 4554   2.155   2.997   0.887  0.2973 -0.2101 -0.4406
  302TMC3    C8 4555   2.483   2.898   1.228 -0.0114  0.3463  0.1377
  302TMC3    O1 4556   2.200   2.919   0.810  0.6859 -0.5040  0.1070
  302TMC3    O2 4557   2.545   2.819   1.157  0.4615 -0.1932  0.1323
  303MPD2     C 4558   1.816   2.571  10.801  0.1953  0.7141 -0.4706
  303MPD2    C1 4559   1.703   2.505  10.841 -0.2566  0.6354 -0.8457
  303MPD2    C2 4560   1.612   2.477  10.733 -0.2612  0.6103  0.0258
  303MPD2    C3 4561   1.645   2.496  10.596 -0.5523  0.8610 -0.4737
  303MPD2    C4 4562   1.759   2.560  10.566  0.2322 -0.5328  0.8946
  303MPD2    C5 4563   1.845   2.585  10.668 -0.5885  0.2409 -0.2235
  303MPD2     H 4564   1.511   2.446  10.753 -0.1848  0.5568  0.3301
  303MPD2    H1 4565   1.795   2.594  10.470 -1.1093  0.1497  0.6326
  303MPD2    H2 4566   1.898   2.595  10.869  0.9210  1.4603 -1.6151
  303MPD2    H3 4567   1.943   2.629  10.649 -0.8542  0.7371 -0.4544
  303MPD2     N 4568   1.546   2.454  10.495  0.3104 -0.8734  0.6004
  303MPD2    H5 4569   1.462   2.403  10.522 -1.1455 -0.2453 -2.7119
  303MPD2    N1 4570   1.685   2.465  10.969  0.4854  0.0195 -0.2290
  303MPD2    H7 4571   1.766   2.489  11.026  1.1516 -0.0001 -1.1625
  304TMC3    C1 4572   1.596   2.419  11.171 -0.6074 -0.1304 -0.7768
  304TMC3    C2 4573   1.496   2.360  11.253 -0.5371 -0.0469  0.3564
  304TMC3    C3 4574   1.531   2.278  11.356  0.0752  0.3612  0.1998
  304TMC3    C4 4575   1.732   2.401  11.206  0.4229 -0.1565 -0.1898
  304TMC3    C5 4576   1.761   2.306  11.292  0.3035 -0.0408 -0.7194
  304TMC3    C6 4577   1.662   2.253  11.373  0.3968 -0.0510 -0.2352
  304TMC3     C 4578   1.576   2.414  11.029 -0.0214 -0.3307  0.1754
  304TMC3     O 4579   1.468   2.370  10.989 -0.3540 -0.4181  0.5721
  304TMC3     H 4580   1.394   2.368  11.218 -0.8600 -0.4445  1.2268
  304TMC3    H1 4581   1.811   2.460  11.162  0.5716  0.2248  0.5849
  304TMC3    H2 4582   1.690   2.190  11.457 -1.3647  1.6355  1.6242
  304TMC3    C7 4583   1.847   2.202  11.246  0.0026 -0.5066 -0.3357
  304TMC3    C8 4584   1.454   2.154  11.373 -0.2121  1.1977 -0.7198
  304TMC3    O1 4585   1.809   2.088  11.267  0.4889 -0.5169 -0.7165
  304TMC3    O2 4586   1.328   2.168  11.370 -0.0841  0.1477 -0.5259
  305MPD2     C 4587   0.512   4.370  13.876  0.6594 -0.3717  0.7581
  305MPD2    C1 4588   0.510   4.238  13.906 -0.6129 -0.6278  0.5047
  305MPD2    C2 4589   0.495   4.143  13.805  0.0028 -0.0950 -0.1066
  305MPD2    C3 4590   0.461   4.189  13.675  0.4474 -0.3587  0.0575
  305MPD2    C4 4591   0.476   4.322  13.647 -0.4071  0.0107 -0.2589
  305MPD2    C5 4592   0.501   4.416  13.748  0.5554 -0.1761 -0.5708
  305MPD2     H 4593   0.493   4.036  13.822  0.4012  0.0049  0.5777
  305MPD2    H1 4594   0.484   4.343  13.541  1.2265  0.7802  0.0168
  305MPD2    H2 4595   0.543   4.449  13.944 -1.1127  2.4600 -1.7039
  305MPD2    H3 4596   0.520   4.518  13.719  0.5843  0.1341  0.5339
  305MPD2     N 4597   0.443   4.090  13.569  0.1064  0.1413 -0.0476
  305MPD2    H5 4598   0.437   4.123  13.473 -0.0634  0.0591 -0.0647
  305MPD2    N1 4599   0.542   4.204  14.036  0.3231 -0.2895 -0.3635
  305MPD2    H7 4600   0.553   4.282  14.099 -1.4615  0.6709 -1.2325
  306TMC3    C1 4601   0.550   4.098  14.242 -0.2930  0.0589 -0.5723
  306TMC3    C2 4602   0.605   3.997  14.310 -0.0964  0.0464 -0.0004
  306TMC3    C3 4603   0.614   4.014  14.441 -0.3612  0.7094 -0.0163
  306TMC3    C4 4604   0.507   4.214  14.304  0.1841 -0.3202  0.5444
  306TMC3    C5 4605   0.514   4.219  14.441  0.8961  0.4786  0.0519
  306TMC3    C6 4606   0.577   4.123  14.510 -0.0111  0.6554 -0.3354
  306TMC3     C 4607   0.551   4.087  14.096  0.6244  0.0668  0.1729
  306TMC3     O 4608   0.553   3.975  14.050 -0.0727  0.6097 -1.1794
  306TMC3     H 4609   0.639   3.911  14.254 -0.9248  0.4866 -1.1827
  306TMC3    H1 4610   0.462   4.296  14.248 -0.0793 -1.2129 -0.5612
  306TMC3    H2 4611   0.573   4.119  14.618 -1.2657  0.2136 -0.4053
  306TMC3    C7 4612   0.441   4.317  14.524 -0.8699  0.4440  0.5770
  306TMC3    C8 4613   0.690   3.918  14.510  0.0768 -0.5720 -0.0283
  306TMC3    O1 4614   0.341   4.369  14.480  0.1332 -0.1156 -0.4826
  306TMC3    O2 4615   0.673   3.797  14.489 -0.2176 -0.6030  0.2374
  307MPD2     C 4616   2.692   1.364   0.517 -0.0179  0.4938  0.4118
  307MPD2    C1 4617   2.691   1.507   0.522  0.1702 -0.6663 -0.3043
  307MPD2    C2 4618   2.618   1.574   0.621  0.1105 -0.0407  0.4371
  307MPD2    C3 4619   2.547   1.501   0.720 -0.3954 -0.2543 -0.1851
  307MPD2    C4 4620   2.541   1.362   0.707  0.0331  0.1532  0.2808
  307MPD2    C5 4621   2.617   1.297   0.614  0.0947  0.3267 -0.5895
  307MPD2     H 4622   2.607   1.681   0.610 -2.7206 -0.4664 -0.7165
  307MPD2    H1 4623   2.478   1.302   0.772 -2.4038  2.3290 -0.0726
  307MPD2    H2 4624   2.747   1.305   0.444  1.7207  2.3126  0.2205
  307MPD2    H3 4625   2.606   1.189   0.619  3.4976  0.0058 -0.3433
  307MPD2     N 4626   2.469   1.576   0.809  0.0241 -0.4772 -0.1068
  307MPD2    H5 4627   2.476   1.677   0.805  1.2394 -0.4828  2.4384
  307MPD2    N1 4628   2.753   1.585   0.420 -0.0522 -0.1838 -0.1302
  307MPD2    H7 4629   2.737   1.685   0.410 -1.6397 -0.4227  0.0062
  308TMC3    C1 4630   2.105   1.752   0.950  0.0787 -0.1462 -0.0526
  308TMC3    C2 4631   2.170   1.863   0.999  0.0553  0.2715 -0.1177
  308TMC3    C3 4632   2.305   1.842   1.030 -0.2504 -0.2283  0.0207
  308TMC3    C4 4633   2.172   1.635   0.938 -0.2085  0.5304 -0.0322
  308TMC3    C5 4634   2.303   1.623   0.969 -0.1118 -0.2377 -0.2042
  308TMC3    C6 4635   2.381   1.733   1.001  1.1748  0.2196  0.4603
  308TMC3     C 4636   1.972   1.762   0.897  0.1868  0.4043  0.5061
  308TMC3     O 4637   1.905   1.662   0.895 -0.0074  0.3437 -0.5643
  308TMC3     H 4638   2.127   1.960   1.019 -0.0715 -0.1616  1.6362
  308TMC3    H1 4639   2.120   1.548   0.902  0.2814  0.7148 -1.2092
  308TMC3    H2 4640   2.487   1.726   1.025  1.2744  1.6913  0.4681
  308TMC3    C7 4641   2.367   1.526   0.884  0.1783 -0.5010 -0.6669
  308TMC3    C8 4642   2.374   1.968   1.065 -0.1669  0.4588 -0.2512
  308TMC3    O1 4643   2.317   1.416   0.884 -0.5867  0.1492  0.2093
  308TMC3    O2 4644   2.433   1.961   1.170 -0.0319 -0.2924  0.3203
  309MPD2     C 4645   1.828   2.160  17.367  0.4122  0.1783  0.0568
  309MPD2    C1 4646   1.804   2.239  17.258 -0.9080 -0.2098 -0.8758
  309MPD2    C2 4647   1.735   2.353  17.277 -0.1593 -1.0491  0.0843
  309MPD2    C3 4648   1.666   2.381  17.391 -0.6529 -0.0807  0.1102
  309MPD2    C4 4649   1.686   2.301  17.500 -0.1028  0.1080 -0.3955
  309MPD2    C5 4650   1.779   2.200  17.483 -0.0652  0.1071  0.0171
  309MPD2     H 4651   1.719   2.401  17.182  0.4312  0.5591  0.7877
  309MPD2    H1 4652   1.643   2.315  17.598  0.2248  0.0105 -0.2384
  309MPD2    H2 4653   1.907   2.086  17.370  0.5929  0.3919  0.5226
  309MPD2    H3 4654   1.801   2.151  17.578 -0.9317  0.9258  0.6417
  309MPD2     N 4655   1.576   2.489  17.401 -0.1070 -0.2367 -0.4443
  309MPD2    H5 4656   1.540   2.511  17.493  0.3464 -1.0326 -0.0722
  309MPD2    N1 4657   1.844   2.212  17.127  0.3507 -0.0017  0.1876
  309MPD2    H7 4658   1.825   2.282  17.056 -2.2582  0.0321  0.9548
  310TMC3    C1 4659   1.933   2.100  16.944 -0.6193 -0.5431 -1.0057
  310TMC3    C2 4660   1.854   2.181  16.863  0.0441 -0.5092 -0.5276
  310TMC3    C3 4661   1.898   2.186  16.729  0.2792  0.3375  0.3226
  310TMC3    C4 4662   2.052   2.043  16.900 -0.0734  0.0862  0.2815
  310TMC3    C5 4663   2.081   2.052  16.763 -0.0227 -0.2813 -0.7706
  310TMC3    C6 4664   2.003   2.117  16.676 -0.1722  0.2894  0.2242
  310TMC3     C 4665   1.911   2.101  17.085  0.5510 -1.1512 -0.4673
  310TMC3     O 4666   1.950   2.007  17.149 -0.2279  0.4717  0.1606
  310TMC3     H 4667   1.764   2.225  16.905 -0.3122 -1.0349 -0.7364
  310TMC3    H1 4668   2.120   1.991  16.966  0.3521  1.1521  0.6915
  310TMC3    H2 4669   2.050   2.149  16.584 -0.4321 -0.1117 -0.0481
  310TMC3    C7 4670   2.206   1.999  16.721  0.0807  0.1398  0.3868
  310TMC3    C8 4671   1.863   2.310  16.646 -0.3513  0.9305  0.1086
  310TMC3    O1 4672   2.217   1.947  16.609 -0.6516 -0.2477 -0.4255
  310TMC3    O2 4673   1.922   2.340  16.542  0.6206 -0.3057  0.1635
  311MPD2     C 4674   4.184   3.649  12.942 -0.7836  0.4967 -0.0521
  311MPD2    C1 4675   4.201   3.783  12.936  0.2784  0.7402  0.3677
  311MPD2    C2 4676   4.090   3.854  12.980 -0.0252  0.0589 -0.2899
  311MPD2    C3 4677   3.975   3.803  13.040  0.0361 -0.4073 -0.4786
  311MPD2    C4 4678   3.965   3.672  13.054  0.2437  0.5564 -0.0921
  311MPD2    C5 4679   4.069   3.601  13.002 -0.1701  0.8572  0.2103
  311MPD2     H 4680   4.102   3.962  12.976 -0.8838  0.1894  0.5987
  311MPD2    H1 4681   3.872   3.618  13.065  0.7534  0.6076  4.1563
  311MPD2    H2 4682   4.264   3.582  12.916 -1.1294 -0.3235  0.9885
  311MPD2    H3 4683   4.059   3.493  13.005  0.6766  0.7859  0.5415
  311MPD2     N 4684   3.863   3.891  13.059  0.4124  0.4369 -0.2435
  311MPD2    H5 4685   3.884   3.988  13.035  0.9198  0.5174  0.5014
  311MPD2    N1 4686   4.307   3.852  12.875 -0.2142  0.0002 -0.4044
  311MPD2    H7 4687   4.307   3.952  12.893  0.6976 -0.1227  0.2770
  312TMC3    C1 4688   3.655   3.968  13.113 -0.2541  0.5120  0.5534
  312TMC3    C2 4689   3.526   3.943  13.080 -0.0685  0.3608 -0.2728
  312TMC3    C3 4690   3.452   4.050  13.034  0.0686 -0.1530  0.2758
  312TMC3    C4 4691   3.703   4.088  13.120 -0.7494  0.1525 -0.4794
  312TMC3    C5 4692   3.620   4.198  13.102  0.7553  0.9509  0.3694
  312TMC3    C6 4693   3.493   4.184  13.046 -0.4214  0.3831  0.4867
  312TMC3     C 4694   3.744   3.852  13.109  0.7171 -0.3633  0.4096
  312TMC3     O 4695   3.702   3.740  13.130  0.1890 -0.0424  0.2264
  312TMC3     H 4696   3.488   3.843  13.061  0.6610  0.2023 -0.9031
  312TMC3    H1 4697   3.805   4.105  13.152 -0.2716 -0.2316 -1.8097
  312TMC3    H2 4698   3.432   4.273  13.036 -0.4455  0.2751 -0.3565
  312TMC3    C7 4699   3.666   4.331  13.124  0.0260  0.1137  0.5976
  312TMC3    C8 4700   3.321   4.021  12.970 -0.5233 -0.7670  0.3199
  312TMC3    O1 4701   3.654   4.414  13.033 -0.2327 -0.3434  0.0899
  312TMC3    O2 4702   3.283   3.902  12.955 -0.2339  0.4317 -0.2043
  313MPD2     C 4703   4.199   3.394  10.572 -0.1451  0.2938 -0.2557
  313MPD2    C1 4704   4.118   3.293  10.623  0.3538 -0.1389 -0.1039
  313MPD2    C2 4705   4.066   3.200  10.535 -0.5110 -0.1875  0.2705
  313MPD2    C3 4706   4.084   3.213  10.398 -0.6324 -0.1252 -0.1440
  313MPD2    C4 4707   4.165   3.317  10.355 -0.0752 -0.1761 -0.2757
  313MPD2    C5 4708   4.232   3.397  10.441 -0.0253 -0.6199  1.5520
  313MPD2     H 4709   3.991   3.133  10.576 -0.1771 -0.3625  0.5897
  313MPD2    H1 4710   4.196   3.331  10.252  1.3438 -1.6331 -0.0340
  313MPD2    H2 4711   4.245   3.462  10.643 -0.4577  0.1965  0.0471
  313MPD2    H3 4712   4.314   3.464  10.416 -0.3418 -1.5977 -2.1798
  313MPD2     N 4713   4.015   3.125  10.311  0.1146 -1.3548  0.0182
  313MPD2    H5 4714   3.965   3.051  10.359 -1.0287 -0.1461  0.7028
  313MPD2    N1 4715   4.088   3.281  10.759  0.0504 -0.0810  0.1835
  313MPD2    H7 4716   4.034   3.199  10.786 -1.4909  0.9598  0.2696
  314TMC3    C1 4717   4.061   3.339  10.985  0.0211 -0.0167  0.1950
  314TMC3    C2 4718   4.112   3.417  11.094  0.3172 -0.0463  0.4778
  314TMC3    C3 4719   4.026   3.515  11.137 -0.0556 -0.1165  0.1638
  314TMC3    C4 4720   3.923   3.341  10.951 -0.3397  0.7019 -1.1873
  314TMC3    C5 4721   3.846   3.444  10.995  0.3482  0.1685  0.5156
  314TMC3    C6 4722   3.900   3.535  11.084  0.4097  0.4488  0.2949
  314TMC3     C 4723   4.141   3.355  10.864 -0.8713  0.0510  0.2245
  314TMC3     O 4724   4.226   3.442  10.868  0.0891 -0.2008 -0.5017
  314TMC3     H 4725   4.216   3.413  11.123  0.5587 -0.2146 -0.4092
  314TMC3    H1 4726   3.883   3.266  10.883  1.8522  1.3430 -3.2080
  314TMC3    H2 4727   3.847   3.627  11.104 -0.6211  0.2831 -1.6111
  314TMC3    C7 4728   3.756   3.493  10.896 -0.3630  0.5677 -0.5371
  314TMC3    C8 4729   4.083   3.632  11.194 -0.0751 -0.2464 -0.5607
  314TMC3    O1 4730   3.661   3.557  10.933  0.1476 -0.2656  0.1854
  314TMC3    O2 4731   4.038   3.733  11.142  0.5043 -0.4123 -0.0700
  315MPD2     C 4732   3.149   2.402  17.474 -0.1402 -0.0232 -1.0908
  315MPD2    C1 4733   3.263   2.405  17.557 -0.2322 -0.0871  0.4266
  315MPD2    C2 4734   3.363   2.496  17.543  0.5541 -0.9639 -0.1575
  315MPD2    C3 4735   3.356   2.589  17.441 -0.1995  0.2796 -0.8108
  315MPD2    C4 4736   3.245   2.580  17.350  0.0654  0.0681  0.2385
  315MPD2    C5 4737   3.137   2.495  17.376  0.1751  0.1998 -0.2967
  315MPD2     H 4738   3.437   2.496  17.622 -1.1258  0.7637  1.3994
  315MPD2    H1 4739   3.227   2.660  17.279  1.8126  0.2104 -0.0581
  315MPD2    H2 4740   3.070   2.329  17.484  0.5545 -0.4113  1.5582
  315MPD2    H3 4741   3.049   2.498  17.312 -1.7342 -1.3258  2.2337
  315MPD2     N 4742   3.458   2.684  17.428  0.9114 -0.4012 -0.6178
  315MPD2    H5 4743   3.528   2.689  17.502 -0.3333 -0.2129  0.5506
  315MPD2    N1 4744   3.279   2.312  17.663 -0.1449 -0.0125 -0.5747
  315MPD2    H7 4745   3.365   2.320   0.026 -1.0309 -1.6061  1.0519
  316TMC3    C1 4746   3.587   2.869  17.369  0.5776 -0.7515 -0.2207
  316TMC3    C2 4747   3.678   2.805  17.454 -0.5233 -0.4549  0.1506
  316TMC3    C3 4748   3.774   2.886  17.511 -0.1063  0.3795 -0.0299
  316TMC3    C4 4749   3.572   3.005  17.362  0.2542 -0.0723  0.3655
  316TMC3    C5 4750   3.657   3.078  17.445 -0.0309 -0.1039 -0.8235
  316TMC3    C6 4751   3.756   3.021  17.515  0.1396  0.1935  0.3539
  316TMC3     C 4752   3.472   2.789  17.335  0.4779 -1.0521 -0.5290
  316TMC3     O 4753   3.399   2.831  17.243  0.0078  0.7662  0.2041
  316TMC3     H 4754   3.695   2.699  17.439  1.1524 -0.6425  3.2997
  316TMC3    H1 4755   3.487   3.046  17.309  0.5187 -1.6767 -1.3317
  316TMC3    H2 4756   3.827   3.082  17.569 -0.5421  0.0383  1.4300
  316TMC3    C7 4757   3.635   3.217  17.473  0.0495 -0.3937 -0.0532
  316TMC3    C8 4758   3.849   2.831  17.627  0.6693 -0.0323 -0.5089
  316TMC3    O1 4759   3.683   3.251  17.580 -0.6146  0.0926 -0.1388
  316TMC3    O2 4760   3.891   2.911   0.018  0.4291  0.1834 -0.1447
  317MPD2     C 4761   0.418   0.993  12.483 -0.2665 -0.0194  0.3086
  317MPD2    C1 4762   0.477   0.870  12.464  0.7060  0.5638 -0.3532
  317MPD2    C2 4763   0.517   0.792  12.573  0.0921 -0.5684  0.0507
  317MPD2    C3 4764   0.482   0.834  12.700  0.8822  0.0284 -0.0038
  317MPD2    C4 4765   0.401   0.943  12.713 -0.7126 -0.4068 -0.0608
  317MPD2    C5 4766   0.376   1.020  12.608 -0.6664  0.2080  0.6879
  317MPD2     H 4767   0.576   0.701  12.571 -0.5688 -0.9949 -0.5486
  317MPD2    H1 4768   0.352   0.973  12.805 -0.9553 -1.3580  0.1246
  317MPD2    H2 4769   0.384   1.063  12.407 -0.4714  0.9579  1.2928
  317MPD2    H3 4770   0.305   1.100  12.628 -2.1559 -1.4278  2.0231
  317MPD2     N 4771   0.539   0.766  12.808 -1.0229  0.0694 -0.1859
  317MPD2    H5 4772   0.585   0.676  12.797 -0.7761  0.2718 -0.7923
  317MPD2    N1 4773   0.510   0.816  12.339  0.0116 -0.0801 -0.3448
  317MPD2    H7 4774   0.569   0.734  12.345  0.0735 -0.1760 -2.0288
  318TMC3    C1 4775   0.589   0.721  13.028 -0.1946  0.2382 -0.2849
  318TMC3    C2 4776   0.589   0.589  12.990  0.1191 -0.6707  0.0154
  318TMC3    C3 4777   0.646   0.499  13.077 -0.5527 -0.4404 -0.4850
  318TMC3    C4 4778   0.634   0.764  13.146 -0.2092  0.6796  0.3994
  318TMC3    C5 4779   0.687   0.673  13.236  0.4887  0.3533  0.6774
  318TMC3    C6 4780   0.692   0.534  13.200 -0.0886 -0.5235  0.0533
  318TMC3     C 4781   0.524   0.812  12.938  0.4465 -0.7019  0.3832
  318TMC3     O 4782   0.470   0.910  12.985 -0.1364 -0.6161  0.1239
  318TMC3     H 4783   0.542   0.546  12.903 -4.5344  2.0807  1.2071
  318TMC3    H1 4784   0.636   0.870  13.165 -2.3349  0.3268  2.5556
  318TMC3    H2 4785   0.726   0.453  13.263 -1.3644 -1.6364 -0.6877
  318TMC3    C7 4786   0.785   0.718  13.334 -0.2678  0.1603  0.4706
  318TMC3    C8 4787   0.590   0.366  13.060 -0.6001  0.5873  0.3016
  318TMC3    O1 4788   0.758   0.829  13.379  0.1518 -0.3439 -0.2779
  318TMC3    O2 4789   0.644   0.282  12.990 -0.6825  0.4903  0.8568
  319MPD2     C 4790   1.486   2.309  16.396 -0.4645 -0.3221 -0.6894
  319MPD2    C1 4791   1.377   2.219  16.395 -0.2537 -0.0625  0.0411
  319MPD2    C2 4792   1.382   2.115  16.302 -0.4876 -0.0452  0.4248
  319MPD2    C3 4793   1.491   2.099  16.212 -0.0849  0.6847  0.3831
  319MPD2    C4 4794   1.596   2.183  16.225 -0.0851 -0.0866  0.0771
  319MPD2    C5 4795   1.592   2.284  16.314  0.3353 -0.0293 -0.1489
  319MPD2     H 4796   1.295   2.051  16.297 -0.6705  0.2818 -0.6234
  319MPD2    H1 4797   1.676   2.183  16.151 -0.9613  1.3546 -0.8823
  319MPD2    H2 4798   1.491   2.394  16.463  3.6833 -1.0410 -0.0515
  319MPD2    H3 4799   1.669   2.361  16.311 -1.1036  1.4889  1.7700
  319MPD2     N 4800   1.494   2.003  16.103  0.2604 -0.7311 -0.3491
  319MPD2    H5 4801   1.569   2.020  16.037  2.0325  1.7947  2.3200
  319MPD2    N1 4802   1.266   2.242  16.481 -0.1170 -0.0186  0.5041
  319MPD2    H7 4803   1.197   2.168  16.483  0.9460 -1.0087  0.5499
  320TMC3    C1 4804   1.386   1.867  15.947 -0.0587  0.0165 -0.1184
  320TMC3    C2 4805   1.368   1.973  15.856  0.2543 -0.1764 -0.1624
  320TMC3    C3 4806   1.253   1.974  15.771  0.1056  0.3864  0.6867
  320TMC3    C4 4807   1.303   1.755  15.939 -0.2231 -0.2426  0.4216
  320TMC3    C5 4808   1.201   1.758  15.854  0.2760 -0.1386  0.8206
  320TMC3    C6 4809   1.175   1.861  15.755  0.0737  0.3738  0.1365
  320TMC3     C 4810   1.396   1.909  16.079  0.2460  0.5046 -0.2227
  320TMC3     O 4811   1.320   1.858  16.162  0.1989  0.0353 -0.2374
  320TMC3     H 4812   1.423   2.064  15.875 -0.9180  0.2146  1.3414
  320TMC3    H1 4813   1.333   1.679  16.010 -1.3124 -0.7191  0.3599
  320TMC3    H2 4814   1.088   1.860  15.691  1.9551 -0.2834 -2.4196
  320TMC3    C7 4815   1.074   1.711  15.901  0.7261 -0.0799  0.5359
  320TMC3    C8 4816   1.179   2.103  15.757 -0.4448  0.7262 -0.1739
  320TMC3    O1 4817   0.977   1.709  15.822  0.3560  0.0843  0.5502
  320TMC3    O2 4818   1.241   2.205  15.741  0.1354  0.3785  0.2540
  321TMC3    C1 4819   1.156   2.342  16.670  0.1557 -0.4403 -0.1219
  321TMC3    C2 4820   1.066   2.247  16.675  0.1266  0.1023  0.9063
  321TMC3    C3 4821   0.983   2.247  16.787  0.2877 -0.5394 -0.2600
  321TMC3    C4 4822   1.167   2.446  16.770 -0.9309  0.1057 -0.3312
  321TMC3    C5 4823   1.081   2.441  16.875 -0.1111  0.4369 -0.3186
  321TMC3    C6 4824   0.975   2.355  16.880 -0.0879 -0.5084 -1.4545
  321TMC3     C 4825   1.233   2.363  16.544  0.4555 -0.3715  0.3661
  321TMC3     O 4826   1.282   2.475  16.537 -0.5263  0.4577 -0.5040
  321TMC3     H 4827   1.050   2.178  16.592  2.3777  0.1628  0.4200
  321TMC3    H1 4828   1.242   2.523  16.757 -2.6499  2.2984  2.7738
  321TMC3    H2 4829   0.913   2.345  16.969 -0.2410  1.1053 -1.3795
  321TMC3    C7 4830   1.149   2.441  17.001  0.4272 -0.6206  0.0694
  321TMC3    C8 4831   1.001   2.125  16.860 -0.2473 -0.3689 -0.4915
  321TMC3    O1 4832   1.265   2.402  16.994  0.1913  0.2604 -0.3481
  321TMC3    O2 4833   0.963   2.123  16.978  0.5685 -0.1303  0.3322
  322MPD2     C 4834   0.576   3.546  13.470 -0.5995  0.1380  0.1521
  322MPD2    C1 4835   0.562   3.464  13.579 -0.0193  0.1657 -0.3835
  322MPD2    C2 4836   0.543   3.334  13.558 -0.0035  0.7294 -0.0078
  322MPD2    C3 4837   0.530   3.282  13.430 -0.1078 -0.8631  0.0926
  322MPD2    C4 4838   0.542   3.370  13.321 -0.2116  0.3819 -0.3018
  322MPD2    C5 4839   0.570   3.497  13.341  0.4054  0.6407  0.4598
  322MPD2     H 4840   0.542   3.273  13.647  4.1068 -1.1024 -1.2157
  322MPD2    H1 4841   0.525   3.342  13.218  1.4437  1.3833 -0.8404
  322MPD2    H2 4842   0.613   3.648  13.478 -0.3347 -0.0809  1.6891
  322MPD2    H3 4843   0.602   3.551  13.252  2.0137  2.5396  2.1713
  322MPD2     N 4844   0.502   3.150  13.423  0.1121  0.7247  0.3197
  322MPD2    H5 4845   0.508   3.101  13.512  2.8176  0.6137  0.0607
  322MPD2    N1 4846   0.576   3.518  13.713  0.0482 -0.2246 -0.6363
  322MPD2    H7 4847   0.597   3.617  13.716 -1.3295  0.0384  0.6640
  323TMC3    C1 4848   0.572   3.520  13.956  0.0636 -0.2777 -0.3306
  323TMC3    C2 4849   0.640   3.635  13.950 -0.2837  0.4087 -0.1623
  323TMC3    C3 4850   0.677   3.699  14.070 -0.2852  0.5715 -1.0483
  323TMC3    C4 4851   0.529   3.466  14.077 -0.2491  0.7872 -0.3059
  323TMC3    C5 4852   0.561   3.535  14.195 -0.1236  0.5606 -0.8072
  323TMC3    C6 4853   0.635   3.647  14.191 -0.1557  0.6463 -0.2103
  323TMC3     C 4854   0.547   3.449  13.832  0.3123 -0.4383  0.2051
  323TMC3     O 4855   0.509   3.335  13.849 -0.4890  0.4750 -0.0012
  323TMC3     H 4856   0.709   3.654  13.869  2.1748 -0.3624  1.7510
  323TMC3    H1 4857   0.467   3.378  14.085  0.9962 -0.2375 -1.9524
  323TMC3    H2 4858   0.664   3.687  14.287 -0.8944 -1.7920  1.0354
  323TMC3    C7 4859   0.582   3.444  14.303 -0.5192  0.0941  0.7289
  323TMC3    C8 4860   0.811   3.767  14.084  0.0312  0.3578 -0.6441
  323TMC3    O1 4861   0.546   3.326  14.292  0.1277  0.0558 -0.2115
  323TMC3    O2 4862   0.891   3.732  14.168  0.5295  0.3127  0.2299
  324MPD2     C 4863   1.983   4.537  13.868 -0.2794  0.3294 -0.7027
  324MPD2    C1 4864   1.898   4.555  13.977  0.2064 -0.4830 -0.2770
  324MPD2    C2 4865   1.762   4.569  13.961 -0.6634 -0.2135 -0.2863
  324MPD2    C3 4866   1.712   4.551  13.835  0.0493 -0.2633  0.5124
  324MPD2    C4 4867   1.791   4.516  13.730  0.2511 -0.0239  1.0320
  324MPD2    C5 4868   1.926   4.512  13.740  0.2826 -1.2047  0.3535
  324MPD2     H 4869   1.691   4.603  14.036 -2.6124 -3.4236 -0.7082
  324MPD2    H1 4870   1.748   4.492  13.634 -0.0979  3.0155  0.4233
  324MPD2    H2 4871   2.091   4.533  13.876 -0.4306 -0.9049  0.6532
  324MPD2    H3 4872   1.982   4.480  13.653 -0.1923 -2.2416  0.4284
  324MPD2     N 4873   1.570   4.553  13.802 -0.4206  0.0150 -0.2820
  324MPD2    H5 4874   1.542   4.523  13.709  0.6934  0.0577 -0.6273
  324MPD2    N1 4875   1.937   4.569  14.108 -0.0201 -0.4643 -0.4387
  324MPD2    H7 4876   1.860   4.585  14.172  1.0990  0.9727  0.5400
  325TMC3    C1 4877   1.346   4.597  13.828 -0.3735 -0.1754  0.6567
  325TMC3    C2 4878   1.306   4.483  13.766 -0.1050 -0.3371  0.1533
  325TMC3    C3 4879   1.193   4.486  13.687 -0.3900  0.7092  0.5011
  325TMC3    C4 4880   1.280   4.719  13.809 -0.0837  0.6093  0.4348
  325TMC3    C5 4881   1.172   4.716  13.728 -0.4318  0.3295  0.8179
  325TMC3    C6 4882   1.129   4.605  13.657 -0.3106  0.4228  0.3088
  325TMC3     C 4883   1.476   4.612  13.882 -0.1919  0.2853  0.3227
  325TMC3     O 4884   1.491   4.700  13.962 -0.2529  0.4772  0.5043
  325TMC3     H 4885   1.366   4.394  13.782 -0.4200 -0.2629  1.7228
  325TMC3    H1 4886   1.314   0.084  13.862 -0.6480  2.7260 -2.6551
  325TMC3    H2 4887   1.035   4.610  13.603  0.9992  1.6846 -1.8731
  325TMC3    C7 4888   1.110   0.115  13.690 -0.3322 -0.0397  0.4934
  325TMC3    C8 4889   1.170   4.382  13.594  0.5150  0.5162 -0.1284
  325TMC3    O1 4890   1.060   0.138  13.583  0.0003  0.4700  0.0303
  325TMC3    O2 4891   1.266   4.313  13.570  0.0569 -0.2975  0.3209
  326MPD2     C 4892   3.290   0.922  11.178 -0.1687 -0.3768 -0.3506
  326MPD2    C1 4893   3.346   0.934  11.051  0.3614 -0.6072 -0.2293
  326MPD2    C2 4894   3.458   1.013  11.032  0.0094 -0.2984 -1.0147
  326MPD2    C3 4895   3.493   1.102  11.130 -0.6433  0.1030  0.2742
  326MPD2    C4 4896   3.424   1.099  11.242  0.9698  0.3573 -0.5128
  326MPD2    C5 4897   3.322   1.012  11.277 -0.2251  0.1434  0.2017
  326MPD2     H 4898   3.520   0.994  10.945  0.5669 -0.8891 -0.4834
  326MPD2    H1 4899   3.452   1.169  11.320  1.8513  0.1150 -0.6133
  326MPD2    H2 4900   3.208   0.853  11.190  1.0373 -1.6482  0.5703
  326MPD2    H3 4901   3.285   1.011  11.378 -0.2066  0.1876  0.2093
  326MPD2     N 4902   3.613   1.177  11.127  0.5619  0.7684  0.0395
  326MPD2    H5 4903   3.646   1.197  11.221 -2.0066  2.7064  0.5496
  326MPD2    N1 4904   3.302   0.844  10.947 -0.3648 -1.0579  0.3293
  326MPD2    H7 4905   3.209   0.806  10.957 -1.3225  1.3010  0.3427
  327TMC3    C1 4906   3.311   0.729  10.739  0.1569 -0.1655 -0.4569
  327TMC3    C2 4907   3.189   0.773  10.707  0.1886  0.5948  0.3654
  327TMC3    C3 4908   3.157   0.809  10.577 -0.7863  0.0423  0.6159
  327TMC3    C4 4909   3.401   0.710  10.638  0.1710  0.1647 -0.8205
  327TMC3    C5 4910   3.374   0.752  10.510 -0.0140 -0.2499  0.5127
  327TMC3    C6 4911   3.253   0.806  10.483 -0.1120 -0.9704 -0.4555
  327TMC3     C 4912   3.384   0.794  10.847 -0.0772  0.1505 -0.3906
  327TMC3     O 4913   3.505   0.785  10.847  0.7149  0.1053 -0.0414
  327TMC3     H 4914   3.126   0.811  10.786 -0.4874  0.4066 -0.0804
  327TMC3    H1 4915   3.493   0.654  10.655  0.1578  0.2200 -0.5686
  327TMC3    H2 4916   3.237   0.855  10.387  0.6915  1.3546  0.5911
  327TMC3    C7 4917   3.480   0.834  10.457  0.6966 -0.0659  0.0582
  327TMC3    C8 4918   3.073   0.930  10.562 -0.8530 -0.8030 -0.1533
  327TMC3    O1 4919   3.466   0.869  10.342 -0.6630 -0.3292  0.8147
  327TMC3    O2 4920   3.107   1.018  10.482  0.2421 -0.4721  0.2657
  328MPD2     C 4921   0.699   0.367  17.491  0.6066 -0.4066  0.0477
  328MPD2    C1 4922   0.684   0.317  17.364  0.7788  0.0634 -0.2034
  328MPD2    C2 4923   0.722   0.390  17.253 -0.0766 -0.4630  0.5617
  328MPD2    C3 4924   0.763   0.516  17.274 -0.5311 -0.0321 -0.9497
  328MPD2    C4 4925   0.795   0.559  17.398 -0.3752 -0.4394 -0.2902
  328MPD2    C5 4926   0.765   0.484  17.509  0.1555  0.7694  0.7475
  328MPD2     H 4927   0.714   0.357  17.150  0.8138  0.1374  0.2964
  328MPD2    H1 4928   0.813   0.665  17.414  1.1485 -0.5911 -1.0265
  328MPD2    H2 4929   0.667   0.314  17.579  1.3563 -2.7077 -1.0694
  328MPD2    H3 4930   0.771   0.525  17.610 -0.5308 -1.2619  1.6137
  328MPD2     N 4931   0.794   0.608  17.166 -0.6399  0.1615 -0.2974
  328MPD2    H5 4932   0.838   0.696  17.190  0.1949  0.1771 -1.9126
  328MPD2    N1 4933   0.613   0.192  17.359 -0.0385 -0.1670 -0.0589
  328MPD2    H7 4934   0.549   0.173  17.436 -0.9960  1.4090 -0.4765
  329TMC3    C1 4935   0.497   0.020  17.264  0.5554  0.4581  0.4247
  329TMC3    C2 4936   0.416   4.722  17.152 -0.0431  0.2215 -0.1249
  329TMC3    C3 4937   0.291   4.683  17.185  0.8717  0.1972  0.0046
  329TMC3    C4 4938   0.462   4.695  17.389 -0.4955 -0.6580  0.1599
  329TMC3    C5 4939   0.344   4.639  17.407  0.0763 -0.1250 -0.4876
  329TMC3    C6 4940   0.256   4.634  17.310  0.1347 -0.6255 -0.3569
  329TMC3     C 4941   0.602   0.116  17.252 -0.2126  0.2633  1.0177
  329TMC3     O 4942   0.649   0.134  17.139  0.8488 -0.3914  0.4770
  329TMC3     H 4943   0.440   0.058  17.064  0.5734  0.0333 -0.0794
  329TMC3    H1 4944   0.527   4.713  17.473 -0.7670 -0.3160  0.2992
  329TMC3    H2 4945   0.157   4.598  17.337  1.2184 -3.5524 -0.3993
  329TMC3    C7 4946   0.306   4.591  17.535  1.2017  0.8406  0.1664
  329TMC3    C8 4947   0.196   0.018  17.096 -1.2325 -0.5249  0.3759
  329TMC3    O1 4948   0.187   4.581  17.559  0.2452 -0.3335  0.0132
  329TMC3    O2 4949   0.211   0.025  16.976 -0.1838  0.2589  0.3153
  330TMC3    C1 4950   4.384   0.530   9.950  0.2844 -0.4207 -0.9542
  330TMC3    C2 4951   4.354   0.448   9.849 -0.3552 -0.1082  0.4684
  330TMC3    C3 4952   4.314   0.325   9.883 -0.6183 -0.0308  0.5427
  330TMC3    C4 4953   4.397   0.488  10.077  0.4770 -0.6603  0.0449
  330TMC3    C5 4954   4.376   0.360  10.101 -0.2495  0.2410 -0.3395
  330TMC3    C6 4955   4.329   0.280  10.005 -0.2620  0.2079 -0.5541
  330TMC3     C 4956   4.345   0.674   9.944 -0.0480 -0.0551 -0.2857
  330TMC3     O 4957   4.393   0.747  10.026  0.0791  0.8296  0.5928
  330TMC3     H 4958   4.351   0.475   9.744 -0.2421  1.2406  0.8121
  330TMC3    H1 4959   4.421   0.563  10.151 -0.2403 -0.1171 -0.2709
  330TMC3    H2 4960   4.295   0.180  10.030  0.2504 -0.2349 -1.5885
  330TMC3    C7 4961   4.382   0.318  10.239 -0.4996 -0.5028 -0.5669
  330TMC3    C8 4962   4.243   0.249   9.777 -0.0235 -0.8520  0.6605
  330TMC3    O1 4963   4.371   0.416  10.312  0.1614  0.1131  0.4074
  330TMC3    O2 4964   4.198   0.319   9.685  0.5751  0.7385  0.7114
  331MPD2     C 4965   1.261   4.020  12.327  0.0485 -0.1153 -0.7872
  331MPD2    C1 4966   1.394   4.036  12.352  0.1182  0.8874 -0.5862
  331MPD2    C2 4967   1.475   3.932  12.309  0.0192 -0.0005 -0.3752
  331MPD2    C3 4968   1.430   3.833  12.224  0.6988 -0.5532 -0.3902
  331MPD2    C4 4969   1.295   3.822  12.198 -0.6646 -0.7864 -0.5761
  331MPD2    C5 4970   1.209   3.908  12.266 -0.0652 -0.2428  0.7442
  331MPD2     H 4971   1.583   3.944  12.317  0.0478 -0.0989 -0.6152
  331MPD2    H1 4972   1.254   3.745  12.133  0.9104  0.5189 -3.1528
  331MPD2    H2 4973   1.198   4.106  12.351 -0.5859 -0.6080 -0.6765
  331MPD2    H3 4974   1.101   3.900  12.256 -0.1853  1.5484  0.5591
  331MPD2     N 4975   1.526   3.745  12.168  0.0396 -0.2679  0.4053
  331MPD2    H5 4976   1.611   3.727  12.221 -0.6150 -0.9825  1.2020
  331MPD2    N1 4977   1.435   4.149  12.415 -0.4013  0.1804 -0.6138
  331MPD2    H7 4978   1.366   4.223  12.420  1.1029  1.5009  0.5796
  332TMC3    C1 4979   1.639   3.623  12.007  0.6416  0.3325 -0.9569
  332TMC3    C2 4980   1.706   3.671  11.900  0.4742  0.2811 -0.3915
  332TMC3    C3 4981   1.840   3.639  11.894  0.1127  0.0834  0.7031
  332TMC3    C4 4982   1.699   3.552  12.103  0.1551  0.5709  0.2554
  332TMC3    C5 4983   1.831   3.523  12.101 -0.6666 -0.9004  0.0366
  332TMC3    C6 4984   1.906   3.570  11.992 -0.1412 -0.2065 -0.5268
  332TMC3     C 4985   1.511   3.686  12.042  0.5288 -0.4554  0.0641
  332TMC3     O 4986   1.434   3.719  11.956 -0.3463  0.0690  0.0841
  332TMC3     H 4987   1.664   3.743  11.831  1.0969  0.5573 -0.4836
  332TMC3    H1 4988   1.639   3.500  12.177  1.3434 -0.4849  0.4873
  332TMC3    H2 4989   2.014   3.563  11.997 -0.0878  0.3800 -0.8316
  332TMC3    C7 4990   1.894   3.447  12.205  0.2018  0.8108  0.6331
  332TMC3    C8 4991   1.918   3.744  11.835  1.0180 -0.8472  0.2542
  332TMC3    O1 4992   1.828   3.361  12.262 -0.3729  0.0953  0.2304
  332TMC3    O2 4993   2.017   3.777  11.898  0.0362  0.3276  0.5529
  333MPD2     C 4994   1.881   3.853  11.127  0.2703  0.4108  0.0568
  333MPD2    C1 4995   1.993   3.779  11.123 -0.2028  0.0081  0.3810
  333MPD2    C2 4996   2.007   3.670  11.214  0.3624 -0.6390 -0.3827
  333MPD2    C3 4997   1.904   3.636  11.303 -0.0107  0.3982  0.8076
  333MPD2    C4 4998   1.793   3.709  11.291 -0.2701  1.2227  0.1517
  333MPD2    C5 4999   1.781   3.820  11.221 -0.2564  0.3192  0.1078
  333MPD2     H 5000   2.100   3.615  11.204  1.4173  1.2146 -0.8036
  333MPD2    H1 5001   1.710   3.680  11.354 -0.5307 -1.4060 -1.4048
  333MPD2    H2 5002   1.863   3.931  11.055  0.1147  0.0974 -0.2440
  333MPD2    H3 5003   1.689   3.878  11.220 -0.5972 -0.2069  0.3917
  333MPD2     N 5004   1.920   3.523  11.396  0.7632  0.3066  0.4045
  333MPD2    H5 5005   1.993   3.453  11.394 -1.3491 -1.8794  0.4353
  333MPD2    N1 5006   2.089   3.821  11.021 -0.3638  0.0096  0.0270
  333MPD2    H7 5007   2.052   3.895  10.962  2.3957  0.4360 -1.1567
  334TMC3    C1 5008   2.276   3.824  10.894  0.5482 -0.4684 -0.2683
  334TMC3    C2 5009   2.379   3.756  10.840  0.6264  0.1352 -0.4095
  334TMC3    C3 5010   2.461   3.820  10.754 -1.0575  0.7545  0.5559
  334TMC3    C4 5011   2.263   3.962  10.874  0.0257  0.2887  0.4170
  334TMC3    C5 5012   2.351   4.022  10.777 -1.0370 -0.6107  0.2420
  334TMC3    C6 5013   2.450   3.954  10.717  0.2855  0.1687 -0.4560
  334TMC3     C 5014   2.212   3.761  11.002 -0.7966  0.0188  0.4428
  334TMC3     O 5015   2.259   3.665  11.064  0.4249 -0.3037 -0.4299
  334TMC3     H 5016   2.416   3.661  10.876 -1.5022 -0.7076 -0.4998
  334TMC3    H1 5017   2.192   4.029  10.920 -0.9403 -0.6103  0.2214
  334TMC3    H2 5018   2.513   3.993  10.638  1.4550 -1.2713 -0.2327
  334TMC3    C7 5019   2.363   4.165  10.753  0.5249 -0.2039 -0.3800
  334TMC3    C8 5020   2.587   3.753  10.724 -0.2541  0.2312 -0.0930
  334TMC3    O1 5021   2.440   4.206  10.673 -0.1544 -0.3101 -0.9321
  334TMC3    O2 5022   2.573   3.635  10.701  0.0054 -0.1411 -0.5169
  335TMC3    C1 5023   1.516   0.982  17.459 -0.2376  0.0273  1.1243
  335TMC3    C2 5024   1.439   0.904  17.370  0.0447 -0.4877 -0.5899
  335TMC3    C3 5025   1.459   0.928  17.234  0.1887 -0.6766 -0.1845
  335TMC3    C4 5026   1.590   1.087  17.415 -0.0671 -0.0258 -0.2466
  335TMC3    C5 5027   1.601   1.107  17.280 -0.0951  0.4687 -0.9698
  335TMC3    C6 5028   1.548   1.021  17.187  0.0399 -0.4465  0.7009
  335TMC3     C 5029   1.481   0.976  17.599  0.4549 -0.9176 -0.7793
  335TMC3     O 5030   1.411   0.880  17.637  0.7081  0.6679 -0.1798
  335TMC3     H 5031   1.361   0.835  17.400 -1.5380  1.4920 -0.1398
  335TMC3    H1 5032   1.627   1.154  17.491 -1.4779 -0.2265  0.6142
  335TMC3    H2 5033   1.558   1.038  17.081 -0.0582  0.6984  0.8785
  335TMC3    C7 5034   1.731   1.157  17.241 -0.6731 -0.4919 -0.3803
  335TMC3    C8 5035   1.384   0.852  17.135  0.1781  0.0466 -0.1637
  335TMC3    O1 5036   1.784   1.106  17.142 -1.0729 -0.7062 -0.5542
  335TMC3    O2 5037   1.367   0.911  17.027  0.0241  0.6318 -0.2798
  336MPD2     C 5038   1.167   3.069  16.478  0.5583 -0.4326  0.1048
  336MPD2    C1 5039   1.202   3.056  16.345  0.3523  0.9757 -0.1374
  336MPD2    C2 5040   1.242   2.940  16.296 -0.3685  0.2399 -0.4239
  336MPD2    C3 5041   1.252   2.830  16.380 -0.0026  0.0562 -0.9170
  336MPD2    C4 5042   1.219   2.843  16.517  0.2325  0.1436 -0.1752
  336MPD2    C5 5043   1.170   2.964  16.563  0.9057 -0.0617  0.0875
  336MPD2     H 5044   1.265   2.933  16.190 -2.5306 -2.0852 -0.7340
  336MPD2    H1 5045   1.227   2.760  16.586 -0.4820 -1.1281 -1.6228
  336MPD2    H2 5046   1.132   3.165  16.515  0.3189 -1.2448  1.9885
  336MPD2    H3 5047   1.154   2.998  16.665  0.6241  1.1348 -0.3509
  336MPD2     N 5048   1.293   2.704  16.339  0.4087  0.3359  0.1244
  336MPD2    H5 5049   1.296   2.625  16.402  0.7450  1.6124  1.7166
  336MPD2    N1 5050   1.198   3.170  16.256 -0.9093  0.1941  0.4234
  336MPD2    H7 5051   1.232   3.157  16.161  1.0360 -0.0392  1.1588
  337TMC3    C1 5052   1.114   3.378  16.174 -0.5254 -0.3114 -0.1769
  337TMC3    C2 5053   1.035   3.318  16.074 -0.3069  0.5231 -0.8374
  337TMC3    C3 5054   0.953   3.403  16.004  0.7705  0.1696 -0.1814
  337TMC3    C4 5055   1.112   3.513  16.194  0.3304  0.8226 -0.4626
  337TMC3    C5 5056   1.037   3.594  16.120  0.2499 -0.5860  0.7654
  337TMC3    C6 5057   0.961   3.542  16.022  0.4931  0.1343  0.4271
  337TMC3     C 5058   1.152   3.293  16.290 -0.4537 -0.6350 -0.5089
  337TMC3     O 5059   1.150   3.345  16.398 -0.0732  0.2161  0.6206
  337TMC3     H 5060   1.022   3.211  16.065  0.8709  0.3575 -0.5006
  337TMC3    H1 5061   1.186   3.552  16.263  0.5270 -0.9074  0.3152
  337TMC3    H2 5062   0.893   3.611  15.973 -0.1047 -0.3131  0.6252
  337TMC3    C7 5063   1.021   3.731  16.160 -0.2635  1.0766  0.1502
  337TMC3    C8 5064   0.828   3.356  15.974  0.3887 -0.1748 -0.0354
  337TMC3    O1 5065   0.984   3.805  16.068  0.0772  0.1293 -0.1796
  337TMC3    O2 5066   0.785   3.269  16.046 -1.0671 -0.2906 -0.6442
  338MPD2     C 5067   1.483   2.820   1.284 -0.1109  0.0628 -0.5707
  338MPD2    C1 5068   1.403   2.817   1.171 -0.3523 -0.6692  0.2586
  338MPD2    C2 5069   1.286   2.889   1.165 -0.1782  0.0409  0.0258
  338MPD2    C3 5070   1.242   2.960   1.275  1.0460  0.3965 -0.1149
  338MPD2    C4 5071   1.324   2.966   1.389 -0.2514 -0.4731  0.3227
  338MPD2    C5 5072   1.439   2.891   1.393  0.0095 -0.3080 -0.0057
  338MPD2     H 5073   1.236   2.898   1.070  1.0006 -0.2799 -0.6189
  338MPD2    H1 5074   1.302   3.026   1.477  1.2240  0.0086  0.3628
  338MPD2    H2 5075   1.574   2.762   1.291 -1.4058 -1.8810 -0.0132
  338MPD2    H3 5076   1.507   2.893   1.477 -0.7202  1.1253  0.5461
  338MPD2     N 5077   1.128   3.036   1.260 -0.1362  0.5966 -0.1742
  338MPD2    H5 5078   1.098   3.039   1.163  0.0583  1.0842 -0.2159
  338MPD2    N1 5079   1.438   2.764   1.042 -0.3805 -0.5584 -0.3657
  338MPD2    H7 5080   1.393   2.807   0.962  1.4216  2.0805  0.0601
  339TMC3    C1 5081   0.979   3.220   1.293 -0.2974 -0.6312 -0.0831
  339TMC3    C2 5082   0.889   3.287   1.379  0.0049  0.3752 -0.5196
  339TMC3    C3 5083   0.834   3.409   1.347 -0.0112  0.4400  0.6482
  339TMC3    C4 5084   1.031   3.294   1.194  0.2247 -0.5129  0.0619
  339TMC3    C5 5085   0.989   3.426   1.180  0.4783 -0.2356  0.9528
  339TMC3    C6 5086   0.888   3.482   1.247  0.3396  0.4330 -0.1808
  339TMC3     C 5087   1.066   3.117   1.351  0.0429  0.7228  0.1468
  339TMC3     O 5088   1.074   3.108   1.471  0.1782  0.2803  0.4987
  339TMC3     H 5089   0.847   3.225   1.458  1.0422  1.8387  1.1779
  339TMC3    H1 5090   1.094   3.245   1.121 -1.1200 -0.4924 -1.1201
  339TMC3    H2 5091   0.841   3.580   1.240 -0.7878 -0.0426  0.7781
  339TMC3    C7 5092   0.995   3.475   1.048  0.0604 -0.2760  0.3478
  339TMC3    C8 5093   0.719   3.464   1.420 -0.2615 -0.4603  0.6716
  339TMC3    O1 5094   1.032   3.405   0.953  0.9968 -0.2358 -0.3491
  339TMC3    O2 5095   0.715   3.583   1.442 -0.0715  0.1823 -0.0077
  340MPD2     C 5096   1.881   0.565  10.366 -0.1894  0.2592  0.0508
  340MPD2    C1 5097   1.980   0.515  10.291 -0.1418  0.2970  0.7996
  340MPD2    C2 5098   2.106   0.550  10.328  0.3974  0.3979  0.2014
  340MPD2    C3 5099   2.132   0.649  10.425  0.3613  0.1185  0.4111
  340MPD2    C4 5100   2.025   0.708  10.485 -0.2009 -0.7711  0.4378
  340MPD2    C5 5101   1.896   0.663  10.456 -0.8248  0.1251 -0.3838
  340MPD2     H 5102   2.184   0.520  10.258  0.3610 -1.3719  0.9225
  340MPD2    H1 5103   2.043   0.783  10.561 -0.1762  1.3683 -1.6949
  340MPD2    H2 5104   1.777   0.542  10.343  0.0936 -2.0860  1.0620
  340MPD2    H3 5105   1.811   0.705  10.509 -0.6456 -0.9843  0.7900
  340MPD2     N 5106   2.257   0.703  10.444  0.1061 -0.1429  0.0128
  340MPD2    H5 5107   2.262   0.774  10.516  0.5283 -1.4073  1.2292
  340MPD2    N1 5108   1.954   0.410  10.199 -0.2462  0.2089 -0.3601
  340MPD2    H7 5109   1.856   0.385  10.201 -0.2067  0.2782  1.7548
  341TMC3    C1 5110   1.977   0.260  10.025  0.0286 -0.0777  0.3638
  341TMC3    C2 5111   1.876   0.178  10.074  0.0783  0.8459 -0.0578
  341TMC3    C3 5112   1.833   0.079   9.988  0.1282 -0.5344 -0.1621
  341TMC3    C4 5113   2.034   0.248   9.905  0.4750  0.2646  0.5241
  341TMC3    C5 5114   1.979   0.159   9.819  1.1695  0.0381  0.2189
  341TMC3    C6 5115   1.884   0.070   9.861  0.3532 -0.9775 -0.0177
  341TMC3     C 5116   2.037   0.364  10.105  0.2368  0.5442  0.8727
  341TMC3     O 5117   2.147   0.402  10.075  0.1309 -0.3753 -0.3926
  341TMC3     H 5118   1.848   0.183  10.178  0.3395 -1.1974  0.1159
  341TMC3    H1 5119   2.105   0.320   9.866 -0.1140  0.6376  0.1435
  341TMC3    H2 5120   1.851   4.706   9.805 -0.5593 -0.5552 -0.1265
  341TMC3    C7 5121   2.034   0.155   9.687 -0.3290 -0.3480 -0.2266
  341TMC3    C8 5122   1.726   4.708  10.022  0.0890 -0.1747 -0.7637
  341TMC3    O1 5123   2.151   0.187   9.676 -0.5297  0.3449  0.6349
  341TMC3    O2 5124   1.706   4.612   9.951  0.8052 -0.2448  0.2406
  342MPD2     C 5125   4.264   3.551  17.143 -0.8364  0.2826 -0.5253
  342MPD2    C1 5126   4.239   3.485  17.259  0.7221 -0.1261 -0.3321
  342MPD2    C2 5127   4.227   3.553  17.378  0.3380  0.1234  0.0705
  342MPD2    C3 5128   4.258   3.690  17.380 -0.2768  0.8085 -0.7311
  342MPD2    C4 5129   4.273   3.759  17.260 -0.4103  0.9924 -0.1103
  342MPD2    C5 5130   4.275   3.687  17.140 -0.2899  0.1213 -0.2434
  342MPD2     H 5131   4.211   3.502  17.472 -1.3165 -0.6759 -0.6403
  342MPD2    H1 5132   4.282   3.867  17.258  1.2446  0.8501 -0.4717
  342MPD2    H2 5133   4.268   3.501  17.046  0.7439 -1.4253  0.4198
  342MPD2    H3 5134   4.296   3.730  17.043 -1.2891  0.8749 -0.1209
  342MPD2     N 5135   4.288   3.763  17.498 -0.8363 -0.1673  0.1145
  342MPD2    H5 5136   4.319   3.858  17.481 -1.6280  0.3012  1.2429
  342MPD2    N1 5137   4.258   3.345  17.251 -0.1241  0.1791  0.0335
  342MPD2    H7 5138   4.293   3.317  17.160 -2.1413 -0.0266 -0.6769
  343TMC3    C1 5139   4.283   3.118  17.316  0.0666  0.0917 -0.2273
  343TMC3    C2 5140   4.395   3.100  17.235 -0.2454 -0.4844 -0.6066
  343TMC3    C3 5141   4.434   2.974  17.201 -0.3228  0.5218  0.2466
  343TMC3    C4 5142   4.193   3.015  17.338  0.4954  0.2005 -0.5369
  343TMC3    C5 5143   4.233   2.894  17.292  0.2505  0.5448  0.4829
  343TMC3    C6 5144   4.354   2.873  17.234 -0.3127  0.8982 -0.1352
  343TMC3     C 5145   4.237   3.256  17.351 -0.3294  0.1154 -0.5992
  343TMC3     O 5146   4.174   3.264  17.456  0.4697 -0.3789 -0.3083
  343TMC3     H 5147   4.468   3.178  17.216 -1.2417  1.0999  2.0624
  343TMC3    H1 5148   4.107   3.024  17.403  1.3786  2.6330  0.3039
  343TMC3    H2 5149   4.380   2.771  17.208  2.6243  1.7696 -0.6062
  343TMC3    C7 5150   4.143   2.782  17.321 -0.7449 -0.3192  0.4603
  343TMC3    C8 5151   4.571   2.965  17.154 -0.0886 -0.3046  1.1837
  343TMC3    O1 5152   4.022   2.805  17.310  0.6261  0.1904 -0.4427
  343TMC3    O2 5153   4.651   3.047  17.191 -0.8032 -0.2928 -0.2501
  344MPD2     C 5154   0.488   2.954  10.489  0.9289  0.3125 -1.0427
  344MPD2    C1 5155   0.465   2.996  10.621 -0.3010  0.1834  0.0130
  344MPD2    C2 5156   0.544   3.095  10.672 -0.3121  0.4602  0.0831
  344MPD2    C3 5157   0.639   3.159  10.592  0.0807  0.2882  0.1229
  344MPD2    C4 5158   0.668   3.107  10.466  0.9387 -1.3184  0.2879
  344MPD2    C5 5159   0.592   3.001  10.422  0.1990 -0.0768  0.2159
  344MPD2     H 5160   0.516   3.137  10.768  0.1863  3.2524 -0.9998
  344MPD2    H1 5161   0.745   3.139  10.396  1.0596  0.5236  1.2545
  344MPD2    H2 5162   0.428   2.877  10.441 -0.3482  0.4641  0.2902
  344MPD2    H3 5163   0.603   2.952  10.326  1.7606  0.8380 -0.0763
  344MPD2     N 5164   0.719   3.268  10.635 -0.7853  0.0377  0.0674
  344MPD2    H5 5165   0.762   3.320  10.559  0.7120 -1.0972  0.1377
  344MPD2    N1 5166   0.369   2.931  10.706 -0.1887  0.5057  0.0212
  344MPD2    H7 5167   0.365   2.956  10.804  1.1849 -0.6235  0.3693
  345TMC3    C1 5168   0.765   3.460  10.754  0.3869 -0.2438 -0.6421
  345TMC3    C2 5169   0.823   3.499  10.871 -0.5463  0.1689  0.2447
  345TMC3    C3 5170   0.912   3.600  10.870 -0.1937  1.0326 -0.3887
  345TMC3    C4 5171   0.792   3.528  10.639  0.1969  0.0343 -0.0008
  345TMC3    C5 5172   0.876   3.640  10.639  0.4456 -0.1633  0.5308
  345TMC3    C6 5173   0.936   3.676  10.761  0.0973 -0.0589  0.2096
  345TMC3     C 5174   0.712   3.325  10.759 -0.1505 -0.5764 -0.6184
  345TMC3     O 5175   0.688   3.271  10.870 -0.4223  0.4257 -0.2065
  345TMC3     H 5176   0.826   3.427  10.952 -1.0983  0.9120  0.9363
  345TMC3    H1 5177   0.732   3.508  10.551 -0.9188  1.2908  0.4806
  345TMC3    H2 5178   1.006   3.759  10.758  0.4077 -0.3864 -1.5596
  345TMC3    C7 5179   0.902   3.726  10.523  0.1289 -0.0495 -0.6978
  345TMC3    C8 5180   0.995   3.646  10.989 -0.2840  0.2434  0.5039
  345TMC3    O1 5181   0.983   3.815  10.533 -0.2644  0.0313  0.2390
  345TMC3    O2 5182   1.085   3.722  10.953 -0.0876  0.0978 -0.3662
  346MPD2     C 5183   4.611   0.319  13.760 -0.2905  0.3612 -0.1696
  346MPD2    C1 5184   4.717   0.233  13.751  0.9303  0.1176 -0.5465
  346MPD2    C2 5185   0.101   0.237  13.835 -0.6375  0.1452 -0.1176
  346MPD2    C3 5186   0.113   0.346  13.922 -0.7696 -0.0674  0.0408
  346MPD2    C4 5187   0.017   0.441  13.920 -0.0656 -0.2229  0.5820
  346MPD2    C5 5188   4.622   0.425  13.850 -1.2069  0.0804 -0.0707
  346MPD2     H 5189   0.173   0.155  13.838 -1.0169 -0.2434 -1.3901
  346MPD2    H1 5190   0.022   0.526  13.987 -3.9896  0.7090 -0.2973
  346MPD2    H2 5191   4.532   0.310  13.686 -1.1871 -0.7573  0.9303
  346MPD2    H3 5192   4.532   0.485  13.859 -0.0905  1.4364  1.8802
  346MPD2     N 5193   0.220   0.348  14.009  0.4798 -0.8695  0.1949
  346MPD2    H5 5194   0.292   0.278  13.990  0.8683 -0.6567  0.8564
  346MPD2    N1 5195   4.704   0.141  13.644  0.0596 -0.4719 -0.1124
  346MPD2    H7 5196   4.608   0.136  13.610  0.4785 -0.4784 -1.2925
  347TMC3    C1 5197   0.360   0.408  14.193  0.1712  0.1051 -0.3219
  347TMC3    C2 5198   0.479   0.413  14.131 -0.7621 -0.3698 -0.9353
  347TMC3    C3 5199   0.587   0.386  14.209 -0.3269 -0.3443 -0.6857
  347TMC3    C4 5200   0.349   0.404  14.332  0.1009 -0.0608 -0.4593
  347TMC3    C5 5201   0.459   0.393  14.409 -0.6272  0.0857  0.1128
  347TMC3    C6 5202   0.581   0.383  14.346  0.2491  0.5383 -0.7153
  347TMC3     C 5203   0.234   0.435  14.122 -0.5719 -0.3561 -0.2121
  347TMC3     O 5204   0.159   0.508  14.184  0.2991  0.1349  0.5344
  347TMC3     H 5205   0.472   0.414  14.023 -5.3889  0.3255 -0.6453
  347TMC3    H1 5206   0.248   0.408  14.371  0.7620 -1.0081  1.3034
  347TMC3    H2 5207   0.676   0.368  14.396  0.4738 -0.9399 -1.5730
  347TMC3    C7 5208   0.445   0.435  14.544 -0.2756 -0.0943  0.1305
  347TMC3    C8 5209   0.699   0.338  14.137 -0.3711  1.0008  0.2827
  347TMC3    O1 5210   0.331   0.436  14.591 -0.0502 -0.5238 -0.3442
  347TMC3    O2 5211   0.762   0.247  14.190 -0.1500  0.0247  0.3460
  348MPD2     C 5212   4.468   4.605  12.122 -0.5562 -0.5521 -0.0753
  348MPD2    C1 5213   4.350   4.583  12.047  0.2058  0.0017 -0.0098
  348MPD2    C2 5214   4.295   4.686  11.971 -0.1006 -0.3844 -0.2371
  348MPD2    C3 5215   4.346   0.098  11.976  0.2620 -0.0604 -0.3913
  348MPD2    C4 5216   4.457   0.123  12.053  0.3814 -0.4140 -0.2003
  348MPD2    C5 5217   4.519   0.015  12.120  1.2161 -0.3327 -0.0518
  348MPD2     H 5218   4.199   4.682  11.920  0.5529  0.8947 -1.5720
  348MPD2    H1 5219   4.512   0.216  12.046  2.7197 -2.0352 -3.3965
  348MPD2    H2 5220   4.521   4.532  12.182 -0.3700 -0.8131 -0.5576
  348MPD2    H3 5221   4.596   0.038  12.193  1.1941  1.1968 -0.4922
  348MPD2     N 5222   4.294   0.196  11.892  0.1594  0.0630  0.2855
  348MPD2    H5 5223   4.217   0.172  11.830  0.3566  0.1373  0.0118
  348MPD2    N1 5224   4.285   4.460  12.037  0.4340  0.2615  0.0912
  348MPD2    H7 5225   4.192   4.461  11.995 -0.0635  2.2108  1.2283
  349TMC3    C1 5226   4.231   4.230  12.097 -0.0561  0.3196 -0.1098
  349TMC3    C2 5227   4.273   4.110  12.150 -0.7702  0.1109  0.1700
  349TMC3    C3 5228   4.179   4.021  12.183  0.0993 -0.1966 -0.1274
  349TMC3    C4 5229   4.102   4.253  12.056 -0.3922  0.2774 -1.0871
  349TMC3    C5 5230   4.012   4.162  12.100 -0.2991  0.0549  0.0216
  349TMC3    C6 5231   4.045   4.046  12.165 -0.1119  0.1633  0.0286
  349TMC3     C 5232   4.334   4.338  12.095  0.2387 -0.0823  0.2724
  349TMC3     O 5233   4.437   4.329  12.158 -0.3900  0.0921 -0.3601
  349TMC3     H 5234   4.377   4.098  12.178 -0.7593  1.0396  0.5228
  349TMC3    H1 5235   4.067   4.342  12.005 -1.6665  0.6848  0.5139
  349TMC3    H2 5236   3.967   3.979  12.199  0.5517 -0.3789  0.5016
  349TMC3    C7 5237   3.874   4.201  12.081  0.6032 -0.0091 -0.5125
  349TMC3    C8 5238   4.223   3.913  12.270 -0.6508 -0.3685  0.5268
  349TMC3    O1 5239   3.788   4.124  12.039  0.0320 -0.1869 -0.2705
  349TMC3    O2 5240   4.158   3.902  12.371 -0.4713 -0.6110  0.6393
  350MPD2     C 5241   3.089   3.032  10.037  0.1593  0.7139  0.3133
  350MPD2    C1 5242   3.144   2.909  10.052 -0.1897 -0.3720  0.3881
  350MPD2    C2 5243   3.271   2.902  10.010  0.6129 -0.9568 -0.1235
  350MPD2    C3 5244   3.355   3.013   9.997 -0.1074  0.3253  0.0535
  350MPD2    C4 5245   3.305   3.136   9.984 -0.5218 -0.4110 -0.3381
  350MPD2    C5 5246   3.167   3.143  10.004 -0.4478 -0.0521  0.0355
  350MPD2     H 5247   3.315   2.803  10.018 -0.9588 -1.7286 -0.9073
  350MPD2    H1 5248   3.353   3.229   9.957 -0.8230 -0.6214 -1.5924
  350MPD2    H2 5249   2.987   3.051  10.070 -1.2713  0.4156 -3.9678
  350MPD2    H3 5250   3.119   3.240   9.999 -0.9797 -0.4806 -3.1919
  350MPD2     N 5251   3.493   2.978   9.970 -0.1368 -0.1547 -0.6208
  350MPD2    H5 5252   3.505   2.877   9.977  0.9580  0.0393  0.2543
  350MPD2    N1 5253   3.082   2.789  10.099  0.0163 -0.0816 -0.2775
  350MPD2    H7 5254   3.141   2.706  10.093  0.3159  0.0825  0.5125
  351TMC3    C1 5255   2.922   2.647  10.203  0.4235 -0.0058 -0.2588
  351TMC3    C2 5256   3.012   2.543  10.191  0.2881  0.2854  0.3739
  351TMC3    C3 5257   2.971   2.416  10.215  0.1903 -0.6330 -0.1879
  351TMC3    C4 5258   2.794   2.625  10.231  0.1036 -0.0904  0.1931
  351TMC3    C5 5259   2.754   2.494  10.265  0.4559 -0.1584  0.1361
  351TMC3    C6 5260   2.837   2.384  10.237  0.0055  0.5374  0.2764
  351TMC3     C 5261   2.965   2.778  10.169 -0.6478 -0.6226  0.2632
  351TMC3     O 5262   2.886   2.870  10.191 -0.2158 -0.1743  0.1450
  351TMC3     H 5263   3.117   2.565  10.175 -0.0474  0.5752 -1.3959
  351TMC3    H1 5264   2.728   2.709  10.251 -0.6634 -0.3819 -1.1441
  351TMC3    H2 5265   2.808   2.280  10.248 -0.1038  0.2467 -2.5867
  351TMC3    C7 5266   2.621   2.483  10.326 -0.1663 -0.1970  0.5646
  351TMC3    C8 5267   3.048   2.318  10.156 -0.0700 -0.3668 -0.6568
  351TMC3    O1 5268   2.565   2.592  10.352 -0.4442 -0.1320  0.1296
  351TMC3    O2 5269   3.127   2.362  10.074 -0.1076  0.6497  0.2919
  352MPD2     C 5270   1.697   4.531   0.983 -0.2975  0.2102  0.2356
  352MPD2    C1 5271   1.601   4.494   1.072 -0.0117 -0.5548  0.1907
  352MPD2    C2 5272   1.621   4.389   1.158  0.4988 -0.6696 -0.3682
  352MPD2    C3 5273   1.746   4.327   1.160  0.1075 -0.1536  0.5159
  352MPD2    C4 5274   1.841   4.360   1.065 -0.0396 -0.3662  0.5945
  352MPD2    C5 5275   1.811   4.462   0.975  0.2575  0.2461 -0.2613
  352MPD2     H 5276   1.543   4.354   1.225  0.5850 -0.3939 -0.1262
  352MPD2    H1 5277   1.938   4.313   1.056  0.1823  0.4187 -1.0909
  352MPD2    H2 5278   1.684   4.611   0.911 -3.1679 -0.5776 -0.1321
  352MPD2    H3 5279   1.881   4.478   0.894 -1.3110 -1.2996 -1.9374
  352MPD2     N 5280   1.776   4.220   1.249  0.4430  0.0307 -0.1959
  352MPD2    H5 5281   1.863   4.169   1.239 -0.8886 -1.8924 -1.7686
  352MPD2    N1 5282   1.479   4.560   1.068 -0.2970 -0.6841 -0.2412
  352MPD2    H7 5283   1.451   4.606   0.982  0.9078 -1.7506 -1.2011
  353TMC3    C1 5284   1.744   4.044   1.401 -0.1291 -0.1903  0.2270
  353TMC3    C2 5285   1.877   4.021   1.413 -0.4223 -0.0413  0.0786
  353TMC3    C3 5286   1.922   3.908   1.477 -0.7077 -0.6946 -0.9403
  353TMC3    C4 5287   1.659   3.949   1.451  0.0616 -0.2782  0.0819
  353TMC3    C5 5288   1.705   3.831   1.501  0.2545 -0.1144  0.2455
  353TMC3    C6 5289   1.840   3.805   1.524 -0.1396 -0.8321 -0.6924
  353TMC3     C 5290   1.694   4.165   1.342 -0.4478 -0.0168  0.3545
  353TMC3     O 5291   1.572   4.189   1.356 -0.4608  0.4625  0.3806
  353TMC3     H 5292   1.951   4.093   1.381 -0.3704  1.1365  2.9281
  353TMC3    H1 5293   1.553   3.955   1.426  0.3592 -0.2988 -1.1919
  353TMC3    H2 5294   1.882   3.708   1.547  1.3291 -0.1345 -0.4881
  353TMC3    C7 5295   1.624   3.718   1.504 -0.0946 -0.2864 -0.0558
  353TMC3    C8 5296   2.062   3.880   1.463 -0.0907  0.8666 -0.1909
  353TMC3    O1 5297   1.649   3.644   1.593 -0.0437  0.3096 -0.1305
  353TMC3    O2 5298   2.134   3.982   1.467 -0.4571 -0.3221  0.2162
  354TMC3    C1 5299   3.316   1.093  13.459  0.4330  0.7256  0.2010
  354TMC3    C2 5300   3.289   1.226  13.458 -0.2017  0.7243  0.1626
  354TMC3    C3 5301   3.333   1.291  13.349 -0.0672  1.3825  0.2040
  354TMC3    C4 5302   3.389   1.025  13.364  0.0833 -0.4297  0.1349
  354TMC3    C5 5303   3.409   1.095  13.249  0.7894 -0.5437  0.6718
  354TMC3    C6 5304   3.396   1.233  13.240  0.0132 -0.2379 -0.1024
  354TMC3     C 5305   3.309   1.037  13.595  0.2810  1.2756 -0.3140
  354TMC3     O 5306   3.214   1.077  13.666  0.6426  0.1493  0.2586
  354TMC3     H 5307   3.240   1.277  13.540 -0.6741 -1.2467  1.1329
  354TMC3    H1 5308   3.398   0.917  13.358 -0.3681 -0.4699  0.1917
  354TMC3    H2 5309   3.421   1.289  13.150 -1.0554  1.3232  0.5810
  354TMC3    C7 5310   3.469   1.020  13.144  0.2754 -0.3319 -0.4103
  354TMC3    C8 5311   3.349   1.435  13.370  0.2465  0.1969  0.6148
  354TMC3    O1 5312   3.498   0.901  13.167  0.3258  0.4928 -0.9561
  354TMC3    O2 5313   3.319   1.484  13.481  0.1971 -0.2782  0.1587
  355MPD2     C 5314   2.999   1.967  11.617  0.0081  0.4488  0.3242
  355MPD2    C1 5315   3.069   1.941  11.500 -0.3823  0.7234 -0.5164
  355MPD2    C2 5316   3.197   1.971  11.502 -0.1991 -0.0031 -0.2538
  355MPD2    C3 5317   3.258   2.026  11.615  0.1065 -0.0520 -0.5818
  355MPD2    C4 5318   3.186   2.043  11.732  0.5343  0.6902 -0.1105
  355MPD2    C5 5319   3.059   2.000  11.733  0.5264 -0.0939 -0.6742
  355MPD2     H 5320   3.251   1.952  11.410 -1.1038 -3.1434 -0.1205
  355MPD2    H1 5321   3.231   2.067  11.828  1.5210 -1.0281 -0.1428
  355MPD2    H2 5322   2.896   1.946  11.640  0.0190 -0.8724 -0.8586
  355MPD2    H3 5323   2.999   2.023  11.821 -2.6086  0.0673 -2.8844
  355MPD2     N 5324   3.391   2.078  11.623 -0.1671 -0.3619 -0.0614
  355MPD2    H5 5325   3.427   2.110  11.712 -0.0114  1.1285 -0.6606
  355MPD2    N1 5326   3.016   1.880  11.384  0.0510 -0.3880  0.1844
  355MPD2    H7 5327   2.921   1.847  11.398  0.7896 -2.3284  0.6006
  356TMC3    C1 5328   3.602   2.162  11.543 -0.4787 -0.3565  0.0538
  356TMC3    C2 5329   3.665   2.215  11.437 -0.5096  0.5248  0.2281
  356TMC3    C3 5330   3.767   2.295  11.454 -0.0058 -0.4110 -0.1103
  356TMC3    C4 5331   3.648   2.186  11.672 -0.0727 -0.1130  0.6642
  356TMC3    C5 5332   3.740   2.284  11.682  0.0624  0.1518 -0.3717
  356TMC3    C6 5333   3.808   2.334  11.580 -0.3070 -0.2135 -0.3170
  356TMC3     C 5334   3.476   2.088  11.518  0.3466  0.5619 -0.1094
  356TMC3     O 5335   3.455   2.060  11.398 -0.0643 -0.0253 -0.0086
  356TMC3     H 5336   3.629   2.188  11.338  0.4606 -1.0827  0.3258
  356TMC3    H1 5337   3.588   2.150  11.755  0.4825  3.0285  2.4313
  356TMC3    H2 5338   3.886   2.407  11.598 -0.5579  0.5162 -2.2095
  356TMC3    C7 5339   3.759   2.325  11.819 -0.4516 -0.2445 -0.4691
  356TMC3    C8 5340   3.835   2.331  11.330  0.3800  0.1439  0.0021
  356TMC3    O1 5341   3.684   2.268  11.899 -0.2159  0.5798  0.1153
  356TMC3    O2 5342   3.777   2.307  11.226 -0.3526  0.3372 -0.6942
  357MPD2     C 5343   3.310   1.252   2.006 -0.9340 -0.3449 -0.8411
  357MPD2    C1 5344   3.284   1.195   1.888  0.4038  0.6354  0.3052
  357MPD2    C2 5345   3.152   1.205   1.839 -0.2935 -0.1171  0.0489
  357MPD2    C3 5346   3.051   1.266   1.908  0.3890  0.1857 -1.0118
  357MPD2    C4 5347   3.084   1.322   2.027  0.2567 -0.0243  0.0538
  357MPD2    C5 5348   3.213   1.314   2.076  0.1408  0.3244 -0.3743
  357MPD2     H 5349   3.127   1.163   1.742 -1.3745 -1.3387  0.8741
  357MPD2    H1 5350   3.007   1.372   2.086 -2.2487  0.3496 -3.4828
  357MPD2    H2 5351   3.408   1.258   2.052 -0.0687  0.9264 -2.8874
  357MPD2    H3 5352   3.244   1.366   2.165  0.2722  1.0936 -0.8694
  357MPD2     N 5353   2.917   1.261   1.865 -0.4536  0.1187  0.1878
  357MPD2    H5 5354   2.850   1.280   1.938 -0.0394 -0.5782  0.7526
  357MPD2    N1 5355   3.383   1.105   1.831  0.1305  0.2717 -0.3018
  357MPD2    H7 5356   3.471   1.091   1.879  0.3285  0.6930 -0.5468
  358TMC3    C1 5357   3.462   0.932   1.694  0.4443 -0.0383  0.6532
  358TMC3    C2 5358   3.404   0.818   1.641 -0.6330  0.9258 -0.1377
  358TMC3    C3 5359   3.458   0.754   1.528  0.3262 -0.1843 -0.1846
  358TMC3    C4 5360   3.586   0.977   1.660 -0.0140 -0.1288  0.1593
  358TMC3    C5 5361   3.633   0.921   1.546 -0.2570 -0.1242 -0.3281
  358TMC3    C6 5362   3.580   0.806   1.488  0.9935  0.1917 -0.2084
  358TMC3     C 5363   3.365   1.032   1.713 -0.5036  0.4826  0.5760
  358TMC3     O 5364   3.276   1.036   1.628 -0.2166  0.0723  0.0324
  358TMC3     H 5365   3.314   0.776   1.685 -1.2087  1.3153 -0.9519
  358TMC3    H1 5366   3.636   1.066   1.697 -1.6652  0.6915  0.4009
  358TMC3    H2 5367   3.603   0.782   1.384 -5.2696 -2.2531 -1.0220
  358TMC3    C7 5368   3.778   0.955   1.526 -0.6981 -0.1561 -0.2688
  358TMC3    C8 5369   3.362   0.738   1.427  0.6054 -0.0042  0.1871
  358TMC3    O1 5370   3.826   1.034   1.609  1.0160  0.4002 -0.0795
  358TMC3    O2 5371   3.395   0.695   1.317  0.1578  0.1486  0.1977
  359MPD2     C 5372   3.388   1.390  12.186 -0.7753  0.1202 -0.5200
  359MPD2    C1 5373   3.467   1.282  12.151 -0.0608 -0.2691  0.3310
  359MPD2    C2 5374   3.431   1.170  12.220  0.5068  0.1522  0.4128
  359MPD2    C3 5375   3.323   1.155  12.312 -0.5518  0.0549  0.0331
  359MPD2    C4 5376   3.245   1.270  12.334  0.0245 -0.2867 -0.0630
  359MPD2    C5 5377   3.286   1.383  12.274 -1.2019 -0.8618  0.0640
  359MPD2     H 5378   3.488   1.081  12.194  0.5578 -0.1078  1.4167
  359MPD2    H1 5379   3.163   1.271  12.405  0.8871  0.6861  0.9212
  359MPD2    H2 5380   3.417   1.485  12.143 -0.8824  0.1701 -0.4818
  359MPD2    H3 5381   3.223   1.469  12.293  0.4447  0.0237  1.5394
  359MPD2     N 5382   3.283   1.036  12.378  0.2148  0.0960 -1.0921
  359MPD2    H5 5383   3.203   1.038  12.440 -0.1350 -2.5282 -1.4619
  359MPD2    N1 5384   3.584   1.293  12.085  0.1772  0.5897  0.1854
  359MPD2    H7 5385   3.637   1.206  12.081  2.1068  1.6862  1.8782
  360TMC3    C1 5386   3.771   1.386  11.986 -0.4078  0.0897  0.4032
  360TMC3    C2 5387   3.878   1.463  12.010 -0.2723  0.1823 -1.1922
  360TMC3    C3 5388   3.989   1.429  11.935 -0.2618  0.3808 -0.8515
  360TMC3    C4 5389   3.774   1.278  11.905  0.4032  0.0103 -0.4005
  360TMC3    C5 5390   3.888   1.246  11.835  0.4417 -0.2958 -0.0865
  360TMC3    C6 5391   4.001   1.321  11.845 -0.0653  0.0437 -0.7672
  360TMC3     C 5392   3.643   1.417  12.042 -0.5138 -0.1309 -0.3823
  360TMC3     O 5393   3.626   1.533  12.088  0.1596 -0.6199 -0.4186
  360TMC3     H 5394   3.881   1.557  12.064  3.1998  0.0306 -1.0981
  360TMC3    H1 5395   3.689   1.211  11.896 -0.0670  0.5195  0.2096
  360TMC3    H2 5396   4.091   1.307  11.786  0.8734  0.0402  0.6798
  360TMC3    C7 5397   3.891   1.132  11.751 -0.4849 -0.7085  0.8270
  360TMC3    C8 5398   4.116   1.491  11.975 -0.0019  0.5336 -0.8046
  360TMC3    O1 5399   3.994   1.107  11.695  0.3135 -0.1212  0.4210
  360TMC3    O2 5400   4.112   1.614  11.980 -0.5943  0.5160  0.2750
  361MPD2     C 5401   0.174   3.802  16.714  0.4212  0.7180  0.1642
  361MPD2    C1 5402   0.251   3.912  16.743 -0.2954  0.8052 -0.5795
  361MPD2    C2 5403   0.390   3.907  16.758  0.1356 -0.5670  0.4082
  361MPD2    C3 5404   0.445   3.776  16.760  0.5035 -0.2565 -0.3355
  361MPD2    C4 5405   0.370   3.667  16.721 -0.1541 -0.0380 -0.5552
  361MPD2    C5 5406   0.233   3.680  16.691  0.0260  0.3828 -0.0457
  361MPD2     H 5407   0.447   3.996  16.777  0.0534 -0.2476 -0.8422
  361MPD2    H1 5408   0.421   3.571  16.726  0.1187  0.0216 -2.2727
  361MPD2    H2 5409   0.066   3.805  16.708  0.4174 -0.2857 -0.2426
  361MPD2    H3 5410   0.178   3.589  16.670  1.9150 -0.4527 -1.3281
  361MPD2     N 5411   0.581   3.747  16.790  0.3539  0.3324 -0.7162
  361MPD2    H5 5412   0.612   3.651  16.777  1.8406  0.8423 -0.9404
  361MPD2    N1 5413   0.192   4.041  16.759 -0.1816  0.1352  0.3322
  361MPD2    H7 5414   0.259   4.111  16.790  1.1631 -0.2561 -1.6618
  362TMC3    C1 5415   0.024   4.203  16.800  1.1287 -1.1980  0.2025
  362TMC3    C2 5416   0.021   4.256  16.929 -0.6998  0.6116  0.7896
  362TMC3    C3 5417   0.008   4.394  16.946  0.7750 -0.2799  0.0501
  362TMC3    C4 5418   0.035   4.287  16.696 -0.1315  0.3040  0.4312
  362TMC3    C5 5419   0.028   4.421  16.716  0.5900  0.2921 -0.9460
  362TMC3    C6 5420   0.009   4.477  16.839  0.2214 -0.2061  0.0961
  362TMC3     C 5421   0.051   4.066  16.774 -0.2757 -0.2482  0.2924
  362TMC3     O 5422   4.681   3.981  16.764 -0.2847  0.1114  0.1693
  362TMC3     H 5423   0.036   4.194  17.016  0.7641  2.4033  1.8057
  362TMC3    H1 5424   0.059   4.250  16.598 -2.0299 -0.9705  0.4370
  362TMC3    H2 5425   4.718   4.584  16.852  0.0053  0.0834 -2.6671
  362TMC3    C7 5426   0.041   4.518  16.606 -0.2722  0.2346 -0.3675
  362TMC3    C8 5427   4.686   4.433  17.079 -0.1722  0.0213  0.2124
  362TMC3    O1 5428   0.083   4.635  16.629 -0.2174  0.6052  0.2683
  362TMC3    O2 5429   0.026   4.370  17.162  0.0110 -0.4064  0.1536
  363TMC3    C1 5430   4.126   1.910   9.456  0.6171  0.0091  0.5573
  363TMC3    C2 5431   4.202   1.869   9.565 -0.0327  0.0809 -0.2305
  363TMC3    C3 5432   4.203   1.952   9.677 -0.6440 -0.4848 -0.2847
  363TMC3    C4 5433   4.050   2.029   9.458 -0.0272  0.4055 -0.0157
  363TMC3    C5 5434   4.045   2.091   9.580  0.1499  0.2830 -1.0361
  363TMC3    C6 5435   4.119   2.056   9.691  0.2702  0.5934 -0.7785
  363TMC3     C 5436   4.114   1.815   9.348  0.2855 -0.3235 -0.6632
  363TMC3     O 5437   4.129   1.696   9.376  0.2199  0.4939 -0.8437
  363TMC3     H 5438   4.260   1.779   9.552 -0.3449 -0.5555  2.8262
  363TMC3    H1 5439   3.966   2.041   9.391 -0.0241 -0.6014 -0.2001
  363TMC3    H2 5440   4.107   2.108   9.785  1.4380 -1.7346  0.6232
  363TMC3    C7 5441   3.932   2.183   9.583  0.2469  0.0331 -0.3797
  363TMC3    C8 5442   4.294   1.933   9.785 -0.0195 -0.4345  0.5082
  363TMC3    O1 5443   3.923   2.268   9.497  0.2715  0.2665 -0.1843
  363TMC3    O2 5444   4.287   2.000   9.887  0.1815 -0.0392 -0.4634
  364MPD2     C 5445   2.690   1.232  10.729 -0.1082  0.1456 -0.2288
  364MPD2    C1 5446   2.787   1.256  10.639  0.6356 -0.2423  0.0239
  364MPD2    C2 5447   2.885   1.162  10.612 -0.3633  0.0623  0.0488
  364MPD2    C3 5448   2.874   1.038  10.674 -0.1330 -0.0057 -0.8174
  364MPD2    C4 5449   2.775   1.016  10.767 -0.2267  0.1246 -0.3068
  364MPD2    C5 5450   2.685   1.114  10.804 -0.3355 -0.0803 -0.2850
  364MPD2     H 5451   2.967   1.186  10.546  0.5472  1.9421  1.8346
  364MPD2    H1 5452   2.761   0.934  10.836  2.5542 -1.3281 -1.4535
  364MPD2    H2 5453   2.600   1.292  10.735 -0.5845 -0.5671 -0.2736
  364MPD2    H3 5454   2.599   1.088  10.865 -0.1842  0.8767  0.3282
  364MPD2     N 5455   2.968   0.937  10.651 -0.1488  0.2070  0.0795
  364MPD2    H5 5456   2.950   0.850  10.701 -0.8249  0.5200  0.3858
  364MPD2    N1 5457   2.785   1.382  10.574 -0.2178  0.2052  0.3434
  364MPD2    H7 5458   2.721   1.450  10.613  0.3320  1.8627 -1.6793
  365TMC3    C1 5459   2.836   1.547  10.417  1.0131 -0.2166 -0.5444
  365TMC3    C2 5460   2.869   1.577  10.286  0.1060  0.0538 -0.3798
  365TMC3    C3 5461   2.843   1.705  10.247  0.7180 -0.1321  0.0179
  365TMC3    C4 5462   2.778   1.645  10.499  0.5062 -0.5298 -0.1208
  365TMC3    C5 5463   2.766   1.773  10.453  0.2887 -0.2413  0.1350
  365TMC3    C6 5464   2.799   1.806  10.327  0.3494  0.0772  0.2150
  365TMC3     C 5465   2.852   1.410  10.459  0.3835  0.5052 -0.0545
  365TMC3     O 5466   2.907   1.332  10.382 -0.0932  0.3872  0.0053
  365TMC3     H 5467   2.888   1.496  10.217 -1.7465  1.3959 -2.4782
  365TMC3    H1 5468   2.764   1.620  10.603  0.1762 -1.6975 -0.4437
  365TMC3    H2 5469   2.771   1.902  10.284 -1.2008 -0.4830 -0.0239
  365TMC3    C7 5470   2.706   1.873  10.539  0.1340 -0.2216  0.2846
  365TMC3    C8 5471   2.869   1.733  10.101 -0.4006 -1.1040  0.5442
  365TMC3    O1 5472   2.743   1.986  10.514  0.3305  0.5631 -0.4335
  365TMC3    O2 5473   2.824   1.840  10.067  0.1838 -0.3257  0.4811
  366MPD2     C 5474   0.757   2.142  15.477  1.3404 -0.2675 -0.2013
  366MPD2    C1 5475   0.878   2.211  15.465 -0.4262 -0.3760  0.7794
  366MPD2    C2 5476   0.994   2.137  15.463 -1.0850  1.0319 -0.0017
  366MPD2    C3 5477   0.989   2.003  15.455 -0.1814 -0.1976  0.1634
  366MPD2    C4 5478   0.871   1.931  15.472 -0.1821  0.3912  0.4390
  366MPD2    C5 5479   0.759   2.005  15.491  0.2129  0.0716 -0.0157
  366MPD2     H 5480   1.090   2.185  15.450  0.0425 -1.2403  0.0679
  366MPD2    H1 5481   0.860   1.824  15.486 -0.2202  0.4112  0.5598
  366MPD2    H2 5482   0.661   2.190  15.495  2.2190  0.3045  2.9023
  366MPD2    H3 5483   0.663   1.954  15.493 -1.2973  3.0078  1.3925
  366MPD2     N 5484   1.110   1.939  15.424 -0.1158 -0.6699 -0.7598
  366MPD2    H5 5485   1.192   1.998  15.427  0.2401 -1.3221  2.1431
  366MPD2    N1 5486   0.891   2.353  15.445 -0.3037  0.0175  0.5356
  366MPD2    H7 5487   0.983   2.395  15.455 -0.5038  0.3273  1.0695
  367TMC3    C1 5488   0.827   2.572  15.410 -0.7067 -0.4527 -0.3294
  367TMC3    C2 5489   0.942   2.609  15.473  0.0331  0.8471  1.2780
  367TMC3    C3 5490   0.972   2.743  15.468  0.0258  0.2352  0.1810
  367TMC3    C4 5491   0.764   2.657  15.322  0.3052  0.7006  0.7895
  367TMC3    C5 5492   0.813   2.784  15.302 -0.1867  0.1268  0.1189
  367TMC3    C6 5493   0.912   2.833  15.383 -0.3492 -0.3589  0.8080
  367TMC3     C 5494   0.788   2.435  15.411  0.5023  0.0090  0.1509
  367TMC3     O 5495   0.672   2.415  15.372 -0.0164  0.7752  0.7476
  367TMC3     H 5496   0.979   2.549  15.555  0.2257 -1.3841 -0.4643
  367TMC3    H1 5497   0.679   2.616  15.268 -0.0380  0.3222  1.6195
  367TMC3    H2 5498   0.946   2.935  15.373 -0.0830 -0.5797 -0.4716
  367TMC3    C7 5499   0.731   2.882  15.229  0.4257  0.2767  0.8024
  367TMC3    C8 5500   1.062   2.796  15.565  0.2526 -0.5791 -0.3449
  367TMC3    O1 5501   0.747   2.996  15.269  0.2646  0.1176  0.5593
  367TMC3    O2 5502   1.128   2.717  15.627 -0.0950 -0.7917  0.1192
  368MPD2     C 5503   1.916   0.000  13.181  0.2419  0.3017 -0.1715
  368MPD2    C1 5504   1.897   0.102  13.088  0.1489 -0.1410 -0.2201
  368MPD2    C2 5505   2.001   0.139  13.012  0.4398 -0.5366  0.0924
  368MPD2    C3 5506   2.128   0.083  13.031 -0.0092 -0.0663 -0.1301
  368MPD2    C4 5507   2.147   4.701  13.121  0.2025  0.3615 -0.1044
  368MPD2    C5 5508   2.041   4.663  13.195  0.4359  0.3614  0.1210
  368MPD2     H 5509   1.981   0.217  12.939 -2.6583  0.9219  2.5232
  368MPD2    H1 5510   2.242   4.650  13.133 -0.7111 -0.7838  2.2458
  368MPD2    H2 5511   1.834   4.688  13.244 -1.3898 -1.9567 -3.5730
  368MPD2    H3 5512   2.058   4.587  13.270  1.1907  0.2329 -0.1809
  368MPD2     N 5513   2.238   0.130  12.965  0.0018 -0.2586 -0.1797
  368MPD2    H5 5514   2.323   0.081  12.991 -0.6531  0.8989  4.0650
  368MPD2    N1 5515   1.765   0.149  13.079  0.5550 -0.1099  0.2987
  368MPD2    H7 5516   1.692   0.110  13.138 -0.9798  1.8060 -0.3273
  369TMC3    C1 5517   1.593   0.271  12.966 -0.6787 -0.6924  0.4798
  369TMC3    C2 5518   1.579   0.382  12.880 -0.0119 -0.1474  0.0406
  369TMC3    C3 5519   1.495   0.364  12.774 -0.1453 -0.8427 -0.2773
  369TMC3    C4 5520   1.527   0.156  12.946  0.1354 -0.4008 -0.9302
  369TMC3    C5 5521   1.439   0.145  12.841 -0.1243 -0.1306  0.9903
  369TMC3    C6 5522   1.417   0.253  12.758 -0.3775 -0.2926 -0.5050
  369TMC3     C 5523   1.729   0.259  13.004 -0.1150 -0.0261  0.1624
  369TMC3     O 5524   1.796   0.342  12.942  0.0519  0.2935 -0.0222
  369TMC3     H 5525   1.630   0.476  12.892  0.6791 -0.4375 -0.5876
  369TMC3    H1 5526   1.536   0.072  13.015  0.6434  1.7430  1.5951
  369TMC3    H2 5527   1.358   0.261  12.667 -1.7557  3.1202  0.6851
  369TMC3    C7 5528   1.420   0.003  12.805  0.8155 -0.8832 -0.2211
  369TMC3    C8 5529   1.544   0.432  12.650  0.3539 -0.5452 -0.4112
  369TMC3    O1 5530   1.483   4.649  12.874 -0.4002 -0.3043  0.7170
  369TMC3    O2 5531   1.461   0.463  12.561  0.4263 -0.2019 -0.4230
  370TMC3    C1 5532   1.607   0.294  16.221 -0.0497  0.7177  0.4273
  370TMC3    C2 5533   1.520   0.237  16.310 -0.0586 -0.1674  0.1497
  370TMC3    C3 5534   1.464   0.115  16.275 -0.2358 -0.8608 -0.1798
  370TMC3    C4 5535   1.656   0.233  16.106  0.2099  0.7226 -0.1182
  370TMC3    C5 5536   1.598   0.113  16.078 -0.3997  0.2189  0.0074
  370TMC3    C6 5537   1.502   0.051  16.154 -0.5375  0.2879  0.4119
  370TMC3     C 5538   1.669   0.412  16.272  0.1175 -0.0349 -0.3595
  370TMC3     O 5539   1.677   0.427  16.390 -0.4238  0.5452  0.3897
  370TMC3     H 5540   1.491   0.281  16.405 -0.0290 -0.0887  0.1226
  370TMC3    H1 5541   1.728   0.282  16.043  2.1697 -2.0004  0.0215
  370TMC3    H2 5542   1.455   4.678  16.133 -0.3615  0.5309 -1.0652
  370TMC3    C7 5543   1.646   0.054  15.948  0.8649  0.1035  0.0418
  370TMC3    C8 5544   1.411   0.021  16.372 -0.0708 -0.2808 -0.0828
  370TMC3    O1 5545   1.685   0.135  15.865  0.7086 -0.0981  0.4529
  370TMC3    O2 5546   1.445   4.626  16.365  0.0097 -0.5102 -0.0061
  371TMC3    C1 5547   2.871   3.171  15.574 -0.4561 -0.0094 -0.2221
  371TMC3    C2 5548   2.734   3.144  15.566  0.0423 -0.1206 -0.0135
  371TMC3    C3 5549   2.653   3.243  15.529  0.2297  0.0951 -0.6676
  371TMC3    C4 5550   2.930   3.274  15.506 -0.6826 -0.3268  1.0776
  371TMC3    C5 5551   2.836   3.366  15.459  0.0966  0.1228 -0.0499
  371TMC3    C6 5552   2.702   3.357  15.470 -0.1558 -0.5170 -0.2171
  371TMC3     C 5553   2.961   3.062  15.626  0.1037  0.2636  0.4010
  371TMC3     O 5554   3.072   3.099  15.665  0.4138 -0.3121  0.4569
  371TMC3     H 5555   2.695   3.060  15.623 -1.5236  0.3908 -0.3224
  371TMC3    H1 5556   3.038   3.278  15.507 -0.5698 -2.4280 -0.8249
  371TMC3    H2 5557   2.649   3.443  15.431  0.9287  0.8113  1.2674
  371TMC3    C7 5558   2.886   3.497  15.399 -0.2847 -0.7524 -0.7537
  371TMC3    C8 5559   2.513   3.243  15.585  0.3731 -0.4381 -0.1178
  371TMC3    O1 5560   2.809   3.592  15.383 -0.9300  0.0423 -0.0147
  371TMC3    O2 5561   2.472   3.136  15.625  0.0589  0.1294  0.0065
  372MPD2     C 5562   2.587   4.594  12.993  0.2536  0.7500  0.7208
  372MPD2    C1 5563   2.669   4.562  13.099  0.0283 -0.5997 -0.1761
  372MPD2    C2 5564   2.620   4.468  13.191 -0.4528 -0.1824 -0.0080
  372MPD2    C3 5565   2.494   4.414  13.171 -0.2716 -0.0471  0.0844
  372MPD2    C4 5566   2.404   4.458  13.074 -0.3450  0.0185 -0.3429
  372MPD2    C5 5567   2.458   4.549  12.985 -0.5257  0.5128 -0.4545
  372MPD2     H 5568   2.673   4.441  13.282  0.7056 -0.3243 -0.7221
  372MPD2    H1 5569   2.297   4.437  13.068 -0.3347 -0.0901 -0.1353
  372MPD2    H2 5570   2.619   4.667  12.920 -2.3042  0.5529 -0.6037
  372MPD2    H3 5571   2.391   4.588  12.909 -1.0683  1.2708  0.4074
  372MPD2     N 5572   2.449   4.322  13.269  0.4607  1.0573  0.7545
  372MPD2    H5 5573   2.517   4.284  13.333  0.3933 -2.8891 -1.5189
  372MPD2    N1 5574   2.795   4.625  13.126 -0.7327 -0.4999 -0.0287
  372MPD2    H7 5575   2.840   4.601  13.214 -0.6951 -0.2671  0.0166
  373TMC3    C1 5576   2.317   4.192  13.411  0.1802 -0.3624 -0.0731
  373TMC3    C2 5577   2.207   4.213  13.490 -0.8478  0.2063  0.1419
  373TMC3    C3 5578   2.164   4.100  13.558 -0.1038  0.3396 -0.0088
  373TMC3    C4 5579   2.396   4.078  13.410  0.2702 -0.7588 -0.2692
  373TMC3    C5 5580   2.341   3.971  13.480  0.2923 -0.0261  0.7488
  373TMC3    C6 5581   2.228   3.976  13.552 -0.7255  0.4818 -0.3242
  373TMC3     C 5582   2.320   4.279  13.295  0.8515 -0.2404  0.1337
  373TMC3     O 5583   2.216   4.339  13.260  0.5434  0.5838  0.5688
  373TMC3     H 5584   2.143   4.300  13.479 -0.1823  1.0107  2.7194
  373TMC3    H1 5585   2.477   4.064  13.339  1.7461  3.4316  0.6003
  373TMC3    H2 5586   2.201   3.887  13.608  0.1132 -0.9421 -2.1852
  373TMC3    C7 5587   2.437   3.863  13.501 -0.4235  0.6803  0.3380
  373TMC3    C8 5588   2.040   4.096  13.626 -0.5216 -0.0472 -0.2564
  373TMC3    O1 5589   2.525   3.847  13.421 -0.0354 -0.3097 -0.5919
  373TMC3    O2 5590   1.947   4.158  13.571  0.0349  0.3079 -0.0986
  374TMC3    C1 5591   3.670   4.452   9.869 -0.9109 -0.0236  0.5845
  374TMC3    C2 5592   3.718   4.578   9.895 -0.4760  1.6231  0.0275
  374TMC3    C3 5593   3.693   4.673   9.798 -0.3296 -0.0536  0.3092
  374TMC3    C4 5594   3.594   4.422   9.757 -0.1855  0.0346 -0.5477
  374TMC3    C5 5595   3.579   4.521   9.660  0.3691  0.2326 -0.5541
  374TMC3    C6 5596   3.628   4.647   9.683  0.2094 -0.2684  0.5612
  374TMC3     C 5597   3.663   4.363   9.983  0.4090 -0.2370  0.3562
  374TMC3     O 5598   3.763   4.360  10.051  0.3093  0.2937 -0.1313
  374TMC3     H 5599   3.773   4.603   9.985 -0.3630 -0.1809  0.4593
  374TMC3    H1 5600   3.557   4.322   9.738 -1.7999  0.6891 -0.8035
  374TMC3    H2 5601   3.632   4.722   9.604 -0.6482  0.2853  1.0374
  374TMC3    C7 5602   3.535   4.491   9.525 -0.1211  0.0521 -0.3015
  374TMC3    C8 5603   3.763   0.075   9.799  1.3785  0.0538  0.1069
  374TMC3    O1 5604   3.584   4.555   9.434 -0.1998  0.0437  0.1207
  374TMC3    O2 5605   3.765   0.151   9.699 -0.0160 -0.4020 -0.1885
  375MPD2     C 5606   3.042   1.188  16.771 -0.8263  0.3909  0.2104
  375MPD2    C1 5607   2.931   1.105  16.772  0.0525  0.1922  0.0744
  375MPD2    C2 5608   2.939   0.979  16.724  0.3182  0.3566 -0.8257
  375MPD2    C3 5609   3.061   0.925  16.684  0.4958  0.5147  0.2380
  375MPD2    C4 5610   3.179   0.995  16.706 -0.2223  0.5274  0.0479
  375MPD2    C5 5611   3.167   1.126  16.751  0.7890  0.5551 -1.3139
  375MPD2     H 5612   2.844   0.929  16.707 -0.6111  1.2838  1.6999
  375MPD2    H1 5613   3.274   0.954  16.675 -0.8943 -0.0891 -1.1773
  375MPD2    H2 5614   3.026   1.291  16.801 -4.6760 -0.3878  0.8778
  375MPD2    H3 5615   3.253   1.192  16.758  4.0951 -3.9372  0.6473
  375MPD2     N 5616   3.075   0.798  16.617  0.3774  1.1005 -0.3398
  375MPD2    H5 5617   3.166   0.779  16.576  0.6342 -2.7251  2.0554
  375MPD2    N1 5618   2.802   1.157  16.794  0.2322 -0.0610  0.1144
  375MPD2    H7 5619   2.725   1.099  16.764  0.5051 -0.1679 -0.3837
  376TMC3    C1 5620   3.002   0.605  16.507 -0.4903 -0.4399 -0.5845
  376TMC3    C2 5621   3.115   0.528  16.529  0.1560  0.1365  1.4252
  376TMC3    C3 5622   3.139   0.421  16.446  1.0377  0.4005 -0.4368
  376TMC3    C4 5623   2.907   0.570  16.408 -0.0529 -0.0678  0.9236
  376TMC3    C5 5624   2.938   0.464  16.332  0.1662  0.2498 -0.2833
  376TMC3    C6 5625   3.057   0.396  16.340 -0.0072  0.2928 -0.2039
  376TMC3     C 5626   2.971   0.720  16.579  0.6672  0.1836  0.0290
  376TMC3     O 5627   2.851   0.731  16.607  0.2928  1.0821  0.2499
  376TMC3     H 5628   3.192   0.563  16.598  0.4710 -0.3985  1.3414
  376TMC3    H1 5629   2.838   0.644  16.369  0.3107 -1.0309 -1.5399
  376TMC3    H2 5630   3.085   0.306  16.286 -0.3792 -0.8881  1.5673
  376TMC3    C7 5631   2.855   0.430  16.219  0.0796  0.2153 -0.2288
  376TMC3    C8 5632   3.277   0.376  16.433  0.1003  0.2147 -0.3675
  376TMC3    O1 5633   2.904   0.388  16.116 -0.6374  0.4085 -0.5475
  376TMC3    O2 5634   3.309   0.327  16.326  0.2169 -0.2701 -0.0951
  377MPD2     C 5635   1.041   0.217  12.118 -0.4433 -0.4331 -0.6082
  377MPD2    C1 5636   1.109   0.179  12.234 -0.7401 -0.9015 -0.0644
  377MPD2    C2 5637   1.029   0.136  12.342 -0.5058 -0.0264  0.2200
  377MPD2    C3 5638   0.887   0.141  12.336 -0.8055  0.9931 -0.1018
  377MPD2    C4 5639   0.829   0.185  12.220 -0.1155  0.9024 -0.4026
  377MPD2    C5 5640   0.904   0.218  12.106 -0.8940  0.6890  0.5208
  377MPD2     H 5641   1.085   0.109  12.431 -0.2120 -1.9570 -0.5506
  377MPD2    H1 5642   0.721   0.182  12.209 -0.2069 -0.9316  0.8056
  377MPD2    H2 5643   1.108   0.247  12.037  1.4507 -0.9639  0.7541
  377MPD2    H3 5644   0.851   0.248  12.017 -0.8024 -1.3829 -0.2228
  377MPD2     N 5645   0.796   0.115  12.434  0.4530 -0.2173 -0.5474
  377MPD2    H5 5646   0.699   0.144  12.424  0.7001  0.7263 -0.2829
  377MPD2    N1 5647   1.253   0.185  12.240 -0.5129  0.3150  0.1143
  377MPD2    H7 5648   1.299   0.217  12.155  0.1638 -0.0580  0.3408
  378TMC3    C1 5649   1.655   0.221  12.162 -0.5000  0.2047  0.0577
  378TMC3    C2 5650   1.517   0.212  12.191  0.4532  0.1743 -0.2743
  378TMC3    C3 5651   1.482   0.184  12.318  0.1816  0.8447 -0.0410
  378TMC3    C4 5652   1.744   0.214  12.263 -0.3985 -1.1678  0.3560
  378TMC3    C5 5653   1.702   0.163  12.385  0.1097  0.8869  0.2241
  378TMC3    C6 5654   1.570   0.163  12.417  0.3143 -0.7786 -0.3326
  378TMC3     C 5655   1.698   0.257  12.027  0.8857  0.1370 -0.5940
  378TMC3     O 5656   1.607   0.300  11.960  1.0592  0.0500 -0.6960
  378TMC3     H 5657   1.452   0.199  12.105  0.5535  1.5987 -0.5592
  378TMC3    H1 5658   1.847   0.237  12.240 -1.1864 -0.3213 -2.3150
  378TMC3    H2 5659   1.542   0.121  12.513 -1.5783  0.0442 -0.5340
  378TMC3    C7 5660   1.797   0.121  12.490 -0.3505 -0.2443 -0.3702
  378TMC3    C8 5661   1.340   0.172  12.350 -0.2355 -0.0350  0.0247
  378TMC3    O1 5662   1.745   0.069  12.587 -0.0649  0.6940  0.9977
  378TMC3    O2 5663   1.310   0.165  12.466  0.8017 -0.3590  0.2260
  379MPD2     C 5664   1.552   2.722  16.615  0.4106  0.0464 -0.4809
  379MPD2    C1 5665   1.641   2.675  16.521 -0.4498  0.4398  0.5984
  379MPD2    C2 5666   1.706   2.553  16.547 -0.3665 -0.6393 -0.2845
  379MPD2    C3 5667   1.685   2.486  16.666  0.3753 -0.5542  0.6343
  379MPD2    C4 5668   1.590   2.532  16.743  0.2309  0.2312  0.3444
  379MPD2    C5 5669   1.519   2.647  16.716 -0.3343 -0.5597 -0.0412
  379MPD2     H 5670   1.766   2.503  16.472  1.1291 -0.1159  0.5682
  379MPD2    H1 5671   1.557   2.476  16.831  0.7805 -0.2870  0.2216
  379MPD2    H2 5672   1.498   2.814  16.594  0.3696 -0.1810 -1.4170
  379MPD2    H3 5673   1.440   2.671  16.787  1.3407  1.7413  1.0569
  379MPD2     N 5674   1.756   2.371  16.705 -0.0198 -0.0506 -0.4037
  379MPD2    H5 5675   1.733   2.334  16.797 -0.1782  2.7989  0.7059
  379MPD2    N1 5676   1.661   2.754  16.403  0.0960 -0.0643  0.1229
  379MPD2    H7 5677   1.605   2.838  16.399 -0.0975 -0.1423  1.3156
  380TMC3    C1 5678   1.708   2.817  16.180 -0.1271  0.3986 -0.0315
  380TMC3    C2 5679   1.796   2.795  16.078  0.0405  0.2243 -0.2880
  380TMC3    C3 5680   1.776   2.860  15.964  0.0598 -0.2955  0.3940
  380TMC3    C4 5681   1.608   2.914  16.182 -0.5158  1.2383  0.9375
  380TMC3    C5 5682   1.590   2.969  16.057 -0.0473 -0.0683  0.4690
  380TMC3    C6 5683   1.664   2.937  15.947  0.0730  0.0492 -0.0199
  380TMC3     C 5684   1.731   2.721  16.283  0.0929 -0.8954 -0.0107
  380TMC3     O 5685   1.796   2.620  16.256 -0.5371 -0.6960  0.8870
  380TMC3     H 5686   1.883   2.731  16.092 -0.9255 -1.2833 -1.1817
  380TMC3    H1 5687   1.531   2.929  16.257 -1.6340 -0.1409  0.0641
  380TMC3    H2 5688   1.653   2.996  15.857 -1.2583 -0.0004  0.1170
  380TMC3    C7 5689   1.468   3.040  16.026  0.2858  0.0685  0.1278
  380TMC3    C8 5690   1.862   2.845  15.849 -0.3334 -0.6119  0.2016
  380TMC3    O1 5691   1.447   3.144  16.089 -0.1450  0.1206 -0.6200
  380TMC3    O2 5692   1.822   2.898  15.746 -0.4146 -0.2665  0.5485
  381TMC3    C1 5693   1.427   4.022  16.207 -0.0272  0.2028  0.4669
  381TMC3    C2 5694   1.539   4.088  16.189  0.1800 -0.9862 -0.1138
  381TMC3    C3 5695   1.582   4.185  16.280  1.2000  0.0023 -0.6556
  381TMC3    C4 5696   1.353   4.045  16.318 -0.2735 -0.6126  0.1937
  381TMC3    C5 5697   1.395   4.134  16.413 -1.1116  0.0269 -0.4869
  381TMC3    C6 5698   1.500   4.219  16.389  0.5136 -0.2977  0.0071
  381TMC3     C 5699   1.394   3.893  16.145  0.3186  0.3292  0.4060
  381TMC3     O 5700   1.306   3.830  16.202 -0.0750  0.0156  0.5190
  381TMC3     H 5701   1.606   4.056  16.110  0.3263 -2.1624  0.4821
  381TMC3    H1 5702   1.261   3.990  16.337 -0.5920 -0.4155 -0.7317
  381TMC3    H2 5703   1.518   4.307  16.449  1.0508 -0.3417 -0.0872
  381TMC3    C7 5704   1.359   4.100  16.548 -0.1099  0.1266  0.1063
  381TMC3    C8 5705   1.701   4.260  16.250  0.8016  0.1282 -0.1165
  381TMC3    O1 5706   1.378   3.982  16.570 -0.0437 -0.3215  0.0494
  381TMC3    O2 5707   1.783   4.216  16.172  0.1939 -0.2106 -0.6586
  382MPD2     C 5708   0.928   1.756  17.491  0.5026  0.2633  0.3602
  382MPD2    C1 5709   0.807   1.766  17.553 -0.0774  0.2641 -0.3638
  382MPD2    C2 5710   0.735   1.650  17.573 -0.4707 -1.1588 -0.8065
  382MPD2    C3 5711   0.786   1.532  17.525  0.7623  1.2895  0.0344
  382MPD2    C4 5712   0.901   1.531  17.451  0.1169  0.4569 -0.3605
  382MPD2    C5 5713   0.960   1.644  17.425  0.3004 -1.1269  0.4763
  382MPD2     H 5714   0.644   1.661  17.632  1.2165  0.1898  1.5274
  382MPD2    H1 5715   0.943   1.444  17.402 -0.1119  0.8786 -1.3070
  382MPD2    H2 5716   0.996   1.835  17.461  0.3953 -1.4580 -4.3369
  382MPD2    H3 5717   1.054   1.648  17.373  0.7242  0.3532  1.3448
  382MPD2     N 5718   0.721   1.409  17.532 -0.1968  0.1098  0.7233
  382MPD2    H5 5719   0.746   1.327  17.477 -0.8400  0.7498 -0.5439
  382MPD2    N1 5720   0.758   1.891  17.595 -0.2219 -0.4325  0.3361
  382MPD2    H7 5721   0.679   1.875  17.657 -2.1651 -1.1394 -2.3592
  383TMC3    C1 5722   0.571   1.254  17.613 -0.1091 -0.7335 -0.0787
  383TMC3    C2 5723   0.576   1.191  17.491 -0.1901 -0.2956 -0.6626
  383TMC3    C3 5724   0.530   1.066  17.487  0.3844 -0.1650 -0.6438
  383TMC3    C4 5725   0.508   1.205   0.032 -0.4947  0.6749 -0.6780
  383TMC3    C5 5726   0.453   1.081   0.014 -0.5938  0.7821  0.0556
  383TMC3    C6 5727   0.465   1.006  17.593 -0.3836  0.2322 -0.2067
  383TMC3     C 5728   0.618   1.390  17.622  0.5804 -0.0728  0.2931
  383TMC3     O 5729   0.575   1.454   0.026 -0.8986 -1.0198  0.0417
  383TMC3     H 5730   0.614   1.237  17.400  0.3785 -1.5987 -1.0902
  383TMC3    H1 5731   0.499   1.249   0.130 -0.3065 -0.9346  0.0618
  383TMC3    H2 5732   0.407   0.915  17.585 -0.9384  0.5298  0.4088
  383TMC3    C7 5733   0.380   1.029   0.123 -0.0367 -0.1304 -0.3988
  383TMC3    C8 5734   0.509   1.013  17.356  1.0580  0.7124 -0.1307
  383TMC3    O1 5735   0.402   0.916   0.165 -0.0813  0.8781  0.3847
  383TMC3    O2 5736   0.484   1.091  17.264 -0.3561 -0.8111 -0.2735
  384MPD2     C 5737   2.558   2.816  12.213 -0.2342 -0.5807 -0.4151
  384MPD2    C1 5738   2.564   2.736  12.321 -0.0398  0.2140 -0.6577
  384MPD2    C2 5739   2.631   2.618  12.309  0.1312 -0.2976 -0.3290
  384MPD2    C3 5740   2.697   2.584  12.196 -0.2454  0.6294 -0.6411
  384MPD2    C4 5741   2.689   2.671  12.087 -0.6389 -0.2533 -0.2238
  384MPD2    C5 5742   2.623   2.789  12.093  0.2284  0.1288  0.2122
  384MPD2     H 5743   2.640   2.557  12.398 -1.3825 -1.0956 -0.7358
  384MPD2    H1 5744   2.726   2.641  11.989  1.0935 -0.9836  0.6555
  384MPD2    H2 5745   2.518   2.915  12.226 -4.6799 -2.6633  1.5404
  384MPD2    H3 5746   2.611   2.861  12.012 -2.6087 -0.5621  0.0081
  384MPD2     N 5747   2.770   2.460  12.196  0.3105  0.3759 -0.2625
  384MPD2    H5 5748   2.768   2.402  12.279  1.4543  0.5216 -0.1269
  384MPD2    N1 5749   2.487   2.751  12.436 -0.5748  0.3762 -0.2941
  384MPD2    H7 5750   2.506   2.684  12.510 -1.0933 -0.1285 -0.6152
  385TMC3    C1 5751   2.888   2.270  12.144  0.5292  0.1679  0.0768
  385TMC3    C2 5752   2.826   2.154  12.091  0.1075  0.4613  0.2875
  385TMC3    C3 5753   2.797   2.050  12.175 -0.3194  0.0791 -0.3433
  385TMC3    C4 5754   2.906   2.272  12.276 -0.4677 -0.2060 -0.2474
  385TMC3    C5 5755   2.877   2.167  12.363  0.1705 -0.7291  0.2007
  385TMC3    C6 5756   2.826   2.050  12.307  0.2148  0.2369 -0.0039
  385TMC3     C 5757   2.852   2.403  12.099 -0.0533 -0.4752  0.3258
  385TMC3     O 5758   2.877   2.442  11.985 -0.6687 -0.3258 -0.4789
  385TMC3     H 5759   2.813   2.151  11.983  1.5262 -1.5608  0.1792
  385TMC3    H1 5760   2.950   2.360  12.321 -1.6044  1.0366 -1.5497
  385TMC3    H2 5761   2.772   1.981  12.371 -0.0238  2.0047  1.6921
  385TMC3    C7 5762   2.806   2.232  12.475  0.5891 -0.1974 -0.4996
  385TMC3    C8 5763   2.765   1.918  12.117  0.0407  0.2432  0.3624
  385TMC3    O1 5764   2.764   2.344  12.455  0.4029 -0.1336  0.3968
  385TMC3    O2 5765   2.764   1.827  12.200  0.6707 -0.2225 -0.3206
  386TMC3    C1 5766   2.703   0.234  11.699 -0.7815  0.8645  0.1645
  386TMC3    C2 5767   2.762   0.192  11.582 -0.3403 -0.2055 -0.6882
  386TMC3    C3 5768   2.694   0.229  11.470  0.0468 -0.9256 -0.0434
  386TMC3    C4 5769   2.575   0.282  11.712  0.0626 -0.3366  0.4068
  386TMC3    C5 5770   2.513   0.314  11.596 -0.6648 -0.6494  0.2680
  386TMC3    C6 5771   2.572   0.295  11.474  0.0973  0.6301 -0.0156
  386TMC3     C 5772   2.762   0.201  11.822 -0.7333 -0.5257  0.2478
  386TMC3     O 5773   2.698   0.230  11.923 -0.0078 -0.0341  0.4577
  386TMC3     H 5774   2.861   0.148  11.574  0.6672  2.1471 -1.2917
  386TMC3    H1 5775   2.525   0.314  11.803  1.4728 -0.7582  1.3180
  386TMC3    H2 5776   2.510   0.309  11.385  1.5549 -0.5724 -1.2171
  386TMC3    C7 5777   2.400   0.406  11.606 -0.2596 -0.1308 -0.2721
  386TMC3    C8 5778   2.731   0.187  11.332 -0.0775  0.2607  0.5964
  386TMC3    O1 5779   2.344   0.401  11.714  0.0924 -0.1951  0.4015
  386TMC3    O2 5780   2.673   0.237  11.239  0.4100 -0.7661 -0.0925
  387MPD2     C 5781   0.835   0.273   9.611  0.1431 -0.4179 -0.0718
  387MPD2    C1 5782   0.871   0.284   9.745  0.2122 -0.1454  0.5260
  387MPD2    C2 5783   0.953   0.187   9.797 -0.4623 -0.9858 -0.5727
  387MPD2    C3 5784   0.970   0.067   9.735 -0.0332  0.0845 -0.5627
  387MPD2    C4 5785   0.927   0.052   9.605 -1.0484  0.2954  0.3603
  387MPD2    C5 5786   0.851   0.152   9.546 -0.3725 -0.1167  0.5367
  387MPD2     H 5787   0.984   0.199   9.900  0.7030 -2.8070 -0.7102
  387MPD2    H1 5788   0.935   4.677   9.560 -3.6292  1.3516 -2.4223
  387MPD2    H2 5789   0.780   0.350   9.557 -1.8764 -0.8809  1.3127
  387MPD2    H3 5790   0.806   0.149   9.448  2.4153 -0.8972 -0.7363
  387MPD2     N 5791   1.042   4.691   9.811 -0.2007 -0.9500  0.3554
  387MPD2    H5 5792   1.064   0.001   9.904  1.2622 -0.5616 -0.1204
  387MPD2    N1 5793   0.852   0.399   9.819 -0.3992  0.0029 -0.0659
  387MPD2    H7 5794   0.900   0.410   9.908 -0.4249 -0.7925  0.0402
  388TMC3    C1 5795   0.726   0.581   9.900 -0.0864 -0.3012 -0.0509
  388TMC3    C2 5796   0.664   0.702   9.877 -0.2206 -0.6331  0.0174
  388TMC3    C3 5797   0.632   0.780   9.990 -0.4817 -0.3675  0.5166
  388TMC3    C4 5798   0.737   0.532  10.028 -0.3688 -0.0510 -0.2493
  388TMC3    C5 5799   0.718   0.611  10.139 -0.3758  0.4050  0.0566
  388TMC3    C6 5800   0.662   0.736  10.121  0.3936  0.1745 -0.3410
  388TMC3     C 5801   0.751   0.490   9.794  0.4263 -0.0849 -0.0232
  388TMC3     O 5802   0.688   0.508   9.692 -0.1105  0.5457  0.1620
  388TMC3     H 5803   0.655   0.729   9.773  1.7798 -0.0396  0.0002
  388TMC3    H1 5804   0.759   0.426  10.039  1.7731  0.2551 -1.5041
  388TMC3    H2 5805   0.660   0.794  10.212  0.4035 -0.7092  0.2146
  388TMC3    C7 5806   0.741   0.547  10.273 -0.0233 -0.3169 -0.0182
  388TMC3    C8 5807   0.593   0.923   9.964  0.2401 -0.2693 -0.1388
  388TMC3    O1 5808   0.680   0.591  10.366 -0.3221  0.0578 -0.5997
  388TMC3    O2 5809   0.639   0.959   9.860 -0.6834 -0.5577  0.3722
  389MPD2     C 5810   4.479   3.275  11.030 -0.3429  0.6552 -0.6153
  389MPD2    C1 5811   4.408   3.181  10.962 -0.1671 -0.2806 -0.3835
  389MPD2    C2 5812   4.303   3.113  11.018  0.0878  0.0603 -0.2312
  389MPD2    C3 5813   4.280   3.126  11.152 -0.3108  0.6109  1.0587
  389MPD2    C4 5814   4.362   3.219  11.224  0.7737 -0.2684  0.4916
  389MPD2    C5 5815   4.464   3.295  11.169 -0.0046  0.5920 -0.3249
  389MPD2     H 5816   4.237   3.047  10.963  2.1347  0.4862 -3.1914
  389MPD2    H1 5817   4.357   3.231  11.332 -1.0268  0.6688  0.2852
  389MPD2    H2 5818   4.562   3.333  10.991  0.7073  0.5145  1.4017
  389MPD2    H3 5819   4.532   3.354  11.229  0.3141 -0.7181  0.5848
  389MPD2     N 5820   4.173   3.074  11.235 -0.1180 -0.0450 -0.0015
  389MPD2    H5 5821   4.179   3.092  11.335  0.7362  3.8695 -0.7229
  389MPD2    N1 5822   4.440   3.173  10.818 -0.4766  0.2296 -0.1289
  389MPD2    H7 5823   4.513   3.233  10.781 -1.1317  1.2849  0.2941
  390TMC3    C1 5824   3.976   2.961  11.292 -0.0316  0.4823  0.1025
  390TMC3    C2 5825   3.901   2.845  11.287 -0.2354 -0.2038 -0.3392
  390TMC3    C3 5826   3.789   2.844  11.365  0.0223 -0.1959 -0.8210
  390TMC3    C4 5827   3.945   3.071  11.370  0.0777  0.2099  0.0029
  390TMC3    C5 5828   3.828   3.063  11.446 -0.6357  0.8161 -0.7080
  390TMC3    C6 5829   3.749   2.950  11.444 -0.1247  0.2286 -0.1563
  390TMC3     C 5830   4.073   2.987  11.193  0.1365  0.2414  0.0656
  390TMC3     O 5831   4.059   2.928  11.088  0.4033 -0.1930  0.0946
  390TMC3     H 5832   3.919   2.768  11.213 -0.9364 -1.8276  1.1833
  390TMC3    H1 5833   3.999   3.165  11.363 -0.7375  0.7668  1.3552
  390TMC3    H2 5834   3.652   2.947  11.493  0.1252  1.3993  0.3924
  390TMC3    C7 5835   3.795   3.186  11.516 -0.0816 -0.7898  0.5528
  390TMC3    C8 5836   3.699   2.730  11.349 -0.3583  0.7047  0.4271
  390TMC3    O1 5837   3.858   3.289  11.489 -0.4757 -0.0231 -0.6045
  390TMC3    O2 5838   3.716   2.650  11.259 -0.1203  0.3679 -0.1509
  391MPD2     C 5839   4.004   0.091  11.357 -0.2248  0.5856  0.5449
  391MPD2    C1 5840   4.058   0.216  11.335  0.6775 -0.2593  0.3356
  391MPD2    C2 5841   4.084   0.266  11.208  0.6177  0.6084 -0.2627
  391MPD2    C3 5842   4.045   0.195  11.103 -1.0760  0.0820  0.0067
  391MPD2    C4 5843   3.974   0.075  11.123  0.0091 -0.2649 -0.0324
  391MPD2    C5 5844   3.963   0.023  11.247 -0.4042 -0.3728 -0.5325
  391MPD2     H 5845   4.130   0.363  11.198  1.6991  0.1877  0.5523
  391MPD2    H1 5846   3.939   0.004  11.049  2.3849 -2.0982  0.6137
  391MPD2    H2 5847   3.999   0.047  11.456  1.0299 -0.9217 -0.0545
  391MPD2    H3 5848   3.909   4.651  11.253 -0.6174 -0.2572 -0.6653
  391MPD2     N 5849   4.076   0.255  10.978 -0.2521  0.2247 -0.0375
  391MPD2    H5 5850   4.121   0.346  10.986 -0.9507  0.4556  1.4015
  391MPD2    N1 5851   4.101   0.284  11.448  0.1269  0.5634  0.0844
  391MPD2    H7 5852   4.122   0.222  11.526 -2.3465  0.4810  0.6554
  392TMC3    C1 5853   4.085   0.283  10.743  0.6696  0.5509 -0.1237
  392TMC3    C2 5854   4.037   0.259  10.622  0.9626 -0.3359  0.2813
  392TMC3    C3 5855   4.079   0.320  10.508  0.6180 -0.5490  0.1112
  392TMC3    C4 5856   4.185   0.378  10.757  0.1092 -1.0796 -0.2090
  392TMC3    C5 5857   4.234   0.432  10.641 -0.8067  0.6327 -0.4504
  392TMC3    C6 5858   4.178   0.412  10.515 -0.2161 -0.2939  0.2750
  392TMC3     C 5859   4.051   0.200  10.855  0.1113 -0.0442 -0.0722
  392TMC3     O 5860   3.978   0.107  10.831  0.5043  0.5332 -0.5058
  392TMC3     H 5861   3.955   0.188  10.621  1.8820 -1.3661 -0.7279
  392TMC3    H1 5862   4.241   0.386  10.850 -1.8839  0.8244  0.8182
  392TMC3    H2 5863   4.187   0.481  10.432 -1.0313 -0.3829  0.1058
  392TMC3    C7 5864   4.316   0.553  10.656 -0.1829  0.5763 -0.1150
  392TMC3    C8 5865   4.036   0.276  10.378  0.1717 -0.0415 -0.4052
  392TMC3    O1 5866   4.327   0.593  10.771  0.2680 -0.5055 -0.2212
  392TMC3    O2 5867   4.001   0.160  10.380  0.1086 -0.0492  0.4500
  393TMC3    C1 5868   3.195   2.864  10.766  0.7179  0.3108  1.2304
  393TMC3    C2 5869   3.077   2.849  10.823  0.5234  0.6391  0.5894
  393TMC3    C3 5870   2.991   2.773  10.757 -0.2666  0.4076 -0.3071
  393TMC3    C4 5871   3.232   2.805  10.651 -0.3071  0.2456 -0.2018
  393TMC3    C5 5872   3.137   2.733  10.585 -0.6233 -0.3515 -0.3732
  393TMC3    C6 5873   3.011   2.722  10.631  0.4063  1.2632  0.9744
  393TMC3     C 5874   3.236   3.004  10.772 -0.1305  0.1987 -0.3012
  393TMC3     O 5875   3.150   3.091  10.779 -0.3991 -0.0790 -0.4167
  393TMC3     H 5876   3.060   2.888  10.923  1.6979  1.0541  0.6236
  393TMC3    H1 5877   3.323   2.835  10.601 -0.0924  0.2450  0.1949
  393TMC3    H2 5878   2.944   2.657  10.575  2.2106  0.8345 -0.6658
  393TMC3    C7 5879   3.176   2.625  10.500 -0.9445 -0.6775  0.6314
  393TMC3    C8 5880   2.875   2.728  10.831  0.2446 -0.3182  0.0213
  393TMC3    O1 5881   3.116   2.518  10.503 -0.8351 -0.0441  0.2823
  393TMC3    O2 5882   2.877   2.746  10.951  0.7118 -0.6468  0.1792
  394TMC3    C1 5883   4.436   3.120  10.589  0.4944 -0.0818  0.3770
  394TMC3    C2 5884   4.392   3.041  10.482  0.7082  0.1346 -0.3872
  394TMC3    C3 5885   4.443   3.067  10.359 -0.1436 -0.3708 -0.5963
  394TMC3    C4 5886   4.511   3.232  10.571  0.1573 -0.0930 -0.6406
  394TMC3    C5 5887   4.554   3.254  10.439  1.0130 -0.4672  0.5803
  394TMC3    C6 5888   4.523   3.175  10.335 -0.7052  0.0615  0.5466
  394TMC3     C 5889   4.381   3.088  10.723  0.5354 -0.0691 -0.1695
  394TMC3     O 5890   4.296   3.000  10.735  0.1422  0.5239  0.0690
  394TMC3     H 5891   4.317   2.962  10.487 -0.6495  1.5708  1.6214
  394TMC3    H1 5892   4.543   3.306  10.643 -0.7579 -0.0645 -0.2711
  394TMC3    H2 5893   4.566   3.209  10.242  1.2375  1.1388  1.8424
  394TMC3    C7 5894   4.675   3.330  10.433  0.5759 -0.0345 -0.1254
  394TMC3    C8 5895   4.377   3.021  10.236 -0.6776 -0.2413  0.9178
  394TMC3    O1 5896   4.673   3.436  10.500  0.1964  1.0027 -0.6060
  394TMC3    O2 5897   4.375   3.088  10.132 -0.3502 -0.0395 -0.3473
  395TMC3    C1 5898   4.049   0.559  14.774  0.9765  0.7540 -0.0906
  395TMC3    C2 5899   3.938   0.581  14.701 -0.4667  0.1267 -0.2530
  395TMC3    C3 5900   3.931   0.682  14.606 -0.4284  0.3196 -0.2106
  395TMC3    C4 5901   4.146   0.655  14.776  0.3417 -0.2367  0.1161
  395TMC3    C5 5902   4.137   0.754  14.685 -0.2141  0.7313  0.2577
  395TMC3    C6 5903   4.039   0.761  14.589 -0.4771 -0.0929 -0.4257
  395TMC3     C 5904   4.047   0.449  14.871 -0.2324  0.1484  0.5614
  395TMC3     O 5905   3.932   0.404  14.881 -0.2258  0.0670  0.4438
  395TMC3     H 5906   3.861   0.504  14.700 -2.0370  1.7560 -2.9071
  395TMC3    H1 5907   4.238   0.642  14.830 -0.2198  0.1001  1.1428
  395TMC3    H2 5908   4.027   0.852  14.530  1.2099 -0.8834 -1.9636
  395TMC3    C7 5909   4.262   0.837  14.685 -0.2284  1.0955 -0.3949
  395TMC3    C8 5910   3.804   0.724  14.551 -0.3202  0.0138 -0.3378
  395TMC3    O1 5911   4.327   0.854  14.790 -0.1546 -0.2900 -0.1632
  395TMC3    O2 5912   3.804   0.802  14.460 -0.1218 -0.7323 -0.0495
  396MPD2     C 5913   3.228   0.963  17.290 -0.5895 -0.4816 -0.4735
  396MPD2    C1 5914   3.334   0.936  17.201  1.2428 -0.0620 -0.1573
  396MPD2    C2 5915   3.444   1.017  17.205 -0.3140  0.3168  0.1003
  396MPD2    C3 5916   3.462   1.129  17.290 -0.2705  0.1389 -0.0283
  396MPD2    C4 5917   3.364   1.141  17.386  0.7077 -0.0086  0.4274
  396MPD2    C5 5918   3.249   1.060  17.387  0.9483  0.6179  0.3457
  396MPD2     H 5919   3.526   1.002  17.135  1.0197  2.3644  1.1884
  396MPD2    H1 5920   3.372   1.210  17.470 -0.7671  0.4475  0.2004
  396MPD2    H2 5921   3.144   0.895  17.299 -1.0341  0.3086  1.4179
  396MPD2    H3 5922   3.172   1.067  17.463  0.9421  0.7487  0.3263
  396MPD2     N 5923   3.563   1.232  17.283  0.1058 -0.0999  0.4588
  396MPD2    H5 5924   3.540   1.313  17.340  1.4762  0.2520  0.5160
  396MPD2    N1 5925   3.307   0.835  17.102  0.4834 -0.4021  0.0655
  396MPD2    H7 5926   3.228   0.772  17.110 -0.1279  0.0851 -2.3716
  397TMC3    C1 5927   3.356   0.696  16.925  0.0361 -0.3416 -0.8002
  397TMC3    C2 5928   3.409   0.695  16.798  0.3722  0.4448  0.2978
  397TMC3    C3 5929   3.531   0.628  16.768  0.0430 -0.7543 -0.1878
  397TMC3    C4 5930   3.410   0.596  17.009  0.0098 -0.5420 -0.1951
  397TMC3    C5 5931   3.516   0.518  16.978 -0.2885  0.0417 -0.3540
  397TMC3    C6 5932   3.582   0.528  16.854  0.4680 -0.0621 -0.1724
  397TMC3     C 5933   3.374   0.826  16.983  1.3958  0.0518  0.1375
  397TMC3     O 5934   3.445   0.911  16.932  0.8613  0.0152 -0.3974
  397TMC3     H 5935   3.392   0.786  16.742  0.4757  0.6688  0.6305
  397TMC3    H1 5936   3.382   0.596  17.114 -1.1792  0.0200 -0.5096
  397TMC3    H2 5937   3.671   0.470  16.835 -0.4719 -2.4509  2.8215
  397TMC3    C7 5938   3.554   0.408  17.065 -0.7386  0.1883 -0.1118
  397TMC3    C8 5939   3.604   0.650  16.645  0.0133  0.0749  0.1355
  397TMC3    O1 5940   3.546   0.294  17.024  0.2497  0.4585 -0.2619
  397TMC3    O2 5941   3.549   0.677  16.539  0.9489 -0.4234 -0.1025
  398MPD2     C 5942   1.775   2.588   0.252  0.3378  0.0388  0.1218
  398MPD2    C1 5943   1.837   2.506   0.343  0.8146 -0.0354  0.8551
  398MPD2    C2 5944   1.955   2.558   0.404 -0.5943 -0.0845 -0.3311
  398MPD2    C3 5945   2.005   2.681   0.372 -0.2319  0.6719 -0.3260
  398MPD2    C4 5946   1.936   2.761   0.292 -0.1574  0.0045  0.3967
  398MPD2    C5 5947   1.818   2.713   0.228 -0.2333 -0.1396  0.1779
  398MPD2     H 5948   2.013   2.496   0.471  0.5255 -0.6990 -1.8591
  398MPD2    H1 5949   1.960   2.864   0.266  0.9600 -0.4289 -0.2839
  398MPD2    H2 5950   1.683   2.555   0.205 -0.0945  0.6806  0.5165
  398MPD2    H3 5951   1.766   2.782   0.162 -1.3309 -2.0838 -0.9762
  398MPD2     N 5952   2.126   2.718   0.438  0.0543  0.4472 -0.6699
  398MPD2    H5 5953   2.156   2.657   0.514 -1.8920 -0.7153 -0.8178
  398MPD2    N1 5954   1.803   2.368   0.367  0.1023 -0.4859  0.1966
  398MPD2    H7 5955   1.864   2.317   0.431  0.2361  0.4418  0.8076
  399TMC3    C1 5956   1.696   2.160   0.332  0.4532 -0.1270 -0.0666
  399TMC3    C2 5957   1.797   2.101   0.395 -0.5312 -0.0465  0.0820
  399TMC3    C3 5958   1.799   1.967   0.397  0.0016  1.1652 -0.2293
  399TMC3    C4 5959   1.585   2.096   0.275 -0.3625 -0.0412  0.0172
  399TMC3    C5 5960   1.591   1.957   0.288 -0.0041  0.3000 -0.3900
  399TMC3    C6 5961   1.697   1.890   0.345 -0.2365 -0.1468  0.6731
  399TMC3     C 5962   1.712   2.296   0.294  0.1204  0.1456  0.4175
  399TMC3     O 5963   1.637   2.338   0.210  0.2682  0.1520  0.4118
  399TMC3     H 5964   1.887   2.153   0.425 -0.8394  0.0778  0.7838
  399TMC3    H1 5965   1.506   2.152   0.227 -1.4039 -2.6594 -1.3399
  399TMC3    H2 5966   1.690   1.782   0.354 -4.6986  0.1619  0.8915
  399TMC3    C7 5967   1.483   1.871   0.243  0.3977  0.1196  0.0728
  399TMC3    C8 5968   1.912   1.900   0.455 -1.2260  0.2666 -0.6495
  399TMC3    O1 5969   1.504   1.752   0.236  0.1763  0.5245 -0.1927
  399TMC3    O2 5970   1.979   1.971   0.525 -0.0893  0.0935  0.0437
  400TMC3    C1 5971   0.759   0.718  16.965  0.3734  0.4119  0.3383
  400TMC3    C2 5972   0.643   0.751  16.900  0.0185  1.0384  0.0780
  400TMC3    C3 5973   0.603   0.884  16.883  0.3618  0.1552  0.2242
  400TMC3    C4 5974   0.845   0.822  16.987 -0.9737  1.0343 -0.2187
  400TMC3    C5 5975   0.812   0.951  16.960  0.3415  0.5028  0.3503
  400TMC3    C6 5976   0.692   0.986  16.903  0.2018  0.1472 -0.2570
  400TMC3     C 5977   0.767   0.590  17.035 -0.9087 -0.6358 -0.6670
  400TMC3     O 5978   0.711   0.490  16.987  0.6581  0.3092 -0.0170
  400TMC3     H 5979   0.582   0.665  16.875  0.2414  0.0841  2.7214
  400TMC3    H1 5980   0.939   0.799  17.037 -1.3504 -0.9092 -0.4178
  400TMC3    H2 5981   0.684   1.085  16.861 -0.0402 -0.6796 -2.1542
  400TMC3    C7 5982   0.889   1.060  17.007  0.3927  0.1697 -0.0686
  400TMC3    C8 5983   0.501   0.908  16.783  0.0524  0.1472 -0.3735
  400TMC3    O1 5984   1.011   1.046  16.997  0.0768  1.1622 -1.0955
  400TMC3    O2 5985   0.447   1.019  16.795  0.2965  0.5326  0.3102
  401MPD2     C 5986   3.182   3.636  17.599  0.5273 -0.5542 -0.1323
  401MPD2    C1 5987   3.209   3.591   0.041 -0.0558 -0.3826  0.1806
  401MPD2    C2 5988   3.219   3.456   0.060  0.1473 -0.3767 -0.6117
  401MPD2    C3 5989   3.201   3.372  17.645  0.4993  0.7006  0.7345
  401MPD2    C4 5990   3.172   3.419  17.520  0.6398  0.0791  0.6635
  401MPD2    C5 5991   3.172   3.551  17.498 -0.5848 -0.1833  0.7004
  401MPD2     H 5992   3.244   3.421   0.159  1.1630  4.9203  1.0420
  401MPD2    H1 5993   3.180   3.353  17.434  1.8557 -0.5182  1.2346
  401MPD2    H2 5994   3.171   3.740  17.571  0.3787 -0.3571  0.6630
  401MPD2    H3 5995   3.180   3.596  17.400  0.7543 -2.5771 -0.2794
  401MPD2     N 5996   3.221   3.236  17.675 -0.4535 -0.1147 -0.0580
  401MPD2    H5 5997   3.257   3.217   0.076 -0.6169  1.8477  0.4220
  401MPD2    N1 5998   3.233   3.683   0.150  0.1374  0.4550 -0.1005
  401MPD2    H7 5999   3.268   3.640   0.236 -1.7242 -1.5180 -0.3254
  402TMC3    C1 6000   3.173   3.018  17.688  0.0552 -0.6129  0.3054
  402TMC3    C2 6001   3.092   3.050   0.103  0.0329 -0.6475  0.4609
  402TMC3    C3 6002   3.106   2.970   0.215 -0.0340  0.4792 -0.1475
  402TMC3    C4 6003   3.263   2.918  17.682  0.5862 -0.2345  0.0285
  402TMC3    C5 6004   3.264   2.833   0.100  0.1065  0.5424  0.6378
  402TMC3    C6 6005   3.194   2.863   0.213  0.3151 -1.0385  0.2216
  402TMC3     C 6006   3.204   3.127  17.596 -0.1776 -0.2966  0.5108
  402TMC3     O 6007   3.199   3.106  17.477  0.0573  0.0067 -0.2686
  402TMC3     H 6008   3.016   3.124   0.082  2.5892  1.9491  0.3731
  402TMC3    H1 6009   3.337   2.911  17.603  0.2625 -0.4634 -0.2566
  402TMC3    H2 6010   3.211   2.811   0.307  0.6494 -1.2440  0.0437
  402TMC3    C7 6011   3.366   2.726   0.102  0.3471  0.1782 -0.6504
  402TMC3    C8 6012   3.080   3.036   0.344  1.0041 -0.0843  0.2976
  402TMC3    O1 6013   3.467   2.754   0.038  0.6586 -0.1488 -0.1049
  402TMC3    O2 6014   3.086   2.982   0.453  0.3706 -0.5607  0.0747
  403MPD2     C 6015   2.206   2.634  13.478  0.1665  0.0994 -0.1046
  403MPD2    C1 6016   2.236   2.523  13.550  0.2262  0.4016  0.0212
  403MPD2    C2 6017   2.338   2.534  13.645 -0.4050 -0.4075  0.2283
  403MPD2    C3 6018   2.412   2.647  13.661 -0.4093 -0.4251  0.6417
  403MPD2    C4 6019   2.391   2.750  13.578 -0.4833  0.8036  0.2304
  403MPD2    C5 6020   2.276   2.749  13.497  0.6908  0.3617  0.6841
  403MPD2     H 6021   2.370   2.447  13.702 -1.3027  0.5888  2.2686
  403MPD2    H1 6022   2.451   2.841  13.573  0.3006  0.2784  0.0489
  403MPD2    H2 6023   2.129   2.643  13.403 -0.4503  0.4810  0.5718
  403MPD2    H3 6024   2.245   2.832  13.434  0.5237 -0.0506  0.2199
  403MPD2     N 6025   2.504   2.648  13.774 -0.1323  0.2964 -0.2481
  403MPD2    H5 6026   2.506   2.569  13.838  2.2223  0.4921 -0.0754
  403MPD2    N1 6027   2.167   2.411  13.522 -0.6624 -0.5585  0.2781
  403MPD2    H7 6028   2.079   2.428  13.475 -0.7286  0.6306  0.8287
  404TMC3    C1 6029   2.109   2.182  13.503  0.2852 -0.0941 -0.7395
  404TMC3    C2 6030   2.087   2.069  13.577  0.0819  0.0186  0.2006
  404TMC3    C3 6031   2.019   1.961  13.523  0.0964 -0.4580 -0.2957
  404TMC3    C4 6032   2.050   2.198  13.375  0.1872 -0.7377 -0.6156
  404TMC3    C5 6033   1.991   2.081  13.323 -0.0260  0.4734 -0.6172
  404TMC3    C6 6034   1.984   1.960  13.392 -0.2950  0.6886 -0.2636
  404TMC3     C 6035   2.188   2.280  13.570 -0.3604 -0.0701 -0.4778
  404TMC3     O 6036   2.276   2.237  13.645 -0.4817 -0.4537 -0.5869
  404TMC3     H 6037   2.146   2.052  13.666  2.8000  2.5569 -1.1118
  404TMC3    H1 6038   2.068   2.293  13.327 -0.9967 -0.5203 -0.6341
  404TMC3    H2 6039   1.919   1.880  13.358  0.2789 -0.5018  1.4060
  404TMC3    C7 6040   1.914   2.100  13.199  0.2646 -0.3859  0.1071
  404TMC3    C8 6041   1.985   1.847  13.606 -0.1303  0.6006 -0.0033
  404TMC3    O1 6042   1.912   2.211  13.148 -0.5408  0.2850  0.0020
  404TMC3    O2 6043   1.938   1.747  13.552  0.0911 -0.1887  0.3732
  405MPD2     C 6044   2.300   3.195  14.476  0.3760  0.3129  0.0593
  405MPD2    C1 6045   2.232   3.078  14.447 -0.4058  0.1622 -0.5289
  405MPD2    C2 6046   2.156   3.075  14.332  0.5112  0.2952  0.5044
  405MPD2    C3 6047   2.136   3.178  14.248  0.1134 -0.0183  0.4986
  405MPD2    C4 6048   2.194   3.298  14.288 -0.0856  0.3875 -0.4932
  405MPD2    C5 6049   2.266   3.308  14.399 -0.6647  0.1057  0.0879
  405MPD2     H 6050   2.104   2.984  14.307  0.3124  0.4387  0.3957
  405MPD2    H1 6051   2.180   3.388  14.229  0.6230  0.5757 -0.3651
  405MPD2    H2 6052   2.367   3.196  14.561 -0.5888  0.3537  0.8201
  405MPD2    H3 6053   2.305   3.407  14.420  1.3712 -1.2905  2.9894
  405MPD2     N 6054   2.045   3.160  14.140  0.0787  0.2193 -0.1400
  405MPD2    H5 6055   2.012   3.064  14.135  0.7341 -0.1137  1.8921
  405MPD2    N1 6056   2.248   2.953  14.515  0.8255  0.3868 -0.2807
  405MPD2    H7 6057   2.193   2.877  14.475  0.2856  0.2336  0.7424
  406TMC3    C1 6058   1.674   3.241  13.922 -0.4495  0.8255 -0.0879
  406TMC3    C2 6059   1.651   3.107  13.943 -0.5932  0.5395 -0.5714
  406TMC3    C3 6060   1.754   3.025  13.958 -0.3736 -0.6332 -0.8080
  406TMC3    C4 6061   1.796   3.289  13.929  0.9275  0.1564  0.5545
  406TMC3    C5 6062   1.899   3.204  13.966  0.3286 -0.3459  0.0662
  406TMC3    C6 6063   1.885   3.069  13.973  0.3868  0.4680 -0.2146
  406TMC3     C 6064   1.570   3.337  13.949  0.0249  0.1007  0.0876
  406TMC3     O 6065   1.572   3.447  13.899  0.0197  0.0833  0.0085
  406TMC3     H 6066   1.547   3.075  13.940 -0.7543  0.8091  2.6231
  406TMC3    H1 6067   1.806   3.397  13.933 -2.2902  0.5924 -3.2074
  406TMC3    H2 6068   1.963   2.994  13.971  1.0972  1.2932 -3.1589
  406TMC3    C7 6069   2.012   3.251  14.049  0.0682  0.9452 -0.9872
  406TMC3    C8 6070   1.725   2.883  13.971 -0.1313  0.1846 -0.1894
  406TMC3    O1 6071   2.035   3.374  14.043 -0.2876 -0.2011  0.1682
  406TMC3    O2 6072   1.611   2.849  13.959  0.1396  0.4909  0.4053
  407MPD2     C 6073   0.511   4.609   9.485 -0.4168 -0.9996  0.7710
  407MPD2    C1 6074   0.606   4.563   9.575  0.3298 -0.2908  0.0698
  407MPD2    C2 6075   0.626   4.644   9.690  0.9350  0.0884 -0.3321
  407MPD2    C3 6076   0.534   0.018   9.728 -0.1563 -0.1464  0.4048
  407MPD2    C4 6077   0.430   0.052   9.645  0.3507  0.1398  0.1861
  407MPD2    C5 6078   0.428   4.710   9.524  0.5169 -0.3594  0.2774
  407MPD2     H 6079   0.705   4.613   9.757 -1.0090  1.6896  2.6928
  407MPD2    H1 6080   0.360   0.134   9.655  0.8456  0.7173 -1.0533
  407MPD2    H2 6081   0.494   4.562   9.389  0.1648  0.7870 -0.2049
  407MPD2    H3 6082   0.355   0.022   9.451  1.2444  0.6723  0.0446
  407MPD2     N 6083   0.537   0.091   9.849  0.4646  0.4465 -0.1149
  407MPD2    H5 6084   0.450   0.144   9.858  1.1134  1.1531  1.9228
  407MPD2    N1 6085   0.691   4.448   9.567 -0.3147  0.1178 -0.2228
  407MPD2    H7 6086   0.766   4.442   9.635 -0.5539  0.9507  0.1264
  408TMC3    C1 6087   0.772   4.240   9.492 -0.2554 -0.5420 -0.3989
  408TMC3    C2 6088   0.909   4.274   9.493 -0.1762 -0.1391 -0.3842
  408TMC3    C3 6089   1.002   4.177   9.514 -0.9001 -0.1619 -0.1399
  408TMC3    C4 6090   0.723   4.112   9.525 -0.0825  0.6100 -0.1630
  408TMC3    C5 6091   0.826   4.026   9.554  0.5612 -0.6003 -0.5370
  408TMC3    C6 6092   0.960   4.051   9.552  0.3833 -0.1719  0.2011
  408TMC3     C 6093   0.670   4.345   9.484 -0.2501  0.4080  0.3104
  408TMC3     O 6094   0.567   4.311   9.430  0.3260 -0.1162  0.2851
  408TMC3     H 6095   0.940   4.375   9.469  0.7989 -0.1067  1.0350
  408TMC3    H1 6096   0.618   4.088   9.541  0.3283 -0.3530  1.1084
  408TMC3    H2 6097   1.028   3.970   9.577  2.8388  1.5340 -0.8651
  408TMC3    C7 6098   0.791   3.895   9.605 -0.0511  0.3466  0.1090
  408TMC3    C8 6099   1.149   4.203   9.504 -0.0260 -0.0447 -0.0009
  408TMC3    O1 6100   0.860   3.794   9.591 -0.0949  0.3449  0.5158
  408TMC3    O2 6101   1.218   4.105   9.494  0.7338  0.4532 -0.0371
  409MPD2     C 6102   4.152   0.351  16.668 -0.3358  0.2243 -0.4922
  409MPD2    C1 6103   4.174   0.400  16.796  0.1944 -0.2220 -0.4111
  409MPD2    C2 6104   4.271   0.495  16.811 -0.0195 -0.7098 -0.1804
  409MPD2    C3 6105   4.356   0.533  16.707  0.2681 -0.4168 -0.3364
  409MPD2    C4 6106   4.360   0.466  16.590  0.3832 -0.0286 -0.3541
  409MPD2    C5 6107   4.254   0.374  16.577 -0.2153  0.2652 -0.9885
  409MPD2     H 6108   4.304   0.519  16.911 -2.1361 -0.6076  0.4785
  409MPD2    H1 6109   4.429   0.483  16.508  0.6757  0.8408  0.0698
  409MPD2    H2 6110   4.088   0.267  16.645 -1.0002  0.8514 -0.9299
  409MPD2    H3 6111   4.246   0.317  16.486 -0.9525  0.0621 -0.7965
  409MPD2     N 6112   4.451   0.634  16.723  0.1628 -0.3479  0.6264
  409MPD2    H5 6113   4.495   0.654  16.634  0.1424  0.5840  0.8163
  409MPD2    N1 6114   4.097   0.369  16.904  0.0630 -0.5582  0.0566
  409MPD2    H7 6115   4.115   0.422  16.989 -1.7151  2.2114 -1.3093
  410TMC3    C1 6116   4.580   0.808  16.807 -0.0906  0.3916 -0.0363
  410TMC3    C2 6117   4.651   0.836  16.917  0.4643 -0.3714  0.1350
  410TMC3    C3 6118   0.013   0.945  16.907 -0.0393  0.4587  0.1344
  410TMC3    C4 6119   4.586   0.884  16.687 -0.2199 -0.3139 -0.3564
  410TMC3    C5 6120   4.656   1.004  16.690  0.1237  0.2275  0.5158
  410TMC3    C6 6121   0.010   1.030  16.799 -0.8418  0.4552 -0.0922
  410TMC3     C 6122   4.484   0.703  16.830  0.4050 -0.4895  0.1971
  410TMC3     O 6123   4.457   0.689  16.948  0.5644 -0.1429 -0.0008
  410TMC3     H 6124   4.652   0.771  17.004  0.7952  1.5534  1.5836
  410TMC3    H1 6125   4.536   0.850  16.598 -4.1043 -0.2565  1.8300
  410TMC3    H2 6126   0.068   1.122  16.798 -0.4317  0.2295  2.2595
  410TMC3    C7 6127   4.558   1.108  16.645 -0.2155  0.6586  1.0692
  410TMC3    C8 6128   0.138   0.939  16.986 -0.6085 -0.4641  0.7359
  410TMC3    O1 6129   4.444   1.063  16.626  0.0863  0.1840  0.4591
  410TMC3    O2 6130   0.200   1.040  17.004  0.2406  0.1542 -0.0035
  411MPD2     C 6131   0.001   1.735  14.525  0.1399 -0.6527 -0.1984
  411MPD2    C1 6132   4.595   1.730  14.576  0.2116 -0.2586  0.7864
  411MPD2    C2 6133   4.506   1.622  14.549 -0.3920  0.5321  1.0032
  411MPD2    C3 6134   4.540   1.525  14.450 -0.1247  0.1379  0.0223
  411MPD2    C4 6135   4.667   1.540  14.390  0.2272 -0.8097  0.1574
  411MPD2    C5 6136   0.039   1.641  14.430 -0.3264 -0.3792  0.3347
  411MPD2     H 6137   4.405   1.623  14.587 -0.3350  1.6032  1.1382
  411MPD2    H1 6138   4.690   1.471  14.310 -0.0423 -1.2288  0.4425
  411MPD2    H2 6139   0.073   1.804  14.567  0.3201  0.4198 -2.2698
  411MPD2    H3 6140   0.134   1.643  14.377  1.0586 -0.0157  2.8650
  411MPD2     N 6141   4.451   1.441  14.384 -0.1288  0.4172 -0.7566
  411MPD2    H5 6142   4.498   1.394  14.308 -1.6646 -1.6673 -0.4143
  411MPD2    N1 6143   4.545   1.830  14.663  0.3988  0.1642  0.3446
  411MPD2    H7 6144   4.452   1.821  14.704  1.3251  1.6381  2.7821
  412TMC3    C1 6145   4.273   1.300  14.334 -0.3429  0.1672  0.6158
  412TMC3    C2 6146   4.175   1.228  14.397  0.3375  0.2547 -0.5104
  412TMC3    C3 6147   4.121   1.122  14.325 -0.0604  0.1456 -0.2947
  412TMC3    C4 6148   4.322   1.277  14.206 -0.0836 -0.7325  0.3411
  412TMC3    C5 6149   4.266   1.173  14.139  0.8227 -0.2430  0.8798
  412TMC3    C6 6150   4.175   1.095  14.202 -0.1302 -0.2980  0.1731
  412TMC3     C 6151   4.321   1.418  14.412 -0.0583 -0.2931 -0.0258
  412TMC3     O 6152   4.255   1.455  14.509 -0.7097  0.0328 -0.4477
  412TMC3     H 6153   4.148   1.243  14.501  0.9204  0.5559 -0.3986
  412TMC3    H1 6154   4.395   1.341  14.158  0.8210 -0.9323  1.4443
  412TMC3    H2 6155   4.132   1.008  14.153  1.2015  0.1418 -1.8051
  412TMC3    C7 6156   4.204   1.221  14.016 -0.9367 -0.0256  0.4090
  412TMC3    C8 6157   3.976   1.102  14.337 -0.3874  0.6634  0.1718
  412TMC3    O1 6158   4.086   1.190  13.999 -0.4825  0.3657  0.1942
  412TMC3    O2 6159   3.938   1.092  14.452 -0.4799  0.3402  0.1490
  413MPD2     C 6160   1.438   4.482  15.537 -0.1084 -0.6694  0.5658
  413MPD2    C1 6161   1.394   4.426  15.424 -0.8069  0.9876  0.1827
  413MPD2    C2 6162   1.480   4.359  15.338 -0.5114  0.2561  0.6207
  413MPD2    C3 6163   1.622   4.360  15.365  0.0126 -0.6240 -0.3158
  413MPD2    C4 6164   1.663   4.433  15.473 -0.0751  0.5414 -1.3113
  413MPD2    C5 6165   1.573   4.487  15.563  0.1347  0.4305  0.5030
  413MPD2     H 6166   1.438   4.312  15.250  0.6422 -1.7605  1.1400
  413MPD2    H1 6167   1.769   4.427  15.491 -0.7085 -1.0272  1.7852
  413MPD2    H2 6168   1.383   4.534  15.614  0.6027 -2.1167  2.0407
  413MPD2    H3 6169   1.604   4.541  15.651  1.6217  0.9940 -0.3773
  413MPD2     N 6170   1.703   4.289  15.282  0.5957  0.0547 -0.0158
  413MPD2    H5 6171   1.650   4.233  15.217  1.2477 -2.9700  2.0876
  413MPD2    N1 6172   1.253   4.428  15.417  0.5759 -0.2942  0.0694
  413MPD2    H7 6173   1.207   4.455  15.503  0.7678 -0.7169  0.3033
  414TMC3    C1 6174   1.866   4.154  15.195 -0.0476  0.1744 -0.6037
  414TMC3    C2 6175   1.913   4.041  15.251  0.0928 -0.2103  0.3567
  414TMC3    C3 6176   1.870   3.929  15.193 -0.0675  0.1901 -0.5486
  414TMC3    C4 6177   1.783   4.157  15.082  0.3090 -0.2098  0.4451
  414TMC3    C5 6178   1.758   4.038  15.020 -1.0075 -0.4471 -0.1852
  414TMC3    C6 6179   1.783   3.919  15.089 -0.5640 -0.1109 -0.1289
  414TMC3     C 6180   1.833   4.253  15.296  0.4650 -0.2782  0.6263
  414TMC3     O 6181   1.916   4.276  15.382  0.3541 -0.2323 -0.5119
  414TMC3     H 6182   1.966   4.040  15.346  1.6634  0.0634 -0.5241
  414TMC3    H1 6183   1.746   4.246  15.032 -3.1046 -1.7786  0.1556
  414TMC3    H2 6184   1.755   3.819  15.056  0.4597 -0.2246 -0.6600
  414TMC3    C7 6185   1.640   4.041  14.930  0.2167  0.4845  0.1349
  414TMC3    C8 6186   1.948   3.807  15.210  0.1242  0.5689 -0.2438
  414TMC3    O1 6187   1.566   4.125  14.974 -0.1545 -0.3174  0.8465
  414TMC3    O2 6188   1.905   3.700  15.163 -0.1518  0.5576 -0.3909
  415TMC3    C1 6189   1.463   2.401  10.269 -0.0830 -0.0251  0.0930
  415TMC3    C2 6190   1.479   2.432  10.137  0.2914 -0.0815  0.0867
  415TMC3    C3 6191   1.449   2.333  10.042  0.7640  0.4364  0.2144
  415TMC3    C4 6192   1.430   2.273  10.307 -0.2160  0.3804 -0.1485
  415TMC3    C5 6193   1.386   2.191  10.204 -0.5888 -0.1054  0.1322
  415TMC3    C6 6194   1.391   2.220  10.073 -0.6025 -0.1117 -0.6901
  415TMC3     C 6195   1.563   2.459  10.355 -0.0582 -0.8075  0.4156
  415TMC3     O 6196   1.655   2.519  10.295 -0.5767  0.1156 -0.0215
  415TMC3     H 6197   1.517   2.529  10.104  0.4961  0.0773  0.7838
  415TMC3    H1 6198   1.419   2.240  10.410 -0.6832  1.0188  0.0038
  415TMC3    H2 6199   1.364   2.147   9.998 -1.1678  1.5213 -2.0607
  415TMC3    C7 6200   1.355   2.053  10.231  0.2298  0.3970  0.1046
  415TMC3    C8 6201   1.476   2.360   9.899 -0.1488 -0.4319 -0.4368
  415TMC3    O1 6202   1.311   1.995  10.136  0.2435 -0.0736  0.0796
  415TMC3    O2 6203   1.392   2.309   9.826  0.4028  0.2840  0.3744
  416MPD2     C 6204   4.205   1.584  11.455  0.2330 -0.6686 -0.5770
  416MPD2    C1 6205   4.090   1.506  11.471  0.5380 -0.1416 -0.9540
  416MPD2    C2 6206   4.096   1.381  11.405  0.4171  0.4761  0.3527
  416MPD2    C3 6207   4.199   1.348  11.322  0.5637  0.2626  0.2561
  416MPD2    C4 6208   4.301   1.442  11.294 -0.4349  0.3758  0.1500
  416MPD2    C5 6209   4.312   1.552  11.376 -0.1215  0.1914 -0.5116
  416MPD2     H 6210   4.015   1.308  11.402 -1.2095  2.2904  0.6640
  416MPD2    H1 6211   4.378   1.413  11.223 -1.3839 -1.7571  0.0207
  416MPD2    H2 6212   4.215   1.672  11.518 -0.8370 -0.2412 -0.9982
  416MPD2    H3 6213   4.398   1.620  11.377  0.5753 -0.7163  0.6045
  416MPD2     N 6214   4.191   1.223  11.253 -0.0811 -0.0584 -0.6437
  416MPD2    H5 6215   4.118   1.156  11.277  0.5474 -1.2379 -2.0018
  416MPD2    N1 6216   3.976   1.560  11.543  0.0956  0.8335 -0.4041
  416MPD2    H7 6217   3.981   1.650  11.590  3.7868  1.3601 -1.8615
  417TMC3    C1 6218   3.739   1.573  11.598 -0.1992 -0.3246  0.2647
  417TMC3    C2 6219   3.752   1.654  11.707 -0.2797 -0.1600 -0.4514
  417TMC3    C3 6220   3.646   1.727  11.755  0.3439  0.4568  0.5583
  417TMC3    C4 6221   3.612   1.546  11.548 -0.2918  0.2544 -0.3841
  417TMC3    C5 6222   3.510   1.614  11.604  0.0230 -0.1932  0.0011
  417TMC3    C6 6223   3.521   1.707  11.706 -0.1443  0.7172 -0.0068
  417TMC3     C 6224   3.850   1.507  11.536 -0.2798 -0.7043 -0.4286
  417TMC3     O 6225   3.818   1.398  11.496 -0.5455 -0.6381  0.0193
  417TMC3     H 6226   3.850   1.679  11.747 -0.2870 -1.4448  0.3786
  417TMC3    H1 6227   3.603   1.501  11.450 -0.7798  0.3712 -0.3957
  417TMC3    H2 6228   3.446   1.776  11.742  0.3317  0.0777  2.2066
  417TMC3    C7 6229   3.380   1.590  11.547  0.4197  0.4379  0.2769
  417TMC3    C8 6230   3.649   1.806  11.881 -0.2494 -0.4892 -0.2370
  417TMC3    O1 6231   3.369   1.538  11.436 -0.4953  0.4726  0.8697
  417TMC3    O2 6232   3.543   1.806  11.947  0.6050 -0.4206 -0.0503
  418TMC3    C1 6233   2.468   2.614   0.333 -0.1336  0.3262 -0.8341
  418TMC3    C2 6234   2.399   2.734   0.339  0.3600 -0.7630  0.3491
  418TMC3    C3 6235   2.335   2.766   0.450  0.1771  0.5086  0.2269
  418TMC3    C4 6236   2.459   2.518   0.431 -0.0977  0.2072 -0.2526
  418TMC3    C5 6237   2.397   2.557   0.548  0.6327  0.4333  0.1196
  418TMC3    C6 6238   2.338   2.679   0.553  0.0460  0.5525 -0.5539
  418TMC3     C 6239   2.557   2.591   0.221 -0.3657 -0.8752  0.4190
  418TMC3     O 6240   2.596   2.689   0.160  0.1886 -0.8275 -0.1169
  418TMC3     H 6241   2.405   2.801   0.254 -0.0942  2.3998  2.8506
  418TMC3    H1 6242   2.510   2.422   0.432 -0.0614  0.2595  2.8473
  418TMC3    H2 6243   2.296   2.717   0.645  0.6958  0.1161 -0.0777
  418TMC3    C7 6244   2.394   2.451   0.654  0.1764 -0.2789  0.9345
  418TMC3    C8 6245   2.211   2.817   0.410 -0.0882 -0.0775  0.4985
  418TMC3    O1 6246   2.397   2.338   0.612 -0.0024  0.2700  0.8123
  418TMC3    O2 6247   2.205   2.908   0.327  0.3817  0.1311  0.1921
  419MPD2     C 6248   0.896   0.850  12.407  0.3566  0.1854 -0.1896
  419MPD2    C1 6249   0.826   0.972  12.398  0.7838 -0.4041  0.8334
  419MPD2    C2 6250   0.773   1.042  12.505 -0.1824  0.6733 -0.3410
  419MPD2    C3 6251   0.803   0.997  12.628 -0.1183  0.6086  0.7249
  419MPD2    C4 6252   0.877   0.881  12.640  0.6324  0.3993 -0.2866
  419MPD2    C5 6253   0.924   0.811  12.536  0.1262  0.5592 -0.1941
  419MPD2     H 6254   0.727   1.138  12.484  0.8416  1.4358  0.9168
  419MPD2    H1 6255   0.901   0.837  12.736 -0.0542 -0.4308 -0.4974
  419MPD2    H2 6256   0.917   0.787  12.322  1.6585 -0.8298  0.8913
  419MPD2    H3 6257   0.969   0.716  12.560 -0.1230  0.3920 -0.3868
  419MPD2     N 6258   0.742   1.058  12.736 -0.1907  0.3636 -0.3157
  419MPD2    H5 6259   0.672   1.128  12.715  1.9816  2.9319  0.9035
  419MPD2    N1 6260   0.811   1.036  12.271  0.1413 -0.0277  0.2317
  419MPD2    H7 6261   0.755   1.121  12.271  0.9860  0.5294 -1.9985
  420TMC3    C1 6262   0.714   1.140  12.945  0.3639  0.3979  0.2065
  420TMC3    C2 6263   0.690   1.260  12.888  0.3000 -0.1246 -0.1730
  420TMC3    C3 6264   0.656   1.363  12.976 -0.0648 -0.1336  0.2795
  420TMC3    C4 6265   0.714   1.128  13.083  0.0206 -0.6736 -0.4079
  420TMC3    C5 6266   0.690   1.235  13.168  0.2158  0.1368 -0.0671
  420TMC3    C6 6267   0.643   1.352  13.110  0.0254 -1.0145  0.1626
  420TMC3     C 6268   0.773   1.035  12.866 -0.1189  0.3339 -0.2577
  420TMC3     O 6269   0.840   0.949  12.925  0.4636  0.0028  0.3223
  420TMC3     H 6270   0.718   1.278  12.785 -1.3661  1.0591 -0.4137
  420TMC3    H1 6271   0.753   1.036  13.125 -1.4472 -1.3147 -0.4608
  420TMC3    H2 6272   0.613   1.436  13.172 -2.0300 -1.2822 -0.4672
  420TMC3    C7 6273   0.706   1.219  13.309 -0.2471  0.2059  0.1119
  420TMC3    C8 6274   0.644   1.498  12.930 -0.2738 -0.9891  0.2751
  420TMC3    O1 6275   0.723   1.105  13.349 -0.2994 -0.0946 -0.6536
  420TMC3    O2 6276   0.711   1.531  12.831  0.5043 -0.2203  0.4028
  421TMC3    C1 6277   2.656   2.742  13.927  0.1654 -0.1733  0.0805
  421TMC3    C2 6278   2.686   2.856  13.997 -0.0689 -0.0754 -0.8726
  421TMC3    C3 6279   2.797   2.851  14.075 -0.0788  0.5259 -0.2806
  421TMC3    C4 6280   2.733   2.624  13.932  0.6115 -0.6717 -0.0041
  421TMC3    C5 6281   2.841   2.627  14.015 -0.3091  0.7543  0.7935
  421TMC3    C6 6282   2.871   2.736  14.091  0.1208 -0.1414  0.1804
  421TMC3     C 6283   2.575   2.764  13.811  0.5276 -0.0379 -0.5310
  421TMC3     O 6284   2.568   2.876  13.777  0.0432  0.1244 -0.0725
  421TMC3     H 6285   2.618   2.940  13.996 -2.1904 -1.7937 -0.9249
  421TMC3    H1 6286   2.721   2.540  13.864 -1.9137 -0.0974 -0.2529
  421TMC3    H2 6287   2.961   2.737  14.151  0.3416  0.4579 -0.1572
  421TMC3    C7 6288   2.959   2.556  13.975  0.0315 -0.4134 -1.3973
  421TMC3    C8 6289   2.875   2.974  14.096 -0.2468 -0.6554 -0.4638
  421TMC3    O1 6290   3.070   2.607  13.980  0.2372 -0.8565 -0.2040
  421TMC3    O2 6291   2.989   2.961  14.145 -0.4968  0.8807  0.2207
  422TMC3    C1 6292   4.695   3.949  12.608 -0.0463 -0.3439 -0.0563
  422TMC3    C2 6293   4.703   4.072  12.662 -0.5306 -0.3686 -0.2357
  422TMC3    C3 6294   4.606   4.101  12.757  1.0051 -0.1915 -0.9205
  422TMC3    C4 6295   4.606   3.850  12.656  0.0560  0.3403  0.2782
  422TMC3    C5 6296   4.517   3.883  12.759  0.1509  0.4601 -0.6217
  422TMC3    C6 6297   4.527   4.011  12.818  0.4032 -0.1331 -0.0777
  422TMC3     C 6298   0.031   3.935  12.477 -0.0655  0.1545 -0.1985
  422TMC3     O 6299   0.048   4.037  12.414  0.2427  0.0239  0.7222
  422TMC3     H 6300   0.022   4.153  12.604 -1.5980  0.1378 -0.2892
  422TMC3    H1 6301   4.583   3.756  12.606  0.9717  0.1404  0.2292
  422TMC3    H2 6302   4.452   4.047  12.887 -0.1461 -1.1051 -0.1559
  422TMC3    C7 6303   4.411   3.790  12.800  0.3002  0.9501 -0.6311
  422TMC3    C8 6304   4.574   4.236  12.789  0.2029  0.2947 -0.0189
  422TMC3    O1 6305   4.434   3.679  12.771 -0.5477  0.2026 -0.5554
  422TMC3    O2 6306   4.585   4.270  12.906  0.3606 -0.0089  0.2861
  423MPD2     C 6307   1.134   0.271   0.632 -0.7153  0.1742  0.7345
  423MPD2    C1 6308   1.179   0.138   0.634  0.5267 -0.0371  0.5124
  423MPD2    C2 6309   1.224   0.080   0.518 -0.2054  0.4634 -0.9515
  423MPD2    C3 6310   1.213   0.157   0.396  0.1711 -0.6401  0.8289
  423MPD2    C4 6311   1.169   0.286   0.401  0.3210 -0.2406  0.0124
  423MPD2    C5 6312   1.137   0.341   0.520 -0.1715 -0.4874 -0.4851
  423MPD2     H 6313   1.238   4.695   0.527  3.0465  1.1429  1.9860
  423MPD2    H1 6314   1.152   0.351   0.315  1.6341  2.4378  1.7724
  423MPD2    H2 6315   1.116   0.326   0.724 -0.6155  0.7338  0.4196
  423MPD2    H3 6316   1.109   0.445   0.519  1.2008 -0.1276 -2.2574
  423MPD2     N 6317   1.221   0.103   0.261  0.4831 -0.0664 -0.0288
  423MPD2    H5 6318   1.213   0.164   0.180  0.2036 -1.0633 -0.7433
  423MPD2    N1 6319   1.186   0.059   0.749  0.1591 -0.3462  0.3650
  423MPD2    H7 6320   1.245   4.700   0.751 -0.0337 -0.5356 -2.4073
  424TMC3    C1 6321   1.121   4.717   0.965  0.6000 -0.5492  0.7339
  424TMC3    C2 6322   1.244   4.671   1.002 -0.6853  0.7727 -0.3177
  424TMC3    C3 6323   1.254   4.615   1.127 -0.4304 -0.1265 -0.1014
  424TMC3    C4 6324   1.013   4.691   1.036  0.0148 -0.0840 -0.4073
  424TMC3    C5 6325   1.021   4.628   1.156 -0.5660 -0.6697 -0.6896
  424TMC3    C6 6326   1.142   4.588   1.206 -0.3233 -0.4296  0.3261
  424TMC3     C 6327   1.105   0.086   0.856  0.0387  0.0926  0.7054
  424TMC3     O 6328   1.004   0.155   0.851 -0.7303  0.7253 -0.2272
  424TMC3     H 6329   1.324   4.716   0.946 -1.2676  1.6801 -0.4262
  424TMC3    H1 6330   0.917   4.713   0.991  0.2043 -1.4842 -1.4908
  424TMC3    H2 6331   1.147   4.515   1.286  0.9411  0.7053  1.2950
  424TMC3    C7 6332   0.909   4.583   1.230  0.1330  0.7911  0.3495
  424TMC3    C8 6333   1.382   4.559   1.167 -0.0843 -0.4193  0.0313
  424TMC3    O1 6334   0.920   4.466   1.274 -0.1805 -0.0188 -0.3748
  424TMC3    O2 6335   1.387   4.500   1.277  0.4801 -0.3534  0.0102
  425MPD2     C 6336   0.301   4.143  17.540 -0.4717 -0.0511 -0.6346
  425MPD2    C1 6337   0.216   4.087  17.452 -0.3504 -0.7477 -0.4884
  425MPD2    C2 6338   0.087   4.053  17.487  0.5135 -0.6079  0.1122
  425MPD2    C3 6339   0.039   4.085  17.613  0.3049  0.3872 -0.1378
  425MPD2    C4 6340   0.125   4.135   0.013 -0.0489  0.0653 -0.7489
  425MPD2    C5 6341   0.258   4.161  17.669  0.0258  0.0333 -0.8015
  425MPD2     H 6342   0.016   4.001  17.423 -2.0123  1.7514  1.0251
  425MPD2    H1 6343   0.102   4.145   0.118  0.5940  3.0384 -0.8910
  425MPD2    H2 6344   0.404   4.169  17.518  0.0244 -0.6313  0.9610
  425MPD2    H3 6345   0.323   4.210   0.049 -2.0687  1.0793  0.3654
  425MPD2     N 6346   4.627   4.052  17.637 -0.1060 -0.0482 -0.2091
  425MPD2    H5 6347   4.579   3.996  17.567  1.1389 -1.4002  0.0328
  425MPD2    N1 6348   0.268   4.066  17.317 -0.1209 -0.0617  0.2811
  425MPD2    H7 6349   0.363   4.093  17.296 -0.4620  0.4791 -0.5932
  426TMC3    C1 6350   0.284   3.930  17.129 -0.3731 -0.1088 -0.2876
  426TMC3    C2 6351   0.226   3.817  17.075 -0.1499  0.2282 -0.3584
  426TMC3    C3 6352   0.298   3.697  17.068 -0.4310  0.1309 -0.1068
  426TMC3    C4 6353   0.415   3.932  17.167 -0.3482  0.7466 -0.9459
  426TMC3    C5 6354   0.484   3.811  17.149  0.6001 -0.1636 -0.1972
  426TMC3    C6 6355   0.435   3.696  17.096  0.4845  0.0208  0.2764
  426TMC3     C 6356   0.196   4.007  17.214  0.4640  0.3106 -0.1124
  426TMC3     O 6357   0.073   3.987  17.209  0.1000 -0.7794  0.1111
  426TMC3     H 6358   0.123   3.838  17.049 -0.6434 -0.2501  1.1635
  426TMC3    H1 6359   0.466   4.017  17.211 -0.8202  0.5024  0.0759
  426TMC3    H2 6360   0.498   3.608  17.097 -0.1176 -0.3975  1.4245
  426TMC3    C7 6361   0.568   3.782  17.261 -0.3232  0.4653  0.0693
  426TMC3    C8 6362   0.238   3.567  17.033 -0.0402 -0.9288  0.1151
  426TMC3    O1 6363   0.688   3.756  17.245  0.6258  0.0307 -0.1177
  426TMC3    O2 6364   0.317   3.480  17.003  0.2742  0.3481  0.4444
  427MPD2     C 6365   3.700   1.572  14.731 -0.5509 -0.7177 -0.2001
  427MPD2    C1 6366   3.624   1.486  14.794  0.2461 -0.4988 -0.5164
  427MPD2    C2 6367   3.504   1.529  14.844  0.8290 -0.4447  0.1036
  427MPD2    C3 6368   3.461   1.663  14.825 -0.2354 -0.7653 -0.6595
  427MPD2    C4 6369   3.540   1.753  14.759 -0.6331 -0.5163  0.1707
  427MPD2    C5 6370   3.670   1.711  14.723 -0.6482 -0.0086  0.0673
  427MPD2     H 6371   3.439   1.455  14.890 -0.7098  0.6282 -0.3605
  427MPD2    H1 6372   3.511   1.858  14.754  3.4860  0.7481  2.3562
  427MPD2    H2 6373   3.796   1.535  14.698 -1.0055 -0.4916 -1.8078
  427MPD2    H3 6374   3.745   1.780  14.686 -0.8293  0.2373  0.1538
  427MPD2     N 6375   3.334   1.702  14.871 -0.1081  0.8268  0.2215
  427MPD2    H5 6376   3.319   1.799  14.845 -0.6248  1.0842  1.4854
  427MPD2    N1 6377   3.671   1.350  14.809  0.1430  0.0321  0.4731
  427MPD2    H7 6378   3.760   1.332  14.764 -0.7247 -3.4988  0.1990
  428TMC3    C1 6379   3.686   1.126  14.866 -0.8266  0.3230 -0.2483
  428TMC3    C2 6380   3.624   1.006  14.888  0.3218 -0.0623  0.5412
  428TMC3    C3 6381   3.697   0.891  14.887  0.2478 -0.5293  0.4271
  428TMC3    C4 6382   3.821   1.129  14.844  0.0572  0.0100 -0.0955
  428TMC3    C5 6383   3.899   1.010  14.852  0.0128 -0.4146 -0.5485
  428TMC3    C6 6384   3.834   0.897  14.872 -0.4742  0.4654  0.6628
  428TMC3     C 6385   3.612   1.245  14.878 -0.1467  0.2218 -0.0005
  428TMC3     O 6386   3.506   1.241  14.931  0.6036 -0.3637 -0.0058
  428TMC3     H 6387   3.521   1.002  14.921 -0.8347 -1.7364 -3.2781
  428TMC3    H1 6388   3.874   1.222  14.862 -1.7252  0.9780  0.1589
  428TMC3    H2 6389   3.890   0.804  14.880 -3.3375 -1.3643 -0.1325
  428TMC3    C7 6390   4.042   1.011  14.866  0.9519  1.0846  1.3116
  428TMC3    C8 6391   3.648   0.772  14.956  0.4037 -0.3235 -0.0935
  428TMC3    O1 6392   4.092   0.937  14.953 -0.1956  0.1853 -0.0092
  428TMC3    O2 6393   3.735   0.694  14.995 -0.2328  0.1296  0.5199
  429MPD2     C 6394   4.590   1.573  17.642 -0.1540  0.3881 -0.5641
  429MPD2    C1 6395   4.635   1.509  17.533 -0.1579  0.2951  0.4359
  429MPD2    C2 6396   0.040   1.534  17.480  0.6515  0.0310 -0.0854
  429MPD2    C3 6397   0.117   1.639  17.537 -0.0718  0.7439 -0.6999
  429MPD2    C4 6398   0.067   1.695  17.650 -0.6943 -0.2064 -0.7719
  429MPD2    C5 6399   4.668   1.656   0.013 -0.3346  0.6282 -0.1643
  429MPD2     H 6400   0.074   1.476  17.395 -1.6599  0.3592 -1.2491
  429MPD2    H1 6401   0.115   1.773   0.016 -0.1880 -2.9150  2.4600
  429MPD2    H2 6402   4.485   1.560  17.668  0.3395  0.4813  1.4613
  429MPD2    H3 6403   4.625   1.691   0.106 -1.1909  1.5383 -0.8996
  429MPD2     N 6404   0.237   1.676  17.476 -0.2765  0.1950  0.4136
  429MPD2    H5 6405   0.262   1.638  17.385 -1.8190  0.8896 -0.3076
  429MPD2    N1 6406   4.558   1.423  17.456 -0.1614 -0.1597 -0.4060
  429MPD2    H7 6407   4.591   1.399  17.364  1.1221  0.7471 -0.1833
  430TMC3    C1 6408   0.418   1.820  17.438 -0.0207 -0.2162  0.2242
  430TMC3    C2 6409   0.431   1.951  17.408  0.2941  0.2314 -0.0254
  430TMC3    C3 6410   0.514   1.975  17.297  0.3286  0.7123  0.1463
  430TMC3    C4 6411   0.482   1.715  17.378  0.0366  0.5363  0.5497
  430TMC3    C5 6412   0.580   1.751  17.285 -0.0810 -0.0442 -0.3925
  430TMC3    C6 6413   0.591   1.881  17.237  0.4013 -0.0265 -1.0404
  430TMC3     C 6414   0.304   1.790  17.518 -0.1855 -0.6245 -0.9093
  430TMC3     O 6415   0.278   1.879  17.596 -0.0176 -0.3180 -0.3848
  430TMC3     H 6416   0.365   2.027  17.449 -0.2964 -0.7102  0.7561
  430TMC3    H1 6417   0.469   1.614  17.414 -1.6444  0.6119  0.1786
  430TMC3    H2 6418   0.654   1.908  17.154  0.1486  0.3876 -1.0977
  430TMC3    C7 6419   0.622   1.636  17.208  0.0066 -0.5063 -0.4423
  430TMC3    C8 6420   0.449   2.054  17.193 -0.0871  0.4052  0.0863
  430TMC3    O1 6421   0.546   1.543  17.220  0.3321 -0.2343 -0.3309
  430TMC3    O2 6422   0.496   2.039  17.081  0.6540 -0.1417 -0.4904
  431MPD2     C 6423   1.109   1.314  12.757  0.3495  0.7910 -0.0867
  431MPD2    C1 6424   1.213   1.290  12.661  0.2142  0.7083  0.0330
  431MPD2    C2 6425   1.172   1.290  12.532 -0.0577 -0.4414 -0.0190
  431MPD2    C3 6426   1.041   1.321  12.491 -0.5828 -0.1342  0.5150
  431MPD2    C4 6427   0.947   1.346  12.585  0.1460  0.0856 -0.2172
  431MPD2    C5 6428   0.980   1.340  12.717 -0.1922 -0.1810  0.8441
  431MPD2     H 6429   1.241   1.262  12.453 -2.6338 -1.2341 -1.9988
  431MPD2    H1 6430   0.850   1.373  12.547  0.3049  0.6051 -0.2545
  431MPD2    H2 6431   1.125   1.312  12.864  0.8742 -1.3704 -0.2034
  431MPD2    H3 6432   0.897   1.353  12.785  0.2855  1.9480  1.0091
  431MPD2     N 6433   0.997   1.315  12.361 -0.1249  0.3552 -0.1591
  431MPD2    H5 6434   0.896   1.309  12.357 -0.0879  1.0138 -1.8313
  431MPD2    N1 6435   1.348   1.257  12.687 -0.0629  0.3658 -0.1677
  431MPD2    H7 6436   1.406   1.244  12.605 -0.9448 -1.6319 -0.4830
  432TMC3    C1 6437   1.026   1.279  12.125  0.3229 -0.4502 -0.2374
  432TMC3    C2 6438   1.125   1.227  12.044 -0.7774  0.0388  0.4687
  432TMC3    C3 6439   1.095   1.121  11.965 -0.0355 -0.5672  0.5946
  432TMC3    C4 6440   0.902   1.219  12.135 -0.5075 -0.1244  0.0714
  432TMC3    C5 6441   0.885   1.104  12.061  0.2342 -0.0749 -0.7847
  432TMC3    C6 6442   0.980   1.054  11.978  0.2196  0.2858 -0.0340
  432TMC3     C 6443   1.086   1.320  12.254  0.0883  0.6718  0.1381
  432TMC3     O 6444   1.202   1.360  12.247 -0.3740 -0.3661 -0.1346
  432TMC3     H 6445   1.220   1.277  12.027 -0.8041 -0.0922 -0.0927
  432TMC3    H1 6446   0.832   1.275  12.196  0.1334  0.5244  0.2074
  432TMC3    H2 6447   0.960   0.973  11.909  0.7098 -0.0962  0.2704
  432TMC3    C7 6448   0.848   0.993  12.143 -0.1469  0.1878 -0.1929
  432TMC3    C8 6449   1.196   1.055  11.889  0.3956 -0.5021  0.0453
  432TMC3    O1 6450   0.911   0.893  12.120 -0.1436 -0.4585 -0.3156
  432TMC3    O2 6451   1.168   0.984  11.793  0.5011 -0.7330 -0.2860
  433MPD2     C 6452   0.244   0.919  10.900 -0.2025  0.1342  0.2977
  433MPD2    C1 6453   0.157   0.829  10.967 -0.4739  0.7864 -0.1370
  433MPD2    C2 6454   0.124   0.852  11.102 -0.5727 -0.3945 -0.4302
  433MPD2    C3 6455   0.175   0.957  11.174 -0.0979  0.8589  0.5144
  433MPD2    C4 6456   0.273   1.031  11.109  0.6588 -0.3528 -0.3140
  433MPD2    C5 6457   0.300   1.013  10.979  0.7295  0.4878 -0.0447
  433MPD2     H 6458   0.056   0.790  11.160 -1.5866 -0.6864 -1.9089
  433MPD2    H1 6459   0.325   1.110  11.162 -1.5369 -0.8940  2.6841
  433MPD2    H2 6460   0.271   0.904  10.796  0.4870 -1.2855  0.6941
  433MPD2    H3 6461   0.375   1.079  10.936  1.8149  0.1832  1.3523
  433MPD2     N 6462   0.132   0.974  11.314  0.9689 -0.3293  0.2885
  433MPD2    H5 6463   0.073   0.899  11.349  0.0911  0.3961  0.3626
  433MPD2    N1 6464   0.080   0.739  10.893  0.4264 -0.5138 -0.8106
  433MPD2    H7 6465   0.112   0.726  10.797 -0.4701 -1.5100 -0.9748
  434TMC3    C1 6466   4.693   0.533  10.848  0.0794 -0.1818  0.1835
  434TMC3    C2 6467   4.636   0.428  10.916  0.1897  0.1196  0.3858
  434TMC3    C3 6468   4.662   0.304  10.868 -1.0592 -0.8477  0.7336
  434TMC3    C4 6469   0.045   0.514  10.729 -0.7360 -0.1897  0.2894
  434TMC3    C5 6470   0.056   0.384  10.681 -0.2048 -0.2625 -0.5570
  434TMC3    C6 6471   0.010   0.273  10.749 -0.3669  0.2507  0.3615
  434TMC3     C 6472   4.708   0.648  10.936 -0.2809  0.5548  0.5386
  434TMC3     O 6473   4.650   0.645  11.045  0.0653 -0.7754 -0.3260
  434TMC3     H 6474   4.582   0.444  11.009 -0.4577  1.5524 -0.2353
  434TMC3    H1 6475   0.073   0.599  10.668  0.2384 -0.3120  0.5589
  434TMC3    H2 6476   0.027   0.176  10.704  1.6579  1.6127 -1.8327
  434TMC3    C7 6477   0.110   0.371  10.547 -0.3051 -0.0569 -0.1594
  434TMC3    C8 6478   4.684   0.215  10.983 -0.4217 -0.8467 -0.3383
  434TMC3    O1 6479   0.172   0.470  10.509  0.5101 -0.0993  0.3677
  434TMC3    O2 6480   0.014   0.265  11.080  0.1673  0.4998 -0.1946
  435MPD2     C 6481   1.840   0.221  15.375 -0.0917  0.1476  0.1316
  435MPD2    C1 6482   1.820   0.215  15.514  0.0716  1.1472  0.0123
  435MPD2    C2 6483   1.911   0.172  15.601  0.3764  0.4432 -0.2950
  435MPD2    C3 6484   2.027   0.102  15.555 -0.1017  0.6515 -0.4160
  435MPD2    C4 6485   2.048   0.108  15.421 -0.3654 -0.7108  0.3351
  435MPD2    C5 6486   1.958   0.160  15.330 -0.1539 -0.0067  0.0491
  435MPD2     H 6487   1.880   0.164  15.704  0.0418  1.0983 -0.3482
  435MPD2    H1 6488   2.137   0.064  15.377  0.1216 -0.7917  1.4231
  435MPD2    H2 6489   1.763   0.254  15.307 -0.1442 -2.4524 -1.0669
  435MPD2    H3 6490   1.980   0.160  15.223 -1.5336 -2.0909 -0.2340
  435MPD2     N 6491   2.108   0.042  15.653 -0.3460 -0.8677  0.5911
  435MPD2    H5 6492   2.070   0.044  15.748 -1.5764  2.4179  0.0445
  435MPD2    N1 6493   1.693   0.241  15.568 -0.1363 -0.8457 -0.5264
  435MPD2    H7 6494   1.685   0.219  15.666 -1.1920 -0.1320 -0.4535
  436TMC3    C1 6495   1.391   0.309  15.803  0.0557 -0.1565  0.1854
  436TMC3    C2 6496   1.493   0.331  15.720 -0.4886  0.2167  0.1852
  436TMC3    C3 6497   1.464   0.311  15.586 -0.3711 -0.4221 -0.5817
  436TMC3    C4 6498   1.264   0.267  15.768 -0.3550  0.5789  0.0661
  436TMC3    C5 6499   1.240   0.264  15.637 -0.0159  0.2188 -0.7073
  436TMC3    C6 6500   1.342   0.284  15.538  0.8619  0.1110  0.0327
  436TMC3     C 6501   1.395   0.408  15.916  0.5725 -0.3284  0.0882
  436TMC3     O 6502   1.506   0.450  15.952 -0.2172  0.0778  0.0784
  436TMC3     H 6503   1.588   0.365  15.759 -0.8569  0.4337  0.8892
  436TMC3    H1 6504   1.188   0.241  15.841 -0.4878  0.1853 -0.2151
  436TMC3    H2 6505   1.323   0.282  15.432 -0.6352  0.4634  0.2937
  436TMC3    C7 6506   1.111   0.198  15.605 -0.2510  0.3076  0.2916
  436TMC3    C8 6507   1.583   0.295  15.502 -0.0922  0.2400  0.0228
  436TMC3    O1 6508   1.057   0.143  15.702 -0.5965 -0.2842  0.3454
  436TMC3    O2 6509   1.555   0.324  15.388 -0.2642 -0.1475 -0.1887
  437TMC3    C1 6510   0.305   2.102  13.180  0.1358  0.0516  0.2288
  437TMC3    C2 6511   0.174   2.142  13.213 -0.2630  0.5440 -0.0335
  437TMC3    C3 6512   0.134   2.252  13.142 -0.0568  0.1249 -0.0853
  437TMC3    C4 6513   0.379   2.148  13.076  0.2751  0.3480 -0.1018
  437TMC3    C5 6514   0.327   2.252  13.000 -0.2467  0.5501  0.1603
  437TMC3    C6 6515   0.200   2.300  13.029 -0.7583  0.2625  0.5102
  437TMC3     C 6516   0.371   1.994  13.252  0.0485 -0.1162  0.2360
  437TMC3     O 6517   0.495   1.991  13.248 -0.4128  0.6785  0.0735
  437TMC3     H 6518   0.125   2.102  13.301  0.9482 -0.3765  0.2254
  437TMC3    H1 6519   0.455   2.085  13.032 -0.3468  0.4437 -1.3272
  437TMC3    H2 6520   0.145   2.368  12.965  1.3235  0.9740 -0.5169
  437TMC3    C7 6521   0.413   2.337  12.915  0.2798 -0.0530 -0.6214
  437TMC3    C8 6522   4.711   2.284  13.144  0.2375  0.7939  0.4506
  437TMC3    O1 6523   0.354   2.428  12.861  0.2458 -0.2718  0.4622
  437TMC3    O2 6524   4.677   2.399  13.116 -0.0916 -0.7115 -0.6083
  438MPD2     C 6525   2.196   2.422  16.750  0.0185  0.0131  0.4607
  438MPD2    C1 6526   2.314   2.362  16.795  0.0640  0.0383  0.6093
  438MPD2    C2 6527   2.308   2.324  16.929  0.2560  0.4269  0.3562
  438MPD2    C3 6528   2.197   2.344  17.011 -0.4361  0.1842  0.2355
  438MPD2    C4 6529   2.094   2.428  16.972 -0.0509  0.2318  0.1367
  438MPD2    C5 6530   2.101   2.469  16.839 -0.5493  1.0654  0.6122
  438MPD2     H 6531   2.387   2.262  16.970 -0.0946  0.9497  1.8079
  438MPD2    H1 6532   2.013   2.456  17.038  0.7638 -2.4571  2.3002
  438MPD2    H2 6533   2.190   2.451  16.645  0.5085  1.3846  0.8122
  438MPD2    H3 6534   2.018   2.531  16.806 -1.6857 -0.4428  0.6902
  438MPD2     N 6535   2.198   2.302  17.145 -0.2847  0.2204 -0.0548
  438MPD2    H5 6536   2.145   2.350  17.217 -0.7556  0.6982 -0.7177
  438MPD2    N1 6537   2.428   2.338  16.719  0.0501  0.3524 -0.4520
  438MPD2    H7 6538   2.508   2.293  16.764 -0.8740 -1.6205 -0.7881
  439TMC3    C1 6539   2.570   2.345  16.538  0.7986 -0.4066 -0.0439
  439TMC3    C2 6540   2.574   2.250  16.442  0.5221 -0.2060 -0.7720
  439TMC3    C3 6541   2.690   2.176  16.426  0.3994  0.6103 -0.3572
  439TMC3    C4 6542   2.671   2.363  16.629 -0.2626  0.3758  0.0368
  439TMC3    C5 6543   2.785   2.283  16.615  0.8438  0.7030  0.5585
  439TMC3    C6 6544   2.797   2.197  16.511  0.3972 -0.2603  0.1316
  439TMC3     C 6545   2.438   2.366  16.581 -0.0186  0.3695 -0.2288
  439TMC3     O 6546   2.356   2.407  16.498 -0.5721  0.4139 -0.1978
  439TMC3     H 6547   2.483   2.235  16.385 -0.4002  0.0914  0.6127
  439TMC3    H1 6548   2.668   2.430  16.714  1.4713 -1.4477  1.5362
  439TMC3    H2 6549   2.889   2.141  16.507  0.3189 -0.1914 -2.6241
  439TMC3    C7 6550   2.907   2.300  16.704 -0.4737 -0.4882 -0.9370
  439TMC3    C8 6551   2.718   2.121  16.297  0.3505  0.1814 -1.0309
  439TMC3    O1 6552   2.890   2.338  16.818  0.0417 -0.4789  0.5402
  439TMC3    O2 6553   2.614   2.084  16.243 -0.1637 -0.4724 -0.1381
  440MPD2     C 6554   1.531   3.218  14.868  0.7100  0.3679  0.1433
  440MPD2    C1 6555   1.588   3.304  14.955 -0.6686 -0.1074 -0.8178
  440MPD2    C2 6556   1.705   3.253  15.013 -0.1678 -0.8975 -0.3048
  440MPD2    C3 6557   1.761   3.134  14.977 -0.1844  0.2650 -0.2012
  440MPD2    C4 6558   1.695   3.048  14.893 -0.0754 -0.5886 -0.4454
  440MPD2    C5 6559   1.575   3.095  14.837  0.4012 -0.5504  0.2327
  440MPD2     H 6560   1.762   3.319  15.078 -0.6745 -1.4558  0.6897
  440MPD2    H1 6561   1.739   2.954  14.860 -0.3731 -1.6894  2.3170
  440MPD2    H2 6562   1.430   3.241  14.836  0.6767 -0.4131 -0.3238
  440MPD2    H3 6563   1.522   3.032  14.766  0.2596 -0.5033  0.2979
  440MPD2     N 6564   1.890   3.091  15.027 -1.0927  0.2838  0.1284
  440MPD2    H5 6565   1.931   3.003  14.998 -0.6109  0.5201  0.1005
  440MPD2    N1 6566   1.538   3.432  14.990 -0.4679 -0.0126  0.1063
  440MPD2    H7 6567   1.599   3.474  15.059  1.6537 -1.4706 -0.8777
  441TMC3    C1 6568   2.106   3.086  15.109 -0.2683  0.0763  0.6827
  441TMC3    C2 6569   2.199   3.181  15.081  0.5504  0.0156  0.7034
  441TMC3    C3 6570   2.319   3.177  15.139  0.1468  0.0620  0.4016
  441TMC3    C4 6571   2.133   2.990  15.206 -0.6439 -0.1524 -0.2551
  441TMC3    C5 6572   2.261   2.987  15.262 -0.3212  0.8758 -0.2576
  441TMC3    C6 6573   2.353   3.077  15.228  0.6024  0.2467 -0.6775
  441TMC3     C 6574   1.970   3.152  15.120 -0.6974 -0.4638 -0.5140
  441TMC3     O 6575   1.982   3.267  15.155 -0.3658  0.2081  0.0217
  441TMC3     H 6576   2.193   3.258  15.004  2.3343  0.5885  1.1457
  441TMC3    H1 6577   2.050   2.923  15.225 -0.3093 -0.5968 -0.3627
  441TMC3    H2 6578   2.449   3.083  15.279  1.1543  0.9272 -1.7692
  441TMC3    C7 6579   2.292   2.899  15.369  0.1821 -0.3840  0.2389
  441TMC3    C8 6580   2.382   3.307  15.178  0.4692  0.2382 -0.0305
  441TMC3    O1 6581   2.406   2.859  15.364 -0.0563 -0.0162  0.1822
  441TMC3    O2 6582   2.494   3.311  15.224  0.1898  0.4832  0.5239
  442MPD2     C 6583   4.705   4.012  16.383 -0.1707  0.3392 -0.1306
  442MPD2    C1 6584   4.607   3.936  16.448  0.1544  0.3092  0.5278
  442MPD2    C2 6585   4.619   3.801  16.458 -0.3283  0.6939  0.7839
  442MPD2    C3 6586   0.008   3.743  16.395  0.0028 -0.3666  0.6814
  442MPD2    C4 6587   0.102   3.816  16.323 -0.1533  0.3293 -0.0658
  442MPD2    C5 6588   0.091   3.950  16.323  0.0107 -0.6279  0.2059
  442MPD2     H 6589   4.544   3.751  16.518  0.1158 -1.8028 -0.7321
  442MPD2    H1 6590   0.187   3.766  16.279  1.2075  0.8071  2.0141
  442MPD2    H2 6591   4.697   4.120  16.386  0.6045  0.4559 -2.1979
  442MPD2    H3 6592   0.165   4.016  16.281 -0.4460  0.8280  1.6996
  442MPD2     N 6593   0.036   3.606  16.407  0.0450 -0.4939  0.1859
  442MPD2    H5 6594   0.109   3.574  16.345  0.6538 -1.9553  1.6472
  442MPD2    N1 6595   4.502   3.995  16.527 -0.1792  0.3210  0.0520
  442MPD2    H7 6596   4.438   3.926  16.566 -0.6596  1.0410  0.5351
  443TMC3    C1 6597   4.368   4.159  16.640 -0.2520  0.2115 -0.1245
  443TMC3    C2 6598   4.297   4.274  16.619 -0.2753 -0.1936 -0.1912
  443TMC3    C3 6599   4.176   4.289  16.670 -0.0681 -0.2782 -0.7586
  443TMC3    C4 6600   4.341   4.079  16.749 -1.0098  0.0462  0.4080
  443TMC3    C5 6601   4.225   4.109  16.807  0.4249  0.4589 -0.8001
  443TMC3    C6 6602   4.143   4.212  16.777 -0.3532  0.1084  0.4108
  443TMC3     C 6603   4.482   4.128  16.554 -0.0410 -0.9912 -0.4594
  443TMC3     O 6604   4.533   4.232  16.513 -0.1913 -0.5023  0.0610
  443TMC3     H 6605   4.338   4.345  16.548  2.6163  0.8472  2.5225
  443TMC3    H1 6606   4.405   3.995  16.772  0.7240  0.9600 -1.1035
  443TMC3    H2 6607   4.043   4.208  16.818 -0.9199 -0.1276 -1.0062
  443TMC3    C7 6608   4.187   4.042  16.931 -0.6697  0.6509  0.1277
  443TMC3    C8 6609   4.083   4.372  16.609 -0.1271 -0.2594  0.1591
  443TMC3    O1 6610   4.195   3.922  16.936 -0.5127 -0.7375  0.3222
  443TMC3    O2 6611   4.016   4.445  16.679  0.5006  0.6141  0.0185
  444MPD2     C 6612   0.106   2.831  17.128  0.3235 -0.0250  0.9534
  444MPD2    C1 6613   0.006   2.810  17.037 -0.5610  0.2356 -0.6094
  444MPD2    C2 6614   0.027   2.721  16.935 -0.0230  0.3182  0.0252
  444MPD2    C3 6615   0.147   2.656  16.914 -0.4716  0.0807  0.1870
  444MPD2    C4 6616   0.253   2.696  16.988 -0.1972  0.8327  0.3313
  444MPD2    C5 6617   0.231   2.778  17.097 -0.2624 -0.5174 -0.4093
  444MPD2     H 6618   4.660   2.690  16.881  1.5107 -3.5068 -0.3359
  444MPD2    H1 6619   0.352   2.653  16.978  0.1941  2.0296 -1.0031
  444MPD2    H2 6620   0.088   2.871  17.227  1.2158 -2.1250  1.9815
  444MPD2    H3 6621   0.315   2.789  17.165 -0.0991  1.7596 -0.9774
  444MPD2     N 6622   0.165   2.562  16.806 -0.2469 -0.4439 -0.7683
  444MPD2    H5 6623   0.075   2.539  16.765 -0.7622  1.1860 -0.5395
  444MPD2    N1 6624   4.593   2.855  17.072 -0.0336  0.4528 -0.0861
  444MPD2    H7 6625   4.514   2.809  17.027  0.2427  1.0179 -1.1469
  445TMC3    C1 6626   0.268   2.431  16.635 -0.8886 -0.7947  0.6039
  445TMC3    C2 6627   0.173   2.480  16.542 -0.3840 -0.0555 -0.0317
  445TMC3    C3 6628   0.198   2.433  16.416 -0.0079  0.3478 -0.0111
  445TMC3    C4 6629   0.387   2.370  16.598 -0.0449 -0.4901 -0.3271
  445TMC3    C5 6630   0.397   2.332  16.466  0.6233 -0.4702  0.2010
  445TMC3    C6 6631   0.303   2.365  16.371  0.0694  0.7972  0.0320
  445TMC3     C 6632   0.280   2.499  16.768  1.0355 -0.2529  0.3999
  445TMC3     O 6633   0.387   2.505  16.821 -0.3165  0.0762 -0.4814
  445TMC3     H 6634   0.082   2.525  16.580 -1.9138 -2.4928 -0.8031
  445TMC3    H1 6635   0.460   2.337  16.671 -0.8086  2.2930  1.7411
  445TMC3    H2 6636   0.319   2.334  16.269 -1.8204 -0.4991  0.1417
  445TMC3    C7 6637   0.507   2.239  16.437 -0.1085 -0.2273  0.1040
  445TMC3    C8 6638   0.085   2.464  16.328  0.0215 -0.0252  0.4845
  445TMC3    O1 6639   0.532   2.153  16.527  0.6151  0.1357  0.3256
  445TMC3    O2 6640   0.005   2.549  16.361 -0.3965 -0.2967  0.2984
  446MPD2     C 6641   4.498   0.089  11.595 -0.1452 -0.4305 -0.1224
  446MPD2    C1 6642   4.510   0.069  11.455  0.9123  0.1581 -0.4775
  446MPD2    C2 6643   4.601   0.149  11.385  0.0461 -0.0146 -0.1833
  446MPD2    C3 6644   4.692   0.229  11.450 -0.3882  0.0205  0.1346
  446MPD2    C4 6645   4.685   0.241  11.593 -0.3300  0.0544  0.3251
  446MPD2    C5 6646   4.585   0.173  11.658 -0.0513  0.1955  0.7132
  446MPD2     H 6647   4.612   0.136  11.278 -1.2196  0.2352 -0.3421
  446MPD2    H1 6648   0.031   0.287  11.663  1.7358  1.0144 -2.3416
  446MPD2    H2 6649   4.424   0.032  11.649  1.6229 -1.6781  0.9755
  446MPD2    H3 6650   4.583   0.168  11.766  0.7560  2.1235  0.8144
  446MPD2     N 6651   0.075   0.291  11.379  0.3420 -0.2200 -0.5480
  446MPD2    H5 6652   0.069   0.283  11.278  1.5561 -0.8797 -0.5664
  446MPD2    N1 6653   4.435   4.695  11.381 -0.0210 -0.2405 -0.2114
  446MPD2    H7 6654   4.464   4.685  11.284 -0.0383  2.4728 -0.4841
  447TMC3    C1 6655   0.239   0.472  11.349 -0.2493  0.3542 -0.5246
  447TMC3    C2 6656   0.220   0.460  11.212  0.4654 -0.3300  0.3676
  447TMC3    C3 6657   0.328   0.487  11.135 -0.4561 -0.5961  0.4385
  447TMC3    C4 6658   0.359   0.506  11.403 -0.5280  0.1151  0.5218
  447TMC3    C5 6659   0.466   0.506  11.320 -0.0809 -0.2220  0.2012
  447TMC3    C6 6660   0.452   0.511  11.182  0.3863  0.1755  0.0742
  447TMC3     C 6661   0.178   0.370  11.440 -0.1717 -0.7461  0.5476
  447TMC3     O 6662   0.238   0.338  11.544  0.0636  0.2120  0.4514
  447TMC3     H 6663   0.121   0.441  11.173  1.0489  1.2388 -1.8170
  447TMC3    H1 6664   0.362   0.524  11.510  0.2740 -1.2796  0.7349
  447TMC3    H2 6665   0.542   0.503  11.122  1.9051 -1.0946  2.4988
  447TMC3    C7 6666   0.559   0.400  11.364  0.4506 -0.2197  0.2579
  447TMC3    C8 6667   0.330   0.445  10.998 -0.0695  0.5104  0.2386
  447TMC3    O1 6668   0.605   0.317  11.285 -0.3454  0.0333  0.1255
  447TMC3    O2 6669   0.370   0.518  10.909 -0.2331  0.1470  0.4269
  448TMC3    C1 6670   3.233   0.236  17.253 -0.4716  0.6060 -0.5767
  448TMC3    C2 6671   3.300   0.130  17.187 -0.2101  0.0233  0.1623
  448TMC3    C3 6672   3.340   0.018  17.258  0.5257 -0.1102  0.0446
  448TMC3    C4 6673   3.220   0.228  17.395 -0.3629 -0.0516 -0.5823
  448TMC3    C5 6674   3.267   0.110  17.450  0.1804 -0.4981 -0.5820
  448TMC3    C6 6675   3.307   4.716  17.388  0.2215  0.2133 -0.3046
  448TMC3     C 6676   3.183   0.340  17.171  0.0379  0.0416 -0.2756
  448TMC3     O 6677   3.183   0.328  17.049  0.3537  0.2222 -0.2150
  448TMC3     H 6678   3.319   0.136  17.080  2.5470  0.2978  0.6674
  448TMC3    H1 6679   3.184   0.306  17.461  1.3024  1.7803 -1.8731
  448TMC3    H2 6680   3.358   4.635  17.438  0.5294  0.1175 -0.7698
  448TMC3    C7 6681   3.230   0.094  17.591  0.7261 -0.6621 -0.0957
  448TMC3    C8 6682   3.418   4.634  17.190  0.5378 -0.8471  0.6636
  448TMC3    O1 6683   3.195   0.190  17.663  0.5022  0.1038 -0.6991
  448TMC3    O2 6684   3.415   4.521  17.232  0.1220  0.0261 -0.4220
  449MPD2     C 6685   4.549   3.490  14.457 -0.2018  0.7892  0.2420
  449MPD2    C1 6686   4.502   3.373  14.386 -0.2830  0.5082  0.3947
  449MPD2    C2 6687   4.485   3.259  14.459  0.0815  0.7366  0.5260
  449MPD2    C3 6688   4.504   3.250  14.598 -1.1678 -0.4844 -0.3969
  449MPD2    C4 6689   4.548   3.361  14.664 -0.8115 -0.3116  0.4329
  449MPD2    C5 6690   4.572   3.475  14.595 -0.2806 -0.2582 -0.0537
  449MPD2     H 6691   4.441   3.178  14.403 -2.3974  1.4301  1.4926
  449MPD2    H1 6692   4.557   3.372  14.771 -2.4690  1.5527  0.3807
  449MPD2    H2 6693   4.573   3.583  14.406  1.1246  0.7808  0.8598
  449MPD2    H3 6694   4.599   3.563  14.653  0.8816  0.6449 -1.9585
  449MPD2     N 6695   4.475   3.125  14.655 -0.0269  0.4241  0.2783
  449MPD2    H5 6696   4.444   3.052  14.593 -1.9659  1.1828  0.3679
  449MPD2    N1 6697   4.478   3.357  14.250 -0.2588  0.0709 -0.3806
  449MPD2    H7 6698   4.443   3.264  14.226  0.7983 -0.3059 -0.4927
  450TMC3    C1 6699   4.476   3.409  14.027  0.9021  0.3557 -0.7993
  450TMC3    C2 6700   4.587   3.405  13.940  0.2752 -0.0723 -0.2215
  450TMC3    C3 6701   4.622   3.284  13.882 -0.0491 -0.2451  0.0841
  450TMC3    C4 6702   4.395   3.296  14.037  0.2415 -0.1588  0.1519
  450TMC3    C5 6703   4.432   3.178  13.973 -0.6143  0.2883  0.4343
  450TMC3    C6 6704   4.555   3.172  13.917  0.3183  0.0585 -1.0787
  450TMC3     C 6705   4.509   3.458  14.160  0.2065  0.4363  0.4104
  450TMC3     O 6706   4.562   3.568  14.170 -0.3333 -0.5339  0.1584
  450TMC3     H 6707   4.652   3.491  13.938  0.2412 -0.0247  1.1142
  450TMC3    H1 6708   4.303   3.312  14.091  0.9105 -1.9704  1.8526
  450TMC3    H2 6709   4.585   3.077  13.875 -0.9708 -1.8507  2.2748
  450TMC3    C7 6710   4.402   3.065  14.053  0.1504  0.6272 -0.0048
  450TMC3    C8 6711   4.715   3.288  13.769 -0.1596 -0.4194 -0.4558
  450TMC3    O1 6712   4.361   3.092  14.164  0.4612 -0.0418 -0.1545
  450TMC3    O2 6713   0.060   3.386  13.756  0.2208  0.3781  0.4019
  451MPD2     C 6714   0.543   2.188   0.542 -0.1681  0.4905  0.6864
  451MPD2    C1 6715   0.434   2.144   0.610  0.3400 -0.1411 -0.1582
  451MPD2    C2 6716   0.382   2.019   0.585  0.4908 -0.3505 -0.1713
  451MPD2    C3 6717   0.449   1.923   0.516  0.2938 -0.0897 -0.0207
  451MPD2    C4 6718   0.564   1.967   0.449 -0.7373 -0.6878 -1.2148
  451MPD2    C5 6719   0.602   2.099   0.459  0.2254  0.4662  0.4558
  451MPD2     H 6720   0.282   2.002   0.622 -0.5474  4.8439 -0.5722
  451MPD2    H1 6721   0.618   1.899   0.384 -0.2370 -1.3052 -0.1389
  451MPD2    H2 6722   0.577   2.291   0.551 -0.8735  0.8141 -0.4143
  451MPD2    H3 6723   0.695   2.133   0.416  0.1081  1.3408  0.8768
  451MPD2     N 6724   0.416   1.788   0.505 -0.4105  0.6316 -0.5585
  451MPD2    H5 6725   0.474   1.737   0.439  1.7600  1.3086  0.8190
  451MPD2    N1 6726   0.370   2.242   0.693  0.3772 -0.1520  0.4630
  451MPD2    H7 6727   0.412   2.334   0.702 -0.2060 -0.0627  2.3205
  452TMC3    C1 6728   0.296   1.591   0.557  0.9612 -0.3517 -0.5922
  452TMC3    C2 6729   0.258   1.529   0.673 -0.1180  0.1142  0.2384
  452TMC3    C3 6730   0.300   1.403   0.704  0.1387  1.1166 -0.2221
  452TMC3    C4 6731   0.381   1.525   0.470 -0.0644  0.0924  0.6368
  452TMC3    C5 6732   0.425   1.397   0.512 -0.7575 -0.0326  0.1073
  452TMC3    C6 6733   0.388   1.332   0.628 -0.8383 -1.0539  0.0422
  452TMC3     C 6734   0.304   1.732   0.568 -0.1143 -0.3642 -0.2946
  452TMC3     O 6735   0.228   1.784   0.649  0.3560  0.5554 -0.2699
  452TMC3     H 6736   0.191   1.577   0.744 -0.8617 -0.6927  0.0849
  452TMC3    H1 6737   0.425   1.571   0.383 -1.4322 -0.6045 -0.4293
  452TMC3    H2 6738   0.447   1.245   0.653 -0.8836 -1.1361 -0.1334
  452TMC3    C7 6739   0.522   1.332   0.422 -0.5002 -0.5499  0.6863
  452TMC3    C8 6740   0.294   1.366   0.845  0.0016  0.0628 -0.1455
  452TMC3    O1 6741   0.573   1.409   0.351  0.1026  0.1189 -0.2086
  452TMC3    O2 6742   0.289   1.462   0.919  0.0121  0.2285  0.6367
  453TMC3    C1 6743   2.332   3.539  11.924  0.1392 -0.3122  0.1484
  453TMC3    C2 6744   2.264   3.427  11.965 -0.0394  1.3369  0.0026
  453TMC3    C3 6745   2.178   3.364  11.876  0.1782  0.8435 -0.1657
  453TMC3    C4 6746   2.311   3.600  11.802  0.4731  0.0430 -1.0632
  453TMC3    C5 6747   2.222   3.531  11.723  0.1573 -0.0076 -0.2267
  453TMC3    C6 6748   2.156   3.416  11.753  0.0255  0.1055 -0.3818
  453TMC3     C 6749   2.437   3.594  12.006  0.3913  0.2281 -0.0326
  453TMC3     O 6750   2.469   3.710  11.984 -0.6055 -0.2557  0.1112
  453TMC3     H 6751   2.269   3.391  12.067 -0.3755 -1.2945 -0.9198
  453TMC3    H1 6752   2.335   3.703  11.779  0.7560  0.4347  0.9716
  453TMC3    H2 6753   2.086   3.379  11.679  0.2428  1.0040 -1.0453
  453TMC3    C7 6754   2.268   3.525  11.582  0.0542 -0.6518 -0.1355
  453TMC3    C8 6755   2.082   3.265  11.919 -1.1017  0.4456  0.0409
  453TMC3    O1 6756   2.196   3.472  11.495 -0.1606  0.3353  0.1477
  453TMC3    O2 6757   1.970   3.280  11.869  0.0952  0.2927 -0.2455
  454MPD2     C 6758   0.885   2.518  16.462  0.1537  0.2494 -0.0359
  454MPD2    C1 6759   0.860   2.655  16.459 -0.3539 -0.7409 -0.4351
  454MPD2    C2 6760   0.792   2.711  16.567 -0.1995 -0.1079  0.2055
  454MPD2    C3 6761   0.730   2.622  16.653  0.2155 -1.3231 -0.6266
  454MPD2    C4 6762   0.741   2.491  16.648  0.1502 -1.3687 -0.8127
  454MPD2    C5 6763   0.821   2.436  16.551 -0.6707 -0.2438  0.6334
  454MPD2     H 6764   0.782   2.819  16.569 -1.2131 -0.1623 -1.4920
  454MPD2    H1 6765   0.683   2.429  16.715 -0.0662 -0.8363 -0.5080
  454MPD2    H2 6766   0.928   2.461  16.380  0.7013 -0.9442  1.0850
  454MPD2    H3 6767   0.830   2.328  16.550  0.9852 -0.0998 -0.3643
  454MPD2     N 6768   0.623   2.672  16.737 -0.8366 -0.4906 -0.0311
  454MPD2    H5 6769   0.561   2.608  16.785 -0.9400 -0.7128 -0.4612
  454MPD2    N1 6770   0.891   2.739  16.354  0.0842  0.0913  0.0116
  454MPD2    H7 6771   0.872   2.838  16.363  0.9285  0.1654  0.9572
  455TMC3    C1 6772   0.445   2.818  16.744 -0.1812 -0.1714  0.1208
  455TMC3    C2 6773   0.398   2.922  16.815  0.2260  0.0950  0.0067
  455TMC3    C3 6774   0.277   2.973  16.770  0.3477 -1.3195 -0.1567
  455TMC3    C4 6775   0.381   2.760  16.636  0.4837  0.1545  0.7021
  455TMC3    C5 6776   0.273   2.823  16.582  0.0175 -0.1195  0.4732
  455TMC3    C6 6777   0.215   2.923  16.655  1.2930  0.2823  0.6330
  455TMC3     C 6778   0.589   2.805  16.737 -0.4946 -0.9609 -0.4244
  455TMC3     O 6779   0.647   2.911  16.720  0.1867  0.4548 -0.3887
  455TMC3     H 6780   0.458   2.972  16.890 -1.3069  1.8224  0.1102
  455TMC3    H1 6781   0.433   2.681  16.583  1.0768  1.8590 -1.2660
  455TMC3    H2 6782   0.133   2.972  16.605 -0.0851 -0.8151  1.8178
  455TMC3    C7 6783   0.251   2.808  16.442 -0.4512  0.1853 -0.1405
  455TMC3    C8 6784   0.222   3.082  16.848 -0.0106  0.1362  0.0634
  455TMC3    O1 6785   0.135   2.794  16.410 -0.2179  0.4136 -0.2575
  455TMC3    O2 6786   0.306   3.143  16.917  0.8059  0.0729 -0.5715
  456MPD2     C 6787   3.527   3.549  16.146 -0.4902 -0.0335  0.8586
  456MPD2    C1 6788   3.559   3.475  16.257 -0.4624  0.3790 -0.0009
  456MPD2    C2 6789   3.563   3.538  16.378  0.0570  0.3486 -0.4504
  456MPD2    C3 6790   3.528   3.674  16.388 -0.0277 -0.0458  0.2249
  456MPD2    C4 6791   3.493   3.744  16.277 -0.1000 -0.1724  0.0689
  456MPD2    C5 6792   3.495   3.681  16.155  0.2949  0.5276 -0.6621
  456MPD2     H 6793   3.581   3.482  16.470  2.7654  1.4954 -0.2831
  456MPD2    H1 6794   3.451   3.843  16.291  0.0565 -0.2079  0.8281
  456MPD2    H2 6795   3.517   3.501  16.050 -1.2616 -3.5465  2.6588
  456MPD2    H3 6796   3.474   3.741  16.067 -1.2545 -2.2036 -2.1858
  456MPD2     N 6797   3.537   3.724  16.522 -0.3316 -0.3566 -0.1371
  456MPD2    H5 6798   3.561   3.665  16.601  2.5038  0.5409 -0.3244
  456MPD2    N1 6799   3.577   3.337  16.238 -0.4034 -0.0373  0.3142
  456MPD2    H7 6800   3.563   3.298  16.145 -0.8870  0.5099  0.1558
  457TMC3    C1 6801   3.514   3.867  16.699 -0.4121  0.1091 -0.2370
  457TMC3    C2 6802   3.528   3.991  16.752 -0.6698 -0.1581  0.7275
  457TMC3    C3 6803   3.531   4.009  16.884 -0.1776 -0.4144  0.1636
  457TMC3    C4 6804   3.496   3.762  16.791 -0.5183  0.2965  0.2830
  457TMC3    C5 6805   3.489   3.781  16.928  0.1892 -0.2279 -0.8035
  457TMC3    C6 6806   3.515   3.904  16.976 -0.3369 -0.4724 -0.9412
  457TMC3     C 6807   3.530   3.856  16.552 -0.0435 -0.1054  1.0814
  457TMC3     O 6808   3.527   3.949  16.479  0.0355  0.1589 -0.3758
  457TMC3     H 6809   3.539   4.069  16.678  1.6571  0.8458  2.1453
  457TMC3    H1 6810   3.495   3.660  16.756 -0.8234  0.2141  0.5378
  457TMC3    H2 6811   3.527   3.919  17.083  0.1019 -0.1248 -1.0409
  457TMC3    C7 6812   3.485   3.661  17.008 -0.2865  0.4250 -0.2405
  457TMC3    C8 6813   3.530   4.142  16.943 -0.2408  0.7558 -0.3513
  457TMC3    O1 6814   3.530   3.556  16.964  0.0575  0.1073  0.6543
  457TMC3    O2 6815   3.475   4.156  17.052  0.8032  0.3119  0.0910
  458MPD2     C 6816   0.858   2.530  12.738  0.0018 -0.5307 -0.3433
  458MPD2    C1 6817   0.884   2.414  12.814  0.6053 -0.1644 -0.6579
  458MPD2    C2 6818   0.784   2.345  12.887 -0.0806  0.1727  0.3876
  458MPD2    C3 6819   0.656   2.377  12.860  0.5056  0.2443  0.5293
  458MPD2    C4 6820   0.630   2.480  12.772  0.2164 -0.3117  0.1930
  458MPD2    C5 6821   0.726   2.563  12.719 -0.4896 -0.2396 -0.5056
  458MPD2     H 6822   0.810   2.270  12.961 -3.0180 -1.4482 -0.2214
  458MPD2    H1 6823   0.530   2.518  12.755  1.2143  2.1777 -0.1990
  458MPD2    H2 6824   0.937   2.594  12.701  0.9094 -0.8095  1.0724
  458MPD2    H3 6825   0.716   2.653  12.659 -1.1265  0.4263  0.5853
  458MPD2     N 6826   0.550   2.311  12.929  0.9607  0.6639  0.6311
  458MPD2    H5 6827   0.579   2.233  12.986  3.6906 -1.1195 -3.1731
  458MPD2    N1 6828   1.019   2.393  12.848 -0.0969 -0.8615 -0.1861
  458MPD2    H7 6829   1.082   2.472  12.841 -0.7298 -0.4082 -0.6676
  459TMC3    C1 6830   1.221   2.273  12.908 -0.1268 -0.2662  0.7885
  459TMC3    C2 6831   1.302   2.371  12.857  0.9646 -0.3672 -0.1916
  459TMC3    C3 6832   1.434   2.375  12.895  0.3273 -0.9642 -0.0481
  459TMC3    C4 6833   1.270   2.186  12.998 -0.1728  0.1866  0.5793
  459TMC3    C5 6834   1.395   2.203  13.048  0.0620 -1.0452  0.1507
  459TMC3    C6 6835   1.477   2.293  12.995  0.4837  0.4305 -0.2431
  459TMC3     C 6836   1.079   2.272  12.887 -0.2120 -0.2464 -0.5832
  459TMC3     O 6837   1.028   2.164  12.918 -0.4508 -0.4409  0.3128
  459TMC3     H 6838   1.270   2.423  12.768 -0.6458 -1.0487 -0.0070
  459TMC3    H1 6839   1.201   2.113  13.038  0.2064 -0.8669 -0.6913
  459TMC3    H2 6840   1.576   2.314  13.032  0.3603  3.0702 -1.4132
  459TMC3    C7 6841   1.447   2.110  13.150  0.4156  0.0771 -0.4013
  459TMC3    C8 6842   1.528   2.462  12.838  0.1264 -0.5265 -0.0489
  459TMC3    O1 6843   1.381   2.010  13.158 -0.2173  0.7324 -0.7998
  459TMC3    O2 6844   1.643   2.418  12.840  0.1617  0.4468 -0.1548
  460MPD2     C 6845   0.326   0.076  10.924 -0.0231  0.6072  0.1756
  460MPD2    C1 6846   0.333   0.214  10.890 -0.5523  0.1575 -0.4404
  460MPD2    C2 6847   0.364   0.243  10.759  0.1273 -0.4965  0.5097
  460MPD2    C3 6848   0.375   0.141  10.663  0.0565 -0.1832 -0.2903
  460MPD2    C4 6849   0.363   0.014  10.701 -0.0715 -0.5514 -0.5126
  460MPD2    C5 6850   0.338   4.701  10.830  0.3426  0.4239 -0.2667
  460MPD2     H 6851   0.384   0.346  10.731 -1.6609 -0.3143 -0.0800
  460MPD2    H1 6852   0.376   4.653  10.634 -0.5224 -0.6599 -0.4609
  460MPD2    H2 6853   0.309   0.043  11.026 -0.5476 -0.5501 -0.2854
  460MPD2    H3 6854   0.323   4.596  10.850  1.5586  0.3923  0.5149
  460MPD2     N 6855   0.408   0.175  10.529  0.2794  0.5163  0.1379
  460MPD2    H5 6856   0.416   0.273  10.506 -3.7174  0.6863 -0.4908
  460MPD2    N1 6857   0.331   0.307  11.001  0.6969  0.3740 -0.0086
  460MPD2    H7 6858   0.321   0.266  11.094 -1.4570 -1.4989 -1.0719
  461TMC3    C1 6859   0.483   0.165  10.306 -1.0125  0.0862  0.4985
  461TMC3    C2 6860   0.556   0.098  10.210 -0.0150  0.2809  0.0501
  461TMC3    C3 6861   0.557   0.153  10.078 -0.3198 -0.0798 -0.2208
  461TMC3    C4 6862   0.406   0.274  10.268 -0.0927 -0.1630  0.4228
  461TMC3    C5 6863   0.415   0.318  10.140  0.2646  0.0896 -0.1972
  461TMC3    C6 6864   0.491   0.263  10.046 -0.7282  0.1395 -0.0502
  461TMC3     C 6865   0.449   0.087  10.428  0.1590 -0.1041  0.6471
  461TMC3     O 6866   0.478   4.690  10.427  0.3927  0.2012  0.3041
  461TMC3     H 6867   0.606   0.007  10.242 -0.4061 -0.1563 -0.5788
  461TMC3    H1 6868   0.333   0.309  10.340 -0.9984  0.8723 -0.9968
  461TMC3    H2 6869   0.491   0.316   9.951  0.2239 -1.2809 -0.8488
  461TMC3    C7 6870   0.374   0.454  10.118  0.0861  0.4354  0.0717
  461TMC3    C8 6871   0.604   0.069   9.964  0.0755 -0.7462  0.5054
  461TMC3    O1 6872   0.339   0.483  10.002 -0.1061 -0.2273  0.1973
  461TMC3    O2 6873   0.664   4.689   9.990 -0.7104 -0.0588 -0.0102
  462TMC3    C1 6874   4.314   0.728  17.406 -0.9939  0.4097 -0.2618
  462TMC3    C2 6875   4.307   0.632  17.309 -0.5531  0.8534 -0.1897
  462TMC3    C3 6876   4.300   0.495  17.351  0.0287 -0.8780 -0.5863
  462TMC3    C4 6877   4.327   0.687  17.537 -0.0065  0.8241 -0.2896
  462TMC3    C5 6878   4.318   0.553  17.574 -1.0067 -1.4076  0.5087
  462TMC3    C6 6879   4.319   0.457  17.476  0.5740  0.2041  0.1032
  462TMC3     C 6880   4.377   0.853  17.372 -0.2431 -0.2209  0.1036
  462TMC3     O 6881   4.447   0.906  17.458  0.3909  0.3516  0.0130
  462TMC3     H 6882   4.310   0.634  17.200 -0.4039 -2.7445 -0.2646
  462TMC3    H1 6883   4.345   0.769  17.606 -1.6480 -0.8167  2.0812
  462TMC3    H2 6884   4.284   0.356  17.495 -0.2731 -0.0838 -2.9728
  462TMC3    C7 6885   4.249   0.514   0.006 -0.9022  0.6570  0.6108
  462TMC3    C8 6886   4.319   0.400  17.240 -0.2696 -0.0762  0.0873
  462TMC3    O1 6887   4.227   0.390   0.016 -0.1435  0.2964  0.2455
  462TMC3    O2 6888   4.252   0.412  17.139  0.2600  0.2103 -0.1912
  463MPD2     C 6889   0.181   0.255   1.956 -0.6808  0.3640  0.6771
  463MPD2    C1 6890   0.176   0.143   1.866  0.1787 -0.1586 -0.4548
  463MPD2    C2 6891   0.302   0.085   1.826 -0.0953 -0.0647 -0.6480
  463MPD2    C3 6892   0.421   0.142   1.870  0.0467 -0.3322  0.7695
  463MPD2    C4 6893   0.421   0.257   1.946  0.6040 -0.6833  0.3443
  463MPD2    C5 6894   0.305   0.315   1.985 -0.1493 -0.1074 -0.6525
  463MPD2     H 6895   0.304   0.009   1.748 -0.7193  1.7606 -2.4244
  463MPD2    H1 6896   0.508   0.306   1.989  0.2254  0.3126 -0.0290
  463MPD2    H2 6897   0.091   0.310   1.980  0.9083  2.6662  1.3340
  463MPD2    H3 6898   0.301   0.399   2.053 -2.3292 -2.0547  1.6697
  463MPD2     N 6899   0.548   0.092   1.833 -0.2953  0.3139 -0.5502
  463MPD2    H5 6900   0.631   0.147   1.849  0.2733 -1.0146  1.0848
  463MPD2    N1 6901   0.058   0.092   1.810 -0.1645 -0.1107 -0.1642
  463MPD2    H7 6902   0.082   0.010   1.755 -1.0805  1.2205 -2.5564
  464TMC3    C1 6903   4.555   0.068   1.751 -0.3107 -0.7880  0.1019
  464TMC3    C2 6904   4.589   0.010   1.629 -0.2275  0.4816 -0.5756
  464TMC3    C3 6905   4.488   4.689   1.547 -0.7589 -0.3813  0.7591
  464TMC3    C4 6906   4.422   0.078   1.790 -0.3580 -0.0177  0.5899
  464TMC3    C5 6907   4.327   0.023   1.705 -0.3708  0.7018 -0.7683
  464TMC3    C6 6908   4.358   4.692   1.581 -0.2274 -0.1347 -0.3767
  464TMC3     C 6909   4.652   0.137   1.829 -0.9237 -0.3069  0.7193
  464TMC3     O 6910   4.619   0.227   1.904 -0.0860 -0.1371 -0.0514
  464TMC3     H 6911   4.692   0.019   1.595 -0.1292 -1.9116 -0.8634
  464TMC3    H1 6912   4.390   0.124   1.883 -0.4397  0.6063  0.2579
  464TMC3    H2 6913   4.286   4.700   1.501 -0.0798 -0.4528 -0.5391
  464TMC3    C7 6914   4.209   4.705   1.776 -0.0874 -0.2325  0.2658
  464TMC3    C8 6915   4.519   4.681   1.409  0.4497  0.0138  0.8532
  464TMC3    O1 6916   4.180   0.032   1.886 -0.5656  0.4955 -0.0544
  464TMC3    O2 6917   4.622   0.007   1.367  0.9408  0.1354 -0.1567
  465MPD2     C 6918   2.032   2.802  16.830  0.4962 -0.0237 -0.2998
  465MPD2    C1 6919   1.923   2.840  16.910 -0.0117 -1.1090  0.4543
  465MPD2    C2 6920   1.815   2.907  16.852  0.8037 -0.9579  0.1134
  465MPD2    C3 6921   1.802   2.926  16.718  0.2675 -0.3820  0.1535
  465MPD2    C4 6922   1.908   2.875  16.639 -0.4067 -0.2982  0.2583
  465MPD2    C5 6923   2.020   2.820  16.696  0.4782  0.5401  0.6264
  465MPD2     H 6924   1.732   2.946  16.908  1.3343 -0.6603  0.6917
  465MPD2    H1 6925   1.898   2.885  16.531  0.1183  2.9972  0.5014
  465MPD2    H2 6926   2.116   2.754  16.878 -0.7303 -0.6950  1.1713
  465MPD2    H3 6927   2.095   2.770  16.635  1.3257  0.6355  1.6069
  465MPD2     N 6928   1.702   3.013  16.665 -0.1338  0.4412  0.2396
  465MPD2    H5 6929   1.635   3.043  16.735 -0.3219 -0.4507  0.4359
  465MPD2    N1 6930   1.913   2.808  17.045 -0.7209 -0.3262  0.0868
  465MPD2    H7 6931   1.824   2.838  17.085 -1.6075  1.4982 -3.2320
  466TMC3    C1 6932   1.432   3.256  16.632  0.2422 -0.3898 -0.2055
  466TMC3    C2 6933   1.456   3.360  16.541  0.1965  0.5208  0.1494
  466TMC3    C3 6934   1.524   3.327  16.429 -0.0143  0.1329 -0.5713
  466TMC3    C4 6935   1.489   3.137  16.612  0.5215  0.6862  0.5891
  466TMC3    C5 6936   1.567   3.115  16.509  0.2587 -0.4122  0.1403
  466TMC3    C6 6937   1.581   3.205  16.408  0.2444 -0.0727  0.1049
  466TMC3     C 6938   1.392   3.286  16.769  0.5545 -0.7494 -0.0714
  466TMC3     O 6939   1.389   3.188  16.842  0.1413  0.3977 -0.0674
  466TMC3     H 6940   1.414   3.459  16.553 -0.8726  0.1461 -0.4455
  466TMC3    H1 6941   1.460   3.060  16.683  0.9341  1.8989  2.0766
  466TMC3    H2 6942   1.642   3.188  16.320  1.6421 -0.7805  1.2124
  466TMC3    C7 6943   1.685   3.050  16.533  0.0227  0.6269 -0.2469
  466TMC3    C8 6944   1.593   3.433  16.364 -0.3351 -0.6266 -0.0031
  466TMC3    O1 6945   1.759   3.034  16.432 -0.0886 -0.4296  0.0377
  466TMC3    O2 6946   1.648   3.406  16.255  0.4307  0.1566  0.0555
  467TMC3    C1 6947   2.887   1.789  13.852 -0.1152 -0.3809 -0.4204
  467TMC3    C2 6948   2.934   1.854  13.740 -0.6466 -0.0138  0.4837
  467TMC3    C3 6949   2.867   1.965  13.701 -0.0818  0.4526 -0.3439
  467TMC3    C4 6950   2.783   1.842  13.924  0.1343 -0.1428  1.1211
  467TMC3    C5 6951   2.722   1.955  13.887 -0.1613 -0.0065 -0.0073
  467TMC3    C6 6952   2.777   2.017  13.780  0.1723 -0.0887 -0.4197
  467TMC3     C 6953   2.989   1.721  13.918  0.2059  0.1486  0.8932
  467TMC3     O 6954   2.958   1.640  14.002  0.1871 -0.2456  0.1130
  467TMC3     H 6955   3.006   1.803  13.676 -0.1383  0.8246  0.3875
  467TMC3    H1 6956   2.755   1.785  14.012 -0.9254  1.7916  2.0226
  467TMC3    H2 6957   2.733   2.111  13.748 -0.4550 -0.3557 -0.3453
  467TMC3    C7 6958   2.598   2.009  13.938 -0.3790 -0.6343 -0.2660
  467TMC3    C8 6959   2.943   2.058  13.618  0.5119 -0.3523  0.1994
  467TMC3    O1 6960   2.543   2.093  13.866 -0.1381 -0.5241 -0.2032
  467TMC3    O2 6961   2.930   2.177  13.641 -0.4730 -0.4428 -0.3918
  468MPD2     C 6962   2.216   4.653  10.812  0.3105 -0.3002  0.0642
  468MPD2    C1 6963   2.329   4.605  10.757  0.4054  0.4136  0.2350
  468MPD2    C2 6964   2.350   4.467  10.770 -0.5993  0.0618 -0.2254
  468MPD2    C3 6965   2.255   4.375  10.822  0.2769  0.2037  0.2268
  468MPD2    C4 6966   2.143   4.435  10.870 -0.3754  0.0328  0.4550
  468MPD2    C5 6967   2.123   4.569  10.873 -0.1453 -0.4475  0.3454
  468MPD2     H 6968   2.444   4.425  10.735 -0.1695  1.4867 -0.7632
  468MPD2    H1 6969   2.067   4.379  10.924 -0.1393  0.9179  1.7011
  468MPD2    H2 6970   2.192   0.036  10.808 -0.4175 -0.4481  0.6275
  468MPD2    H3 6971   2.027   4.604  10.909  0.5156  2.3124 -0.6529
  468MPD2     N 6972   2.273   4.233  10.835  0.2143  0.1045  0.1005
  468MPD2    H5 6973   2.197   4.192  10.888 -0.7366  1.7991  0.0716
  468MPD2    N1 6974   2.427   4.698  10.705  0.4897 -0.0163 -0.8730
  468MPD2    H7 6975   2.394   0.067  10.734 -0.8034 -0.8741  0.3497
  469TMC3    C1 6976   2.638   0.062  10.643  0.2874 -0.0865 -0.3115
  469TMC3    C2 6977   2.772   0.040  10.638 -0.2608  1.0967 -0.5234
  469TMC3    C3 6978   2.859   0.144  10.644  1.3737 -0.7643 -0.4239
  469TMC3    C4 6979   2.592   0.188  10.674 -0.3554 -0.0905 -0.4666
  469TMC3    C5 6980   2.684   0.291  10.674 -0.4147 -0.1004 -0.0077
  469TMC3    C6 6981   2.817   0.268  10.656  0.3252 -0.7648 -0.1420
  469TMC3     C 6982   2.549   4.669  10.653  0.6584 -0.1474  0.7160
  469TMC3     O 6983   2.587   4.561  10.618 -0.3716  0.4075  0.2981
  469TMC3     H 6984   2.811   4.662  10.629 -1.7473  0.4789  0.1003
  469TMC3    H1 6985   2.485   0.207  10.685 -0.4493 -0.4202 -0.8186
  469TMC3    H2 6986   2.886   0.352  10.658 -0.5155 -0.0642 -0.4785
  469TMC3    C7 6987   2.647   0.430  10.688  0.2692  0.0060 -0.2005
  469TMC3    C8 6988   2.971   0.116  10.733  1.0603 -0.1734 -0.5579
  469TMC3    O1 6989   2.721   0.516  10.648 -0.6789  0.1961 -0.3197
  469TMC3    O2 6990   3.032   0.009  10.722 -0.1123  0.1979 -0.4080
  470TMC3    C1 6991   4.546   0.783   0.331 -0.1675  0.3027 -0.2614
  470TMC3    C2 6992   4.522   0.916   0.365 -0.7055  0.6083  0.0808
  470TMC3    C3 6993   4.458   0.939   0.483  0.1872 -0.5897 -0.1667
  470TMC3    C4 6994   4.486   0.679   0.396  0.5935  0.4498 -0.0236
  470TMC3    C5 6995   4.408   0.706   0.504 -0.2604 -0.5114 -0.3460
  470TMC3    C6 6996   4.397   0.836   0.553  0.4965 -0.4552  0.5163
  470TMC3     C 6997   4.585   0.756   0.196  0.4613 -0.3097  0.5127
  470TMC3     O 6998   4.588   0.858   0.127 -0.2381  0.4275 -0.0344
  470TMC3     H 6999   4.565   0.998   0.309 -0.6335 -0.6070 -1.6213
  470TMC3    H1 7000   4.479   0.576   0.361  2.0916  0.4238 -0.2691
  470TMC3    H2 7001   4.333   0.854   0.639 -1.1922 -0.0080 -0.8446
  470TMC3    C7 7002   4.360   0.599   0.581  0.3970  0.4085 -0.2837
  470TMC3    C8 7003   4.405   1.068   0.518  0.0411  0.3188 -0.1578
  470TMC3    O1 7004   4.349   0.489   0.532  0.0069 -0.1990  0.1822
  470TMC3    O2 7005   4.341   1.066   0.622 -0.1025  0.3704  0.1193
  471MPD2     C 7006   0.068   2.342  17.014  0.1176  0.8591  0.1334
  471MPD2    C1 7007   0.126   2.226  16.957  0.0215 -0.3021  0.1696
  471MPD2    C2 7008   0.229   2.170  17.026 -0.0466  0.3408  0.3661
  471MPD2    C3 7009   0.270   2.221  17.148  0.2049 -0.9893 -0.2936
  471MPD2    C4 7010   0.212   2.333  17.203 -0.1002 -0.0082 -0.1216
  471MPD2    C5 7011   0.119   2.395  17.133 -0.1403  0.3731 -0.6578
  471MPD2     H 7012   0.289   2.090  16.983  0.3223  1.5441 -1.3830
  471MPD2    H1 7013   0.253   2.376  17.293 -0.6983 -0.3148  0.2905
  471MPD2    H2 7014   4.710   2.394  16.963  0.7119  3.4111  1.8185
  471MPD2    H3 7015   0.070   2.485  17.169  0.4341  0.4036  0.0409
  471MPD2     N 7016   0.365   2.157  17.231  0.0052 -0.1357 -1.0060
  471MPD2    H5 7017   0.357   2.183  17.329 -1.6886  0.0987 -1.2124
  471MPD2    N1 7018   0.094   2.165  16.829  0.2790 -0.8883  0.3797
  471MPD2    H7 7019   0.144   2.083  16.797  1.2556  0.4146 -1.4309
  472TMC3    C1 7020   4.678   2.119  16.640 -0.2020 -0.0369  0.0416
  472TMC3    C2 7021   4.588   2.170  16.549  0.2894 -0.0064  0.0481
  472TMC3    C3 7022   4.541   2.091  16.454 -1.2289  1.0513 -0.4235
  472TMC3    C4 7023   4.711   1.986  16.647 -0.1622  0.1001  0.3423
  472TMC3    C5 7024   4.647   1.908  16.553  0.1197  0.1006  0.2542
  472TMC3    C6 7025   4.561   1.956  16.450  0.0579  0.4338 -0.3282
  472TMC3     C 7026   4.719   2.211  16.746 -0.0813 -0.1349 -0.0293
  472TMC3     O 7027   4.662   2.318  16.747 -0.1375  0.0979 -0.1112
  472TMC3     H 7028   4.571   2.277  16.544  0.1146 -0.1092 -1.5994
  472TMC3    H1 7029   0.056   1.951  16.724 -0.0422  0.4505  0.3975
  472TMC3    H2 7030   4.526   1.912  16.357 -1.7692  3.6591 -1.1803
  472TMC3    C7 7031   4.648   1.762  16.572 -0.4124 -0.3327 -0.4318
  472TMC3    C8 7032   4.423   2.144  16.394  0.4250 -0.3852  0.1457
  472TMC3    O1 7033   0.017   1.716  16.643 -0.2237  0.6967 -0.3881
  472TMC3    O2 7034   4.419   2.246  16.326  0.1160 -0.6386 -0.3963
  473MPD2     C 7035   0.155   4.091  14.012  0.4234 -0.2546 -0.6801
  473MPD2    C1 7036   0.069   4.187  13.963  0.0371 -0.1981 -0.3749
  473MPD2    C2 7037   0.043   4.283  14.060  0.3613 -0.4130 -0.4258
  473MPD2    C3 7038   0.102   4.277  14.187 -0.4636 -0.1829 -0.4115
  473MPD2    C4 7039   0.182   4.171  14.231  0.2136 -0.2642 -0.6220
  473MPD2    C5 7040   0.206   4.077  14.136  0.3076 -0.6980 -0.6212
  473MPD2     H 7041   4.701   4.364  14.027  0.1181 -0.5046 -0.1795
  473MPD2    H1 7042   0.204   4.155  14.336  0.6680  1.8942 -0.3824
  473MPD2    H2 7043   0.189   4.018  13.940  1.3095  1.3389 -1.8974
  473MPD2    H3 7044   0.265   3.990  14.160 -1.2554 -1.0374  1.9909
  473MPD2     N 7045   0.095   4.381  14.285  0.2453  0.1321 -0.3106
  473MPD2    H5 7046   0.139   4.363  14.374 -1.6371  0.6257  0.7346
  473MPD2    N1 7047   0.018   4.199  13.831  0.0286 -0.3088 -0.3125
  473MPD2    H7 7048   4.683   4.280  13.810 -0.3716 -0.2944  0.8144
  474TMC3    C1 7049   0.018   4.579  14.393 -0.5118  0.0521  0.1855
  474TMC3    C2 7050   4.629   4.649  14.408 -0.1405 -0.7694  0.8151
  474TMC3    C3 7051   4.642   0.050  14.468  0.6617  0.9225  0.0660
  474TMC3    C4 7052   0.143   4.624  14.427 -0.7295  0.4005 -0.0580
  474TMC3    C5 7053   0.151   0.011  14.495  0.2470  0.0693 -0.6665
  474TMC3    C6 7054   0.041   0.089  14.520  0.2382 -0.3932  0.0617
  474TMC3     C 7055   0.013   4.497  14.274 -0.5483 -0.3384  0.6408
  474TMC3     O 7056   4.658   4.523  14.184 -0.5946  0.4189  0.2394
  474TMC3     H 7057   4.532   4.609  14.378  0.4716 -1.0306 -0.8329
  474TMC3    H1 7058   0.226   4.558  14.407 -2.9201 -2.5591  0.7127
  474TMC3    H2 7059   0.058   0.188  14.562 -0.5175  0.7920 -2.4567
  474TMC3    C7 7060   0.279   0.066  14.521 -0.3957 -0.3217  0.2882
  474TMC3    C8 7061   4.542   0.145  14.414  0.3598  0.7189  0.2160
  474TMC3    O1 7062   0.362   0.059  14.429 -0.7715 -0.4684  0.3023
  474TMC3    O2 7063   4.434   0.092  14.391  0.0549  0.2296 -0.1527
  475MPD2     C 7064   3.539   2.440  10.164  0.8108 -0.1334 -0.7635
  475MPD2    C1 7065   3.578   2.564  10.209  0.0197 -0.1204  0.3609
  475MPD2    C2 7066   3.484   2.633  10.293 -0.1948  0.2634  0.9583
  475MPD2    C3 7067   3.370   2.576  10.349 -0.0479 -0.0743  0.2910
  475MPD2    C4 7068   3.349   2.442  10.317  0.3245  0.0060 -0.4419
  475MPD2    C5 7069   3.429   2.379  10.222  0.6278  0.5047  0.0397
  475MPD2     H 7070   3.499   2.739  10.310 -0.8379  0.7258 -1.3457
  475MPD2    H1 7071   3.265   2.392  10.364  1.0985 -2.0778 -1.2598
  475MPD2    H2 7072   3.610   2.383  10.107 -0.5311  0.5991 -3.1440
  475MPD2    H3 7073   3.402   2.278  10.192 -0.3304  0.5580  0.7058
  475MPD2     N 7074   3.294   2.656  10.437 -0.2517 -0.0223  0.3600
  475MPD2    H5 7075   3.327   2.752  10.451  2.9206 -1.1652  0.7983
  475MPD2    N1 7076   3.695   2.635  10.167 -0.3370  0.3509  0.2940
  475MPD2    H7 7077   3.736   2.602  10.079 -0.7562 -0.6102  0.4588
  476TMC3    C1 7078   3.809   2.836  10.128  0.5310  0.4645  0.1077
  476TMC3    C2 7079   3.727   2.875  10.020  0.0152 -0.1648 -0.3785
  476TMC3    C3 7080   3.729   3.000   9.973  0.1578 -0.1988  0.9154
  476TMC3    C4 7081   3.905   2.921  10.178  0.5870  0.3968  0.2019
  476TMC3    C5 7082   3.909   3.049  10.124  0.1103 -0.4825 -0.0233
  476TMC3    C6 7083   3.822   3.093  10.024 -0.2407  0.0576  0.2737
  476TMC3     C 7084   3.750   2.746  10.224  0.6894 -0.2557  0.1457
  476TMC3     O 7085   3.773   2.780  10.341 -0.0332 -0.0769 -0.3746
  476TMC3     H 7086   3.656   2.813   9.966 -0.0210 -0.6059  0.1822
  476TMC3    H1 7087   3.956   2.900  10.271 -0.2376  3.3468  1.3133
  476TMC3    H2 7088   3.837   3.190   9.979  1.6099 -0.0740  0.5918
  476TMC3    C7 7089   4.004   3.144  10.178 -0.5837  0.1147  0.1617
  476TMC3    C8 7090   3.599   3.062   9.958  0.0072  0.8275  0.4467
  476TMC3    O1 7091   4.049   3.235  10.107 -0.5823 -0.4013  0.4471
  476TMC3    O2 7092   3.609   3.183   9.964  0.7583 -0.7119 -0.3610
  477MPD2     C 7093   0.530   4.111  11.512  0.1094  0.0990  0.2292
  477MPD2    C1 7094   0.539   4.184  11.627  0.3475 -0.4112  0.3871
  477MPD2    C2 7095   0.606   4.144  11.743 -0.5622 -0.2551 -0.3531
  477MPD2    C3 7096   0.653   4.012  11.744 -0.1453  0.6662  0.4410
  477MPD2    C4 7097   0.645   3.930  11.630  0.2503 -0.2139 -0.1561
  477MPD2    C5 7098   0.590   3.984  11.514 -0.6625  0.2470  1.0545
  477MPD2     H 7099   0.602   4.205  11.833  1.2381  0.4256 -0.7422
  477MPD2    H1 7100   0.680   3.827  11.632  0.7987 -0.0502 -1.5905
  477MPD2    H2 7101   0.481   4.146  11.422  2.6374  3.7889  0.2889
  477MPD2    H3 7102   0.575   3.919  11.429  2.1158  0.0502  0.6897
  477MPD2     N 7103   0.721   3.971  11.864  0.5065 -0.1455  0.5777
  477MPD2    H5 7104   0.704   4.027  11.946  0.5689 -0.1729  0.6090
  477MPD2    N1 7105   0.471   4.307  11.622  0.2225  0.3628  1.0224
  477MPD2    H7 7106   0.413   4.324  11.541  1.7627  0.9980  0.0598
  478TMC3    C1 7107   0.432   4.528  11.681 -0.6488  0.3094  0.2761
  478TMC3    C2 7108   0.457   4.635  11.761  0.1565  0.6698 -0.8656
  478TMC3    C3 7109   0.384   0.029  11.741  0.0600 -0.5140  0.0851
  478TMC3    C4 7110   0.354   4.544  11.568 -0.8923 -0.0688 -0.3861
  478TMC3    C5 7111   0.291   4.661  11.544 -0.2326  0.0653  0.0498
  478TMC3    C6 7112   0.290   0.042  11.634  0.2119 -0.3274  0.0552
  478TMC3     C 7113   0.504   4.410  11.706  0.4240  0.3741  0.0794
  478TMC3     O 7114   0.604   4.421  11.776  0.1676 -0.0674 -0.2875
  478TMC3     H 7115   0.512   4.631  11.854 -0.5185  1.1643 -0.4480
  478TMC3    H1 7116   0.337   4.464  11.497 -0.6977  0.1350 -0.6603
  478TMC3    H2 7117   0.215   0.120  11.627 -0.4815 -1.2358 -2.3775
  478TMC3    C7 7118   0.168   4.625  11.477 -0.2342  0.5612  0.1034
  478TMC3    C8 7119   0.366   0.119  11.855 -0.7312 -0.0585  0.2389
  478TMC3    O1 7120   0.068   4.590  11.538  0.0638  0.4013  0.6498
  478TMC3    O2 7121   0.408   0.091  11.968  0.1386  0.3959  0.6134
  479MPD2     C 7122   4.280   1.271  14.772 -0.9063 -0.3593 -0.4211
  479MPD2    C1 7123   4.211   1.191  14.858 -0.1558  0.0819  0.4404
  479MPD2    C2 7124   4.226   1.198  14.993 -0.1017  0.2045  0.0066
  479MPD2    C3 7125   4.324   1.280  15.047 -0.4306 -0.7164  0.6491
  479MPD2    C4 7126   4.416   1.348  14.962  0.2149 -0.5292 -0.8647
  479MPD2    C5 7127   4.387   1.345  14.826 -0.1493  0.9116  0.3007
  479MPD2     H 7128   4.158   1.139  15.053 -1.8657  0.8280 -1.3952
  479MPD2    H1 7129   4.489   1.416  15.002 -1.3725  0.2839  0.6500
  479MPD2    H2 7130   4.281   1.257  14.664 -1.6408 -1.2937 -0.3072
  479MPD2    H3 7131   4.446   1.406  14.758 -0.1803 -0.6769 -1.1409
  479MPD2     N 7132   4.327   1.305  15.191 -0.1177  0.2645  0.6294
  479MPD2    H5 7133   4.371   1.390  15.224  1.6279 -0.3747 -0.0522
  479MPD2    N1 7134   4.094   1.122  14.804  0.3137 -0.0268  0.1599
  479MPD2    H7 7135   4.034   1.163  14.734  3.3027  2.7896 -0.7397
  480TMC3    C1 7136   4.173   1.250  15.625  0.7424 -0.6906 -0.5996
  480TMC3    C2 7137   4.139   1.384  15.634 -0.3058  0.1706  0.4474
  480TMC3    C3 7138   4.162   1.465  15.529 -0.3819 -0.5598 -0.2603
  480TMC3    C4 7139   4.229   1.197  15.516 -0.1717  0.5441 -0.5589
  480TMC3    C5 7140   4.252   1.280  15.407  0.4403 -0.7768 -0.2419
  480TMC3    C6 7141   4.228   1.414  15.417  0.4324  0.1593  0.2447
  480TMC3     C 7142   4.110   1.155  15.711  0.0301 -0.0178  0.2286
  480TMC3     O 7143   4.145   1.037  15.703 -0.0879 -0.5765  0.5132
  480TMC3     H 7144   4.099   1.417  15.730  2.5241 -0.4575  1.8563
  480TMC3    H1 7145   4.242   1.090  15.503 -0.8869  0.3523  0.3844
  480TMC3    H2 7146   4.255   1.478  15.334  1.1607 -0.5492 -0.0670
  480TMC3    C7 7147   4.280   1.218  15.281  0.1614  0.2944  0.4238
  480TMC3    C8 7148   4.217   1.595  15.570  0.3361 -0.5491 -0.4633
  480TMC3    O1 7149   4.253   1.099  15.268 -0.6493 -0.8309 -0.5586
  480TMC3    O2 7150   4.237   1.614  15.688 -0.2275 -0.5506  0.3822
  481MPD2     C 7151   1.366   0.831  14.246 -0.4772  0.3415  0.5137
  481MPD2    C1 7152   1.246   0.794  14.294  0.5479 -0.0802 -0.6489
  481MPD2    C2 7153   1.239   0.735  14.423 -0.5170 -0.1418  0.3716
  481MPD2    C3 7154   1.352   0.716  14.497  0.6113  0.3906  0.0519
  481MPD2    C4 7155   1.471   0.753  14.444 -0.1075  1.1943 -0.1228
  481MPD2    C5 7156   1.483   0.805  14.318  0.1423  0.5522  0.0898
  481MPD2     H 7157   1.142   0.704  14.460 -0.6839 -0.2430 -0.1433
  481MPD2    H1 7158   1.561   0.741  14.502  0.3255 -2.4418 -1.5585
  481MPD2    H2 7159   1.372   0.869  14.144  0.5632 -3.0101 -0.6661
  481MPD2    H3 7160   1.582   0.822  14.276 -0.2138  1.1574 -0.5069
  481MPD2     N 7161   1.358   0.648  14.618 -0.1255 -0.5099 -0.5617
  481MPD2    H5 7162   1.450   0.643  14.660  0.7292  2.4651 -2.1093
  481MPD2    N1 7163   1.126   0.811  14.221  0.3867  0.4397  0.4473
  481MPD2    H7 7164   1.132   0.832  14.122 -0.4307  1.8153  0.6842
  482TMC3    C1 7165   0.908   0.851  14.157 -0.1756 -0.0573  0.2283
  482TMC3    C2 7166   0.789   0.785  14.149 -0.2648  0.2720  0.2681
  482TMC3    C3 7167   0.701   0.837  14.051  0.2202  0.0738 -0.1178
  482TMC3    C4 7168   0.951   0.946  14.071 -0.0765  0.6797 -0.0433
  482TMC3    C5 7169   0.858   0.992  13.979  0.3093 -0.2206 -0.2556
  482TMC3    C6 7170   0.733   0.943  13.969  0.3476 -0.0865 -0.1551
  482TMC3     C 7171   0.996   0.818  14.266 -0.5186 -0.3399  0.0318
  482TMC3     O 7172   0.942   0.766  14.360  0.5769 -0.4536  0.7142
  482TMC3     H 7173   0.761   0.701  14.212  0.7525  0.5213  1.0709
  482TMC3    H1 7174   1.043   0.998  14.091  0.2050 -0.4397  1.6250
  482TMC3    H2 7175   0.670   0.989  13.893  1.0574  2.0434  0.5500
  482TMC3    C7 7176   0.905   1.110  13.912 -0.0957 -0.5418  0.4280
  482TMC3    C8 7177   0.584   0.770  14.007 -0.1236 -0.0624  0.1280
  482TMC3    O1 7178   0.993   1.179  13.959 -0.2381 -0.0471 -0.0156
  482TMC3    O2 7179   0.593   0.648  14.010  0.3657 -0.1214 -0.1047
  483TMC3    C1 7180   3.231   3.883   0.266  0.6457 -0.6852  0.2439
  483TMC3    C2 7181   3.193   4.017   0.275  0.4539  0.4899  0.5699
  483TMC3    C3 7182   3.183   4.075   0.401  0.0724 -0.2605  0.0942
  483TMC3    C4 7183   3.256   3.810   0.382 -0.1929 -0.8814 -0.7123
  483TMC3    C5 7184   3.231   3.864   0.508  0.3135 -0.2900 -0.6072
  483TMC3    C6 7185   3.205   3.999   0.516  0.1283 -0.5536  0.3764
  483TMC3     C 7186   3.217   3.818   0.138  0.1734 -0.0752 -0.4444
  483TMC3     O 7187   3.177   3.892   0.048 -0.0605 -0.0906  0.0105
  483TMC3     H 7188   3.185   4.083   0.190  0.1316 -1.1896 -0.6924
  483TMC3    H1 7189   3.286   3.706   0.376  0.7665 -0.6231 -0.2823
  483TMC3    H2 7190   3.216   4.053   0.610  1.2766  0.7184 -0.4928
  483TMC3    C7 7191   3.306   3.810   0.619  0.0047  0.7750 -0.4400
  483TMC3    C8 7192   3.229   4.206   0.409  0.4387 -0.5749 -0.4835
  483TMC3    O1 7193   3.391   3.726   0.594  0.4479 -0.3834 -0.2271
  483TMC3    O2 7194   3.326   4.243   0.345  0.2727 -0.1502  0.6671
  484MPD2     C 7195   1.499   2.810  12.715  0.2769  0.9783  0.1654
  484MPD2    C1 7196   1.556   2.691  12.745 -0.0932 -0.1198  0.4732
  484MPD2    C2 7197   1.699   2.687  12.735 -0.4198 -0.1613 -0.5046
  484MPD2    C3 7198   1.779   2.794  12.692 -0.5712  0.1018 -0.3056
  484MPD2    C4 7199   1.718   2.912  12.656  0.5388 -0.1000 -1.1722
  484MPD2    C5 7200   1.578   2.913  12.668  0.0573  0.4756  0.0813
  484MPD2     H 7201   1.748   2.591  12.750  0.6219  0.1036 -2.2679
  484MPD2    H1 7202   1.760   3.007  12.626  1.9237 -0.1976  0.3848
  484MPD2    H2 7203   1.392   2.828  12.722  0.1500 -0.9011  3.2594
  484MPD2    H3 7204   1.534   3.010  12.648  0.2651  0.8840  1.5946
  484MPD2     N 7205   1.918   2.786  12.679 -0.4396 -0.2672  0.2154
  484MPD2    H5 7206   1.967   2.865  12.639 -0.8621 -0.2142 -0.2042
  484MPD2    N1 7207   1.476   2.583  12.796 -0.0064  0.4330  0.5559
  484MPD2    H7 7208   1.379   2.606  12.820 -0.5845 -0.5706 -0.8484
  485TMC3    C1 7209   2.136   2.695  12.650  0.1042 -0.1279 -0.0505
  485TMC3    C2 7210   2.219   2.612  12.729  0.3749 -0.0353 -0.3549
  485TMC3    C3 7211   2.351   2.640  12.726 -0.1316  0.0492  0.3145
  485TMC3    C4 7212   2.182   2.793  12.569 -0.0988 -0.9341  1.0145
  485TMC3    C5 7213   2.316   2.814  12.575 -0.3264  0.5804 -0.7901
  485TMC3    C6 7214   2.402   2.751  12.662  0.2079 -0.8231 -0.1556
  485TMC3     C 7215   1.992   2.670  12.668 -0.6869 -0.0272 -0.2366
  485TMC3     O 7216   1.970   2.554  12.691 -0.4454  0.0133  0.2017
  485TMC3     H 7217   2.178   2.527  12.782 -1.5029  0.4913 -0.9812
  485TMC3    H1 7218   2.118   2.840  12.495 -0.1746 -1.0063  1.0329
  485TMC3    H2 7219   2.503   2.787  12.674 -0.4206  0.6748  0.6422
  485TMC3    C7 7220   2.386   2.847  12.455 -0.2340 -0.2770 -0.0197
  485TMC3    C8 7221   2.438   2.528  12.703 -0.7679 -0.0692 -1.1384
  485TMC3    O1 7222   2.338   2.917  12.370  0.6252 -0.1106  0.2486
  485TMC3    O2 7223   2.524   2.555  12.623  0.2780 -0.0970  0.4192
  486MPD2     C 7224   3.926   1.749  13.036 -0.3648 -0.1335  0.3897
  486MPD2    C1 7225   3.921   1.777  12.903 -0.5975 -0.1673 -0.2585
  486MPD2    C2 7226   3.915   1.908  12.858 -0.3596  0.5353  0.0346
  486MPD2    C3 7227   3.918   2.012  12.947 -0.0389  0.1955 -0.2711
  486MPD2    C4 7228   3.922   1.985  13.080  0.0887  0.0486 -0.0010
  486MPD2    C5 7229   3.922   1.850  13.123 -0.3732  0.7012  0.0819
  486MPD2     H 7230   3.918   1.931  12.752  1.4404  0.1442  0.0001
  486MPD2    H1 7231   3.923   2.068  13.149 -0.5660 -1.7987  2.2417
  486MPD2    H2 7232   3.928   1.645  13.067  0.3473 -0.6840 -1.5521
  486MPD2    H3 7233   3.920   1.833  13.230  0.0177  1.1247  0.1552
  486MPD2     N 7234   3.925   2.139  12.883 -0.5701 -0.4918 -0.3101
  486MPD2    H5 7235   3.926   2.149  12.782 -1.3218 -0.1649 -0.2888
  486MPD2    N1 7236   3.920   1.664  12.813  0.0462  0.0472 -0.2038
  486MPD2    H7 7237   3.943   1.576  12.858  2.0729 -0.4036 -2.1139
  487TMC3    C1 7238   3.921   1.535  12.626 -0.0396 -0.7875 -0.5409
  487TMC3    C2 7239   3.801   1.482  12.579  0.6491  0.5761 -0.7650
  487TMC3    C3 7240   3.784   1.346  12.576 -0.5263  0.4046 -0.0010
  487TMC3    C4 7241   4.015   1.457  12.670  0.3577 -0.1373  0.2983
  487TMC3    C5 7242   3.989   1.318  12.675 -0.4517  0.7911  0.2467
  487TMC3    C6 7243   3.883   1.257  12.621  0.6675 -0.1039 -0.3774
  487TMC3     C 7244   3.915   1.671  12.677  0.1162  0.4609 -0.6962
  487TMC3     O 7245   3.890   1.760  12.594 -0.7558  0.1112  0.2518
  487TMC3     H 7246   3.719   1.551  12.562  1.2091  1.1609 -1.1056
  487TMC3    H1 7247   4.109   1.505  12.695  0.5521  0.7191 -1.9914
  487TMC3    H2 7248   3.867   1.155  12.653  0.9080 -0.2724 -0.7970
  487TMC3    C7 7249   3.990   1.288  12.821 -0.8360  0.3139  1.1350
  487TMC3    C8 7250   3.648   1.302  12.596 -0.4981 -0.3527  0.2559
  487TMC3    O1 7251   4.014   1.393  12.884 -0.3373 -0.1444 -0.0815
  487TMC3    O2 7252   3.567   1.371  12.653  0.3394  0.3791 -0.0895
  488MPD2     C 7253   4.219   3.214  16.764 -0.0953 -0.0735  0.1184
  488MPD2    C1 7254   4.178   3.343  16.754  0.6001  1.0174 -0.1994
  488MPD2    C2 7255   4.083   3.390  16.847  0.1652 -0.2849  0.3182
  488MPD2    C3 7256   4.049   3.315  16.956 -0.0627  0.0963  0.1408
  488MPD2    C4 7257   4.097   3.184  16.963  0.4208 -0.0732 -0.8731
  488MPD2    C5 7258   4.182   3.135  16.870 -0.3566 -0.4903 -0.4635
  488MPD2     H 7259   4.039   3.488  16.832 -0.1780 -0.4643  0.1671
  488MPD2    H1 7260   4.074   3.103  17.031  0.9256  0.2185 -0.3470
  488MPD2    H2 7261   4.296   3.182  16.693  0.2870  0.4104  0.3145
  488MPD2    H3 7262   4.222   3.034  16.871 -1.4471 -0.8894  1.2599
  488MPD2     N 7263   3.954   3.366  17.047  0.0276  0.9500 -0.3697
  488MPD2    H5 7264   3.912   3.457  17.027  1.2372  1.7009  0.5354
  488MPD2    N1 7265   4.210   3.432  16.644  0.3969 -0.3027  0.2831
  488MPD2    H7 7266   4.173   3.526  16.643  0.8864 -0.0888  1.9029
  489TMC3    C1 7267   3.870   3.408  17.264 -0.0513  0.1266 -0.2991
  489TMC3    C2 7268   3.821   3.523  17.210 -0.2007  0.6851  0.2304
  489TMC3    C3 7269   3.822   3.624  17.299  0.1575 -0.4937  0.1557
  489TMC3    C4 7270   3.908   3.385  17.394  0.2329  0.4524  0.7673
  489TMC3    C5 7271   3.886   3.492  17.474 -0.1151  0.1832  0.1496
  489TMC3    C6 7272   3.842   3.605  17.430 -0.2036 -0.1528 -0.3266
  489TMC3     C 7273   3.929   3.310  17.173 -0.3551 -0.0881  1.1606
  489TMC3     O 7274   3.944   3.196  17.220  0.1784 -0.2718  0.0488
  489TMC3     H 7275   3.800   3.541  17.106  0.6440 -1.0229 -0.2450
  489TMC3    H1 7276   3.943   3.288  17.429  1.1091  0.2362 -0.7119
  489TMC3    H2 7277   3.828   3.675  17.512 -1.1106 -1.5693  0.7319
  489TMC3    C7 7278   3.900   3.476  17.618  0.3635 -0.2819  0.3373
  489TMC3    C8 7279   3.867   3.750  17.241  0.0786 -0.4880  0.0817
  489TMC3    O1 7280   3.838   3.547   0.002 -0.1015 -0.3794  0.6212
  489TMC3    O2 7281   3.877   3.745  17.119  0.3759  0.2249  0.0982
  490MPD2     C 7282   3.983   1.908   0.975  0.0603 -0.1424  0.1981
  490MPD2    C1 7283   4.029   1.906   0.851  0.5652  0.1954  0.6812
  490MPD2    C2 7284   4.144   1.973   0.822 -0.0891 -0.8019  0.5907
  490MPD2    C3 7285   4.191   2.063   0.916 -0.9633  0.5372 -0.7143
  490MPD2    C4 7286   4.139   2.069   1.041 -0.5231 -0.0384  0.6386
  490MPD2    C5 7287   4.039   1.983   1.077  0.2177 -0.5636  0.7523
  490MPD2     H 7288   4.184   1.970   0.721 -0.8696 -1.0570  0.2936
  490MPD2    H1 7289   4.185   2.128   1.119 -0.5317  0.3346  0.3655
  490MPD2    H2 7290   3.887   1.866   1.001 -0.9875 -0.3460 -4.0532
  490MPD2    H3 7291   3.996   1.976   1.176 -1.5529  1.1791  0.1033
  490MPD2     N 7292   4.299   2.154   0.898 -0.0051 -0.2616  0.3979
  490MPD2    H5 7293   4.320   2.234   0.958 -1.5850  1.3771 -1.2705
  490MPD2    N1 7294   3.982   1.810   0.762 -0.3820 -0.2313 -0.6467
  490MPD2    H7 7295   3.913   1.750   0.805 -0.1086  0.3233  0.5564
  491TMC3    C1 7296   3.988   1.659   0.584  0.8239 -0.3857  0.0928
  491TMC3    C2 7297   3.887   1.580   0.629 -0.9216 -0.5684 -0.2788
  491TMC3    C3 7298   3.843   1.469   0.555  0.4659  0.4117  0.3895
  491TMC3    C4 7299   4.054   1.631   0.467 -0.0028 -0.4774 -0.0782
  491TMC3    C5 7300   4.004   1.521   0.399 -0.3521  0.5381 -0.7468
  491TMC3    C6 7301   3.900   1.440   0.436 -0.7347 -0.1349 -0.2657
  491TMC3     C 7302   4.008   1.794   0.628 -0.0008 -0.0645  0.1362
  491TMC3     O 7303   4.061   1.879   0.552 -0.6122  0.1229  0.0723
  491TMC3     H 7304   3.828   1.609   0.715  1.6487  1.3201  0.8211
  491TMC3    H1 7305   4.149   1.679   0.447  0.4200 -2.3854 -2.6514
  491TMC3    H2 7306   3.870   1.357   0.374  2.5308 -1.1957 -0.4400
  491TMC3    C7 7307   4.041   1.502   0.259  0.2337 -0.3363 -0.0219
  491TMC3    C8 7308   3.730   1.398   0.608  0.1071  0.2798 -0.0445
  491TMC3    O1 7309   4.003   1.403   0.193 -0.1967  0.9636  0.3549
  491TMC3    O2 7310   3.742   1.383   0.726  0.0593  0.2306 -0.7185
  492MPD2     C 7311   0.535   2.695  11.277  0.2782  0.2920  0.2536
  492MPD2    C1 7312   0.399   2.685  11.256  0.2722 -0.6370 -0.5669
  492MPD2    C2 7313   0.313   2.715  11.361 -0.5065  0.1461  0.1317
  492MPD2    C3 7314   0.361   2.750  11.482  0.8939  0.0113 -0.7318
  492MPD2    C4 7315   0.498   2.757  11.503 -0.5498 -0.7373  0.4671
  492MPD2    C5 7316   0.584   2.734  11.396  0.1549  0.5150  0.0044
  492MPD2     H 7317   0.206   2.713  11.347 -0.7174 -1.2457  1.8436
  492MPD2    H1 7318   0.541   2.776  11.601  2.7165 -2.3307 -0.6676
  492MPD2    H2 7319   0.606   2.676  11.198  1.6639 -0.8714  1.7733
  492MPD2    H3 7320   0.691   2.737  11.406  0.1650 -1.4995  0.6640
  492MPD2     N 7321   0.282   2.771  11.601  0.0492  0.3353 -0.3814
  492MPD2    H5 7322   0.329   2.779  11.690 -0.9885 -0.5605  0.2453
  492MPD2    N1 7323   0.355   2.654  11.125 -0.0188 -0.4424 -0.2154
  492MPD2    H7 7324   0.429   2.646  11.056  1.2400  2.3596  0.8198
  493TMC3    C1 7325   0.187   2.657  10.952 -0.0651  0.3387  0.1996
  493TMC3    C2 7326   0.258   2.751  10.882  0.3509  0.1359 -0.4753
  493TMC3    C3 7327   0.206   2.768  10.755 -0.0271 -0.2618 -0.3916
  493TMC3    C4 7328   0.065   2.600  10.915  0.1188  0.1879  0.3840
  493TMC3    C5 7329   0.026   2.622  10.782  0.0227 -0.1255 -0.1620
  493TMC3    C6 7330   0.101   2.704  10.704  0.4923  0.5645 -0.0340
  493TMC3     C 7331   0.221   2.644  11.091 -0.0567  0.3415  0.2274
  493TMC3     O 7332   0.126   2.619  11.165  0.0802 -0.2437 -0.4566
  493TMC3     H 7333   0.343   2.807  10.919  0.3056 -0.3567  0.3769
  493TMC3    H1 7334   0.021   2.524  10.979  0.3519  0.9993  1.5183
  493TMC3    H2 7335   0.059   2.720  10.606 -0.2147  0.5331  0.2568
  493TMC3    C7 7336   4.624   2.567  10.729  0.1119  0.2064  0.1687
  493TMC3    C8 7337   0.272   2.845  10.654 -0.1663  1.2065 -0.4048
  493TMC3    O1 7338   4.596   2.591  10.613 -0.0485 -0.0011  0.2573
  493TMC3    O2 7339   0.243   2.831  10.537  0.2749  0.0904 -0.1142
  494TMC3    C1 7340   0.894   4.468   0.672  0.0143  0.0109 -0.7491
  494TMC3    C2 7341   0.980   4.365   0.678  0.4641 -0.1280  0.2640
  494TMC3    C3 7342   1.045   4.324   0.564 -0.0398  0.3931 -0.6161
  494TMC3    C4 7343   0.880   4.547   0.559 -0.0919  0.2661 -0.6876
  494TMC3    C5 7344   0.943   4.506   0.444 -0.3485  0.4282  0.4691
  494TMC3    C6 7345   1.016   4.391   0.446 -0.4655  0.7196  0.0380
  494TMC3     C 7346   0.812   4.492   0.784 -0.0793  0.3677 -0.1010
  494TMC3     O 7347   0.849   4.442   0.890 -0.3851 -0.3528 -0.5134
  494TMC3     H 7348   0.999   4.316   0.773  0.8297  2.5128  1.5453
  494TMC3    H1 7349   0.820   4.637   0.559  0.5713  0.6941  1.3205
  494TMC3    H2 7350   1.091   4.386   0.368  1.1404 -0.7635  1.6682
  494TMC3    C7 7351   0.914   4.560   0.312 -0.9184 -0.0736  0.4723
  494TMC3    C8 7352   1.121   4.199   0.565 -1.0434 -0.3841  0.0246
  494TMC3    O1 7353   0.935   4.490   0.211  0.3062  0.1846 -0.3458
  494TMC3    O2 7354   1.151   4.146   0.674 -0.2038 -0.5774  0.0526
  495TMC3    C1 7355   4.534   2.031  14.780 -0.2963  0.1497 -0.1937
  495TMC3    C2 7356   4.464   2.091  14.685  0.2006 -0.0852 -0.7432
  495TMC3    C3 7357   4.329   2.107  14.704 -0.0746 -0.3450 -0.1360
  495TMC3    C4 7358   4.477   1.998  14.896  0.2110  0.2686  0.1272
  495TMC3    C5 7359   4.347   2.014  14.915 -0.5519  0.1688 -0.0115
  495TMC3    C6 7360   4.270   2.057  14.813  1.2157 -0.3516  0.3736
  495TMC3     C 7361   4.615   1.940  14.712 -0.5648 -0.0963  0.7336
  495TMC3     O 7362   4.714   1.992  14.675  0.2444  0.5967  0.7054
  495TMC3     H 7363   4.509   2.111  14.589  1.6827  1.5844  0.3103
  495TMC3    H1 7364   4.539   1.962  14.976 -1.9669 -0.0443  1.6853
  495TMC3    H2 7365   4.167   2.087  14.826  1.4961  1.1524 -0.7467
  495TMC3    C7 7366   4.289   1.972  15.042 -0.0586  0.1615 -0.1540
  495TMC3    C8 7367   4.244   2.095  14.582  0.2320  0.1639  0.2888
  495TMC3    O1 7368   4.188   1.909  15.032  0.6507  0.1355 -0.1498
  495TMC3    O2 7369   4.127   2.104  14.601  0.1164 -0.0873 -0.3100
  496MPD2     C 7370   0.981   1.422  15.105  0.1681  0.2311 -0.1173
  496MPD2    C1 7371   1.016   1.435  15.238 -0.2688 -0.1767  0.4961
  496MPD2    C2 7372   0.916   1.428  15.333 -0.5397 -0.1115  0.5949
  496MPD2    C3 7373   0.788   1.386  15.293 -0.2869  0.0990  0.9757
  496MPD2    C4 7374   0.755   1.377  15.161 -0.7894 -0.4910  0.4001
  496MPD2    C5 7375   0.852   1.396  15.072 -0.5007 -0.2702 -0.4487
  496MPD2     H 7376   0.928   1.448  15.439  0.3173  0.5170  0.3848
  496MPD2    H1 7377   0.661   1.343  15.120  0.0135 -2.1447 -0.0568
  496MPD2    H2 7378   1.051   1.431  15.023 -1.5434  0.4056 -1.5391
  496MPD2    H3 7379   0.823   1.396  14.967  1.1191 -2.9738 -0.8808
  496MPD2     N 7380   0.683   1.365  15.381 -0.5141  0.1937  0.0721
  496MPD2    H5 7381   0.591   1.354  15.339 -1.1118  0.8622  1.1980
  496MPD2    N1 7382   1.152   1.459  15.270  0.6284  0.0286 -0.4058
  496MPD2    H7 7383   1.218   1.469  15.194  0.3560  0.7986 -0.5444
  497TMC3    C1 7384   0.809   1.304  15.582  0.1882  0.7377  0.0691
  497TMC3    C2 7385   0.873   1.203  15.521  0.2600 -0.1561 -0.2627
  497TMC3    C3 7386   0.990   1.155  15.574  0.1596  0.1243  0.2671
  497TMC3    C4 7387   0.852   1.359  15.699 -0.0867  0.2106 -0.2726
  497TMC3    C5 7388   0.968   1.307  15.751  0.1163 -0.1646  0.2606
  497TMC3    C6 7389   1.042   1.210  15.691  0.4814 -0.1981  0.1441
  497TMC3     C 7390   0.692   1.362  15.524 -0.6342 -0.0576  0.0393
  497TMC3     O 7391   0.597   1.373  15.600  0.1757  0.0919 -0.0346
  497TMC3     H 7392   0.837   1.151  15.433 -0.9063 -1.1942  0.8292
  497TMC3    H1 7393   0.799   1.435  15.755 -0.7494  0.9141 -1.8478
  497TMC3    H2 7394   1.124   1.164  15.745  0.2707  0.4212  0.9866
  497TMC3    C7 7395   1.004   1.351  15.884 -0.4199 -0.3244  0.4552
  497TMC3    C8 7396   1.082   1.075  15.494 -0.3132  0.0786 -0.0946
  497TMC3    O1 7397   0.907   1.367  15.958 -0.1175  0.1994 -0.4063
  497TMC3    O2 7398   1.185   1.033  15.544 -0.2880 -0.1127  0.6658
  498MPD2     C 7399   1.658   2.658   9.534 -0.4476  0.2876 -0.8982
  498MPD2    C1 7400   1.712   2.702   9.651 -0.1116 -0.1128 -0.3730
  498MPD2    C2 7401   1.695   2.618   9.755 -0.6769 -0.1381 -0.5160
  498MPD2    C3 7402   1.613   2.504   9.750  0.0888  0.0079 -0.5341
  498MPD2    C4 7403   1.563   2.464   9.629  0.3460  0.5073 -0.6981
  498MPD2    C5 7404   1.589   2.542   9.521 -0.4852  0.4603  0.2554
  498MPD2     H 7405   1.735   2.646   9.851  1.4594  0.3255 -1.5639
  498MPD2    H1 7406   1.486   2.388   9.621  1.2991 -0.6297  1.0468
  498MPD2    H2 7407   1.672   2.716   9.443  1.9327  2.3678  0.7805
  498MPD2    H3 7408   1.545   2.519   9.425  1.1423 -0.1062 -0.3423
  498MPD2     N 7409   1.580   2.448   9.875 -0.7157 -0.0838 -0.3751
  498MPD2    H5 7410   1.640   2.483   9.950 -1.5737 -2.1332  1.2809
  498MPD2    N1 7411   1.792   2.813   9.666 -0.0879  0.4702  0.9315
  498MPD2    H7 7412   1.812   2.836   9.762 -1.5743  0.0057  1.3582
  499TMC3    C1 7413   1.922   2.993   9.616 -0.2426 -0.1453  0.1027
  499TMC3    C2 7414   1.849   3.073   9.698  0.6388  0.1374  0.4299
  499TMC3    C3 7415   1.910   3.179   9.745  0.3117  0.4521 -0.0113
  499TMC3    C4 7416   2.044   3.016   9.581 -0.2986  0.4380 -0.2941
  499TMC3    C5 7417   2.105   3.123   9.629 -1.1554  1.0445  0.4926
  499TMC3    C6 7418   2.033   3.212   9.704 -0.4561 -0.3072 -0.4027
  499TMC3     C 7419   1.849   2.886   9.560 -1.5299 -0.4152  0.1328
  499TMC3     O 7420   1.840   2.873   9.438  0.4578 -0.7302  0.0650
  499TMC3     H 7421   1.745   3.050   9.716  0.6868 -1.6218 -1.6276
  499TMC3    H1 7422   2.088   2.945   9.512  3.1043  1.5126  0.7482
  499TMC3    H2 7423   2.086   3.288   9.760 -0.4009  0.1427 -1.0584
  499TMC3    C7 7424   2.247   3.143   9.612  0.0393 -0.7901 -0.3860
  499TMC3    C8 7425   1.831   3.276   9.830  0.2933 -0.2326 -0.0375
  499TMC3    O1 7426   2.306   3.038   9.632  0.1081 -0.3039 -0.2283
  499TMC3    O2 7427   1.752   3.239   9.915  0.4681 -0.4136  0.3970
  500MPD2     C 7428   4.394   4.149   9.678  0.5925 -0.5360  0.2008
  500MPD2    C1 7429   4.395   4.106   9.808  0.6191 -0.7656 -0.5438
  500MPD2    C2 7430   4.322   4.001   9.848 -1.2138  1.0169 -0.2967
  500MPD2    C3 7431   4.244   3.925   9.760 -0.2401  0.1700 -0.4550
  500MPD2    C4 7432   4.238   3.966   9.629  0.0117  0.0164  0.0559
  500MPD2    C5 7433   4.303   4.081   9.601  0.3679  0.0291  0.0986
  500MPD2     H 7434   4.332   3.976   9.953  0.8424  0.6943 -0.5586
  500MPD2    H1 7435   4.178   3.908   9.559  0.8583 -1.0132  0.1838
  500MPD2    H2 7436   4.452   4.236   9.649  0.9716 -1.1321 -0.8424
  500MPD2    H3 7437   4.298   4.114   9.498  1.5704  1.4580  0.5093
  500MPD2     N 7438   4.163   3.815   9.807 -0.8300  0.2340 -0.3633
  500MPD2    H5 7439   4.108   3.773   9.733 -2.6692 -0.1613  1.2274
  500MPD2    N1 7440   4.470   4.167   9.911 -0.3932  0.2268  0.1674
  500MPD2    H7 7441   4.470   4.119  10.000 -1.5394  1.5291  0.8517
  501TMC3    C1 7442   4.623   4.304  10.019  0.3942  0.0469  0.0716
  501TMC3    C2 7443   4.628   4.438  10.038 -0.1320 -0.0029 -0.1518
  501TMC3    C3 7444   4.610   4.479  10.169 -0.6149  0.8440  0.3832
  501TMC3    C4 7445   4.630   4.202  10.118 -0.8621 -0.0076 -0.3016
  501TMC3    C5 7446   4.635   4.250  10.243  0.8151  0.5544 -0.0159
  501TMC3    C6 7447   4.606   4.381  10.271  0.0792 -0.2782 -0.3266
  501TMC3     C 7448   4.574   4.260   9.895 -0.2307  0.0116 -0.2195
  501TMC3     O 7449   4.611   4.328   9.797 -0.5648  0.3674 -0.3089
  501TMC3     H 7450   4.615   4.512   9.959 -0.3675  0.9883  0.8158
  501TMC3    H1 7451   4.642   4.094  10.110  2.7203  0.3304  0.6816
  501TMC3    H2 7452   4.594   4.420  10.371 -0.4534 -1.2897  0.0005
  501TMC3    C7 7453   0.013   4.185  10.321  0.1866  0.4061 -0.4650
  501TMC3    C8 7454   4.687   4.590  10.205 -0.0337  0.6473 -0.7438
  501TMC3    O1 7455   0.022   4.066  10.312 -0.0223 -0.2986  0.2733
  501TMC3    O2 7456   0.026   4.572  10.310 -0.3730  0.2065 -0.3563
  502TMC3    C1 7457   3.824   2.437  15.490 -0.4459  0.4851  0.3269
  502TMC3    C2 7458   3.853   2.510  15.371  0.3323 -0.2936  0.3145
  502TMC3    C3 7459   3.766   2.499  15.264  0.0862  0.4932  0.1595
  502TMC3    C4 7460   3.702   2.377  15.512 -0.3883  0.2670 -0.5879
  502TMC3    C5 7461   3.614   2.387  15.407  0.2969  0.1536 -0.1272
  502TMC3    C6 7462   3.635   2.441  15.283  0.2799 -0.5449  0.1445
  502TMC3     C 7463   3.930   2.440  15.591 -0.2959 -0.5699 -0.0228
  502TMC3     O 7464   4.033   2.502  15.587 -0.4748 -0.0844 -0.0490
  502TMC3     H 7465   3.946   2.565  15.360  0.1170  0.3881  1.8767
  502TMC3    H1 7466   3.670   2.340  15.609  0.0341  2.6213  0.4489
  502TMC3    H2 7467   3.560   2.450  15.205 -0.5620 -2.2008  0.7736
  502TMC3    C7 7468   3.484   2.339  15.450  0.1772  0.5884 -0.4110
  502TMC3    C8 7469   3.785   2.598  15.158  0.0986 -0.4675 -0.3711
  502TMC3    O1 7470   3.481   2.253  15.539  0.6367  1.1397  0.0900
  502TMC3    O2 7471   3.861   2.692  15.174  0.0755 -0.3916  0.0973
  503MPD2     C 7472   0.954   3.162  16.797  0.4600  0.1999 -0.5649
  503MPD2    C1 7473   1.028   3.243  16.880  0.0909  0.7941  0.0162
  503MPD2    C2 7474   1.099   3.186  16.980 -0.2290  0.5253 -0.3784
  503MPD2    C3 7475   1.104   3.046  16.996 -0.5218  0.4133 -0.1578
  503MPD2    C4 7476   1.019   2.973  16.912 -0.0097 -0.5007 -0.0133
  503MPD2    C5 7477   0.942   3.030  16.817 -0.7671  0.0735  0.8275
  503MPD2     H 7478   1.152   3.248  17.051  1.6549  0.8470 -2.0721
  503MPD2    H1 7479   1.020   2.865  16.923  0.0088 -0.3644  1.3059
  503MPD2    H2 7480   0.891   3.211  16.724  2.4509  1.0937 -1.6983
  503MPD2    H3 7481   0.870   2.976  16.756 -0.7199 -0.7120  1.4629
  503MPD2     N 7482   1.196   2.990  17.089  0.0108 -0.3693 -0.0564
  503MPD2    H5 7483   1.223   3.063  17.155 -0.7855  1.1181 -1.3678
  503MPD2    N1 7484   1.029   3.387  16.885  0.6539 -0.0280  0.1728
  503MPD2    H7 7485   1.080   3.438  16.958 -0.0771  1.8257 -0.6101
  504TMC3    C1 7486   1.289   2.819  17.218  0.2177  0.9002 -0.0229
  504TMC3    C2 7487   1.282   2.885  17.341  0.2482  0.3083  0.1285
  504TMC3    C3 7488   1.345   2.832  17.454  0.4222  0.0883 -0.1030
  504TMC3    C4 7489   1.357   2.699  17.218  0.6187  0.1041  0.7321
  504TMC3    C5 7490   1.415   2.647  17.329 -0.4796  0.0771 -0.0541
  504TMC3    C6 7491   1.410   2.706  17.449 -0.3919 -0.3418 -0.5750
  504TMC3     C 7492   1.217   2.855  17.102 -0.2057 -0.4205 -0.5383
  504TMC3     O 7493   1.192   2.765  17.024 -0.1094  0.2996 -0.2698
  504TMC3     H 7494   1.224   2.977  17.343  0.0479  0.2367 -2.3314
  504TMC3    H1 7495   1.343   2.629  17.137 -0.7783  0.6869  0.4617
  504TMC3    H2 7496   1.435   2.655  17.541  1.8031 -0.9822 -1.5173
  504TMC3    C7 7497   1.523   2.559  17.293 -0.6622 -0.0286 -0.1838
  504TMC3    C8 7498   1.338   2.911  17.577  0.3164 -0.0099 -0.9522
  504TMC3    O1 7499   1.551   2.553  17.176 -0.3616  0.4583 -0.1112
  504TMC3    O2 7500   1.259   3.004  17.581  0.4771 -0.2764 -0.1095
  505MPD2     C 7501   1.397   1.669  11.237 -0.5915 -0.0511 -0.5115
  505MPD2    C1 7502   1.530   1.699  11.234 -0.5123  1.2107  0.4052
  505MPD2    C2 7503   1.576   1.815  11.293 -0.2368 -0.2974  0.0213
  505MPD2    C3 7504   1.481   1.913  11.322 -0.3175 -0.6939 -0.3400
  505MPD2    C4 7505   1.346   1.880  11.328  0.7488  0.0844 -0.1217
  505MPD2    C5 7506   1.304   1.758  11.289  0.7136  0.1408 -0.5075
  505MPD2     H 7507   1.681   1.843  11.284  0.1190 -1.8184 -0.5132
  505MPD2    H1 7508   1.275   1.949  11.373  2.9517  2.8899 -0.9243
  505MPD2    H2 7509   1.352   1.576  11.203  0.5572 -1.3499  1.4689
  505MPD2    H3 7510   1.200   1.727  11.292  0.7785  0.0762  1.4147
  505MPD2     N 7511   1.536   2.038  11.354 -0.2903 -0.0897 -0.7236
  505MPD2    H5 7512   1.636   2.047  11.341 -0.4908  0.4317 -1.8852
  505MPD2    N1 7513   1.611   1.615  11.158 -0.1362 -0.3878  0.4297
  505MPD2    H7 7514   1.570   1.542  11.100  0.4464 -0.9322  0.7179
  506TMC3    C1 7515   1.789   1.540  11.010  0.4506  0.2141  1.1529
  506TMC3    C2 7516   1.696   1.518  10.910 -0.2412  1.0582 -0.2247
  506TMC3    C3 7517   1.721   1.552  10.781 -0.6133  0.8688  0.5699
  506TMC3    C4 7518   1.912   1.584  10.975  0.4475  0.2587  0.0724
  506TMC3    C5 7519   1.926   1.624  10.847  0.0353 -0.8653  0.3112
  506TMC3    C6 7520   1.828   1.630  10.752  0.5347  0.1482 -0.1162
  506TMC3     C 7521   1.743   1.633  11.119  1.1819 -0.9770  0.3841
  506TMC3     O 7522   1.829   1.710  11.166 -0.2843 -0.1157  0.0040
  506TMC3     H 7523   1.590   1.502  10.924 -0.1234 -0.0090 -0.5517
  506TMC3    H1 7524   1.997   1.565  11.040  0.0086 -0.1496  0.5258
  506TMC3    H2 7525   1.845   1.654  10.648 -0.8945 -0.9986 -0.6023
  506TMC3    C7 7526   2.019   1.724  10.829 -1.2610 -0.0205 -0.1910
  506TMC3    C8 7527   1.611   1.544  10.693 -0.1760  0.6555  0.0324
  506TMC3    O1 7528   2.078   1.740  10.726  0.1970 -0.0745  0.2387
  506TMC3    O2 7529   1.543   1.442  10.697 -0.0502 -0.6574  0.0053
  507TMC3    C1 7530   2.064   2.719  14.783 -0.1115  1.5413  0.5502
  507TMC3    C2 7531   2.038   2.630  14.685 -0.2733  0.4010  0.3903
  507TMC3    C3 7532   2.127   2.625  14.580  0.4072 -0.3981 -0.1125
  507TMC3    C4 7533   2.176   2.801  14.779 -0.1491  0.4353  0.1863
  507TMC3    C5 7534   2.260   2.801  14.672  0.3339  0.1866 -1.0926
  507TMC3    C6 7535   2.246   2.705  14.580  0.1294  0.5307 -0.6548
  507TMC3     C 7536   1.976   2.732  14.903 -0.1414 -0.3086  0.5724
  507TMC3     O 7537   1.981   2.825  14.982 -0.3082 -0.2823 -0.6644
  507TMC3     H 7538   1.950   2.567  14.686 -0.8738  1.2499  0.9957
  507TMC3    H1 7539   2.177   2.883  14.850 -0.0299 -1.7459  2.7250
  507TMC3    H2 7540   2.320   2.705  14.501  0.3303 -0.8249 -0.4685
  507TMC3    C7 7541   2.304   2.932  14.637 -0.5373 -0.1687  0.5546
  507TMC3    C8 7542   2.067   2.647  14.453  0.4834 -0.5963  0.2094
  507TMC3    O1 7543   2.344   3.009  14.723 -0.5719  0.1653 -0.3740
  507TMC3    O2 7544   2.129   2.728  14.384 -0.2362  0.2723  0.1223
  508MPD2     C 7545   2.500   0.495  16.163 -0.1868 -0.2632 -0.1916
  508MPD2    C1 7546   2.635   0.485  16.128  0.0409  0.7134  0.3235
  508MPD2    C2 7547   2.676   0.502  15.997  0.6360 -0.0026 -0.4115
  508MPD2    C3 7548   2.586   0.545  15.906  0.5822 -0.0417 -0.1572
  508MPD2    C4 7549   2.454   0.569  15.948  0.1197 -0.2648 -0.3155
  508MPD2    C5 7550   2.409   0.530  16.072  0.2772  0.7012  0.0795
  508MPD2     H 7551   2.780   0.502  15.967  0.7640  0.7800  0.0481
  508MPD2    H1 7552   2.384   0.595  15.870  0.1675 -1.1952 -0.6693
  508MPD2    H2 7553   2.462   0.475  16.263  0.7126 -0.2200  0.1602
  508MPD2    H3 7554   2.305   0.545  16.101 -0.1178  0.0636 -1.0208
  508MPD2     N 7555   2.635   0.573  15.774  0.3090 -0.1214  0.0723
  508MPD2    H5 7556   2.736   0.578  15.762  0.4726 -0.1694  1.5167
  508MPD2    N1 7557   2.722   0.460  16.235 -0.6563  0.6951 -0.0616
  508MPD2    H7 7558   2.684   0.455  16.329 -1.1530 -1.6570 -0.4127
  509TMC3    C1 7559   2.659   0.885  15.415 -0.0279 -0.1006  0.4215
  509TMC3    C2 7560   2.774   0.936  15.461  0.0388 -0.0210 -0.0598
  509TMC3    C3 7561   2.829   0.864  15.567  0.1602  0.3771  0.2958
  509TMC3    C4 7562   2.597   0.776  15.462  0.1151 -0.0435  0.1290
  509TMC3    C5 7563   2.651   0.715  15.571  0.3135 -0.0768 -0.4158
  509TMC3    C6 7564   2.763   0.757  15.625 -0.1285  0.5593  0.3974
  509TMC3     C 7565   2.600   0.946  15.293 -0.6861 -0.5852 -0.7570
  509TMC3     O 7566   2.510   0.880  15.233  0.0677 -0.4157 -0.0607
  509TMC3     H 7567   2.843   0.998  15.405  0.3379  0.2358  0.5956
  509TMC3    H1 7568   2.501   0.746  15.420  1.4066 -2.2950 -1.2016
  509TMC3    H2 7569   2.822   0.691  15.688 -0.1020  2.4056  2.3286
  509TMC3    C7 7570   2.570   0.632  15.665  0.0827 -0.7823  0.3206
  509TMC3    C8 7571   2.955   0.911  15.629 -0.2738 -0.9479 -0.2167
  509TMC3    O1 7572   2.453   0.624  15.633  0.0184 -0.4256 -0.5891
  509TMC3    O2 7573   3.001   0.838  15.716  0.8569 -0.1561 -0.2561
  510MPD2     C 7574   0.999   2.206  14.593  0.2496  0.3343  0.1719
  510MPD2    C1 7575   1.006   2.080  14.652 -0.0468  0.1232  0.5045
  510MPD2    C2 7576   1.119   2.004  14.630 -0.6423  0.2171  0.1737
  510MPD2    C3 7577   1.219   2.042  14.541 -0.1194  0.8975 -0.3098
  510MPD2    C4 7578   1.209   2.163  14.489 -0.2971  0.1268 -0.4203
  510MPD2    C5 7579   1.100   2.245  14.513 -0.0011 -0.2569  0.1232
  510MPD2     H 7580   1.127   1.906  14.674  0.4941  0.3118  0.1744
  510MPD2    H1 7581   1.293   2.208  14.437  1.6028 -2.7061  0.2206
  510MPD2    H2 7582   0.909   2.266  14.599 -1.8188 -2.7155  0.0141
  510MPD2    H3 7583   1.105   2.337  14.455  1.1003 -0.7437 -0.5557
  510MPD2     N 7584   1.327   1.953  14.516 -0.3063  0.4132  0.0175
  510MPD2    H5 7585   1.321   1.872  14.578 -3.9097 -0.0556 -0.9785
  510MPD2    N1 7586   0.901   2.039  14.738  0.1251  0.6207  0.2023
  510MPD2    H7 7587   0.816   2.094  14.736  0.6002  1.3120 -1.0177
  511TMC3    C1 7588   0.757   1.880  14.853 -0.1544 -0.1948 -0.6126
  511TMC3    C2 7589   0.669   1.964  14.918  0.0561 -0.0272  0.1402
  511TMC3    C3 7590   0.550   1.906  14.960 -0.0574 -0.5634 -0.0184
  511TMC3    C4 7591   0.735   1.750  14.837  0.6430 -0.0759 -0.2622
  511TMC3    C5 7592   0.616   1.694  14.883 -0.0823  0.0540 -0.6714
  511TMC3    C6 7593   0.521   1.770  14.942  0.4896 -0.8902  0.0468
  511TMC3     C 7594   0.893   1.916  14.802  0.0225  0.3236  0.6922
  511TMC3     O 7595   0.975   1.824  14.808 -0.0928  0.8109  0.2067
  511TMC3     H 7596   0.685   2.071  14.925 -1.4235  0.2836 -1.3519
  511TMC3    H1 7597   0.800   1.685  14.779  1.7838  0.1275  0.7694
  511TMC3    H2 7598   0.421   1.732  14.957  0.1119  0.4879  1.0157
  511TMC3    C7 7599   0.569   1.574  14.811 -0.7252 -0.0992 -0.9024
  511TMC3    C8 7600   0.474   1.975  15.065  0.2080  0.4384 -0.3409
  511TMC3    O1 7601   0.599   1.571  14.690 -0.3178  0.2043  0.7458
  511TMC3    O2 7602   0.483   2.094  15.078  0.3351 -0.3478 -0.0083
  512TMC3    C1 7603   4.234   1.442  13.134 -0.3494 -0.5066 -0.2858
  512TMC3    C2 7604   4.238   1.404  13.267  0.0179  0.8222 -0.4404
  512TMC3    C3 7605   4.256   1.269  13.287  0.2435  0.7165  0.4502
  512TMC3    C4 7606   4.256   1.360  13.026  0.4961 -0.2380  0.1396
  512TMC3    C5 7607   4.299   1.238  13.051 -0.9724 -1.1315  0.4841
  512TMC3    C6 7608   4.292   1.190  13.179 -0.2275 -0.3012  0.1616
  512TMC3     C 7609   4.234   1.584  13.113  0.1673  0.3376  0.7626
  512TMC3     O 7610   4.262   1.646  13.212  0.2719 -0.7002  0.0633
  512TMC3     H 7611   4.214   1.460  13.357 -1.6457 -1.3855  0.5139
  512TMC3    H1 7612   4.251   1.402  12.926 -1.8004 -0.4622  0.1433
  512TMC3    H2 7613   4.319   1.090  13.210 -0.3659 -0.0409  1.1135
  512TMC3    C7 7614   4.320   1.149  12.943  0.3323 -0.4230 -0.7693
  512TMC3    C8 7615   4.342   1.245  13.398  0.6497  0.0034  0.8909
  512TMC3    O1 7616   4.326   1.187  12.823 -0.5065  0.4470 -0.7610
  512TMC3    O2 7617   4.334   1.135  13.453  0.2758  0.8466 -0.0559
  513MPD2     C 7618   1.767   0.955  13.778 -0.1621 -0.4323  0.0881
  513MPD2    C1 7619   1.770   1.045  13.671  0.1730  0.6885 -0.1537
  513MPD2    C2 7620   1.860   1.147  13.673  0.1730 -0.1045  0.1754
  513MPD2    C3 7621   1.952   1.164  13.774  0.7026 -0.1481  0.3995
  513MPD2    C4 7622   1.937   1.085  13.889 -0.0579  0.1587  0.1909
  513MPD2    C5 7623   1.848   0.981  13.889  0.3716  0.2349  0.3964
  513MPD2     H 7624   1.871   1.196  13.578 -1.6337  1.5050  0.8006
  513MPD2    H1 7625   2.011   1.096  13.967 -1.2156  2.2508  0.9786
  513MPD2    H2 7626   1.714   0.861  13.785  0.7304 -0.8662  0.9528
  513MPD2    H3 7627   1.844   0.904  13.965 -0.5582 -2.2709 -2.1611
  513MPD2     N 7628   2.074   1.236  13.748  0.0555 -0.3167  0.4491
  513MPD2    H5 7629   2.148   1.201  13.808 -0.8709 -0.9385  1.2353
  513MPD2    N1 7630   1.707   1.021  13.551  0.1138 -0.2680 -0.5822
  513MPD2    H7 7631   1.731   1.081  13.473 -1.6919  0.1314 -0.8328
  514TMC3    C1 7632   1.630   0.892  13.378  0.3448 -0.4331 -0.6933
  514TMC3    C2 7633   1.687   0.996  13.304 -0.0411 -0.4094 -0.3424
  514TMC3    C3 7634   1.751   0.965  13.190  0.6129  0.4566  0.5439
  514TMC3    C4 7635   1.650   0.767  13.331 -0.1996 -1.1531  0.6392
  514TMC3    C5 7636   1.718   0.739  13.224 -0.0285  0.5265  0.5329
  514TMC3    C6 7637   1.767   0.839  13.140 -0.1526  0.3595 -0.3379
  514TMC3     C 7638   1.649   0.902  13.519  0.8612  0.1784  0.5447
  514TMC3     O 7639   1.623   0.804  13.588 -0.1482 -0.4946 -0.1044
  514TMC3     H 7640   1.676   1.100  13.329  1.5557 -0.6646  1.4082
  514TMC3    H1 7641   1.612   0.683  13.389 -1.6718  0.1359  1.5470
  514TMC3    H2 7642   1.811   0.815  13.044  2.8084 -0.2599  1.1619
  514TMC3    C7 7643   1.725   0.598  13.181 -0.1545 -0.7313 -0.3443
  514TMC3    C8 7644   1.831   1.071  13.128  0.0915  0.7360  0.2181
  514TMC3    O1 7645   1.625   0.530  13.198 -0.5258  0.2914  0.4446
  514TMC3    O2 7646   1.860   1.167  13.192  0.2919  0.3218  0.2180
  515MPD2     C 7647   4.299   3.750  15.003  0.2137 -0.0765  0.1904
  515MPD2    C1 7648   4.349   3.633  14.944  0.6710  0.0994  0.2096
  515MPD2    C2 7649   4.468   3.582  14.991  0.9804 -0.0690 -0.0616
  515MPD2    C3 7650   4.534   3.639  15.095 -0.1553 -0.5757 -1.0865
  515MPD2    C4 7651   4.482   3.753  15.159  0.1871 -0.1394  0.6490
  515MPD2    C5 7652   4.365   3.806  15.112  0.0638  0.1722 -0.2480
  515MPD2     H 7653   4.511   3.496  14.940  0.0834  0.3914 -1.5973
  515MPD2    H1 7654   4.535   3.798  15.242 -1.8795 -1.1713  2.5226
  515MPD2    H2 7655   4.200   3.789  14.982 -0.0169 -1.1453 -0.6856
  515MPD2    H3 7656   4.329   3.893  15.167 -0.2820  0.5418 -1.0510
  515MPD2     N 7657   4.666   3.607  15.139  0.4015 -0.5625 -0.5426
  515MPD2    H5 7658   4.718   3.671  15.199 -0.1592 -1.0410  0.4642
  515MPD2    N1 7659   4.274   3.567  14.846  0.7615  0.8093 -1.1073
  515MPD2    H7 7660   4.309   3.473  14.831  2.4445  1.1845  0.5015
  516TMC3    C1 7661   4.147   3.518  14.661  0.0939 -0.4398  0.5099
  516TMC3    C2 7662   4.099   3.556  14.540  0.2839 -0.0537 -0.3958
  516TMC3    C3 7663   4.019   3.480  14.466  0.5448  0.2515  0.1310
  516TMC3    C4 7664   4.132   3.389  14.702 -0.3873  0.3593  0.1577
  516TMC3    C5 7665   4.079   3.299  14.613 -0.5111  0.0339 -0.2707
  516TMC3    C6 7666   4.016   3.345  14.494  0.4432 -0.5988 -0.4675
  516TMC3     C 7667   4.176   3.615  14.767  0.6407 -0.2098  0.1518
  516TMC3     O 7668   4.138   3.731  14.749  0.1137  0.2200  0.2547
  516TMC3     H 7669   4.103   3.661  14.511 -2.1657  0.0351 -0.4045
  516TMC3    H1 7670   4.184   3.350  14.789 -1.4879  0.2286  0.7678
  516TMC3    H2 7671   3.968   3.273  14.429 -2.8647  2.8973 -1.9134
  516TMC3    C7 7672   4.077   3.155  14.643  0.1281 -0.9263  0.4720
  516TMC3    C8 7673   4.004   3.506  14.325 -0.1246  0.1647 -0.0872
  516TMC3    O1 7674   4.126   3.132  14.753  0.1951  0.5877 -0.1227
  516TMC3    O2 7675   3.924   3.442  14.264  0.0481  0.6844  0.2330
  517MPD2     C 7676   4.080   4.107   0.593 -0.2725 -0.2878  0.6594
  517MPD2    C1 7677   4.107   4.187   0.486  0.4027  0.2201 -0.2569
  517MPD2    C2 7678   4.066   4.320   0.489 -0.0012  0.5885 -0.1884
  517MPD2    C3 7679   3.990   4.368   0.596 -0.5021  0.1014  0.3738
  517MPD2    C4 7680   3.974   4.281   0.699  0.8821 -0.0108 -0.0196
  517MPD2    C5 7681   4.021   4.160   0.706  0.0048 -0.4508 -0.1759
  517MPD2     H 7682   4.081   4.362   0.390 -2.5248 -0.3457 -0.9726
  517MPD2    H1 7683   3.920   4.321   0.784 -1.6375 -1.0446 -1.1447
  517MPD2    H2 7684   4.109   4.003   0.601 -0.7280 -0.3870  0.9983
  517MPD2    H3 7685   4.013   4.104   0.798 -0.1675  0.4514  0.3597
  517MPD2     N 7686   3.936   4.494   0.593  0.8068 -0.4781 -0.0915
  517MPD2    H5 7687   3.873   4.531   0.664  1.0906 -1.0863  0.4768
  517MPD2    N1 7688   4.171   4.141   0.361 -0.2424 -0.0989 -0.4337
  517MPD2    H7 7689   4.224   4.205   0.303 -0.6127 -0.4993 -1.2019
  518TMC3    C1 7690   4.256   3.968   0.221  0.5395 -0.5284 -0.0094
  518TMC3    C2 7691   4.210   3.865   0.141 -0.1452  0.2740  0.4453
  518TMC3    C3 7692   4.298   3.830   0.035 -0.3761 -0.7224  0.8142
  518TMC3    C4 7693   4.361   4.051   0.179  0.5209  0.4275  0.0326
  518TMC3    C5 7694   4.429   4.026   0.072  0.0584 -0.1332  0.2689
  518TMC3    C6 7695   4.407   3.906   0.006  0.0554 -0.3313 -0.2301
  518TMC3     C 7696   4.164   4.010   0.325  0.4188  0.3326  0.1379
  518TMC3     O 7697   4.093   3.923   0.368 -0.2414  0.3751  0.2839
  518TMC3     H 7698   4.123   3.803   0.159 -0.4193  0.7043  0.5844
  518TMC3    H1 7699   4.389   4.130   0.248 -1.0218  1.7331 -0.8143
  518TMC3    H2 7700   4.473   3.866  17.622  2.9258 -0.1535  2.1699
  518TMC3    C7 7701   4.566   4.085   0.066 -0.6512 -0.2294  0.0307
  518TMC3    C8 7702   4.256   3.732  17.629  0.1078  0.3262  0.5973
  518TMC3    O1 7703   4.597   4.164   0.152 -0.0342  0.4929 -0.5626
  518TMC3    O2 7704   4.185   3.638  17.659 -0.4505 -1.2088  0.3387
  519MPD2     C 7705   1.274   2.807  14.405  0.4999 -0.4334  0.0698
  519MPD2    C1 7706   1.252   2.855  14.278  0.0615 -0.2214  0.3686
  519MPD2    C2 7707   1.269   2.767  14.176  0.3512 -0.2004 -0.2146
  519MPD2    C3 7708   1.311   2.637  14.196  0.0157 -0.0333 -0.6387
  519MPD2    C4 7709   1.338   2.596  14.328  0.0763  0.6475 -0.4156
  519MPD2    C5 7710   1.315   2.684  14.433  0.6965 -0.5673  0.4656
  519MPD2     H 7711   1.239   2.793  14.075 -2.3891  0.6948  0.8478
  519MPD2    H1 7712   1.372   2.496  14.352  1.3803  0.8846 -1.2604
  519MPD2    H2 7713   1.265   2.875  14.489  0.6663 -0.9206  0.4894
  519MPD2    H3 7714   1.341   2.662  14.536  0.8544  0.0165  0.5535
  519MPD2     N 7715   1.314   2.530  14.104 -0.2178  0.1334 -0.0946
  519MPD2    H5 7716   1.348   2.440  14.138  0.7472  1.2591  1.9423
  519MPD2    N1 7717   1.199   2.986  14.253  0.0082 -0.0131  0.1361
  519MPD2    H7 7718   1.185   3.042  14.336  0.2199 -0.3612  0.4037
  520TMC3    C1 7719   1.331   2.417  13.903  0.7297  0.2397 -0.1721
  520TMC3    C2 7720   1.277   2.405  13.782  0.6909 -0.0777 -0.4149
  520TMC3    C3 7721   1.353   2.379  13.672 -0.0229 -0.1568  0.3210
  520TMC3    C4 7722   1.461   2.388  13.924  0.2232  0.1761  0.6698
  520TMC3    C5 7723   1.532   2.362  13.817  0.3521 -0.0264  0.2253
  520TMC3    C6 7724   1.488   2.368  13.691 -0.2599 -0.5401  0.6269
  520TMC3     C 7725   1.282   2.541  13.965  0.5746  0.2944  0.0609
  520TMC3     O 7726   1.238   2.630  13.895  0.5603  0.2540 -0.0301
  520TMC3     H 7727   1.172   2.431  13.778  0.9205  0.6031 -2.0068
  520TMC3    H1 7728   1.512   2.407  14.018  1.4254 -1.4426  0.3274
  520TMC3    H2 7729   1.558   2.342  13.612 -2.2394  0.5980 -1.5312
  520TMC3    C7 7730   1.674   2.357  13.846 -0.3970 -0.2955 -0.3306
  520TMC3    C8 7731   1.302   2.390  13.540 -0.1691 -0.5430 -0.3221
  520TMC3    O1 7732   1.710   2.282  13.932  0.2960  0.5170  0.8267
  520TMC3    O2 7733   1.386   2.397  13.453  0.3239  0.4496 -0.9575
  521MPD2     C 7734   1.953   1.384  17.413  0.1909  0.3864  0.4398
  521MPD2    C1 7735   1.917   1.305  17.308  0.1529  0.6956 -0.3127
  521MPD2    C2 7736   2.004   1.294  17.201  0.7298 -0.0349  0.0830
  521MPD2    C3 7737   2.133   1.354  17.209 -0.5627  0.1920 -0.4349
  521MPD2    C4 7738   2.170   1.431  17.319 -0.3516 -0.3172 -0.0915
  521MPD2    C5 7739   2.076   1.436  17.422  0.6339  0.0916  0.5299
  521MPD2     H 7740   1.977   1.231  17.117  0.6651 -0.8946  0.7456
  521MPD2    H1 7741   2.267   1.477  17.336 -0.7846  0.0504  1.4110
  521MPD2    H2 7742   1.878   1.393  17.492 -0.8699  0.2332 -0.5514
  521MPD2    H3 7743   2.113   1.487  17.510 -0.9179  1.4376  0.3861
  521MPD2     N 7744   2.219   1.319  17.099 -0.3440  0.8988 -0.2969
  521MPD2    H5 7745   2.178   1.281  17.014  1.6966  0.1703 -0.9711
  521MPD2    N1 7746   1.786   1.250  17.320  0.5866 -0.0837 -0.3588
  521MPD2    H7 7747   1.729   1.265  17.403  0.6937  0.2687 -0.3504
  522TMC3    C1 7748   2.424   1.316  16.980  1.1538 -0.0310  0.2001
  522TMC3    C2 7749   2.559   1.328  16.975 -0.3753 -1.1745  0.5029
  522TMC3    C3 7750   2.620   1.292  16.859 -0.0416 -0.0458 -0.2101
  522TMC3    C4 7751   2.350   1.279  16.867 -0.0980 -0.0817 -0.1096
  522TMC3    C5 7752   2.422   1.247  16.755 -0.8019  0.2686 -0.0642
  522TMC3    C6 7753   2.555   1.248  16.752  0.1686 -0.1144  0.2416
  522TMC3     C 7754   2.357   1.348  17.101 -0.1925  0.1513 -0.2293
  522TMC3     O 7755   2.429   1.403  17.183  0.1468  0.4280 -0.1081
  522TMC3     H 7756   2.614   1.345  17.067 -0.8261 -1.5765  0.8446
  522TMC3    H1 7757   2.243   1.289  16.854 -0.1269 -0.0246  0.1735
  522TMC3    H2 7758   2.600   1.216  16.659  0.0756  0.6849 -0.0736
  522TMC3    C7 7759   2.359   1.219  16.624  0.1859 -0.8774  0.9279
  522TMC3    C8 7760   2.768   1.271  16.859  0.2473  0.5459 -0.7235
  522TMC3    O1 7761   2.418   1.140  16.551  0.6820  0.6088  0.5980
  522TMC3    O2 7762   2.838   1.338  16.932  0.4430  0.4793  0.0302
  523MPD2     C 7763   0.330   0.727  10.348  0.1275  0.5908 -0.2304
  523MPD2    C1 7764   0.334   0.666  10.226  0.1499 -0.5074  0.0597
  523MPD2    C2 7765   0.302   0.749  10.119 -0.0691 -0.2188 -1.4423
  523MPD2    C3 7766   0.258   0.882  10.143 -0.0152  0.1361 -0.3330
  523MPD2    C4 7767   0.255   0.940  10.271  0.1342  0.1121  0.0429
  523MPD2    C5 7768   0.297   0.861  10.370  0.3448  0.6867  0.6267
  523MPD2     H 7769   0.296   0.703  10.021  3.6332 -0.3427 -1.6021
  523MPD2    H1 7770   0.235   1.046  10.280  1.2766  0.3317 -0.0566
  523MPD2    H2 7771   0.365   0.674  10.436  2.0190  1.0381 -0.7217
  523MPD2    H3 7772   0.296   0.893  10.473 -2.1143 -0.8373  1.0504
  523MPD2     N 7773   0.214   0.962  10.037 -0.3389 -0.0027 -0.4437
  523MPD2    H5 7774   0.182   1.055  10.064 -1.0268  0.3691 -2.4919
  523MPD2    N1 7775   0.382   0.531  10.227 -0.2028 -0.0976  0.4817
  523MPD2    H7 7776   0.423   0.501  10.315 -0.8434  1.4256  1.2890
  524TMC3    C1 7777   0.197   1.056   9.819  0.1228  0.6598  0.0975
  524TMC3    C2 7778   0.142   1.036   9.694 -0.5818 -0.0390 -0.3216
  524TMC3    C3 7779   0.057   1.126   9.635  0.3993  0.8980 -0.0695
  524TMC3    C4 7780   0.161   1.176   9.887 -0.3627 -0.3612 -0.4347
  524TMC3    C5 7781   0.081   1.268   9.817 -0.9726 -0.6345  0.1107
  524TMC3    C6 7782   0.018   1.243   9.696 -0.1176 -0.6944 -0.5098
  524TMC3     C 7783   0.218   0.934   9.900  0.6663 -0.3493  0.4305
  524TMC3     O 7784   0.232   0.825   9.842  0.0261  0.0092  0.0905
  524TMC3     H 7785   0.161   0.943   9.642 -0.1626  1.5422 -2.9819
  524TMC3    H1 7786   0.203   1.202   9.984  3.1604  2.6078 -2.7544
  524TMC3    H2 7787   4.659   1.307   9.663  0.5106  0.1239 -0.4958
  524TMC3    C7 7788   0.061   1.396   9.886 -0.2731  0.0501 -0.2494
  524TMC3    C8 7789   4.722   1.080   9.512 -0.3118  0.2284  0.4731
  524TMC3    O1 7790   0.116   1.404   9.999  0.5463  0.6089  0.1934
  524TMC3    O2 7791   0.038   0.972   9.470  0.2440  0.2797  0.2965
  525MPD2     C 7792   2.509   2.759  14.337 -0.8135  0.0981  0.1392
  525MPD2    C1 7793   2.605   2.806  14.422 -0.6929 -0.2140 -0.6937
  525MPD2    C2 7794   2.633   2.942  14.416 -0.3722  0.5429  0.7556
  525MPD2    C3 7795   2.574   3.031  14.324  0.3516 -0.8393  0.2846
  525MPD2    C4 7796   2.479   2.982  14.234  0.5262 -0.2675 -0.2583
  525MPD2    C5 7797   2.449   2.846  14.247 -0.3816 -0.4810 -0.5644
  525MPD2     H 7798   2.708   2.974  14.488  1.1287 -1.2909  0.0295
  525MPD2    H1 7799   2.430   3.038  14.155 -0.1042  1.5622  1.4170
  525MPD2    H2 7800   2.473   2.657  14.343  1.1573 -0.5061  1.6520
  525MPD2    H3 7801   2.386   2.810  14.168 -2.0335 -1.4664  1.1988
  525MPD2     N 7802   2.624   3.157  14.302 -0.3281 -0.2041  0.4336
  525MPD2    H5 7803   2.557   3.218  14.258 -1.5733  0.2538  2.9885
  525MPD2    N1 7804   2.670   2.727  14.521 -0.6277 -0.0655 -0.0911
  525MPD2    H7 7805   2.757   2.761  14.563 -0.5881 -2.8437  2.0801
  526TMC3    C1 7806   2.725   2.558  14.664  0.0868  0.0029  0.0505
  526TMC3    C2 7807   2.677   2.450  14.737  0.0984 -0.1349  1.0236
  526TMC3    C3 7808   2.766   2.404  14.836 -0.2750 -0.2319  0.0816
  526TMC3    C4 7809   2.848   2.610  14.678 -0.4676  0.9162  0.4633
  526TMC3    C5 7810   2.927   2.557  14.775  0.2489  0.3866 -0.9766
  526TMC3    C6 7811   2.890   2.458  14.857  0.5054 -0.3970 -0.0896
  526TMC3     C 7812   2.628   2.608  14.570  0.1047 -0.4050 -0.2617
  526TMC3     O 7813   2.524   2.545  14.555 -0.0856 -0.6955  0.1031
  526TMC3     H 7814   2.578   2.406  14.727  0.5399 -1.1379  1.1191
  526TMC3    H1 7815   2.888   2.679  14.605 -4.4016 -0.0965 -2.6406
  526TMC3    H2 7816   2.970   2.428  14.923 -0.9163  2.1093  2.7754
  526TMC3    C7 7817   3.065   2.586  14.755  0.1143 -0.5183  0.3842
  526TMC3    C8 7818   2.721   2.343  14.958 -0.7342 -0.0656 -0.1186
  526TMC3    O1 7819   3.082   2.706  14.746  0.4943  0.0072 -0.1383
  526TMC3    O2 7820   2.791   2.353  15.058  0.0594 -0.4768 -0.1240
  527MPD2     C 7821   0.455   4.631   1.462  0.5388  1.0616  0.5848
  527MPD2    C1 7822   0.497   0.035   1.430 -0.5280  0.2503  0.0035
  527MPD2    C2 7823   0.608   0.040   1.356 -0.2642 -0.0971  0.0559
  527MPD2    C3 7824   0.690   4.655   1.319  0.7333 -0.3073  0.6691
  527MPD2    C4 7825   0.646   4.528   1.345 -0.2137 -0.5394 -0.4544
  527MPD2    C5 7826   0.530   4.523   1.430  0.3027  0.0202 -0.0669
  527MPD2     H 7827   0.638   0.140   1.328  2.5712 -0.2335  2.5669
  527MPD2    H1 7828   0.706   4.441   1.319  1.7634  0.4576  0.7180
  527MPD2    H2 7829   0.366   4.608   1.519  0.1944 -1.0113 -0.8092
  527MPD2    H3 7830   0.500   4.428   1.474  0.7031 -0.0014  0.1673
  527MPD2     N 7831   0.812   4.680   1.242 -0.3608 -0.0288 -0.1293
  527MPD2    H5 7832   0.841   0.051   1.216  0.3105  0.4433  2.2391
  527MPD2    N1 7833   0.422   0.158   1.465  0.4461  0.6235 -0.7415
  527MPD2    H7 7834   0.465   0.243   1.433  2.5099 -0.0684  0.2125
  528TMC3    C1 7835   0.230   0.281   1.485  1.1561 -0.3638 -0.0565
  528TMC3    C2 7836   0.284   0.382   1.561  0.0948 -0.2974  0.7818
  528TMC3    C3 7837   0.196   0.459   1.631 -0.0094  0.2992 -0.5811
  528TMC3    C4 7838   0.094   0.276   1.461  0.1623  0.6111  0.0203
  528TMC3    C5 7839   0.017   0.374   1.516  0.4726 -0.2455  0.9116
  528TMC3    C6 7840   0.061   0.460   1.605 -0.0014  0.3026  0.0075
  528TMC3     C 7841   0.292   0.151   1.504 -0.2025 -0.3870 -0.3270
  528TMC3     O 7842   0.212   0.054   1.526 -0.1042 -0.5780  0.2575
  528TMC3     H 7843   0.389   0.380   1.587  0.0931 -0.1107  0.8049
  528TMC3    H1 7844   0.059   0.196   1.397 -0.0466  0.7288 -0.0112
  528TMC3    H2 7845   4.718   0.533   1.652  0.8880  0.8452  0.3957
  528TMC3    C7 7846   4.590   0.371   1.504 -0.0985  0.4102  0.6359
  528TMC3    C8 7847   0.253   0.579   1.693 -0.4893 -0.3205  0.1760
  528TMC3    O1 7848   4.522   0.413   1.599  0.4263 -0.2272 -0.6709
  528TMC3    O2 7849   0.362   0.619   1.661 -0.0960  0.4127 -0.0534
  529MPD2     C 7850   2.730   3.252   0.009  0.4047 -0.3848  0.0714
  529MPD2    C1 7851   2.744   3.315   0.129  0.3002  0.3872  0.0092
  529MPD2    C2 7852   2.770   3.450   0.129  0.5564 -0.0777 -0.1322
  529MPD2    C3 7853   2.796   3.520   0.015  0.4537  0.3377  0.3130
  529MPD2    C4 7854   2.794   3.458  17.583  0.1295 -0.3853  0.5031
  529MPD2    C5 7855   2.750   3.324  17.583  0.2925 -0.4052 -0.4146
  529MPD2     H 7856   2.782   3.492   0.229  0.9472 -1.9817  0.6333
  529MPD2    H1 7857   2.804   3.516  17.492  0.2007 -0.6018  0.3726
  529MPD2    H2 7858   2.704   3.149  17.680 -1.2260 -0.0720  0.6151
  529MPD2    H3 7859   2.742   3.265  17.492  2.4562 -0.4827 -0.5545
  529MPD2     N 7860   2.816   3.663   0.018  0.3686  0.0824  0.1760
  529MPD2    H5 7861   2.816   3.716  17.623 -0.2193  2.5407  1.6910
  529MPD2    N1 7862   2.727   3.245   0.250  0.3273 -0.4857 -0.1594
  529MPD2    H7 7863   2.681   3.302   0.320  1.2833  0.4944 -0.3292
  530TMC3    C1 7864   2.710   3.062   0.395 -0.2173  0.0194 -0.3720
  530TMC3    C2 7865   2.709   3.138   0.508 -0.7110  0.3339  0.8459
  530TMC3    C3 7866   2.741   3.076   0.630 -0.4207  0.1547 -0.2206
  530TMC3    C4 7867   2.721   2.924   0.399 -0.0116 -0.1120  0.2841
  530TMC3    C5 7868   2.735   2.865   0.521 -0.4941 -0.0395  0.4075
  530TMC3    C6 7869   2.745   2.937   0.633 -0.3467  0.6164 -0.3142
  530TMC3     C 7870   2.731   3.107   0.263  0.7915 -0.2283 -0.2193
  530TMC3     O 7871   2.757   3.021   0.179  0.0105 -0.0199 -0.3766
  530TMC3     H 7872   2.708   3.246   0.502 -0.5632  0.3915  1.9959
  530TMC3    H1 7873   2.686   2.863   0.316  1.9690 -2.4095  1.1156
  530TMC3    H2 7874   2.752   2.889   0.729  0.7082  1.5850  0.0858
  530TMC3    C7 7875   2.761   2.727   0.517  0.1185  0.1605 -0.1642
  530TMC3    C8 7876   2.736   3.164   0.750 -0.6302  0.1038 -0.2890
  530TMC3    O1 7877   2.802   2.678   0.411  0.3887 -0.1419  0.4525
  530TMC3    O2 7878   2.692   3.275   0.732 -0.4850 -0.0628 -0.5841
  531MPD2     C 7879   2.252   0.606  13.208  0.4420 -0.4231  0.1495
  531MPD2    C1 7880   2.156   0.682  13.277 -0.0361  0.6720  0.8314
  531MPD2    C2 7881   2.018   0.667  13.259  0.1072  0.3508 -0.0559
  531MPD2    C3 7882   1.975   0.566  13.170 -0.1697 -0.0564  0.2507
  531MPD2    C4 7883   2.076   0.490  13.104  0.1627 -0.5381 -0.5316
  531MPD2    C5 7884   2.209   0.511  13.126 -0.3032 -0.4817 -0.2789
  531MPD2     H 7885   1.944   0.713  13.325  0.5805 -1.5321  1.7907
  531MPD2    H1 7886   2.050   0.417  13.028 -3.2414  0.5987 -0.4711
  531MPD2    H2 7887   2.359   0.614  13.219  0.3709 -0.9510  1.2150
  531MPD2    H3 7888   2.282   0.457  13.068 -2.2227 -3.3471 -0.0005
  531MPD2     N 7889   1.840   0.544  13.121 -0.0025 -0.9579  0.7194
  531MPD2    H5 7890   1.824   0.471  13.052  2.5849 -0.2871 -0.6200
  531MPD2    N1 7891   2.209   0.789  13.352  0.3128  0.0242 -0.2609
  531MPD2    H7 7892   2.310   0.792  13.343  0.1389 -0.3008 -2.4481
  532TMC3    C1 7893   2.220   0.995  13.466  0.1599  0.4527 -0.0731
  532TMC3    C2 7894   2.159   1.110  13.472  0.8361  0.1307 -0.1592
  532TMC3    C3 7895   2.214   1.200  13.567  0.5356 -0.6319 -0.3398
  532TMC3    C4 7896   2.328   0.957  13.534 -0.4482  0.7516 -0.0772
  532TMC3    C5 7897   2.365   1.040  13.633 -0.5748 -0.0924  0.0403
  532TMC3    C6 7898   2.316   1.168  13.645  0.1696  0.4926  0.3192
  532TMC3     C 7899   2.136   0.903  13.395 -0.5616 -0.3944  0.0729
  532TMC3     O 7900   2.020   0.922  13.383 -0.2625  0.0896  0.1722
  532TMC3     H 7901   2.080   1.134  13.403 -0.9782 -1.1552  1.4835
  532TMC3    H1 7902   2.378   0.863  13.514 -0.5814  0.6552  0.0447
  532TMC3    H2 7903   2.351   1.231  13.725 -2.0662  0.3243  1.4309
  532TMC3    C7 7904   2.476   1.015  13.722  0.4134 -0.3549 -0.2006
  532TMC3    C8 7905   2.100   1.280  13.622 -0.0388 -0.5699  0.4969
  532TMC3    O1 7906   2.527   1.104  13.786 -0.0102  0.2737  0.0697
  532TMC3    O2 7907   2.029   1.337  13.539  0.3872  0.4393  0.0841
  533TMC3    C1 7908   2.723   3.369  14.359  0.0805 -0.9567 -0.5238
  533TMC3    C2 7909   2.843   3.434  14.362  0.6390 -0.2705 -0.6396
  533TMC3    C3 7910   2.871   3.528  14.453 -0.1605 -0.1441  0.0048
  533TMC3    C4 7911   2.634   3.397  14.457 -0.2202  0.2605 -0.2812
  533TMC3    C5 7912   2.668   3.484  14.559  0.0682  0.1457  0.1621
  533TMC3    C6 7913   2.785   3.554  14.557  0.4126 -0.3572 -0.4230
  533TMC3     C 7914   2.734   3.223  14.362  0.1220  0.1945 -0.7223
  533TMC3     O 7915   2.831   3.164  14.407 -0.3270  0.5632  0.1871
  533TMC3     H 7916   2.920   3.411  14.289  1.4491  0.4295  0.0037
  533TMC3    H1 7917   2.548   3.332  14.467 -0.6200  0.5382 -1.8612
  533TMC3    H2 7918   2.810   3.626  14.635 -3.3114 -0.3203  0.7354
  533TMC3    C7 7919   2.644   3.415  14.684 -0.6567  0.4151  0.1928
  533TMC3    C8 7920   3.010   3.529  14.497  0.3102  0.3975  0.0209
  533TMC3    O1 7921   2.575   3.317  14.685  0.1966 -0.1316  0.0131
  533TMC3    O2 7922   3.035   3.500  14.611 -0.1364 -0.0407 -0.1424
  534MPD2     C 7923   3.993   4.528   1.887 -0.0505  0.5965 -0.3751
  534MPD2    C1 7924   4.087   4.490   1.794 -0.2884 -0.7695  0.3418
  534MPD2    C2 7925   4.094   4.363   1.741 -0.4444  0.9114  0.4871
  534MPD2    C3 7926   3.995   4.271   1.767 -0.0197 -0.2821 -0.2353
  534MPD2    C4 7927   3.889   4.313   1.851 -0.3721  0.0672  0.0149
  534MPD2    C5 7928   3.894   4.434   1.917 -0.2374  0.4510 -0.3814
  534MPD2     H 7929   4.181   4.342   1.679 -3.2857  1.5207 -3.7635
  534MPD2    H1 7930   3.799   4.253   1.861  1.9473 -3.3099  0.1586
  534MPD2    H2 7931   3.989   4.621   1.942  1.1243  0.3765  0.1007
  534MPD2    H3 7932   3.820   4.456   1.993 -1.5776  2.7530 -2.3556
  534MPD2     N 7933   3.982   4.146   1.704 -0.0688 -0.5533 -0.1921
  534MPD2    H5 7934   3.915   4.079   1.739 -0.9141  1.5910  2.3102
  534MPD2    N1 7935   4.184   4.576   1.739  0.3626 -0.2498 -0.2000
  534MPD2    H7 7936   4.244   4.536   1.667  0.6042 -1.7430  0.8325
  535TMC3    C1 7937   4.047   3.963   1.567 -0.1943 -0.4922 -0.1997
  535TMC3    C2 7938   3.927   3.909   1.586 -1.1266 -0.3043 -0.4846
  535TMC3    C3 7939   3.900   3.789   1.521  0.1228 -1.0018 -0.7759
  535TMC3    C4 7940   4.144   3.899   1.489  0.5392 -0.1143  0.9856
  535TMC3    C5 7941   4.113   3.774   1.439  0.4544 -0.4745  0.4159
  535TMC3    C6 7942   3.997   3.713   1.455 -0.2618  0.0130  0.6169
  535TMC3     C 7943   4.081   4.096   1.612  0.2049  0.1032  0.1096
  535TMC3     O 7944   4.174   4.156   1.562 -0.5313  0.2397 -0.3216
  535TMC3     H 7945   3.850   3.968   1.635  0.7678  0.2427  1.8597
  535TMC3    H1 7946   4.243   3.942   1.484  0.0757  1.0344  1.6005
  535TMC3    H2 7947   3.975   3.623   1.399  1.0504 -0.5875  1.0690
  535TMC3    C7 7948   4.192   3.723   1.330  0.0002  0.6933  0.0099
  535TMC3    C8 7949   3.763   3.765   1.483  0.2335 -0.1654  0.5238
  535TMC3    O1 7950   4.151   3.628   1.267 -0.1195 -0.5181  0.4001
  535TMC3    O2 7951   3.753   3.704   1.380  0.9346  0.2819  0.2671
  536MPD2     C 7952   4.057   1.897  16.884 -0.0968  0.5596 -0.3470
  536MPD2    C1 7953   3.962   1.803  16.853  0.2011 -0.2171 -0.2308
  536MPD2    C2 7954   3.887   1.807  16.735  0.0485  0.4964 -0.0178
  536MPD2    C3 7955   3.900   1.916  16.647 -0.2180  0.1513  0.2789
  536MPD2    C4 7956   3.992   2.014  16.681 -0.5915 -0.2187 -0.0441
  536MPD2    C5 7957   4.079   1.992  16.788 -1.0216  0.2983 -0.8509
  536MPD2     H 7958   3.803   1.739  16.731  0.3771 -0.1135  3.2048
  536MPD2    H1 7959   4.006   2.100  16.616  0.1941 -0.4327 -0.1661
  536MPD2    H2 7960   4.111   1.893  16.978 -0.9471  1.3021  0.1702
  536MPD2    H3 7961   4.160   2.062  16.805  1.1795 -1.9191 -2.0837
  536MPD2     N 7962   3.812   1.933  16.537 -0.5592  0.4341 -0.7840
  536MPD2    H5 7963   3.838   2.014  16.481 -0.4193  1.1471  0.3010
  536MPD2    N1 7964   3.924   1.708  16.951  0.5293 -0.3457 -0.0427
  536MPD2    H7 7965   3.958   1.735  17.043  0.6115 -0.0621 -0.1576
  537TMC3    C1 7966   3.867   1.503  17.061 -0.0423  0.3672  0.2065
  537TMC3    C2 7967   3.912   1.553  17.174 -0.3522  0.2429 -0.6910
  537TMC3    C3 7968   3.867   1.504  17.292  0.3918  0.5790  0.0747
  537TMC3    C4 7969   3.775   1.402  17.058 -0.1293  0.0005  0.4607
  537TMC3    C5 7970   3.724   1.368  17.180 -0.4572 -0.0022  0.2758
  537TMC3    C6 7971   3.766   1.414  17.303  0.2115 -0.6551 -0.3096
  537TMC3     C 7972   3.879   1.574  16.931 -0.0081 -0.0807  0.4740
  537TMC3     O 7973   3.850   1.513  16.828 -0.2125  0.5795  0.1883
  537TMC3     H 7974   4.002   1.612  17.175  0.9717 -1.7687 -0.7345
  537TMC3    H1 7975   3.738   1.368  16.962 -1.3325  0.5223  0.7429
  537TMC3    H2 7976   3.746   1.364  17.397 -0.7502  0.1583 -0.0841
  537TMC3    C7 7977   3.652   1.242  17.180 -0.5723 -0.4317  0.7080
  537TMC3    C8 7978   3.956   1.502  17.401  0.1565 -0.2747 -0.3728
  537TMC3    O1 7979   3.673   1.171  17.078  0.1007  0.3057 -0.4263
  537TMC3    O2 7980   3.955   1.406  17.480  0.0004 -0.5336 -0.5060
  538TMC3    C1 7981   0.982   1.189  10.986  0.0957 -0.0147 -0.2999
  538TMC3    C2 7982   1.048   1.148  10.877  0.2494 -0.3851  0.7633
  538TMC3    C3 7983   1.002   1.179  10.752 -0.2511 -0.0789  0.6622
  538TMC3    C4 7984   0.869   1.250  10.975 -0.5842 -0.2017 -0.3207
  538TMC3    C5 7985   0.826   1.282  10.850 -0.4904 -0.0038  0.2720
  538TMC3    C6 7986   0.889   1.256  10.729 -0.4764 -0.0752 -0.4376
  538TMC3     C 7987   1.017   1.125  11.109 -0.5043  0.0844  0.1648
  538TMC3     O 7988   0.958   1.170  11.205 -0.0683 -0.1397  0.2342
  538TMC3     H 7989   1.148   1.107  10.887  1.0363  0.9886 -1.3836
  538TMC3    H1 7990   0.800   1.259  11.058 -1.0981  1.2381 -0.9023
  538TMC3    H2 7991   0.842   1.282  10.635  1.6078  0.0746 -1.4428
  538TMC3    C7 7992   0.702   1.362  10.851  0.0510 -0.2385 -0.6950
  538TMC3    C8 7993   1.110   1.169  10.649  0.3571  0.4846  0.0500
  538TMC3    O1 7994   0.639   1.368  10.958  0.5104 -0.3106 -0.0170
  538TMC3    O2 7995   1.208   1.108  10.685  0.4529 -0.5114 -0.3761
  539MPD2     C 7996   0.313   0.353  12.031 -0.0316 -0.2397 -0.0232
  539MPD2    C1 7997   0.285   0.350  11.898  0.6120  0.5734  0.4802
  539MPD2    C2 7998   0.222   0.460  11.843 -0.4285  0.1386  0.4101
  539MPD2    C3 7999   0.175   0.573  11.913 -0.1539  0.0934 -0.1497
  539MPD2    C4 8000   0.194   0.565  12.045  0.4025  0.6778 -0.2348
  539MPD2    C5 8001   0.254   0.459  12.105  0.4395 -0.0464  0.3176
  539MPD2     H 8002   0.212   0.453  11.735  0.8446 -0.1803  0.3133
  539MPD2    H1 8003   0.175   0.649  12.111 -0.6848  0.5591 -0.3906
  539MPD2    H2 8004   0.366   0.275  12.083  0.7413  0.7270  0.6366
  539MPD2    H3 8005   0.269   0.470  12.211  0.2281 -0.9549  0.4396
  539MPD2     N 8006   0.135   0.699  11.853 -0.2664  0.6777  0.4144
  539MPD2    H5 8007   0.131   0.786  11.905 -0.9497 -0.6827  2.6003
  539MPD2    N1 8008   0.314   0.240  11.813  0.4047 -0.0065  0.3228
  539MPD2    H7 8009   0.290   0.260  11.717  0.6496  1.9443  0.6553
  540TMC3    C1 8010   0.095   0.850  11.680  0.0188 -0.3691 -0.1804
  540TMC3    C2 8011   0.152   0.897  11.564  0.7806  0.4995  0.6411
  540TMC3    C3 8012   0.145   1.033  11.544 -0.5716 -0.1671  0.2789
  540TMC3    C4 8013   0.039   0.933  11.774 -0.3980 -0.5209  0.0548
  540TMC3    C5 8014   0.035   1.069  11.747 -0.4058 -0.5215  0.7429
  540TMC3    C6 8015   0.084   1.120  11.627  0.2157 -0.2115  0.2883
  540TMC3     C 8016   0.119   0.713  11.716 -0.2965 -0.5013  0.2901
  540TMC3     O 8017   0.122   0.625  11.636 -0.5073  0.1459 -0.0688
  540TMC3     H 8018   0.202   0.827  11.500  0.7479 -0.7374  1.9639
  540TMC3    H1 8019   4.700   0.887  11.851  0.6969 -0.3582  1.0275
  540TMC3    H2 8020   0.070   1.224  11.601  1.2469 -0.5082 -1.4962
  540TMC3    C7 8021   4.664   1.144  11.832 -0.1536  0.1034 -1.4801
  540TMC3    C8 8022   0.175   1.075  11.403  0.3573  0.0888 -1.0002
  540TMC3    O1 8023   4.583   1.073  11.892  0.1379 -0.8505  0.5926
  540TMC3    O2 8024   0.238   1.178  11.384  0.5636  0.3086 -0.0571
  541MPD2     C 8025   3.495   1.692  13.388 -0.0859  0.1100 -0.6082
  541MPD2    C1 8026   3.469   1.629  13.271  0.0740 -0.2821  0.0142
  541MPD2    C2 8027   3.507   1.683  13.154 -0.0956  0.0125 -0.2628
  541MPD2    C3 8028   3.561   1.812  13.152  0.2618  0.5342  0.2507
  541MPD2    C4 8029   3.570   1.889  13.271 -0.2278  0.4299  0.6268
  541MPD2    C5 8030   3.547   1.820  13.380  0.4293 -0.0944 -0.4691
  541MPD2     H 8031   3.503   1.620  13.065 -0.4103  0.6905 -0.7302
  541MPD2    H1 8032   3.620   1.984  13.281  2.1195 -0.7059 -0.3054
  541MPD2    H2 8033   3.462   1.656  13.485 -1.8133  2.4884 -0.3132
  541MPD2    H3 8034   3.577   1.880  13.466 -1.3570 -2.9769  2.1397
  541MPD2     N 8035   3.580   1.876  13.031 -0.0341 -0.5418  0.7298
  541MPD2    H5 8036   3.594   1.976  13.037 -0.7139 -0.3164 -1.5630
  541MPD2    N1 8037   3.397   1.507  13.260  0.2881  0.2563  0.0670
  541MPD2    H7 8038   3.406   1.455  13.173  0.5801  0.6957 -0.1651
  542TMC3    C1 8039   3.584   1.929  12.799 -0.6477 -0.2078  0.4525
  542TMC3    C2 8040   3.602   1.882  12.668 -0.0671  0.5547 -0.4839
  542TMC3    C3 8041   3.587   1.967  12.563  0.2894 -0.1744  0.1526
  542TMC3    C4 8042   3.533   2.058  12.812 -0.4063 -0.3543  0.1339
  542TMC3    C5 8043   3.512   2.135  12.705 -0.0247 -0.0241  0.4876
  542TMC3    C6 8044   3.532   2.092  12.576  0.0968  0.3351  0.4636
  542TMC3     C 8045   3.570   1.828  12.900 -0.1841 -0.3090 -0.1429
  542TMC3     O 8046   3.565   1.714  12.858  0.3498 -0.0779  0.5439
  542TMC3     H 8047   3.649   1.785  12.652 -1.5688 -0.0481 -1.1923
  542TMC3    H1 8048   3.497   2.098  12.905 -1.9934 -1.2603 -0.0886
  542TMC3    H2 8049   3.494   2.154  12.496  1.1527 -0.8255 -0.9374
  542TMC3    C7 8050   3.444   2.265  12.724 -0.6461 -0.0448 -0.1135
  542TMC3    C8 8051   3.645   1.931  12.439 -0.0485 -0.0112 -0.0060
  542TMC3    O1 8052   3.458   2.322  12.829  0.1774 -0.1193 -0.1070
  542TMC3    O2 8053   3.630   1.814  12.402  0.2016 -0.0729 -0.2883
  543TMC3    C1 8054   2.295   2.185  17.321 -0.0489  0.5496 -0.0962
  543TMC3    C2 8055   2.331   2.071  17.380 -0.0894  0.0921  0.3718
  543TMC3    C3 8056   2.410   2.061  17.493  0.1639 -0.0056 -0.5961
  543TMC3    C4 8057   2.344   2.301  17.375 -0.5768 -0.4287  0.7653
  543TMC3    C5 8058   2.418   2.298  17.492 -0.2162 -0.4382 -0.0601
  543TMC3    C6 8059   2.455   2.182  17.549  0.2956 -0.6084  0.1606
  543TMC3     C 8060   2.252   2.186  17.179 -0.0907 -1.0894 -0.5481
  543TMC3     O 8061   2.268   2.089  17.105  0.4225  0.0678  0.5734
  543TMC3     H 8062   2.294   1.978  17.337 -1.1558  0.6356  0.1229
  543TMC3    H1 8063   2.313   2.398  17.336 -0.7235 -0.8799 -0.2365
  543TMC3    H2 8064   2.513   2.182  17.641  1.7511  1.7798 -0.7641
  543TMC3    C7 8065   2.384   2.402  17.585 -0.8149 -0.0777 -0.2622
  543TMC3    C8 8066   2.412   1.930  17.561  0.0788 -0.7198  0.6295
  543TMC3    O1 8067   2.360   2.357   0.004 -0.6366 -0.0811 -0.7858
  543TMC3    O2 8068   2.347   1.842  17.512  0.1967 -0.1248 -0.4550
  544MPD2     C 8069   2.483   1.589   0.242  0.3044  0.2161 -0.1506
  544MPD2    C1 8070   2.467   1.579   0.106 -0.0758 -0.3379  0.4729
  544MPD2    C2 8071   2.461   1.687   0.024 -0.0641  0.3583 -0.3400
  544MPD2    C3 8072   2.462   1.813   0.073 -0.1718  0.0635 -0.8531
  544MPD2    C4 8073   2.472   1.828   0.214 -1.1096 -0.2816 -0.0766
  544MPD2    C5 8074   2.476   1.721   0.296  0.0550 -0.2625  0.2224
  544MPD2     H 8075   2.462   1.673  17.608 -1.7505  0.9085 -0.4215
  544MPD2    H1 8076   2.482   1.927   0.258  0.7004 -1.8348  2.9997
  544MPD2    H2 8077   2.485   1.509   0.314  0.7172 -0.2602 -0.6988
  544MPD2    H3 8078   2.485   1.730   0.403  0.5274 -0.4389  0.1987
  544MPD2     N 8079   2.466   1.933  17.686  0.0951 -0.0485 -0.2762
  544MPD2    H5 8080   2.493   2.023   0.034 -0.4376  0.0108 -0.0539
  544MPD2    N1 8081   2.459   1.447   0.060 -0.5803 -0.3994  0.3030
  544MPD2    H7 8082   2.445   1.376   0.131 -0.3064 -0.3646  0.3931
  545TMC3    C1 8083   2.427   1.257  17.600 -0.3665  0.2597 -0.5737
  545TMC3    C2 8084   2.383   1.214  17.473  0.3887  0.2615  0.0852
  545TMC3    C3 8085   2.299   1.107  17.466  0.7231 -0.1550  0.2219
  545TMC3    C4 8086   2.397   1.180   0.021 -0.4713  0.4135  0.0327
  545TMC3    C5 8087   2.331   1.062   0.001  0.0656 -0.5591 -0.3130
  545TMC3    C6 8088   2.280   1.027  17.574 -0.2092 -0.1172  0.1082
  545TMC3     C 8089   2.453   1.402  17.620 -0.1312  0.0125 -0.2583
  545TMC3     O 8090   2.454   1.473  17.520  0.0663  0.3102 -0.0883
  545TMC3     H 8091   2.405   1.267  17.381  0.7758 -3.1357 -1.7985
  545TMC3    H1 8092   2.430   1.197   0.122  0.1248  1.9011 -0.4232
  545TMC3    H2 8093   2.227   0.933  17.564 -1.9367  0.9798 -1.0611
  545TMC3    C7 8094   2.309   0.972   0.113  0.0325 -0.5420  0.0519
  545TMC3    C8 8095   2.291   1.034  17.344  0.0044  0.4612 -0.2068
  545TMC3    O1 8096   2.216   0.896   0.098 -0.2352 -0.4003  0.0780
  545TMC3    O2 8097   2.201   0.955  17.316 -0.1134 -0.5095  0.7046
  546MPD2     C 8098   4.057   2.279  17.416 -0.1042 -0.2610 -0.0189
  546MPD2    C1 8099   3.975   2.377  17.375 -0.3632 -0.7252 -0.5600
  546MPD2    C2 8100   4.016   2.510  17.359  0.2508 -0.1682  0.0963
  546MPD2    C3 8101   4.151   2.530  17.379  0.4032  0.4547  0.2409
  546MPD2    C4 8102   4.234   2.437  17.428 -0.0652 -0.2523 -1.1233
  546MPD2    C5 8103   4.186   2.312  17.453 -0.1057 -0.4055 -0.0267
  546MPD2     H 8104   3.956   2.587  17.312 -0.5489 -1.3447 -0.8427
  546MPD2    H1 8105   4.339   2.454  17.445 -0.1288 -0.1888 -0.8017
  546MPD2    H2 8106   4.026   2.176  17.428  1.7046 -0.6898  0.9709
  546MPD2    H3 8107   4.255   2.236  17.488  0.9663  1.0983  1.1486
  546MPD2     N 8108   4.212   2.663  17.357  0.2148 -0.5621 -0.5369
  546MPD2    H5 8109   4.312   2.669  17.377  0.1006  0.1169 -0.1488
  546MPD2    N1 8110   3.842   2.337  17.348  0.3039  0.2509 -0.4831
  546MPD2    H7 8111   3.817   2.241  17.367 -2.4205  1.3172  1.2875
  547TMC3    C1 8112   3.614   2.354  17.281  0.4222 -0.0009 -0.2302
  547TMC3    C2 8113   3.525   2.400  17.193  0.3250  0.3054 -0.3888
  547TMC3    C3 8114   3.404   2.332  17.186 -0.1831  0.5500 -0.2472
  547TMC3    C4 8115   3.583   2.247  17.359  0.2008 -1.0255  0.5168
  547TMC3    C5 8116   3.468   2.189  17.348 -0.4291  0.5225 -0.2773
  547TMC3    C6 8117   3.366   2.223  17.265 -0.1667 -0.6338  0.2200
  547TMC3     C 8118   3.743   2.420  17.299  0.0781 -0.1842  0.4424
  547TMC3     O 8119   3.741   2.542  17.269  0.5708  0.5925  0.5864
  547TMC3     H 8120   3.543   2.478  17.120  2.2115 -1.0845 -1.4219
  547TMC3    H1 8121   3.638   2.228  17.451  1.3399 -0.3126 -0.0198
  547TMC3    H2 8122   3.270   2.172  17.263 -0.3495 -0.1703 -1.9792
  547TMC3    C7 8123   3.440   2.081  17.442 -0.5106 -0.7056  0.4782
  547TMC3    C8 8124   3.307   2.360  17.081  0.1366  0.0781 -0.0718
  547TMC3    O1 8125   3.479   2.087  17.556 -0.5153  0.0508  0.3554
  547TMC3    O2 8126   3.188   2.331  17.094  0.4626 -0.0012 -0.2026
  548MPD2     C 8127   3.901   3.603  12.223 -0.3108 -0.1558 -0.1277
  548MPD2    C1 8128   3.966   3.558  12.334  0.2691 -0.1672 -0.3158
  548MPD2    C2 8129   4.073   3.478  12.313 -0.3183  0.8926 -1.4743
  548MPD2    C3 8130   4.103   3.425  12.191  0.5607 -0.2094 -0.3725
  548MPD2    C4 8131   4.046   3.493  12.084 -0.1889  0.3650  0.1439
  548MPD2    C5 8132   3.951   3.583  12.099 -0.3050  0.0476 -0.1434
  548MPD2     H 8133   4.125   3.429  12.394 -1.4133  1.5269 -0.3879
  548MPD2    H1 8134   4.076   3.467  11.983 -0.5898  0.8514 -0.0982
  548MPD2    H2 8135   3.812   3.663  12.241  0.8331  1.5462 -0.1636
  548MPD2    H3 8136   3.903   3.634  12.016 -2.1116  0.7271  1.3274
  548MPD2     N 8137   4.184   3.313  12.179 -0.0200  0.0787 -0.0109
  548MPD2    H5 8138   4.229   3.287  12.266 -0.5659  1.1819  0.6021
  548MPD2    N1 8139   3.915   3.591  12.462  0.2964  0.2338 -0.2260
  548MPD2    H7 8140   3.839   3.659  12.460  0.0316 -0.0650 -0.3973
  549TMC3    C1 8141   3.890   3.583  12.695  0.2692 -0.2123  0.0569
  549TMC3    C2 8142   3.825   3.704  12.719  0.1397 -0.2219 -0.0442
  549TMC3    C3 8143   3.711   3.691  12.787 -0.2264 -0.1140 -0.6938
  549TMC3    C4 8144   3.836   3.462  12.735  0.6265  0.0759 -0.3090
  549TMC3    C5 8145   3.721   3.463  12.813  0.0087 -0.5056  0.2079
  549TMC3    C6 8146   3.661   3.578  12.846  0.0478 -0.2719 -0.0815
  549TMC3     C 8147   3.978   3.577  12.584  0.0539  0.2713 -0.6105
  549TMC3     O 8148   4.090   3.533  12.607 -0.0610  0.2171  0.3005
  549TMC3     H 8149   3.860   3.790  12.663  2.0694 -0.2907  1.0740
  549TMC3    H1 8150   3.878   3.369  12.696  2.6236 -0.5634  3.4297
  549TMC3    H2 8151   3.575   3.588  12.911 -0.2902 -0.3907 -0.5147
  549TMC3    C7 8152   3.630   3.345  12.797 -0.0325  0.1433 -0.2845
  549TMC3    C8 8153   3.617   3.800  12.781  0.1748  0.2774  0.4318
  549TMC3    O1 8154   3.510   3.370  12.778 -0.5094 -0.5230 -0.1171
  549TMC3    O2 8155   3.501   3.773  12.804 -0.4102  0.4694 -0.0188
  550TMC3    C1 8156   2.781   0.633  12.603 -0.2122 -0.3346 -0.2251
  550TMC3    C2 8157   2.776   0.670  12.733  0.7620  0.4948 -0.2895
  550TMC3    C3 8158   2.849   0.775  12.786  0.5141  0.4860  0.3748
  550TMC3    C4 8159   2.865   0.711  12.524  1.2956  0.1575  0.3447
  550TMC3    C5 8160   2.941   0.810  12.578  0.3510  0.2299  0.8376
  550TMC3    C6 8161   2.946   0.836  12.712 -0.8683  0.0700  0.8807
  550TMC3     C 8162   2.649   0.625  12.547  0.6830 -0.2156 -0.5476
  550TMC3     O 8163   2.570   0.654  12.635  0.2709  0.0171  0.5189
  550TMC3     H 8164   2.703   0.632  12.804 -0.9716  1.8772 -1.3211
  550TMC3    H1 8165   2.870   0.699  12.416  1.6945 -0.4509  0.4306
  550TMC3    H2 8166   3.009   0.918  12.746 -0.0683  0.1958 -0.8828
  550TMC3    C7 8167   2.934   0.929  12.495  0.2192  0.1209 -0.4950
  550TMC3    C8 8168   2.765   0.876  12.848 -0.8845 -0.0046  0.2817
  550TMC3    O1 8169   3.024   1.011  12.487  0.3174  0.0779 -0.2991
  550TMC3    O2 8170   2.821   0.965  12.907  0.3009  0.2614 -0.0310
  551TMC3    C1 8171   0.310   3.703  13.346 -0.3840  0.2859 -0.4448
  551TMC3    C2 8172   0.385   3.737  13.237 -0.3690  0.4947 -0.5277
  551TMC3    C3 8173   0.459   3.851  13.245 -0.7737  0.1318  0.1998
  551TMC3    C4 8174   0.321   3.763  13.465 -0.4370 -0.3005 -0.1439
  551TMC3    C5 8175   0.402   3.875  13.470  0.4833 -0.1371  0.2959
  551TMC3    C6 8176   0.480   3.925  13.363 -0.9369 -0.0248 -0.4323
  551TMC3     C 8177   0.191   3.624  13.312  0.3163 -0.5401 -0.6646
  551TMC3     O 8178   0.193   3.567  13.204 -0.0021  0.9495 -0.1130
  551TMC3     H 8179   0.388   3.687  13.141 -0.2388  1.3486 -0.9696
  551TMC3    H1 8180   0.251   3.751  13.547 -0.9327  1.5522 -0.2969
  551TMC3    H2 8181   0.548   4.008  13.378 -0.7031 -0.9258  3.4895
  551TMC3    C7 8182   0.403   3.957  13.589 -0.2272  0.3183  0.6092
  551TMC3    C8 8183   0.538   3.874  13.124 -0.1962  0.3985  0.0906
  551TMC3    O1 8184   0.389   3.891  13.691  0.0365  0.4794 -0.8669
  551TMC3    O2 8185   0.562   3.781  13.047  0.1611  0.7709  0.2489
  552MPD2     C 8186   2.320   1.287  14.134  0.0262  0.6532 -0.3569
  552MPD2    C1 8187   2.325   1.173  14.213 -0.0440  0.7138 -0.9157
  552MPD2    C2 8188   2.408   1.181  14.324  0.2935 -0.4177 -0.0999
  552MPD2    C3 8189   2.481   1.293  14.358 -0.0625 -0.1446 -0.2385
  552MPD2    C4 8190   2.467   1.405  14.281 -0.6845 -0.3362 -0.6978
  552MPD2    C5 8191   2.385   1.406  14.168 -0.1454 -0.6836 -0.1926
  552MPD2     H 8192   2.413   1.090  14.383  0.7279  0.6337  1.5036
  552MPD2    H1 8193   2.528   1.493  14.298  0.1934 -1.0805  0.0351
  552MPD2    H2 8194   2.274   1.278  14.036 -0.4678 -4.6772  0.3361
  552MPD2    H3 8195   2.374   1.493  14.103 -1.0391  0.1818  1.1141
  552MPD2     N 8196   2.567   1.300  14.475 -0.3799 -0.3404  0.1196
  552MPD2    H5 8197   2.586   1.392  14.513 -0.9090 -0.4424  0.6270
  552MPD2    N1 8198   2.271   1.050  14.175 -0.2309  0.0224 -0.4798
  552MPD2    H7 8199   2.294   0.973  14.237 -2.4541  0.1746  0.5343
  553TMC3    C1 8200   2.205   0.880  14.017 -0.1791 -0.6851 -0.0229
  553TMC3    C2 8201   2.173   0.847  13.891 -0.0878 -0.5567 -0.0619
  553TMC3    C3 8202   2.131   0.718  13.868  0.4637 -0.2151  0.4217
  553TMC3    C4 8203   2.204   0.788  14.113  0.0504 -0.0860  0.2242
  553TMC3    C5 8204   2.170   0.658  14.091 -0.7712  0.0520 -0.1577
  553TMC3    C6 8205   2.114   0.621  13.967  0.5255 -0.0548  0.2365
  553TMC3     C 8206   2.244   1.018  14.042 -0.7877 -0.3525 -0.5272
  553TMC3     O 8207   2.249   1.082  13.941  0.6877  0.3512 -0.4177
  553TMC3     H 8208   2.162   0.916  13.808  2.7950  0.0301  0.0456
  553TMC3    H1 8209   2.229   0.815  14.215  1.4423  0.3465 -0.2271
  553TMC3    H2 8210   2.077   0.521  13.946 -0.8619  0.2037  1.4371
  553TMC3    C7 8211   2.241   0.547  14.157 -0.3220 -0.0466 -0.7325
  553TMC3    C8 8212   2.170   0.667  13.742 -0.3375 -0.6840  0.2626
  553TMC3    O1 8213   2.211   0.436  14.125 -0.6297 -0.1039  0.3829
  553TMC3    O2 8214   2.258   0.728  13.685  0.2553  0.6303  0.2340
  554TMC3    C1 8215   4.309   0.408  11.777  0.2611 -0.1020  0.3612
  554TMC3    C2 8216   4.207   0.375  11.682 -0.5094  0.3208  0.3661
  554TMC3    C3 8217   4.181   0.464  11.580  0.4947  0.4669 -0.3513
  554TMC3    C4 8218   4.378   0.528  11.771 -0.5653  0.3004 -0.1309
  554TMC3    C5 8219   4.342   0.619  11.675 -0.7381  0.1091 -0.0317
  554TMC3    C6 8220   4.247   0.592  11.582  0.1901 -0.0791 -0.7384
  554TMC3     C 8221   4.342   0.326  11.895 -0.1944  0.1425  0.4429
  554TMC3     O 8222   4.413   0.384  11.977 -0.2609 -1.0679 -0.0363
  554TMC3     H 8223   4.139   0.292  11.694 -1.8230  1.7985  2.9053
  554TMC3    H1 8224   4.468   0.540  11.830 -0.1496 -0.9765 -0.5011
  554TMC3    H2 8225   4.238   0.669  11.507 -2.8618  2.6499  2.4121
  554TMC3    C7 8226   4.428   0.726  11.627 -0.0862 -0.2683 -0.1951
  554TMC3    C8 8227   4.125   0.417  11.456  0.3779  0.7186 -0.2758
  554TMC3    O1 8228   4.538   0.689  11.586 -0.0665 -0.0086  0.1624
  554TMC3    O2 8229   4.091   0.508  11.379  0.2234  0.4692 -0.3630
  555TMC3    C1 8230   2.855   4.220  15.004  0.2301 -0.4762 -0.6749
  555TMC3    C2 8231   2.780   4.303  15.084 -0.2922  0.3823  0.7609
  555TMC3    C3 8232   2.784   4.283  15.218 -0.3942  0.0834 -0.3045
  555TMC3    C4 8233   2.936   4.125  15.057 -0.5857 -0.2648  0.7137
  555TMC3    C5 8234   2.942   4.109  15.193 -0.4519 -0.6085  0.0466
  555TMC3    C6 8235   2.868   4.194  15.275 -0.6097  0.0756 -0.1303
  555TMC3     C 8236   2.862   4.227  14.855  0.5262 -0.0736 -0.5391
  555TMC3     O 8237   2.965   4.193  14.801  0.6579 -0.3611  0.1427
  555TMC3     H 8238   2.704   4.364  15.036 -1.2760 -0.5484  1.1201
  555TMC3    H1 8239   2.986   4.054  14.992 -0.8989 -1.8627  2.2140
  555TMC3    H2 8240   2.872   4.167  15.380  2.2996  0.5562 -0.1039
  555TMC3    C7 8241   3.009   3.998  15.254  0.0241 -0.1406  0.0689
  555TMC3    C8 8242   2.710   4.372  15.301  0.5360  0.3749 -0.0544
  555TMC3    O1 8243   2.963   3.971  15.362 -0.3785  0.2041 -0.0676
  555TMC3    O2 8244   2.635   4.450  15.245  0.2305  0.0481  0.2097
  556MPD2     C 8245   1.953   1.113  11.192  1.2349 -0.0073 -0.2379
  556MPD2    C1 8246   1.859   1.195  11.129 -0.4822  0.3773 -0.9604
  556MPD2    C2 8247   1.865   1.207  10.991 -0.5792  0.2426  0.1377
  556MPD2    C3 8248   1.954   1.147  10.914 -0.0311  0.0564 -0.1111
  556MPD2    C4 8249   2.046   1.063  10.979 -0.1076  0.0190 -0.0897
  556MPD2    C5 8250   2.049   1.047  11.114 -0.3325  0.8753 -0.6573
  556MPD2     H 8251   1.796   1.268  10.934 -1.4220 -1.1695 -0.3619
  556MPD2    H1 8252   2.115   1.007  10.917  2.0049  2.1096  0.4062
  556MPD2    H2 8253   1.963   1.090  11.297 -1.6901 -1.9520 -0.4065
  556MPD2    H3 8254   2.126   0.990  11.165 -1.1896  2.1660  2.1059
  556MPD2     N 8255   1.954   1.164  10.772  0.2629  0.2774  0.1388
  556MPD2    H5 8256   1.889   1.232  10.733  0.9268 -0.3946 -2.1384
  556MPD2    N1 8257   1.760   1.253  11.203 -0.1238  0.0848  0.0264
  556MPD2    H7 8258   1.699   1.318  11.156  0.4168  1.0097  0.6045
  557TMC3    C1 8259   1.965   1.132  10.541 -0.4209  0.0222  0.1129
  557TMC3    C2 8260   2.020   1.061  10.441 -0.1620 -0.2754 -0.3359
  557TMC3    C3 8261   1.939   1.033  10.330 -0.1299 -0.0990 -0.1077
  557TMC3    C4 8262   1.835   1.174  10.548 -0.0999  0.1833  0.2588
  557TMC3    C5 8263   1.764   1.147  10.432 -0.4493  0.3240  0.1509
  557TMC3    C6 8264   1.809   1.080  10.316  0.1531 -0.4512  0.6105
  557TMC3     C 8265   2.035   1.116  10.672 -0.0902  0.0266  0.1520
  557TMC3     O 8266   2.125   1.028  10.676  0.7860 -0.4249 -0.3784
  557TMC3     H 8267   2.119   1.019  10.456  0.0451  0.4960  0.4421
  557TMC3    H1 8268   1.793   1.241  10.623  2.9344  1.5048  0.7785
  557TMC3    H2 8269   1.756   1.072  10.222  1.1039  0.1179  0.0280
  557TMC3    C7 8270   1.620   1.162  10.449  0.3043  0.7993  0.1507
  557TMC3    C8 8271   2.002   0.965  10.219  0.5996  0.3087 -0.0769
  557TMC3    O1 8272   1.587   1.149  10.566  0.0020 -0.2555 -0.2471
  557TMC3    O2 8273   2.126   0.961  10.226 -0.1456 -0.0265 -0.0144
  558TMC3    C1 8274   4.085   3.650   9.939  0.5804  0.2431 -0.7942
  558TMC3    C2 8275   4.024   3.627  10.059  0.6491 -0.5787  0.2159
  558TMC3    C3 8276   3.913   3.546  10.063  0.0924  0.0417 -0.6635
  558TMC3    C4 8277   4.053   3.579   9.830 -0.2046  0.7323 -0.5205
  558TMC3    C5 8278   3.960   3.481   9.844  0.2319 -0.4531  0.3744
  558TMC3    C6 8279   3.875   3.479   9.951 -0.1476 -0.3554 -0.6647
  558TMC3     C 8280   4.174   3.758   9.933  0.1614  1.0788  0.4769
  558TMC3     O 8281   4.246   3.785  10.028  0.0878 -0.5422  0.2056
  558TMC3     H 8282   4.047   3.687  10.146  2.2594  0.6273 -1.0115
  558TMC3    H1 8283   4.114   3.584   9.740 -1.1636 -2.0764 -1.3438
  558TMC3    H2 8284   3.794   3.408   9.965 -0.2804 -0.7132 -3.1329
  558TMC3    C7 8285   3.920   3.413   9.724  0.0551  0.4068 -0.1011
  558TMC3    C8 8286   3.807   3.575  10.162 -0.6025  0.2244 -0.2334
  558TMC3    O1 8287   4.003   3.388   9.634  0.0840  0.5497  0.1538
  558TMC3    O2 8288   3.696   3.590  10.111 -0.2005 -0.4469 -0.0632
  559MPD2     C 8289   3.919   4.470  10.558 -0.5272  0.2410  0.6523
  559MPD2    C1 8290   3.853   4.394  10.651 -0.1098  0.1332 -0.0621
  559MPD2    C2 8291   3.907   4.384  10.782  0.3555 -0.6110  0.2679
  559MPD2    C3 8292   4.023   4.456  10.815  0.1092  0.0713 -0.2105
  559MPD2    C4 8293   4.079   4.543  10.722  0.0403  0.0981 -0.0946
  559MPD2    C5 8294   4.026   4.543  10.597 -0.0791 -0.3754  0.2826
  559MPD2     H 8295   3.868   4.304  10.844  1.2954 -0.5471  0.9287
  559MPD2    H1 8296   4.157   4.616  10.742 -1.3613  1.9197 -1.3032
  559MPD2    H2 8297   3.890   4.486  10.454  2.1058  1.3863  0.1027
  559MPD2    H3 8298   4.065   4.611  10.521 -4.3028  0.0033 -1.5606
  559MPD2     N 8299   4.076   4.439  10.943 -0.4800  0.8384  0.4947
  559MPD2    H5 8300   4.032   4.377  11.011  0.4364 -0.3411  0.0183
  559MPD2    N1 8301   3.737   4.326  10.612 -0.0839  0.0555 -0.6226
  559MPD2    H7 8302   3.710   4.335  10.515 -4.6702  1.1285  0.7619
  560TMC3    C1 8303   4.212   4.459  11.124 -0.0084  0.0921 -0.5582
  560TMC3    C2 8304   4.196   4.330  11.151 -0.1710  0.0360 -0.1865
  560TMC3    C3 8305   4.261   4.280  11.255  0.0460  0.0798 -0.1450
  560TMC3    C4 8306   4.262   4.549  11.215  0.0482 -0.1372 -0.7637
  560TMC3    C5 8307   4.313   4.497  11.332 -0.2090 -1.1270 -0.3835
  560TMC3    C6 8308   4.324   4.356  11.351 -0.4254 -0.5281 -0.2859
  560TMC3     C 8309   4.181   4.507  10.994  0.3440  0.4078  0.0675
  560TMC3     O 8310   4.242   4.598  10.946 -0.0312  0.0176  0.7691
  560TMC3     H 8311   4.182   4.255  11.074 -0.4417  2.7636 -2.7793
  560TMC3    H1 8312   4.257   4.656  11.201 -2.3833 -0.2962 -1.0733
  560TMC3    H2 8313   4.381   4.320  11.436  0.4439 -1.0408 -1.0820
  560TMC3    C7 8314   4.355   4.592  11.431  0.4989 -0.0225 -0.4867
  560TMC3    C8 8315   4.227   4.140  11.282 -0.1575 -0.4501  0.1770
  560TMC3    O1 8316   4.329   4.567  11.552  0.1837 -0.3292 -0.3648
  560TMC3    O2 8317   4.126   4.095  11.233 -0.3040 -0.1692 -0.0392
  561TMC3    C1 8318   1.849   3.141  11.528  0.2860  0.1546  0.6890
  561TMC3    C2 8319   1.758   3.117  11.629  0.4913 -0.1588 -0.2301
  561TMC3    C3 8320   1.698   3.228  11.691 -0.5368  0.2769 -0.0783
  561TMC3    C4 8321   1.892   3.267  11.492  0.5960 -0.1866 -0.0626
  561TMC3    C5 8322   1.851   3.374  11.564  0.6356  0.2895 -0.1937
  561TMC3    C6 8323   1.749   3.353  11.658 -0.2563 -0.0279  0.3458
  561TMC3     C 8324   1.867   3.030  11.434  1.0504 -0.7233 -0.3609
  561TMC3     O 8325   1.791   2.934  11.460  0.3464 -0.3279 -0.1460
  561TMC3     H 8326   1.727   3.021  11.668 -0.5913 -0.5327 -2.0332
  561TMC3    H1 8327   1.940   3.282  11.396 -0.3003  0.9219 -0.3304
  561TMC3    H2 8328   1.702   3.438  11.707 -1.1165 -0.9399  1.0973
  561TMC3    C7 8329   1.833   3.505  11.500  0.6430  0.2075 -0.1711
  561TMC3    C8 8330   1.610   3.208  11.808 -0.5831  0.0199 -0.3618
  561TMC3    O1 8331   1.756   3.584  11.556 -0.3823 -0.0168  0.5438
  561TMC3    O2 8332   1.621   3.092  11.856 -0.1253  0.1064  0.2448
  562TMC3    C1 8333   2.616   0.078  16.378 -0.3289 -0.5833  0.8154
  562TMC3    C2 8334   2.585   0.128  16.256  0.3935  0.6004  0.2241
  562TMC3    C3 8335   2.525   0.044  16.170  0.4134  0.5002  0.4544
  562TMC3    C4 8336   2.611   4.665  16.401  0.2523  0.2371  0.2538
  562TMC3    C5 8337   2.555   4.583  16.308  0.1895  0.4200  0.0084
  562TMC3    C6 8338   2.492   4.639  16.197 -0.0959  0.1996  0.7906
  562TMC3     C 8339   2.654   0.174  16.477  1.0122 -0.7053 -0.2952
  562TMC3     O 8340   2.609   0.286  16.452  0.6547  0.3407  0.1366
  562TMC3     H 8341   2.601   0.232  16.229 -0.5838  0.5874 -0.4218
  562TMC3    H1 8342   2.655   4.623  16.490 -0.5589  0.7666  0.9128
  562TMC3    H2 8343   2.451   4.583  16.114 -0.3333  1.4625  0.0565
  562TMC3    C7 8344   2.599   4.448  16.282  0.1905 -0.4480 -0.2757
  562TMC3    C8 8345   2.420   0.105  16.087 -0.5693 -0.2239 -0.2714
  562TMC3    O1 8346   2.572   4.400  16.175 -0.1803  0.1443  0.3670
  562TMC3    O2 8347   2.301   0.073  16.101 -0.1162 -0.1746 -0.0759
  563MPD2     C 8348   4.498   1.213  15.791 -0.2741  0.5841  0.4367
  563MPD2    C1 8349   4.545   1.299  15.889  0.7265  0.0837  0.6527
  563MPD2    C2 8350   4.677   1.337  15.893  0.7563 -0.4147  0.0346
  563MPD2    C3 8351   0.047   1.282  15.807 -0.4209  0.3345 -0.1818
  563MPD2    C4 8352   4.722   1.214  15.695  0.4262  0.2464  0.0832
  563MPD2    C5 8353   4.587   1.176  15.690  0.0299  0.4569 -0.4965
  563MPD2     H 8354   4.714   1.397  15.975 -1.1120  0.9141 -0.0900
  563MPD2    H1 8355   0.067   1.151  15.638  0.7162  0.2290  0.4461
  563MPD2    H2 8356   4.397   1.174  15.786 -0.5942  1.5144 -0.5504
  563MPD2    H3 8357   4.552   1.099  15.624 -1.3271  1.7999 -1.3333
  563MPD2     N 8358   0.179   1.293  15.840 -0.2005 -0.0526 -0.6415
  563MPD2    H5 8359   0.194   1.338  15.930  2.1404 -0.2120 -0.9281
  563MPD2    N1 8360   4.473   1.324  16.008  0.0072 -0.0820 -0.1522
  563MPD2    H7 8361   4.521   1.381  16.077 -0.9055  0.3299  0.1414
  564TMC3    C1 8362   4.385   1.226  16.188  0.7247  0.2167 -0.2974
  564TMC3    C2 8363   4.312   1.114  16.216  0.3944  0.1082  0.9120
  564TMC3    C3 8364   4.378   1.007  16.277  0.2548  1.4052  0.0563
  564TMC3    C4 8365   4.512   1.235  16.237  0.0462 -0.1818 -0.1261
  564TMC3    C5 8366   4.574   1.131  16.290  0.9481 -0.2381 -0.0024
  564TMC3    C6 8367   4.511   1.007  16.305 -0.5527  0.1780 -0.1020
  564TMC3     C 8368   4.367   1.257  16.046  0.6673 -0.0627  0.3396
  564TMC3     O 8369   4.283   1.189  15.988  0.6851  0.1387 -0.1495
  564TMC3     H 8370   4.205   1.111  16.204  0.7932 -0.4552 -2.4505
  564TMC3    H1 8371   4.588   1.308  16.211 -0.0675 -0.7684 -2.1265
  564TMC3    H2 8372   4.565   0.918  16.334 -1.6189  0.0691  1.5362
  564TMC3    C7 8373   4.704   1.122  16.231  0.5478  0.0105  0.0498
  564TMC3    C8 8374   4.349   0.882  16.206  0.7114  0.1145 -0.1361
  564TMC3    O1 8375   0.069   1.192  16.274  0.3997  0.1221 -0.0064
  564TMC3    O2 8376   4.372   0.773  16.255 -0.7442 -0.6237 -0.4578
  565TMC3    C1 8377   1.353   3.225  10.170  0.3040 -0.3212  0.2957
  565TMC3    C2 8378   1.232   3.165  10.200 -0.4812 -0.1249 -0.0405
  565TMC3    C3 8379   1.158   3.099  10.103  0.0101 -0.1382  0.6169
  565TMC3    C4 8380   1.379   3.235  10.036 -0.2738 -0.3699  0.0601
  565TMC3    C5 8381   1.306   3.169   9.940  0.2905  0.5043  0.5067
  565TMC3    C6 8382   1.192   3.102   9.966  0.6526 -0.2588  0.2536
  565TMC3     C 8383   1.452   3.263  10.272  0.7548  0.0887 -0.1733
  565TMC3     O 8384   1.546   3.321  10.222 -0.4158  0.0553  0.2658
  565TMC3     H 8385   1.195   3.164  10.302 -1.4566  2.1261 -0.3714
  565TMC3    H1 8386   1.479   3.266  10.009  0.6886 -1.2322  2.6924
  565TMC3    H2 8387   1.151   3.024   9.903 -0.6034  0.1028  0.6306
  565TMC3    C7 8388   1.375   3.149   9.813  0.1243  0.1790  0.1068
  565TMC3    C8 8389   1.066   3.009  10.158 -0.1493  0.6534 -0.2724
  565TMC3    O1 8390   1.484   3.204   9.791 -0.3231 -0.0647 -0.5601
  565TMC3    O2 8391   1.080   2.963  10.270  0.1547 -0.0153 -0.7180
  566MPD2     C 8392   2.265   3.875  14.044  0.5085  0.0357 -0.6526
  566MPD2    C1 8393   2.323   3.967  13.956  1.0941 -1.3419 -0.0065
  566MPD2    C2 8394   2.243   4.019  13.860 -0.3186 -0.4061 -1.0902
  566MPD2    C3 8395   2.116   3.973  13.830 -0.2410 -0.0391  0.9589
  566MPD2    C4 8396   2.061   3.893  13.926 -0.1356 -0.8371 -0.4381
  566MPD2    C5 8397   2.133   3.858  14.034  0.0150  0.3792  0.4973
  566MPD2     H 8398   2.273   4.101  13.795  0.6531  0.9504  1.0693
  566MPD2    H1 8399   1.958   3.860  13.928 -0.5447  0.4172 -0.6063
  566MPD2    H2 8400   2.319   3.847  14.134 -2.0650  0.0119  0.8735
  566MPD2    H3 8401   2.075   3.799  14.104 -0.3943  0.3392  0.1224
  566MPD2     N 8402   2.024   4.017  13.734  0.3316 -0.4424  0.3629
  566MPD2    H5 8403   1.929   3.993  13.762  0.2779 -0.2699  0.3226
  566MPD2    N1 8404   2.462   3.995  13.966  0.2947  0.3661  0.3117
  566MPD2    H7 8405   2.504   3.970  14.055 -0.7364 -2.0818  0.1327
  567TMC3    C1 8406   2.651   4.127  13.913  0.2250  0.1822  0.4058
  567TMC3    C2 8407   2.708   4.235  13.840 -0.0487 -0.5026  0.1343
  567TMC3    C3 8408   2.825   4.282  13.879 -0.2189  0.0438  0.2885
  567TMC3    C4 8409   2.716   4.066  14.015  0.1097  0.1947  0.0539
  567TMC3    C5 8410   2.841   4.119  14.039 -0.5843 -1.0085  0.5507
  567TMC3    C6 8411   2.895   4.227  13.981  0.3338  0.2660  0.4736
  567TMC3     C 8412   2.526   4.075  13.873  0.4268 -0.5350  0.2232
  567TMC3     O 8413   2.492   4.091  13.757 -1.1533  0.4472 -0.1083
  567TMC3     H 8414   2.647   4.271  13.759  0.7142  1.5356  0.4844
  567TMC3    H1 8415   2.682   3.982  14.074  1.6549 -1.3656 -1.2893
  567TMC3    H2 8416   2.998   4.250  14.005  0.3628  2.2695 -1.5328
  567TMC3    C7 8417   2.918   4.069  14.153  0.1716  0.1918  0.3457
  567TMC3    C8 8418   2.878   4.386  13.804 -0.2856 -0.6947 -0.4322
  567TMC3    O1 8419   3.041   4.079  14.150 -0.3548 -0.0097  0.6802
  567TMC3    O2 8420   2.853   4.378  13.681 -0.3448 -0.0382 -0.3450
  568MPD2     C 8421   4.559   4.479  16.302  0.5063 -0.2910  0.3826
  568MPD2    C1 8422   4.664   4.532  16.381 -0.0024 -0.4643  0.1667
  568MPD2    C2 8423   4.722   4.650  16.344  0.8736 -0.9010 -0.5182
  568MPD2    C3 8424   4.677   4.706  16.231  0.7579  0.2245 -0.4242
  568MPD2    C4 8425   4.574   4.656  16.155  0.1149 -0.2832  0.3697
  568MPD2    C5 8426   4.512   4.541  16.193 -0.4257  0.0014  0.3754
  568MPD2     H 8427   0.081   4.700  16.396 -0.5220  0.1302  0.6877
  568MPD2    H1 8428   4.534   4.695  16.062  2.5954  1.6873  0.1200
  568MPD2    H2 8429   4.512   4.385  16.325  0.3681 -0.7620 -1.8777
  568MPD2    H3 8430   4.436   4.500  16.127 -2.4758  1.4483  1.8559
  568MPD2     N 8431   0.028   0.099  16.194 -0.0836 -0.2305  0.3838
  568MPD2    H5 8432   0.102   0.129  16.257  0.9155 -1.8632 -0.0137
  568MPD2    N1 8433   4.693   4.465  16.500 -0.0602  0.2532 -0.3561
  568MPD2    H7 8434   4.649   4.379  16.532 -0.6013  0.8891  0.6235
  569TMC3    C1 8435   0.081   0.277  16.061 -0.7761 -0.0215 -0.2157
  569TMC3    C2 8436   0.146   0.338  16.167 -0.3121 -0.4708 -1.1617
  569TMC3    C3 8437   0.201   0.462  16.146 -0.7954  0.9029 -0.2328
  569TMC3    C4 8438   0.075   0.336  15.938  0.4200  0.1083  0.4935
  569TMC3    C5 8439   0.135   0.456  15.914 -0.3613 -0.0967  0.5207
  569TMC3    C6 8440   0.187   0.524  16.024 -0.4769 -0.1977 -0.5908
  569TMC3     C 8441   0.020   0.156  16.067 -0.7770 -0.3047  0.5865
  569TMC3     O 8442   4.685   0.108  15.968 -0.6731 -0.3272  0.1350
  569TMC3     H 8443   0.125   0.325  16.273 -0.4397  1.6063 -0.9329
  569TMC3    H1 8444   0.008   0.287  15.868  0.1137  1.5250 -0.2177
  569TMC3    H2 8445   0.205   0.631  16.025  0.4716 -0.3445 -1.4933
  569TMC3    C7 8446   0.047   0.545  15.840  0.0465 -0.1083 -0.7159
  569TMC3    C8 8447   0.158   0.566  16.237  0.0453 -0.1019  0.6123
  569TMC3    O1 8448   0.078   0.579  15.727 -0.5554  0.4112 -0.4196
  569TMC3    O2 8449   0.062   0.631  16.202  0.5900  0.0130  0.2240
  570TMC3    C1 8450   4.298   3.518  16.446 -0.9003  0.4051 -0.1095
  570TMC3    C2 8451   4.387   3.497  16.342 -0.3187  0.1935 -0.9283
  570TMC3    C3 8452   4.407   3.601  16.255 -0.4492 -0.5735 -0.1442
  570TMC3    C4 8453   4.234   3.634  16.459  0.3265 -0.5855  0.3252
  570TMC3    C5 8454   4.254   3.733  16.371 -0.3046  0.3743  0.0348
  570TMC3    C6 8455   4.340   3.723  16.262 -0.6282  0.9030 -0.5913
  570TMC3     C 8456   4.283   3.406  16.534 -0.2135 -0.1759 -0.3054
  570TMC3     O 8457   4.337   3.301  16.507  0.3806 -0.5412 -0.0687
  570TMC3     H 8458   4.454   3.412  16.341 -1.2878 -0.6333  3.8007
  570TMC3    H1 8459   4.180   3.663  16.549 -0.1339 -0.1769 -0.0837
  570TMC3    H2 8460   4.393   3.810  16.224 -0.5633 -0.2874 -3.1527
  570TMC3    C7 8461   4.203   3.869  16.399  1.0616  0.4668 -0.4258
  570TMC3    C8 8462   4.515   3.587  16.153 -0.0285 -0.3968  0.1985
  570TMC3    O1 8463   4.165   3.899  16.510 -0.1172  0.4399 -0.0379
  570TMC3    O2 8464   4.566   3.693  16.116 -0.1251  0.2999 -0.1110
  571MPD2     C 8465   1.776   0.480  17.253 -0.6074  0.3676  0.3339
  571MPD2    C1 8466   1.753   0.435  17.380 -0.1155 -0.8094  0.0904
  571MPD2    C2 8467   1.762   0.528  17.484 -0.5259 -0.1415  0.3090
  571MPD2    C3 8468   1.787   0.665  17.456 -0.3585  0.0062 -0.4448
  571MPD2    C4 8469   1.808   0.707  17.328  0.5924  0.3732 -0.6396
  571MPD2    C5 8470   1.792   0.609  17.227 -0.0261 -0.3179 -0.4102
  571MPD2     H 8471   1.761   0.496  17.587 -1.1880  0.1721  0.4016
  571MPD2    H1 8472   1.832   0.811  17.310  0.0486  0.3917 -1.2750
  571MPD2    H2 8473   1.761   0.412  17.170  2.6673  1.0196 -0.8067
  571MPD2    H3 8474   1.818   0.640  17.126 -0.6866 -0.6793 -0.6915
  571MPD2     N 8475   1.812   0.754  17.566 -0.2318 -0.8825  0.0669
  571MPD2    H5 8476   1.851   0.842  17.534 -0.6020 -0.9298 -0.5307
  571MPD2    N1 8477   1.739   0.294  17.398 -0.2820  0.1467 -0.2249
  571MPD2    H7 8478   1.767   0.241  17.316  1.7211  0.2250  0.4100
  572TMC3    C1 8479   1.855   0.849   0.081  0.0790 -0.4465 -0.3724
  572TMC3    C2 8480   1.913   0.822   0.199 -0.1200 -0.9868  0.0405
  572TMC3    C3 8481   1.956   0.936   0.271 -0.2916 -0.0567 -0.1414
  572TMC3    C4 8482   1.817   0.971   0.046  1.0539 -0.8689  0.1985
  572TMC3    C5 8483   1.863   1.081   0.116 -0.5020  0.5463 -0.4102
  572TMC3    C6 8484   1.940   1.066   0.233  0.1036  0.4499 -0.3464
  572TMC3     C 8485   1.807   0.735   0.011  0.0678 -0.0558  0.1058
  572TMC3     O 8486   1.777   0.633   0.075  0.3103  0.1439  0.0246
  572TMC3     H 8487   1.930   0.723   0.238  3.4496 -0.1599  0.6294
  572TMC3    H1 8488   1.776   0.990  17.640 -2.4876 -0.7791  1.7037
  572TMC3    H2 8489   1.970   1.138   0.308  1.8701  0.5974 -1.2143
  572TMC3    C7 8490   1.846   1.215   0.051  0.7297  0.4271  0.1884
  572TMC3    C8 8491   2.020   0.905   0.401  0.4289  0.3039 -0.4261
  572TMC3    O1 8492   1.783   1.229  17.639  0.1365 -0.2445  0.2704
  572TMC3    O2 8493   2.092   0.996   0.443  0.4861  0.1659  0.4577
  573MPD2     C 8494   3.025   0.894   1.440  0.8995 -0.1574 -0.2697
  573MPD2    C1 8495   3.127   0.818   1.388  0.0638 -0.3019  0.1463
  573MPD2    C2 8496   3.113   0.773   1.257  0.6694 -0.3809 -0.3097
  573MPD2    C3 8497   3.011   0.814   1.171 -0.0415 -0.0075  0.5670
  573MPD2    C4 8498   2.918   0.893   1.225  0.3552  0.2147  0.2206
  573MPD2    C5 8499   2.925   0.930   1.354 -0.0317  0.9748  0.6159
  573MPD2     H 8500   3.194   0.711   1.222  2.3544  2.8880 -2.1877
  573MPD2    H1 8501   2.843   0.941   1.162  0.1208  0.2134  0.4998
  573MPD2    H2 8502   3.031   0.945   1.535  0.0876 -2.2025  0.8743
  573MPD2    H3 8503   2.848   0.997   1.390 -1.2859  0.2023 -0.6124
  573MPD2     N 8504   2.998   0.781   1.034 -0.2406  0.0893  0.1447
  573MPD2    H5 8505   2.913   0.805   0.985 -1.5277 -0.4839  2.0866
  573MPD2    N1 8506   3.244   0.798   1.464  0.1369 -0.1707  0.3028
  573MPD2    H7 8507   3.248   0.858   1.545  2.1754  3.3172 -2.3738
  574TMC3    C1 8508   3.056   0.701   0.823 -0.0045  0.3433 -0.5186
  574TMC3    C2 8509   2.921   0.688   0.800 -0.3763 -0.2873  0.1669
  574TMC3    C3 8510   2.883   0.701   0.670  0.7500  0.2949 -0.8351
  574TMC3    C4 8511   3.148   0.724   0.723  0.0032  1.2498 -0.6813
  574TMC3    C5 8512   3.097   0.735   0.595 -0.4945 -0.6717  0.0031
  574TMC3    C6 8513   2.967   0.720   0.564 -0.1398 -0.2253  0.0334
  574TMC3     C 8514   3.094   0.719   0.959 -0.1868 -0.4842  0.3280
  574TMC3     O 8515   3.208   0.702   0.990 -0.5664 -0.3540 -0.8473
  574TMC3     H 8516   2.853   0.658   0.879  1.3335  2.5666  2.6900
  574TMC3    H1 8517   3.251   0.742   0.750  0.0261 -0.8579  0.7002
  574TMC3    H2 8518   2.937   0.730   0.460  0.8794 -0.9674 -0.3374
  574TMC3    C7 8519   3.188   0.802   0.498  0.3122  0.1553  0.2972
  574TMC3    C8 8520   2.736   0.700   0.646  0.5014 -0.0198  0.7264
  574TMC3    O1 8521   3.277   0.870   0.545  0.3723 -0.2380  0.2325
  574TMC3    O2 8522   2.669   0.630   0.716 -0.5296 -0.3930 -0.5931
  575TMC3    C1 8523   0.752   2.286  10.573 -0.4713 -0.0693 -0.4715
  575TMC3    C2 8524   0.638   2.221  10.518  0.0089 -0.0705 -0.3294
  575TMC3    C3 8525   0.578   2.272  10.405 -0.6646 -0.6567  0.4497
  575TMC3    C4 8526   0.810   2.393  10.507 -0.5376  0.5149  0.1248
  575TMC3    C5 8527   0.744   2.442  10.396  0.0553  0.0417  0.0512
  575TMC3    C6 8528   0.625   2.389  10.348  0.0885  0.5776 -0.8283
  575TMC3     C 8529   0.820   2.208  10.673  0.1763  0.5438 -0.4352
  575TMC3     O 8530   0.803   2.084  10.673 -0.1315 -0.2974 -0.6389
  575TMC3     H 8531   0.602   2.144  10.586  0.2980  0.7217  0.7143
  575TMC3    H1 8532   0.900   2.436  10.551 -0.3921  1.6218 -1.2643
  575TMC3    H2 8533   0.573   2.414  10.257  2.5553  0.2841 -2.3301
  575TMC3    C7 8534   0.792   2.556  10.329 -0.5517  0.3168 -0.0094
  575TMC3    C8 8535   0.465   2.199  10.340 -0.1909  0.3887 -0.0934
  575TMC3    O1 8536   0.907   2.589  10.364 -0.2237  0.3903 -0.3521
  575TMC3    O2 8537   0.440   2.228  10.223  0.1445 -0.2050  0.2001
  576MPD2     C 8538   0.461   3.831  12.518  0.2712  0.3655 -0.1395
  576MPD2    C1 8539   0.521   3.929  12.438  0.0188  0.2165  0.1048
  576MPD2    C2 8540   0.485   4.060  12.462 -0.4293 -0.3966 -0.3632
  576MPD2    C3 8541   0.389   4.093  12.563  0.2384  0.4153 -0.1408
  576MPD2    C4 8542   0.345   3.994  12.648 -0.6495 -0.0083 -0.2072
  576MPD2    C5 8543   0.379   3.865  12.627  0.3353 -0.0137  0.1422
  576MPD2     H 8544   0.542   4.141  12.417  0.0114  0.4446  1.6815
  576MPD2    H1 8545   0.272   4.011  12.726 -0.7767  0.8848 -0.5170
  576MPD2    H2 8546   0.489   3.727  12.507 -0.2585  0.2932 -0.8643
  576MPD2    H3 8547   0.343   3.781  12.685 -0.5736  1.3751  1.5730
  576MPD2     N 8548   0.344   4.227  12.576 -0.7073  0.0417 -0.3690
  576MPD2    H5 8549   0.393   4.289  12.513 -3.1641 -0.6966 -2.9523
  576MPD2    N1 8550   0.622   3.895  12.347 -0.0427 -0.3520  0.5712
  576MPD2    H7 8551   0.676   3.970  12.305  1.2172 -2.4345 -1.5294
  577TMC3    C1 8552   0.779   3.781  12.219 -0.4625  0.0885  0.0898
  577TMC3    C2 8553   0.861   3.673  12.228 -0.4228 -0.5063 -0.0344
  577TMC3    C3 8554   0.946   3.645  12.120  0.1791 -0.0020  0.8659
  577TMC3    C4 8555   0.769   3.860  12.113 -0.2077  0.4989 -0.3268
  577TMC3    C5 8556   0.859   3.832  12.009  0.2150 -0.7581 -0.2733
  577TMC3    C6 8557   0.950   3.732  12.014 -0.6002 -0.1568 -0.0932
  577TMC3     C 8558   0.667   3.770  12.313  0.0784  1.0540 -0.6939
  577TMC3     O 8559   0.619   3.658  12.329  0.4430  0.1681 -0.4038
  577TMC3     H 8560   0.866   3.616  12.319 -3.3659 -0.8520 -0.0774
  577TMC3    H1 8561   0.674   3.911  12.101 -0.0947  0.7872  0.0189
  577TMC3    H2 8562   1.004   3.701  11.925  0.2772  2.8512 -0.6081
  577TMC3    C7 8563   0.813   3.860  11.872 -0.0471 -0.8002  0.3230
  577TMC3    C8 8564   1.038   3.536  12.143  0.5742 -0.9264  0.0778
  577TMC3    O1 8565   0.868   3.801  11.779 -0.2443 -0.1867  0.0296
  577TMC3    O2 8566   1.013   3.466  12.240  0.0864  0.2159 -0.3409
  578MPD2     C 8567   3.032   3.403   0.370 -0.1211  0.3930  0.1725
  578MPD2    C1 8568   3.062   3.276   0.414 -0.5016 -0.0106  0.0420
  578MPD2    C2 8569   3.078   3.262   0.552 -0.4839 -0.0384  0.4263
  578MPD2    C3 8570   3.064   3.362   0.643  0.3794 -0.0214  0.2888
  578MPD2    C4 8571   3.028   3.485   0.588  0.6767 -0.7071 -0.3912
  578MPD2    C5 8572   3.020   3.508   0.456  0.0706 -0.4030 -0.9623
  578MPD2     H 8573   3.104   3.163   0.588 -2.1240 -0.8372 -0.5572
  578MPD2    H1 8574   3.018   3.570   0.654 -2.9829 -0.3146 -1.4333
  578MPD2    H2 8575   3.014   3.424   0.265 -0.0207  2.3125  0.5351
  578MPD2    H3 8576   2.988   3.606   0.424  0.4377 -0.5495 -1.7622
  578MPD2     N 8577   3.093   3.343   0.788 -0.0233 -0.1684 -0.1783
  578MPD2    H5 8578   3.132   3.259   0.827  1.5479  1.3335  1.4763
  578MPD2    N1 8579   3.063   3.169   0.318 -0.7278 -0.5194  0.3446
  578MPD2    H7 8580   3.072   3.188   0.219  2.3450 -4.1552 -0.0961
  579TMC3    C1 8581   3.082   3.374   1.018 -0.0214  0.4421  0.1768
  579TMC3    C2 8582   3.085   3.483   1.104 -0.0165  0.7493 -0.3990
  579TMC3    C3 8583   3.133   3.464   1.230 -0.0818  0.7034  0.1434
  579TMC3    C4 8584   3.127   3.247   1.057  0.1995  0.8047 -0.6846
  579TMC3    C5 8585   3.160   3.231   1.190 -0.1416  0.2073  0.3689
  579TMC3    C6 8586   3.171   3.336   1.272 -0.9143 -0.6458 -0.1697
  579TMC3     C 8587   3.029   3.410   0.886  0.2247 -0.0180 -0.0855
  579TMC3     O 8588   2.973   3.518   0.867 -0.0535 -0.0204  0.2998
  579TMC3     H 8589   3.053   3.582   1.075 -2.7372  0.9015  3.2292
  579TMC3    H1 8590   3.120   3.161   0.992  1.6776 -1.8587  2.6478
  579TMC3    H2 8591   3.201   3.327   1.376 -1.1548  0.8436  0.0278
  579TMC3    C7 8592   3.225   3.106   1.230 -0.4839  0.4729 -1.0654
  579TMC3    C8 8593   3.171   3.581   1.311  0.3329  0.7542  0.8483
  579TMC3    O1 8594   3.279   3.106   1.341  0.0214  0.1570 -0.5947
  579TMC3    O2 8595   3.083   3.663   1.335  0.0311  0.1561  0.2266
  580TMC3    C1 8596   3.102   3.075  12.135  0.1449  0.4355 -1.0124
  580TMC3    C2 8597   3.158   3.201  12.137  0.1667 -0.0831 -0.2678
  580TMC3    C3 8598   3.285   3.208  12.166  0.1574 -0.4581 -0.2047
  580TMC3    C4 8599   3.169   2.965  12.175 -0.6209  0.3230  0.1998
  580TMC3    C5 8600   3.298   2.982  12.216  0.3719  0.5883  0.3431
  580TMC3    C6 8601   3.363   3.099  12.201  0.5790 -0.1341  0.1910
  580TMC3     C 8602   2.977   3.052  12.056 -0.0931 -0.5533  0.0002
  580TMC3     O 8603   2.935   2.937  12.069  1.2769  0.4733  0.0668
  580TMC3     H 8604   3.098   3.290  12.121 -1.3629 -1.1932 -0.6707
  580TMC3    H1 8605   3.124   2.867  12.186 -2.7085  0.9344 -2.8248
  580TMC3    H2 8606   3.468   3.114  12.222  0.4006 -1.0589  1.7243
  580TMC3    C7 8607   3.380   2.867  12.270 -0.2473 -0.0112  0.5909
  580TMC3    C8 8608   3.357   3.305  12.082  0.0640 -0.0445 -0.3188
  580TMC3    O1 8609   3.488   2.899  12.319  0.7911 -0.0295  0.4769
  580TMC3    O2 8610   3.311   3.418  12.076  0.2945  0.4003  0.1703
  581MPD2     C 8611   0.864   2.137  15.135 -0.0572 -0.1490 -0.4962
  581MPD2    C1 8612   0.982   2.143  15.055  0.6076  0.4748 -0.7635
  581MPD2    C2 8613   1.001   2.254  14.972 -0.0562  0.0994 -0.4650
  581MPD2    C3 8614   0.911   2.362  14.979 -0.2830  0.0922  0.3152
  581MPD2    C4 8615   0.795   2.346  15.050 -0.1757  0.1680  0.6607
  581MPD2    C5 8616   0.768   2.235  15.130  0.9730  0.0726  0.4542
  581MPD2     H 8617   1.098   2.260  14.925  1.1555 -3.4308  1.5803
  581MPD2    H1 8618   0.709   2.411  15.039 -0.2977  0.2831  2.1930
  581MPD2    H2 8619   0.848   2.053  15.201  1.8250 -0.9606 -1.0761
  581MPD2    H3 8620   0.680   2.232  15.193 -0.7070  1.5854 -1.8229
  581MPD2     N 8621   0.948   2.483  14.916 -0.4240 -0.2712 -0.3456
  581MPD2    H5 8622   1.025   2.489  14.850 -0.0919  0.5582  0.1187
  581MPD2    N1 8623   1.075   2.040  15.077  0.6796 -0.8207 -0.5628
  581MPD2    H7 8624   1.057   1.975  15.153 -0.2930 -1.5632 -1.4339
  582TMC3    C1 8625   1.294   1.946  15.113  0.2769 -0.0168 -0.3229
  582TMC3    C2 8626   1.401   1.995  15.172  0.1200 -0.0277 -0.1031
  582TMC3    C3 8627   1.432   1.947  15.297 -0.5067  0.7226  0.4732
  582TMC3    C4 8628   1.211   1.849  15.168 -0.1086  0.9020 -0.7091
  582TMC3    C5 8629   1.238   1.811  15.296 -0.0917  0.2148  0.6010
  582TMC3    C6 8630   1.349   1.857  15.356 -0.2604  0.0613 -0.7361
  582TMC3     C 8631   1.207   2.040  15.033 -0.7872 -0.7377 -0.2905
  582TMC3     O 8632   1.267   2.103  14.950  0.1618 -0.7415  0.2776
  582TMC3     H 8633   1.438   2.094  15.145  1.0798 -0.1141  0.8790
  582TMC3    H1 8634   1.129   1.802  15.114  1.3932 -0.3097 -1.9321
  582TMC3    H2 8635   1.379   1.821  15.454  0.6768  0.9006 -0.7112
  582TMC3    C7 8636   1.116   1.815  15.366  0.3390 -0.2439  0.5493
  582TMC3    C8 8637   1.441   2.058  15.394 -0.9861  0.1652 -0.7367
  582TMC3    O1 8638   1.018   1.758  15.314 -0.0039  0.0611  0.6032
  582TMC3    O2 8639   1.344   2.071  15.471  0.2928 -0.9746 -0.2231
  583MPD2     C 8640   1.299   4.086  16.841 -0.4891 -0.0501 -0.0047
  583MPD2    C1 8641   1.281   4.197  16.763 -0.5717  0.2003 -0.3765
  583MPD2    C2 8642   1.238   4.312  16.815 -0.0107  0.5448 -0.3704
  583MPD2    C3 8643   1.227   4.316  16.950  0.0562 -0.3163  0.2309
  583MPD2    C4 8644   1.253   4.206  17.032  0.9412  1.0908  0.1843
  583MPD2    C5 8645   1.287   4.084  16.975  0.4482 -0.1327  0.5530
  583MPD2     H 8646   1.214   4.397  16.751 -2.8036  0.4940  0.5948
  583MPD2    H1 8647   1.255   4.211  17.141 -0.2360 -0.2643  0.2661
  583MPD2    H2 8648   1.320   3.987  16.802  0.3129 -1.0047  2.8642
  583MPD2    H3 8649   1.310   4.004  17.044 -0.4370  1.5181  2.7518
  583MPD2     N 8650   1.168   4.433  17.004  0.1801 -0.0196 -0.3909
  583MPD2    H5 8651   1.122   4.493  16.935  0.8598 -1.2800 -1.9474
  583MPD2    N1 8652   1.305   4.197  16.623  0.0426  0.2549  0.3639
  583MPD2    H7 8653   1.295   4.289  16.581 -1.1990 -1.0523 -2.2525
  584TMC3    C1 8654   1.055   4.582  17.169  1.0473  1.0721  0.0778
  584TMC3    C2 8655   1.075   4.697  17.102 -0.4682  0.1132  0.0557
  584TMC3    C3 8656   1.043   0.084  17.164 -0.1773  0.9852 -0.1746
  584TMC3    C4 8657   1.011   4.571  17.298  0.4697  0.2790  0.4779
  584TMC3    C5 8658   0.964   4.692  17.350 -0.0787  0.8769 -0.1604
  584TMC3    C6 8659   0.987   0.087  17.291  0.7257  0.1683  0.4205
  584TMC3     C 8660   1.140   4.464  17.135 -0.1549 -0.8306  0.4326
  584TMC3     O 8661   1.165   4.394  17.231 -0.6319  0.0241  0.4608
  584TMC3     H 8662   1.117   4.706  17.002 -0.8287 -0.9878 -0.1987
  584TMC3    H1 8663   0.977   4.474  17.334  0.9208  0.5397  1.5933
  584TMC3    H2 8664   0.951   0.181  17.333  0.2013 -0.3770  1.1987
  584TMC3    C7 8665   0.908   4.694  17.484 -0.0303  0.3198 -0.0426
  584TMC3    C8 8666   1.043   0.211  17.084  0.7351 -0.6521 -0.0528
  584TMC3    O1 8667   0.848   4.592  17.532  0.0894 -0.0342  0.0254
  584TMC3    O2 8668   1.012   0.205  16.968 -0.0169  0.1342  0.0478
  585MPD2     C 8669   4.307   2.993   1.016  0.1720 -0.5567  0.1656
  585MPD2    C1 8670   4.368   2.998   0.890 -0.4788 -0.2102 -0.6383
  585MPD2    C2 8671   4.409   2.876   0.832  0.4119  0.3080  0.1953
  585MPD2    C3 8672   4.410   2.760   0.909  0.1512  0.1473 -0.4755
  585MPD2    C4 8673   4.361   2.762   1.041  0.5236 -0.4950  0.7161
  585MPD2    C5 8674   4.306   2.872   1.088 -0.1687 -0.2294  0.7440
  585MPD2     H 8675   4.459   2.872   0.736  0.2292  0.8328  0.0787
  585MPD2    H1 8676   4.356   2.672   1.102  0.6615 -0.5227  0.6855
  585MPD2    H2 8677   4.270   3.085   1.060 -0.0449 -0.1007 -0.9729
  585MPD2    H3 8678   4.253   2.870   1.183 -2.6726  3.6028 -0.5543
  585MPD2     N 8679   4.449   2.633   0.859  0.8969  0.0057 -0.1995
  585MPD2    H5 8680   4.452   2.558   0.927 -0.8383 -1.0093 -1.2613
  585MPD2    N1 8681   4.354   3.119   0.824  0.0891  0.2219 -0.3118
  585MPD2    H7 8682   4.336   3.209   0.866  2.8930  1.2412 -1.3089
  586TMC3    C1 8683   4.525   2.458   0.717 -0.1729 -0.5680  0.4306
  586TMC3    C2 8684   4.608   2.424   0.615 -0.1794  0.8951  0.1869
  586TMC3    C3 8685   4.634   2.289   0.594  0.0941 -0.6757  0.8710
  586TMC3    C4 8686   4.462   2.367   0.796  0.0740  0.1557  0.3184
  586TMC3    C5 8687   4.489   2.235   0.767  0.4529  0.1788  0.1576
  586TMC3    C6 8688   4.575   2.187   0.666  0.2490  0.4756  0.0468
  586TMC3     C 8689   4.492   2.597   0.730 -0.4163 -0.1042 -0.4541
  586TMC3     O 8690   4.489   2.658   0.625 -0.1087 -0.3125 -0.2726
  586TMC3     H 8691   4.651   2.496   0.547  0.0725  0.8758  0.3257
  586TMC3    H1 8692   4.388   2.394   0.870  1.8901  2.7878  1.1902
  586TMC3    H2 8693   4.589   2.083   0.641 -1.0540  0.1848  0.5090
  586TMC3    C7 8694   4.383   2.136   0.786  0.5180  0.1805 -0.1901
  586TMC3    C8 8695   4.714   2.260   0.481  0.1105  0.5263 -0.1086
  586TMC3    O1 8696   4.401   2.028   0.731 -0.1927 -0.6451  0.1240
  586TMC3    O2 8697   0.077   2.344   0.453  0.0201 -0.7818 -0.0577
  587TMC3    C1 8698   2.818   1.646  16.237  0.2951 -0.3179  0.2519
  587TMC3    C2 8699   2.787   1.748  16.322  0.1980 -0.5282 -0.3037
  587TMC3    C3 8700   2.875   1.771  16.416  0.0208 -0.3383 -0.5866
  587TMC3    C4 8701   2.940   1.572  16.241 -0.6625  0.5163  0.0422
  587TMC3    C5 8702   3.030   1.606  16.332  0.0186  0.4186  0.5284
  587TMC3    C6 8703   2.996   1.706  16.424 -0.2782 -0.9623  0.9762
  587TMC3     C 8704   2.714   1.590  16.150  0.1845 -0.2350  0.4492
  587TMC3     O 8705   2.760   1.506  16.074 -0.2299 -0.3728 -0.7183
  587TMC3     H 8706   2.710   1.822  16.301  0.8572 -0.0398 -1.0507
  587TMC3    H1 8707   2.958   1.484  16.181  0.3215  1.0927 -0.5180
  587TMC3    H2 8708   3.047   1.733  16.516  2.0497  0.1115 -0.6464
  587TMC3    C7 8709   3.131   1.508  16.363 -0.2198  0.5389  0.3250
  587TMC3    C8 8710   2.841   1.853  16.534  0.0389 -0.6222 -0.3781
  587TMC3    O1 8711   3.131   1.401  16.308 -0.1231  0.1701 -0.5207
  587TMC3    O2 8712   2.933   1.915  16.591  0.7920  0.0997 -0.1408
  588TMC3    C1 8713   1.005   4.501   9.917 -0.9010  0.6973  0.0058
  588TMC3    C2 8714   1.013   4.362   9.917  1.0487 -1.1004  0.1510
  588TMC3    C3 8715   0.979   4.298  10.033  1.1491  0.1525  0.1280
  588TMC3    C4 8716   0.974   4.574  10.027 -0.1078  0.3509 -0.3106
  588TMC3    C5 8717   0.960   4.504  10.140  0.8316  0.5287  0.0052
  588TMC3    C6 8718   0.956   4.372  10.148 -0.9670  0.2794 -0.6021
  588TMC3     C 8719   1.014   4.559   9.792  0.8789 -0.0884 -0.0933
  588TMC3     O 8720   1.014   4.495   9.685  0.6983 -0.3032  0.2774
  588TMC3     H 8721   1.023   4.316   9.820  1.9216 -1.7376  0.5407
  588TMC3    H1 8722   0.934   4.674  10.016 -0.3474  0.2519 -0.3532
  588TMC3    H2 8723   0.937   4.323  10.242  0.4833 -0.7692 -0.8394
  588TMC3    C7 8724   0.906   4.576  10.258  0.0326  0.4553 -0.1687
  588TMC3    C8 8725   0.933   4.160  10.015  0.1651 -0.5516 -0.1536
  588TMC3    O1 8726   0.819   4.523  10.333  0.6131  0.0731  0.2068
  588TMC3    O2 8727   0.889   4.131   9.902  0.1922 -0.2658 -0.4378
  589TMC3    C1 8728   3.986   1.578   1.068 -0.6270  0.2176 -0.0286
  589TMC3    C2 8729   4.070   1.648   1.146  0.6434  0.0604 -0.4615
  589TMC3    C3 8730   4.201   1.668   1.107 -0.4067  0.3804  0.2481
  589TMC3    C4 8731   4.029   1.521   0.957  0.2014 -0.5412 -0.4471
  589TMC3    C5 8732   4.163   1.524   0.917 -0.5254  0.0183 -0.8604
  589TMC3    C6 8733   4.244   1.603   0.992  0.1774  0.2305  0.6096
  589TMC3     C 8734   3.855   1.630   1.054  0.3555  0.1094  0.3534
  589TMC3     O 8735   3.811   1.635   0.942  0.1875 -0.1406 -0.3171
  589TMC3     H 8736   4.026   1.703   1.228 -0.4967 -1.2260 -0.2103
  589TMC3    H1 8737   3.959   1.461   0.899  0.3187  0.1687 -1.3208
  589TMC3    H2 8738   4.349   1.586   0.971 -0.2819 -1.6002 -0.2400
  589TMC3    C7 8739   4.197   1.465   0.792 -0.2579 -0.2312  0.7603
  589TMC3    C8 8740   4.279   1.750   1.192  0.2497  0.4672 -0.3702
  589TMC3    O1 8741   4.127   1.369   0.751  0.1057 -0.9245  0.6606
  589TMC3    O2 8742   4.232   1.760   1.304 -0.2425  0.0566 -0.3986
  590MPD2     C 8743   3.513   0.262  16.677  0.1004  0.2944  0.2615
  590MPD2    C1 8744   3.473   0.314  16.555  0.0499  0.1017 -0.0432
  590MPD2    C2 8745   3.555   0.326  16.452  0.0126  0.6856 -0.4921
  590MPD2    C3 8746   3.689   0.303  16.465 -0.1372  0.4421 -0.8886
  590MPD2    C4 8747   3.740   0.258  16.589 -0.3461  0.3902 -0.8074
  590MPD2    C5 8748   3.645   0.234  16.692 -0.5378  0.7886  0.2696
  590MPD2     H 8749   3.524   0.375  16.361  1.8323  2.3172 -0.2353
  590MPD2    H1 8750   3.844   0.258  16.619 -0.3157  1.3002 -0.9075
  590MPD2    H2 8751   3.444   0.247  16.759 -3.4222  0.9484 -2.5942
  590MPD2    H3 8752   3.686   0.204  16.787 -2.4271 -1.3032  0.4172
  590MPD2     N 8753   3.769   0.323  16.358  0.2435 -0.0655 -0.8803
  590MPD2    H5 8754   3.730   0.369  16.276  0.2921  0.2263 -0.7411
  590MPD2    N1 8755   3.349   0.370  16.549 -0.6478 -0.7625  0.3645
  590MPD2    H7 8756   3.293   0.368  16.634  0.1609 -2.9766  0.8604
  591TMC3    C1 8757   3.972   0.395  16.282  1.2240  0.0457 -0.4024
  591TMC3    C2 8758   4.096   0.368  16.235 -0.2658 -0.8233 -0.3677
  591TMC3    C3 8759   4.172   0.471  16.189  0.1455  0.1232 -0.0689
  591TMC3    C4 8760   3.924   0.522  16.274  1.3731 -0.6578 -0.5119
  591TMC3    C5 8761   4.001   0.625  16.220 -0.0172 -0.0546  0.0980
  591TMC3    C6 8762   4.128   0.602  16.165  0.8319 -1.3253  0.1967
  591TMC3     C 8763   3.906   0.290  16.355 -0.5107 -0.1722  0.7957
  591TMC3     O 8764   3.973   0.227  16.436 -0.0290 -0.0758 -0.1556
  591TMC3     H 8765   4.145   0.271  16.236  0.4668 -0.4408  0.1726
  591TMC3    H1 8766   3.833   0.557  16.321  2.2679  1.5525 -0.4495
  591TMC3    H2 8767   4.182   0.684  16.120 -3.0071  1.6770  0.9777
  591TMC3    C7 8768   3.935   0.747  16.183 -0.4539  0.8306 -0.2116
  591TMC3    C8 8769   4.272   0.429  16.087  0.2637 -0.7997  0.0727
  591TMC3    O1 8770   3.818   0.752  16.207 -0.1810  0.0608  0.4617
  591TMC3    O2 8771   4.350   0.340  16.125 -0.6940  0.1036 -0.1063
  592MPD2     C 8772   4.167   2.629  11.080 -1.0377 -0.0465  0.0470
  592MPD2    C1 8773   4.204   2.622  11.210  0.3758  0.5370  0.4367
  592MPD2    C2 8774   4.139   2.543  11.300  0.2335 -0.3528 -0.6850
  592MPD2    C3 8775   4.029   2.472  11.251 -0.3608  0.4505  0.0788
  592MPD2    C4 8776   3.990   2.477  11.123 -0.5660  0.6689 -0.2660
  592MPD2    C5 8777   4.056   2.569  11.037 -0.7178 -0.6170  0.3618
  592MPD2     H 8778   4.165   2.542  11.405  0.6907  0.2525 -0.7971
  592MPD2    H1 8779   3.907   2.418  11.085 -0.0939  0.4345 -0.9471
  592MPD2    H2 8780   4.234   2.677  11.009  1.4698 -1.1392  1.6808
  592MPD2    H3 8781   4.028   2.575  10.932 -0.1827 -0.6925  0.2156
  592MPD2     N 8782   3.952   2.397  11.350 -0.6271  0.2028 -0.2483
  592MPD2    H5 8783   3.979   2.407  11.447 -0.5633 -1.8451 -0.0640
  592MPD2    N1 8784   4.307   2.719  11.252  0.1400 -0.9304  0.8827
  592MPD2    H7 8785   4.338   2.778  11.175 -0.7150 -0.4571  0.9061
  593TMC3    C1 8786   4.445   2.841  11.406  0.2092 -0.6766 -0.1380
  593TMC3    C2 8787   4.453   2.883  11.537 -0.2028 -0.1229  0.2935
  593TMC3    C3 8788   4.537   2.983  11.557  0.3037 -0.4390  0.2334
  593TMC3    C4 8789   4.518   2.896  11.302  0.0148 -0.0956 -0.1297
  593TMC3    C5 8790   4.605   2.998  11.328 -0.0786  0.5396  0.0439
  593TMC3    C6 8791   4.618   3.037  11.460 -0.2627  0.1083 -0.4299
  593TMC3     C 8792   4.341   2.741  11.386  0.5819  0.2778 -0.0458
  593TMC3     O 8793   4.289   2.702  11.490 -0.5703 -0.5009  0.1518
  593TMC3     H 8794   4.383   2.848  11.611 -0.7090  0.4487  0.0924
  593TMC3    H1 8795   4.508   2.860  11.200 -0.5834  1.9454 -0.7796
  593TMC3    H2 8796   4.690   3.116  11.478  1.3235 -1.4412  0.0352
  593TMC3    C7 8797   4.694   3.057  11.227  0.8174  0.5954  0.3457
  593TMC3    C8 8798   4.526   3.054  11.683  0.5728  0.0362 -0.3027
  593TMC3    O1 8799   0.075   3.113  11.274  0.3507 -0.1915 -0.0003
  593TMC3    O2 8800   4.413   3.054  11.736 -0.6914  0.0158 -0.3310
  594MPD2     C 8801   3.334   1.231  14.617  0.8574  0.6358  0.5467
  594MPD2    C1 8802   3.244   1.338  14.629 -0.6348  0.6119  0.7203
  594MPD2    C2 8803   3.271   1.458  14.569 -0.2846 -0.2683 -0.2720
  594MPD2    C3 8804   3.394   1.474  14.504 -0.6149  0.4780  0.1553
  594MPD2    C4 8805   3.487   1.373  14.504 -0.0811  0.2697  0.0880
  594MPD2    C5 8806   3.455   1.250  14.559  0.5094  0.5650 -0.4719
  594MPD2     H 8807   3.199   1.539  14.564 -0.2971 -0.2769 -0.2358
  594MPD2    H1 8808   3.585   1.369  14.459 -0.9799 -0.0769 -1.8577
  594MPD2    H2 8809   3.314   1.143  14.677  1.4499 -0.5789 -1.0534
  594MPD2    H3 8810   3.530   1.171  14.560  1.5852  1.5448 -2.2553
  594MPD2     N 8811   3.427   1.597  14.447 -0.8818 -0.1150 -0.3143
  594MPD2    H5 8812   3.352   1.665  14.448  0.6631  1.5858 -0.3892
  594MPD2    N1 8813   3.123   1.311  14.684 -0.1908 -0.2473 -0.0758
  594MPD2    H7 8814   3.119   1.219  14.726  0.5830 -0.2173  0.0669
  595TMC3    C1 8815   3.699   1.927  14.246 -0.3889 -0.2845  0.1112
  595TMC3    C2 8816   3.666   1.795  14.264 -0.4270  0.5444  0.5160
  595TMC3    C3 8817   3.564   1.768  14.351  0.4148  0.1079 -1.0300
  595TMC3    C4 8818   3.624   2.026  14.302  0.4543  0.8030 -0.4654
  595TMC3    C5 8819   3.528   1.993  14.395  0.0356  0.4926 -0.0682
  595TMC3    C6 8820   3.494   1.863  14.411  0.0416 -0.7792 -0.3756
  595TMC3     C 8821   3.838   1.953  14.281 -0.0068  0.6565  0.3020
  595TMC3     O 8822   3.866   2.065  14.320 -0.3303  0.0233  0.0002
  595TMC3     H 8823   3.726   1.722  14.209  1.9232  1.7651  1.4724
  595TMC3    H1 8824   3.643   2.130  14.277  1.3800  0.9096  0.6674
  595TMC3    H2 8825   3.417   1.839  14.484 -2.0542  0.9707 -2.0199
  595TMC3    C7 8826   3.469   2.097  14.482 -1.0578 -0.8041  0.2260
  595TMC3    C8 8827   3.554   1.629  14.393  0.2079 -0.1210  0.1610
  595TMC3    O1 8828   3.432   2.070  14.593  0.3294 -0.0574  0.4891
  595TMC3    O2 8829   3.657   1.562  14.388 -0.7839 -0.0611 -0.0813
  596MPD2     C 8830   2.034   3.856  16.818 -0.3272  0.1804  0.3150
  596MPD2    C1 8831   2.080   3.974  16.761  0.6769 -0.3539  0.8903
  596MPD2    C2 8832   2.096   3.981  16.620  1.2810  0.0642 -0.4591
  596MPD2    C3 8833   2.060   3.880  16.541 -0.3653 -0.5353  0.3520
  596MPD2    C4 8834   2.009   3.765  16.599 -0.8508  0.4113 -0.2304
  596MPD2    C5 8835   2.004   3.744  16.733 -0.6140 -0.2431 -0.0862
  596MPD2     H 8836   2.142   4.066  16.570 -0.6321  1.5584  0.3048
  596MPD2    H1 8837   1.966   3.693  16.531  1.3449 -2.0033  0.9785
  596MPD2    H2 8838   2.034   3.852  16.926  0.1239 -1.2848  0.2601
  596MPD2    H3 8839   1.962   3.652  16.770 -1.1261 -0.2169 -0.6134
  596MPD2     N 8840   2.061   3.887  16.403  0.8232 -0.0277 -0.1810
  596MPD2    H5 8841   2.038   3.801  16.355  2.0508 -0.5007  0.0745
  596MPD2    N1 8842   2.103   4.091  16.843  0.3049  0.4256  0.2565
  596MPD2    H7 8843   2.104   4.173  16.784 -0.7790  1.0323  1.0721
  597TMC3    C1 8844   2.062   4.242  17.008  0.4847 -0.3005  0.1226
  597TMC3    C2 8845   2.152   4.326  16.953  0.4879  0.7679  0.2253
  597TMC3    C3 8846   2.139   4.456  16.982  0.1801 -0.1879 -0.6246
  597TMC3    C4 8847   1.951   4.283  17.073  1.0234 -0.0570 -0.8127
  597TMC3    C5 8848   1.926   4.420  17.065 -0.5290 -0.3137 -0.1625
  597TMC3    C6 8849   2.027   4.507  17.034  0.4362  0.5949  1.2936
  597TMC3     C 8850   2.083   4.102  16.981  0.5471  0.3700 -0.5921
  597TMC3     O 8851   2.055   4.015  17.065  0.4318 -0.2839 -0.3830
  597TMC3     H 8852   2.244   4.278  16.922  0.2614 -1.7858  3.4284
  597TMC3    H1 8853   1.879   4.214  17.115 -0.3600  1.6165 -0.4240
  597TMC3    H2 8854   2.015   4.613  17.050  1.2227  0.8177  0.4230
  597TMC3    C7 8855   1.809   4.470  17.129 -0.1460 -0.0015 -0.1613
  597TMC3    C8 8856   2.269   4.517  16.999 -0.3762  0.1503  0.4591
  597TMC3    O1 8857   1.770   4.400  17.223 -0.3729  0.4646 -0.9725
  597TMC3    O2 8858   2.372   4.473  16.954 -0.2154  0.2966  0.0921
  598TMC3    C1 8859   0.353   0.725  15.260  0.1625  0.1438  0.0489
  598TMC3    C2 8860   0.269   0.620  15.248 -0.7419  0.7223 -0.6950
  598TMC3    C3 8861   0.158   0.632  15.160  0.0078 -0.1323  0.6186
  598TMC3    C4 8862   0.341   0.828  15.175  0.1847  0.5490  0.1767
  598TMC3    C5 8863   0.243   0.830  15.084 -0.1163  0.0019 -0.2309
  598TMC3    C6 8864   0.146   0.735  15.072  0.2715  0.8596 -0.0968
  598TMC3     C 8865   0.453   0.720  15.359 -0.9817  0.2747 -0.1019
  598TMC3     O 8866   0.547   0.796  15.334 -0.0378 -0.6712 -0.6432
  598TMC3     H 8867   0.292   0.521  15.288  1.5588  2.4707  2.2911
  598TMC3    H1 8868   0.399   0.918  15.196 -1.4475  1.3414  1.2810
  598TMC3    H2 8869   0.071   0.737  14.994  0.4730 -1.1850 -0.3360
  598TMC3    C7 8870   0.246   0.924  14.967  0.6110 -0.3510  0.1453
  598TMC3    C8 8871   0.125   0.504  15.097 -0.0428  0.5836 -0.2033
  598TMC3    O1 8872   0.169   0.907  14.874  0.2392  0.0171 -0.1475
  598TMC3    O2 8873   0.185   0.406  15.139  0.4364 -0.4431 -0.4663
  599MPD2     C 8874   0.418   2.875  15.857 -0.2162  0.4611 -0.0613
  599MPD2    C1 8875   0.464   2.922  15.973 -0.3977 -0.0218  0.4356
  599MPD2    C2 8876   0.387   2.985  16.072  0.7686 -0.2934  0.2888
  599MPD2    C3 8877   0.250   2.997  16.042 -0.2198  0.4376  0.3028
  599MPD2    C4 8878   0.196   2.942  15.932 -0.6516 -0.4179 -0.2511
  599MPD2    C5 8879   0.283   2.885  15.839 -0.2484 -0.0521  0.3643
  599MPD2     H 8880   0.436   3.008  16.166  2.2297  0.5673 -0.6895
  599MPD2    H1 8881   0.090   2.949  15.910 -0.6758 -0.6254 -0.2030
  599MPD2    H2 8882   0.476   2.815  15.787 -1.9915  0.6668 -1.7022
  599MPD2    H3 8883   0.243   2.842  15.748  0.3031 -1.8529  0.9798
  599MPD2     N 8884   0.162   3.060  16.136  0.1355  0.3641  0.2359
  599MPD2    H5 8885   0.064   3.035  16.122  0.2675 -1.0112  1.7629
  599MPD2    N1 8886   0.604   2.913  15.981  0.2042  0.1468 -0.9348
  599MPD2    H7 8887   0.648   2.866  15.903 -0.1507 -0.1384 -0.9625
  600TMC3    C1 8888   0.086   3.198  16.317 -0.0858  0.4986 -0.5492
  600TMC3    C2 8889   0.006   3.102  16.376  0.1752  0.1563  0.2912
  600TMC3    C3 8890   4.659   3.145  16.481  0.7640  0.2685 -0.6324
  600TMC3    C4 8891   0.087   3.332  16.346 -0.8250  1.2169 -0.9572
  600TMC3    C5 8892   4.718   3.369  16.447  0.2031 -0.5556 -0.5164
  600TMC3    C6 8893   4.640   3.277  16.512 -0.0282  0.2251 -0.2807
  600TMC3     C 8894   0.199   3.151  16.226 -0.2014 -0.3342 -0.8030
  600TMC3     O 8895   0.313   3.201  16.237  0.0590  0.6891 -0.3871
  600TMC3     H 8896   0.020   2.999  16.344  1.2237  0.3668  0.0631
  600TMC3    H1 8897   0.167   3.400  16.317  1.5224 -1.3809 -0.5386
  600TMC3    H2 8898   4.560   3.320  16.570  0.2131 -0.8600  0.8375
  600TMC3    C7 8899   4.687   3.510  16.480  0.2243  0.4073 -0.4497
  600TMC3    C8 8900   4.575   3.047  16.547  0.3883 -0.2283  0.4259
  600TMC3    O1 8901   4.611   3.529  16.572  0.4802 -0.4630  0.0213
  600TMC3    O2 8902   4.629   2.969  16.621 -0.1147 -0.4749  0.4557
  601MPD2     C 8903   1.936   1.729   0.038  0.1344 -0.6226  0.2364
  601MPD2    C1 8904   1.827   1.647  17.691  0.4637  0.1114 -0.5490
  601MPD2    C2 8905   1.822   1.510   0.023  0.0800  0.5186  0.2530
  601MPD2    C3 8906   1.930   1.447   0.083 -0.2161 -0.0859  0.1792
  601MPD2    C4 8907   2.040   1.521   0.120 -0.2245 -0.3870 -0.2107
  601MPD2    C5 8908   2.044   1.657   0.088  0.1033 -1.1650  0.9500
  601MPD2     H 8909   1.731   1.462  17.683  0.1749  2.1835 -2.5163
  601MPD2    H1 8910   2.126   1.484   0.175 -0.9196 -0.7072  0.6727
  601MPD2    H2 8911   1.948   1.836   0.021 -0.7605 -0.8178 -1.6892
  601MPD2    H3 8912   2.123   1.719   0.128 -0.1699 -0.1803 -0.0481
  601MPD2     N 8913   1.926   1.307   0.115 -0.3691 -0.1524 -0.1765
  601MPD2    H5 8914   1.995   1.279   0.184  1.3280 -0.1933 -1.8708
  601MPD2    N1 8915   1.714   1.701  17.628  0.9950 -0.6027  0.0371
  601MPD2    H7 8916   1.645   1.637  17.590  2.4855 -1.6465 -0.9125
  602TMC3    C1 8917   1.548   1.865  17.571 -0.5138 -0.7572  0.1544
  602TMC3    C2 8918   1.493   1.986  17.602 -0.3423  0.3824  0.6444
  602TMC3    C3 8919   1.385   2.034  17.535  0.0260  0.4185  0.2408
  602TMC3    C4 8920   1.490   1.789  17.474 -0.0474 -0.8376  0.2740
  602TMC3    C5 8921   1.376   1.833  17.407 -0.0546  0.0341  0.5591
  602TMC3    C6 8922   1.325   1.963  17.439 -0.1154  0.2374  0.4048
  602TMC3     C 8923   1.688   1.835  17.617  0.2675  0.0893 -0.1366
  602TMC3     O 8924   1.737   1.932  17.679 -0.0777  0.0318 -0.0248
  602TMC3     H 8925   1.537   2.039  17.686  0.6875 -0.3247  0.5584
  602TMC3    H1 8926   1.536   1.701  17.430  0.6976  0.0560 -0.7088
  602TMC3    H2 8927   1.238   2.003  17.388  0.9188  1.1059 -0.6849
  602TMC3    C7 8928   1.345   1.770  17.284  0.6122 -0.4538  0.5143
  602TMC3    C8 8929   1.337   2.169  17.550  0.1760  0.5615 -0.7781
  602TMC3    O1 8930   1.380   1.653  17.262  0.4767 -0.0107 -0.1788
  602TMC3    O2 8931   1.310   2.205  17.661  0.2164 -0.0941 -0.2724
  603TMC3    C1 8932   0.737   1.939  11.050 -0.7520 -0.5101  0.0355
  603TMC3    C2 8933   0.776   1.949  11.178  0.1748  0.0625  0.7585
  603TMC3    C3 8934   0.746   2.062  11.247 -0.2706  0.4370  0.5386
  603TMC3    C4 8935   0.643   2.031  10.998 -0.1310  1.1497  0.6992
  603TMC3    C5 8936   0.610   2.140  11.077  0.6194 -0.3581 -0.0827
  603TMC3    C6 8937   0.681   2.166  11.194  0.7317  0.3777 -0.0363
  603TMC3     C 8938   0.764   1.824  10.962  0.2184 -0.0928  0.0982
  603TMC3     O 8939   0.709   1.839  10.855  0.2591 -0.1871  0.0088
  603TMC3     H 8940   0.823   1.862  11.220 -2.0167 -1.1127  0.7766
  603TMC3    H1 8941   0.601   2.024  10.898  1.1598  1.8603  0.1096
  603TMC3    H2 8942   0.632   2.238  11.258 -0.9461 -0.0356 -0.8653
  603TMC3    C7 8943   0.557   2.257  11.012  0.1886 -0.3090 -0.0679
  603TMC3    C8 8944   0.766   2.061  11.386 -0.4490  0.5787  0.2796
  603TMC3    O1 8945   0.615   2.360  11.039 -0.0346 -0.3519  0.1089
  603TMC3    O2 8946   0.757   1.956  11.444  0.5423 -0.1716 -0.2938
  604MPD2     C 8947   1.183   0.682  16.272 -0.1922  0.0202 -0.0857
  604MPD2    C1 8948   1.079   0.641  16.197  0.6316  0.1453 -0.7965
  604MPD2    C2 8949   1.107   0.578  16.084  0.4080  0.4832  0.7048
  604MPD2    C3 8950   1.240   0.533  16.060  0.3028  0.4526 -0.0031
  604MPD2    C4 8951   1.343   0.580  16.137  0.5815 -0.3164  0.2482
  604MPD2    C5 8952   1.315   0.662  16.237 -0.1011 -0.1240 -0.2595
  604MPD2     H 8953   1.033   0.541  16.015  2.8738 -1.3329 -0.9963
  604MPD2    H1 8954   1.450   0.562  16.128  0.6711  1.3294 -1.7911
  604MPD2    H2 8955   1.162   0.739  16.362  1.1923 -0.4893  0.5668
  604MPD2    H3 8956   1.395   0.690  16.304 -1.2425  2.4815  0.0353
  604MPD2     N 8957   1.265   0.441  15.963  0.3929 -0.8647  0.3755
  604MPD2    H5 8958   1.178   0.409  15.921  0.6772 -0.8099 -0.2631
  604MPD2    N1 8959   0.949   0.690  16.239  0.3994  0.0957  0.3886
  604MPD2    H7 8960   0.951   0.760  16.312 -3.3415  1.9868 -1.3313
  605TMC3    C1 8961   0.722   0.694  16.284 -0.5343 -0.6820  0.2001
  605TMC3    C2 8962   0.774   0.746  16.395 -1.0996  0.4842  0.1174
  605TMC3    C3 8963   0.746   0.873  16.436 -0.0831  0.3269  0.2582
  605TMC3    C4 8964   0.627   0.766  16.208  0.6350  0.5536 -0.3768
  605TMC3    C5 8965   0.587   0.884  16.267 -0.1144 -0.0256 -0.9532
  605TMC3    C6 8966   0.658   0.953  16.368  0.3508  0.3042  0.0092
  605TMC3     C 8967   0.829   0.638  16.201 -1.2905 -0.6211 -0.1408
  605TMC3     O 8968   0.793   0.547  16.127  0.9492 -0.2351 -0.2370
  605TMC3     H 8969   0.845   0.692  16.456 -0.5198  2.0314  0.8162
  605TMC3    H1 8970   0.584   0.727  16.117 -0.7798  1.2373  0.0125
  605TMC3    H2 8971   0.620   1.049  16.402 -0.9007 -0.1737 -0.0664
  605TMC3    C7 8972   0.480   0.956  16.199  0.0726  0.0490  0.4162
  605TMC3    C8 8973   0.851   0.938  16.513 -0.7117  0.7952  0.2097
  605TMC3    O1 8974   0.448   1.063  16.252  0.1309 -0.7082 -0.1080
  605TMC3    O2 8975   0.960   0.882  16.498 -0.0954 -0.3374  0.0894
  606TMC3    C1 8976   2.445   3.855  16.627 -0.4385  0.3050  0.0561
  606TMC3    C2 8977   2.483   3.931  16.731  0.1836  0.1271 -0.0641
  606TMC3    C3 8978   2.456   3.886  16.852 -0.0034  0.2584  0.0390
  606TMC3    C4 8979   2.385   3.735  16.641 -1.1459 -0.0201 -0.6551
  606TMC3    C5 8980   2.353   3.694  16.766 -0.7384  0.0237  0.1228
  606TMC3    C6 8981   2.376   3.774  16.873  0.0872 -0.1191  0.6152
  606TMC3     C 8982   2.429   3.923  16.500  0.4999 -0.2716 -0.2377
  606TMC3     O 8983   2.407   4.045  16.503 -0.7060  0.3947  0.1690
  606TMC3     H 8984   2.538   4.023  16.712 -0.4840  0.3067 -1.1764
  606TMC3    H1 8985   2.376   3.670  16.555  4.0269  0.6325 -1.6237
  606TMC3    H2 8986   2.350   3.740  16.972 -0.0692  0.7831  0.8865
  606TMC3    C7 8987   2.288   3.562  16.774  0.3971  0.4998 -0.5268
  606TMC3    C8 8988   2.497   3.948  16.976  0.0922  0.0171 -0.5679
  606TMC3    O1 8989   2.279   3.495  16.672  0.2453  0.0787  0.3467
  606TMC3    O2 8990   2.522   3.864  17.063  0.3689  0.3293 -0.2086
  607MPD2     C 8991   4.380   2.436  12.055 -0.0539 -0.0687 -0.4468
  607MPD2    C1 8992   4.483   2.505  12.113 -0.3504 -0.3420 -0.0475
  607MPD2    C2 8993   4.519   2.481  12.240 -0.2968  0.6906 -0.2521
  607MPD2    C3 8994   4.466   2.373  12.308  0.2802 -0.0901  0.3787
  607MPD2    C4 8995   4.366   2.296  12.252 -0.0355 -0.1786  0.1325
  607MPD2    C5 8996   4.324   2.327  12.121 -0.0154 -0.5399 -0.0523
  607MPD2     H 8997   4.595   2.537  12.294  1.6604  0.1576 -2.4336
  607MPD2    H1 8998   4.313   2.212  12.296 -0.9110  0.8025  0.9452
  607MPD2    H2 8999   4.335   2.444  11.957  1.8020 -0.1977 -1.3135
  607MPD2    H3 9000   4.249   2.269  12.067  0.7576 -1.3843 -0.2295
  607MPD2     N 9001   4.517   2.350  12.435  0.1797  0.6889  0.0755
  607MPD2    H5 9002   4.589   2.413  12.468  1.2860  0.1907 -1.4057
  607MPD2    N1 9003   4.554   2.606  12.050 -0.6010  0.0273  0.0044
  607MPD2    H7 9004   4.637   2.644  12.095 -0.2030 -1.2889  0.3783
  608TMC3    C1 9005   4.649   2.741  11.889 -0.2563  0.3914  0.2847
  608TMC3    C2 9006   4.714   2.812  11.983  0.2926  0.9926  0.1033
  608TMC3    C3 9007   0.117   2.861  11.951 -0.7596  0.0843  0.1863
  608TMC3    C4 9008   4.684   2.745  11.759  0.0293 -0.2904 -0.2757
  608TMC3    C5 9009   0.087   2.792  11.730  0.1256 -0.6344  0.0138
  608TMC3    C6 9010   0.161   2.865  11.824 -0.1422 -0.1113 -0.5362
  608TMC3     C 9011   4.543   2.640  11.918 -0.3011  0.1581  0.1872
  608TMC3     O 9012   4.483   2.590  11.822 -0.3192  0.0153 -0.0444
  608TMC3     H 9013   4.672   2.810  12.082 -0.8431  1.4562 -0.3674
  608TMC3    H1 9014   4.623   2.704  11.679 -2.4453  2.0646  0.4040
  608TMC3    H2 9015   0.255   2.913  11.798 -1.2655  1.6939 -1.2733
  608TMC3    C7 9016   0.145   2.752  11.601  0.6037  0.2696 -0.8516
  608TMC3    C8 9017   0.215   2.877  12.058 -0.3912  0.1805 -0.2048
  608TMC3    O1 9018   0.065   2.692  11.526  0.1606 -0.3480  0.2560
  608TMC3    O2 9019   0.320   2.926  12.024 -0.1401  0.6823  0.2018
  609TMC3    C1 9020   3.466   1.587   8.913  0.4112  0.4174 -0.2162
  609TMC3    C2 9021   3.471   1.671   8.811 -0.0104  0.1602  0.1231
  609TMC3    C3 9022   3.555   1.652   8.709  0.2184 -0.1735  0.2714
  609TMC3    C4 9023   3.551   1.480   8.919 -0.3563 -0.1555 -0.2407
  609TMC3    C5 9024   3.629   1.454   8.805  0.0160 -0.1387 -0.0485
  609TMC3    C6 9025   3.625   1.543   8.700 -0.1704 -0.2308  0.2461
  609TMC3     C 9026   3.352   1.593   9.004 -0.0270  0.0374  0.3704
  609TMC3     O 9027   3.339   1.491   9.071  0.3399 -0.1005 -0.6416
  609TMC3     H 9028   3.412   1.761   8.806 -0.1451 -0.0304 -2.0225
  609TMC3    H1 9029   3.550   1.413   9.004  0.3078 -0.2622 -0.3170
  609TMC3    H2 9030   3.691   1.517   8.619 -2.0741  1.0604 -1.7124
  609TMC3    C7 9031   3.744   1.369   8.809 -0.3508  0.6091  0.4032
  609TMC3    C8 9032   3.593   1.760   8.621 -0.1367 -0.5648  0.6948
  609TMC3    O1 9033   3.794   1.328   8.705  0.0733  0.3176 -0.0794
  609TMC3    O2 9034   3.683   1.729   8.549 -0.1422  0.0832  0.1011
  610TMC3    C1 9035   0.645   2.288  12.471 -0.3541  0.1761  0.5857
  610TMC3    C2 9036   0.777   2.320  12.460  0.1468  0.1210  0.6094
  610TMC3    C3 9037   0.874   2.248  12.527 -0.2408 -0.3022  0.0238
  610TMC3    C4 9038   0.608   2.175  12.543 -0.7808 -0.0754  0.0186
  610TMC3    C5 9039   0.709   2.101  12.604 -0.1147 -0.1080  0.3877
  610TMC3    C6 9040   0.845   2.138  12.604  0.0313 -0.7238  0.7853
  610TMC3     C 9041   0.565   2.346  12.373 -0.2518 -0.3256  0.5183
  610TMC3     O 9042   0.612   2.403  12.274 -0.3681 -0.5029  0.4898
  610TMC3     H 9043   0.798   2.403  12.394  0.3770 -0.8993 -0.6015
  610TMC3    H1 9044   0.511   2.128  12.529 -0.1812 -1.0210 -1.0194
  610TMC3    H2 9045   0.923   2.070  12.636 -0.4404 -0.3691  2.6449
  610TMC3    C7 9046   0.680   1.978  12.672  0.4353 -0.0486  0.3181
  610TMC3    C8 9047   1.014   2.293  12.512 -0.7253 -0.0536  0.5851
  610TMC3    O1 9048   0.768   1.892  12.687  0.4759  0.0976  0.2833
  610TMC3    O2 9049   1.029   2.395  12.437 -0.6199 -0.3472  0.0208
  611MPD2     C 9050   4.234   1.899  10.763  0.4553  0.3845  0.0378
  611MPD2    C1 9051   4.189   1.914  10.639 -0.1530 -0.6114  0.2393
  611MPD2    C2 9052   4.274   1.955  10.539  0.3291 -0.7943 -0.3725
  611MPD2    C3 9053   4.410   1.986  10.567  0.6535  0.0741  0.6467
  611MPD2    C4 9054   4.458   1.978  10.700 -0.4201  0.2897  0.4943
  611MPD2    C5 9055   4.369   1.925  10.783 -0.3494 -0.1059 -0.0779
  611MPD2     H 9056   4.233   1.973  10.440  0.2596  0.3042 -0.1470
  611MPD2    H1 9057   4.560   1.998  10.732 -0.2498  0.4674 -0.1552
  611MPD2    H2 9058   4.169   1.858  10.840 -0.9453  3.1293  0.2979
  611MPD2    H3 9059   4.399   1.915  10.887  2.2642  1.5050 -0.6793
  611MPD2     N 9060   4.499   2.033  10.476 -0.2553 -0.5540 -0.2380
  611MPD2    H5 9061   4.594   2.045  10.509 -0.3379  1.6064 -0.7705
  611MPD2    N1 9062   4.053   1.889  10.616 -0.2458  0.3674  0.1726
  611MPD2    H7 9063   3.997   1.859  10.696 -1.2817 -1.5555 -1.2877
  612TMC3    C1 9064   4.573   2.174  10.301  0.2898  0.0368  0.0457
  612TMC3    C2 9065   4.663   2.233  10.394  0.4129 -0.4395  0.9602
  612TMC3    C3 9066   0.043   2.308  10.346 -1.1130  0.1715  0.0305
  612TMC3    C4 9067   4.585   2.192  10.164  0.6446 -0.8014 -0.1454
  612TMC3    C5 9068   4.701   2.251  10.122 -0.3296  0.1004 -1.1609
  612TMC3    C6 9069   0.067   2.310  10.210  0.5889 -0.6865 -0.4843
  612TMC3     C 9070   4.475   2.069  10.344 -0.3046  0.5400 -0.3995
  612TMC3     O 9071   4.393   2.031  10.264  0.5760 -0.3206 -0.1770
  612TMC3     H 9072   4.641   2.229  10.500 -0.4587 -2.9094  0.6827
  612TMC3    H1 9073   4.538   2.128  10.091  1.7318  0.5451 -2.0528
  612TMC3    H2 9074   0.155   2.360  10.172  0.6504 -0.4507 -0.0205
  612TMC3    C7 9075   0.021   2.239   9.985  0.6204 -0.5320  0.0309
  612TMC3    C8 9076   0.135   2.385  10.423 -0.1426 -0.0903 -0.0523
  612TMC3    O1 9077   0.143   2.228   9.967  0.2026 -0.2386 -0.1357
  612TMC3    O2 9078   0.187   2.482  10.368 -0.3162  0.0751 -0.0094
  613MPD2     C 9079   3.250   0.002  16.680 -0.8605  0.0732  0.4359
  613MPD2    C1 9080   3.151   4.643  16.633 -0.2573 -0.6711  0.0086
  613MPD2    C2 9081   3.079   4.548  16.711 -0.3574 -0.0204  0.0664
  613MPD2    C3 9082   3.131   4.524  16.836 -0.0624 -0.2504 -0.2822
  613MPD2    C4 9083   3.229   4.609  16.884 -0.0337 -0.1009  0.1741
  613MPD2    C5 9084   3.284   4.709  16.809  1.1517  0.9557 -0.2095
  613MPD2     H 9085   3.003   4.480  16.674 -0.0159 -0.4501  0.1435
  613MPD2    H1 9086   3.275   4.586  16.979  0.0497  0.8045  0.3546
  613MPD2    H2 9087   3.297   0.084  16.626 -0.0265 -0.3466  0.5352
  613MPD2    H3 9088   3.369   0.045  16.843  1.5775  0.5428 -0.5676
  613MPD2     N 9089   3.112   4.398  16.903 -0.6347 -0.1912 -0.5034
  613MPD2    H5 9090   3.162   4.370  16.986  0.8517  1.7126 -0.7586
  613MPD2    N1 9091   3.117   4.649  16.493 -0.7718 -0.0426  0.7357
  613MPD2    H7 9092   3.177   4.696  16.426 -0.4201 -0.6481  0.6152
  614TMC3    C1 9093   3.016   4.578  16.297 -0.3262 -0.2217 -0.2941
  614TMC3    C2 9094   3.104   4.476  16.278  0.5376  0.0824  0.2397
  614TMC3    C3 9095   3.093   4.382  16.181  0.6593 -0.4098  0.1433
  614TMC3    C4 9096   2.907   4.574  16.222  0.0009  0.4386 -0.9929
  614TMC3    C5 9097   2.893   4.488  16.126 -1.1143  0.9551  0.3586
  614TMC3    C6 9098   2.990   4.395  16.096  0.1866  0.1311  0.5440
  614TMC3     C 9099   2.998   4.595  16.439 -0.4432  0.0647  0.2186
  614TMC3     O 9100   2.890   4.588  16.497  0.1120 -0.4198 -0.2671
  614TMC3     H 9101   3.174   4.464  16.360  1.0791 -0.3740 -0.2848
  614TMC3    H1 9102   2.825   4.639  16.251 -0.4063 -0.3254 -0.4498
  614TMC3    H2 9103   2.977   4.326  16.013  0.5649  1.3100 -0.4805
  614TMC3    C7 9104   2.832   4.553  16.011  0.3578  0.0765 -0.8276
  614TMC3    C8 9105   3.159   4.257  16.218  0.0594  0.5576 -0.3067
  614TMC3    O1 9106   2.794   4.665  16.030  0.2334  0.7059  0.1563
  614TMC3    O2 9107   3.264   4.274  16.279  0.1955 -0.4384 -0.0847
  615MPD2     C 9108   2.491   1.226  15.570  0.1536  0.1445  0.2244
  615MPD2    C1 9109   2.505   1.125  15.663 -0.5302  0.1443 -0.6057
  615MPD2    C2 9110   2.422   1.015  15.654  0.4685  0.0812 -0.1096
  615MPD2    C3 9111   2.338   1.000  15.544  0.2764  0.2111 -0.0124
  615MPD2    C4 9112   2.333   1.098  15.450 -0.4343  0.3067 -0.2658
  615MPD2    C5 9113   2.403   1.212  15.464  0.2353 -0.1453  0.0748
  615MPD2     H 9114   2.441   0.934  15.724  1.4514 -1.1198 -1.7607
  615MPD2    H1 9115   2.281   1.075  15.358  0.7359 -4.1074  0.1558
  615MPD2    H2 9116   2.544   1.319  15.584  0.3887 -0.0740  0.8005
  615MPD2    H3 9117   2.394   1.296  15.395 -1.3060 -0.8459 -0.5796
  615MPD2     N 9118   2.261   0.885  15.524 -0.5854 -0.3270  0.1368
  615MPD2    H5 9119   2.212   0.870  15.436  0.0892  0.0238 -0.2967
  615MPD2    N1 9120   2.595   1.131  15.771 -0.3913 -0.1481  0.3824
  615MPD2    H7 9121   2.585   1.068  15.849 -0.6406 -1.8006 -0.9842
  616TMC3    C1 9122   2.784   1.203  15.882  0.9067 -0.1106 -0.3215
  616TMC3    C2 9123   2.910   1.251  15.875  0.6761 -0.1825 -0.5765
  616TMC3    C3 9124   2.987   1.237  15.985 -0.7386 -0.3101  0.1909
  616TMC3    C4 9125   2.722   1.174  16.003  0.2907  0.0776  0.3294
  616TMC3    C5 9126   2.797   1.177  16.111  0.4761  0.3451 -0.3590
  616TMC3    C6 9127   2.930   1.205  16.103 -0.3888 -0.3492  0.3099
  616TMC3     C 9128   2.703   1.219  15.771 -0.6686  0.3235  0.5457
  616TMC3     O 9129   2.748   1.276  15.672  0.0127  0.4996 -0.4999
  616TMC3     H 9130   2.947   1.290  15.781 -0.4048 -0.7409 -1.2470
  616TMC3    H1 9131   2.620   1.139  16.005  0.0823  0.8962  3.5305
  616TMC3    H2 9132   2.998   1.187  16.186  0.6598 -0.6627 -0.6079
  616TMC3    C7 9133   2.724   1.214  16.229 -0.0476  0.2683  0.1523
  616TMC3    C8 9134   3.123   1.294  15.998 -0.4337  0.7268  0.0567
  616TMC3    O1 9135   2.601   1.206  16.218  0.2419  0.2754 -0.0076
  616TMC3    O2 9136   3.206   1.211  16.030  0.5244  0.2339 -0.1665
  617MPD2     C 9137   1.165   4.090  13.904 -0.4095 -0.2099  0.0214
  617MPD2    C1 9138   1.172   4.006  14.012 -0.3124 -0.3293 -0.0130
  617MPD2    C2 9139   1.065   3.934  14.048 -0.0696 -0.0676  0.0348
  617MPD2    C3 9140   0.948   3.933  13.966  0.3432 -0.3394  0.4743
  617MPD2    C4 9141   0.951   4.018  13.857 -0.0956 -0.5319 -0.3886
  617MPD2    C5 9142   1.056   4.097  13.814  0.8673  0.2379  0.7541
  617MPD2     H 9143   1.061   3.876  14.139 -2.1293 -2.5699 -1.6457
  617MPD2    H1 9144   0.860   4.016  13.798  1.1562 -1.4028 -2.3187
  617MPD2    H2 9145   1.250   4.151  13.878  0.4827 -2.0830 -1.4959
  617MPD2    H3 9146   1.052   4.164  13.729 -0.1776 -1.5487 -0.5905
  617MPD2     N 9147   0.828   3.866  13.989  0.3198 -0.2559 -0.2458
  617MPD2    H5 9148   0.752   3.892  13.927  0.3690 -1.0051 -0.6174
  617MPD2    N1 9149   1.294   3.996  14.077  0.8187 -0.6209 -0.2149
  617MPD2    H7 9150   1.375   4.031  14.028  1.5435 -0.6744  0.9339
  618TMC3    C1 9151   1.435   3.856  14.190 -0.2279  0.9210 -0.0339
  618TMC3    C2 9152   1.463   3.789  14.077  0.5934  0.3573 -0.4314
  618TMC3    C3 9153   1.602   3.780  14.050 -0.1611 -0.4436  0.0498
  618TMC3    C4 9154   1.522   3.891  14.290 -0.8336 -0.5819  0.3249
  618TMC3    C5 9155   1.652   3.885  14.251  0.0606 -0.6608  0.3213
  618TMC3    C6 9156   1.697   3.818  14.139 -0.0342  0.2649 -0.1738
  618TMC3     C 9157   1.313   3.925  14.188  0.1992 -0.0947 -0.7911
  618TMC3     O 9158   1.240   3.902  14.283 -0.4787  0.0879  0.3397
  618TMC3     H 9159   1.392   3.758  14.001 -1.6632  2.8001  0.6889
  618TMC3    H1 9160   1.493   3.937  14.383  0.7587 -0.6560  0.8450
  618TMC3    H2 9161   1.801   3.818  14.108  0.6224  2.1076  2.0112
  618TMC3    C7 9162   1.752   3.935  14.345 -0.2088 -0.2278  0.8231
  618TMC3    C8 9163   1.630   3.759  13.910  0.3976 -0.2880  0.5414
  618TMC3    O1 9164   1.739   3.882  14.454  0.1783 -0.1632 -0.2027
  618TMC3    O2 9165   1.535   3.768  13.833 -0.2051 -0.1425  0.7932
  619MPD2     C 9166   2.106   0.158  14.052 -0.0218 -0.6458 -0.2047
  619MPD2    C1 9167   2.145   0.144  13.919 -0.9093 -0.1464 -0.6719
  619MPD2    C2 9168   2.051   0.153  13.823 -0.2406 -0.2766  0.3440
  619MPD2    C3 9169   1.920   0.181  13.857 -0.0800  0.7405 -0.0927
  619MPD2    C4 9170   1.886   0.208  13.992 -0.5614 -0.2433  0.9617
  619MPD2    C5 9171   1.984   0.198  14.085  0.7795  0.2644 -0.3106
  619MPD2     H 9172   2.086   0.142  13.721  0.5451 -0.0099  0.5842
  619MPD2    H1 9173   1.791   0.249  14.027 -0.9335  0.1549 -0.5459
  619MPD2    H2 9174   2.178   0.145  14.132 -1.4881 -0.5314  1.1403
  619MPD2    H3 9175   1.952   0.213  14.187  0.5473  1.4681 -0.5519
  619MPD2     N 9176   1.817   0.204  13.761 -0.2035 -0.3994 -0.0383
  619MPD2    H5 9177   1.732   0.246  13.798 -1.3819 -2.4242 -0.4646
  619MPD2    N1 9178   2.275   0.115  13.873 -0.8500 -0.5102 -0.4927
  619MPD2    H7 9179   2.309   0.123  13.777 -0.9475 -0.9060 -0.5617
  620TMC3    C1 9180   2.500   0.092  13.870 -0.4635  0.2739  0.6695
  620TMC3    C2 9181   2.488   0.102  13.730 -0.3045 -0.8485  0.3495
  620TMC3    C3 9182   2.574   0.189  13.664  0.3451  0.7768 -0.0895
  620TMC3    C4 9183   2.607   0.156  13.931  0.0831 -0.2815 -0.4235
  620TMC3    C5 9184   2.695   0.235  13.854  0.2381 -0.4066  0.4597
  620TMC3    C6 9185   2.690   0.235  13.722 -0.2556  0.7924  0.9335
  620TMC3     C 9186   2.384   0.097  13.955  0.3105  0.5119  0.4453
  620TMC3     O 9187   2.397   0.071  14.077  0.4694 -0.0593  0.2628
  620TMC3     H 9188   2.422   0.034  13.677 -2.8982 -0.6716  3.3139
  620TMC3    H1 9189   2.606   0.167  14.038 -3.9075 -1.1415 -0.3881
  620TMC3    H2 9190   2.758   0.299  13.666  0.1040  1.0285  1.6470
  620TMC3    C7 9191   2.724   0.357  13.918  0.4458  0.1212 -0.0561
  620TMC3    C8 9192   2.518   0.280  13.570 -0.2234 -0.3387  0.7222
  620TMC3    O1 9193   2.792   0.360  14.019  0.2934 -0.1825  0.0674
  620TMC3    O2 9194   2.563   0.391  13.585 -0.2486 -0.3753 -0.3220
  621MPD2     C 9195   3.210   0.870   9.353 -0.5023  0.3145  0.7686
  621MPD2    C1 9196   3.259   0.872   9.480 -0.4419  0.0485 -0.0154
  621MPD2    C2 9197   3.335   0.980   9.523 -0.0692  0.1510 -0.1820
  621MPD2    C3 9198   3.366   1.080   9.436  0.3610  0.2086  0.2456
  621MPD2    C4 9199   3.317   1.082   9.300  0.2727  0.9600  0.3528
  621MPD2    C5 9200   3.236   0.980   9.267  0.0214 -0.0880 -0.4336
  621MPD2     H 9201   3.375   0.979   9.624  0.0037  0.1430 -0.2105
  621MPD2    H1 9202   3.350   1.163   9.237 -0.4329 -0.5947 -2.0321
  621MPD2    H2 9203   3.146   0.792   9.316 -1.5297  1.3217  0.4214
  621MPD2    H3 9204   3.199   0.977   9.165 -2.6455  1.9136  0.4948
  621MPD2     N 9205   3.449   1.187   9.484  0.1714  0.1889 -0.7051
  621MPD2    H5 9206   3.445   1.273   9.429 -0.6259 -0.4170 -1.5947
  621MPD2    N1 9207   3.238   0.767   9.574  0.0039  0.1497  0.4468
  621MPD2    H7 9208   3.279   0.778   9.666  1.2421 -0.0152 -0.0984
  622TMC3    C1 9209   3.187   0.540   9.654 -0.3889 -0.6006  0.1610
  622TMC3    C2 9210   3.213   0.584   9.785 -0.1185 -0.6387 -0.2454
  622TMC3    C3 9211   3.232   0.498   9.885 -0.3508 -1.1699  0.5092
  622TMC3    C4 9212   3.162   0.409   9.633 -0.1982  0.1239  0.1090
  622TMC3    C5 9213   3.169   0.321   9.737 -0.8885  0.5293  0.4855
  622TMC3    C6 9214   3.219   0.364   9.857 -0.7133  0.2106 -0.1183
  622TMC3     C 9215   3.183   0.640   9.543  0.4855  0.6509 -0.0620
  622TMC3     O 9216   3.119   0.608   9.443 -0.2199 -0.6333  0.0512
  622TMC3     H 9217   3.235   0.685   9.817  0.9266 -1.5244  1.8384
  622TMC3    H1 9218   3.164   0.377   9.529 -2.8900 -3.5055  1.1890
  622TMC3    H2 9219   3.239   0.292   9.936 -1.2502 -2.2409 -2.2414
  622TMC3    C7 9220   3.118   0.188   9.724  0.1829  0.1660  0.0484
  622TMC3    C8 9221   3.183   0.548  10.009  0.3666  0.5335 -0.2164
  622TMC3    O1 9222   3.125   0.113   9.819  0.4801 -0.0523 -0.2692
  622TMC3    O2 9223   3.122   0.654   9.997  0.4058  0.2303 -1.0448
  623MPD2     C 9224   0.982   0.933  15.901 -0.5317  0.3765  0.6360
  623MPD2    C1 9225   0.943   1.008  16.013 -0.6587 -0.4228  0.2491
  623MPD2    C2 9226   1.040   1.038  16.108 -0.4740 -0.2336  0.2770
  623MPD2    C3 9227   1.174   1.024  16.075  0.2751 -0.3767  0.8260
  623MPD2    C4 9228   1.212   0.961  15.957  0.1104 -0.0457  0.6660
  623MPD2    C5 9229   1.115   0.906  15.872 -0.7488 -0.2868 -0.4140
  623MPD2     H 9230   1.007   1.080  16.202 -1.5525 -2.4901  0.9107
  623MPD2    H1 9231   1.317   0.941  15.940  0.2257 -0.2932  1.6572
  623MPD2    H2 9232   0.919   0.902  15.819  0.0562  2.1020 -0.4672
  623MPD2    H3 9233   1.143   0.851  15.783  0.5071  0.5824 -0.5446
  623MPD2     N 9234   1.266   1.048  16.174  0.3928  0.1008  0.2357
  623MPD2    H5 9235   1.231   1.068  16.267 -0.9880 -0.7377 -0.1000
  623MPD2    N1 9236   0.813   1.068  16.036 -0.3801  0.7480  0.2178
  623MPD2    H7 9237   0.806   1.136  16.111  0.1389 -1.4402  2.2561
  624TMC3    C1 9238   1.608   1.249  16.393 -0.3769  0.3492 -1.0966
  624TMC3    C2 9239   1.537   1.225  16.510  0.0302 -0.0780  0.3076
  624TMC3    C3 9240   1.442   1.124  16.496 -0.4185 -0.1828 -0.4684
  624TMC3    C4 9241   1.573   1.198  16.265  0.6212 -0.7208 -0.2572
  624TMC3    C5 9242   1.471   1.103  16.265 -0.0611 -0.1352  0.6116
  624TMC3    C6 9243   1.412   1.057  16.385 -0.2216  0.0438 -0.3017
  624TMC3     C 9244   1.739   1.315  16.409 -1.0146 -0.4648 -0.2046
  624TMC3     O 9245   1.753   1.374  16.517  0.2832 -0.0345  0.3392
  624TMC3     H 9246   1.549   1.288  16.597  3.8257  0.1798 -0.4391
  624TMC3    H1 9247   1.626   1.227  16.174 -2.0322 -0.2166 -1.6434
  624TMC3    H2 9248   1.351   0.968  16.391 -0.5823  0.2954 -0.1615
  624TMC3    C7 9249   1.397   1.074  16.146 -0.9318  0.4028  0.0469
  624TMC3    C8 9250   1.352   1.112  16.601  0.3051 -0.4947 -0.0986
  624TMC3    O1 9251   1.446   1.098  16.037  0.2305  0.4861  0.4772
  624TMC3    O2 9252   1.306   1.002  16.629  0.1121  0.3801 -0.1264
  625MPD2     C 9253   1.608   2.047   0.667 -0.5775 -0.3764  0.3977
  625MPD2    C1 9254   1.692   2.127   0.737  0.3586  1.1370 -0.7858
  625MPD2    C2 9255   1.809   2.077   0.793  0.9366  0.0486  0.9425
  625MPD2    C3 9256   1.824   1.941   0.800 -0.2719  0.0728 -0.4256
  625MPD2    C4 9257   1.726   1.860   0.746 -0.7289  0.4199  0.3196
  625MPD2    C5 9258   1.619   1.914   0.676 -0.5906 -0.2506 -0.1308
  625MPD2     H 9259   1.879   2.146   0.838  1.0268  0.9051 -0.5076
  625MPD2    H1 9260   1.737   1.752   0.739 -0.2819  0.3094  2.6974
  625MPD2    H2 9261   1.515   2.089   0.629  0.6282  1.3374 -0.6899
  625MPD2    H3 9262   1.552   1.844   0.628  1.6305 -1.5947 -1.3137
  625MPD2     N 9263   1.946   1.891   0.862  0.0666  0.2307 -0.1679
  625MPD2    H5 9264   2.013   1.964   0.883 -0.3945  0.9264 -1.0998
  625MPD2    N1 9265   1.667   2.262   0.745  0.1359  0.5712  0.1292
  625MPD2    H7 9266   1.721   2.309   0.817  0.2911 -2.4235  1.9590
  626TMC3    C1 9267   1.578   2.469   0.711 -0.1308 -0.3776 -0.3035
  626TMC3    C2 9268   1.556   2.571   0.621 -0.3867  0.1660  0.4404
  626TMC3    C3 9269   1.533   2.701   0.658  0.4318  0.5444  0.4735
  626TMC3    C4 9270   1.584   2.504   0.846 -0.5686  0.9748 -0.1892
  626TMC3    C5 9271   1.569   2.635   0.880 -1.2275 -0.3855 -0.4009
  626TMC3    C6 9272   1.539   2.740   0.792  0.1299 -0.0260 -0.5448
  626TMC3     C 9273   1.583   2.335   0.660 -0.3898  0.7034  0.2862
  626TMC3     O 9274   1.531   2.311   0.554  0.5037  1.1560  0.2184
  626TMC3     H 9275   1.550   2.540   0.517  1.5724 -0.9369  0.6733
  626TMC3    H1 9276   1.586   2.429   0.925  1.2190  2.7050  1.4260
  626TMC3    H2 9277   1.519   2.841   0.825  0.5634 -0.6778  1.6746
  626TMC3    C7 9278   1.535   2.662   1.019  0.6693 -0.6519  0.1508
  626TMC3    C8 9279   1.446   2.785   0.583 -1.3454 -0.6854  0.0770
  626TMC3    O1 9280   1.593   2.595   1.102  0.5415 -0.1323  0.5694
  626TMC3    O2 9281   1.365   2.851   0.652 -0.3028  0.0707 -0.2775
  627MPD2     C 9282   0.903   2.528  14.223 -0.2654  0.8726  0.3470
  627MPD2    C1 9283   0.828   2.502  14.336 -0.7446  1.1265  0.0982
  627MPD2    C2 9284   0.729   2.409  14.346 -0.2441 -0.3727  0.9425
  627MPD2    C3 9285   0.711   2.333  14.231  0.4817 -0.0799 -0.5143
  627MPD2    C4 9286   0.784   2.358  14.112  0.1446  1.0510 -0.3700
  627MPD2    C5 9287   0.881   2.457  14.108  0.0792  0.4578 -0.7266
  627MPD2     H 9288   0.666   2.391  14.432 -1.9572  1.7694  0.1615
  627MPD2    H1 9289   0.762   2.300  14.023  3.0131 -0.6836  0.0777
  627MPD2    H2 9290   0.977   2.607  14.222 -0.7250  1.3108  1.8082
  627MPD2    H3 9291   0.943   2.475  14.022  2.3876 -2.4915  0.3489
  627MPD2     N 9292   0.607   2.245  14.238  0.3150  0.2613  0.1105
  627MPD2    H5 9293   0.567   2.224  14.329 -0.3585  1.0676 -0.0063
  627MPD2    N1 9294   0.855   2.580  14.453  0.3014 -0.1635  0.5967
  627MPD2    H7 9295   0.811   2.550  14.540  0.0954  0.2781  0.6424
  628TMC3    C1 9296   0.942   2.753  14.587 -0.0254  0.1353 -0.1623
  628TMC3    C2 9297   0.934   2.653  14.690 -0.9982 -0.3734  0.1725
  628TMC3    C3 9298   0.911   2.695  14.815 -0.1223  0.4999  1.0357
  628TMC3    C4 9299   0.909   2.887  14.617 -1.0118 -0.3707 -0.7082
  628TMC3    C5 9300   0.877   2.921  14.745  0.0556 -0.3682  0.1261
  628TMC3    C6 9301   0.879   2.824  14.845  1.1549  0.6976  0.8562
  628TMC3     C 9302   0.912   2.703  14.446  0.1027 -0.3772  0.0831
  628TMC3     O 9303   0.920   2.788  14.360  0.1554  0.3115 -0.3069
  628TMC3     H 9304   0.943   2.548  14.665  0.3362 -0.1951 -0.0737
  628TMC3    H1 9305   0.903   2.953  14.531 -2.1515  0.6233  0.1333
  628TMC3    H2 9306   0.876   2.852  14.949 -0.7389  0.3088  0.9012
  628TMC3    C7 9307   0.833   3.059  14.774 -0.1873 -0.3923 -0.0051
  628TMC3    C8 9308   0.871   2.601  14.917 -0.2253  1.1112 -0.0300
  628TMC3    O1 9309   0.838   3.085  14.893  0.3793  0.1528 -0.1343
  628TMC3    O2 9310   0.799   2.627  15.011 -0.1953  0.4389  0.1303
  629MPD2     C 9311   3.479   1.659  15.984  0.4861  0.6209  0.5543
  629MPD2    C1 9312   3.469   1.556  16.075  0.3849  0.6417  0.0126
  629MPD2    C2 9313   3.359   1.470  16.065  0.7603 -0.4434 -0.1098
  629MPD2    C3 9314   3.265   1.488  15.957 -0.3092 -0.4496  0.5426
  629MPD2    C4 9315   3.273   1.606  15.884  0.1391  0.4762 -0.6465
  629MPD2    C5 9316   3.382   1.682  15.892  0.1889 -0.0386 -0.1208
  629MPD2     H 9317   3.346   1.385  16.130 -4.1398  0.3889 -0.0289
  629MPD2    H1 9318   3.210   1.624  15.797  0.1167  1.8270 -0.3524
  629MPD2    H2 9319   3.572   1.714  15.975  0.1173  1.0419 -0.6200
  629MPD2    H3 9320   3.388   1.779  15.844  0.2013 -0.1406 -0.3258
  629MPD2     N 9321   3.147   1.411  15.927  0.3598  0.5673 -0.4157
  629MPD2    H5 9322   3.076   1.448  15.865 -0.6989 -2.8183 -1.2496
  629MPD2    N1 9323   3.576   1.524  16.154 -0.0431  0.4925  0.4129
  629MPD2    H7 9324   3.666   1.571  16.145 -0.2833  0.7842 -0.4575
  630TMC3    C1 9325   3.723   1.411  16.304 -0.0254  0.6555  0.4103
  630TMC3    C2 9326   3.795   1.531  16.327  0.9645  0.1446  0.0399
  630TMC3    C3 9327   3.908   1.519  16.406 -0.2064 -1.3475  0.1131
  630TMC3    C4 9328   3.767   1.291  16.354 -0.3984 -0.2767  0.0555
  630TMC3    C5 9329   3.880   1.294  16.432 -0.5808 -0.2660  0.5729
  630TMC3    C6 9330   3.951   1.407  16.462 -0.3642 -0.5238  0.3146
  630TMC3     C 9331   3.598   1.412  16.234  0.2376 -0.3571 -0.2089
  630TMC3     O 9332   3.531   1.312  16.242  0.3700  0.0896  0.1315
  630TMC3     H 9333   3.760   1.622  16.278 -0.9052 -1.1103 -0.9760
  630TMC3    H1 9334   3.715   1.205  16.312 -1.6344  0.2659  0.4643
  630TMC3    H2 9335   4.045   1.402  16.516 -1.3226  3.6117  2.3648
  630TMC3    C7 9336   3.955   1.166  16.449  0.1956 -0.4846  0.4183
  630TMC3    C8 9337   3.998   1.636  16.400  0.1174 -0.0523  0.0943
  630TMC3    O1 9338   4.073   1.173  16.491  0.1438  0.3387  0.8329
  630TMC3    O2 9339   4.070   1.653  16.500  0.1697 -0.1536 -0.2316
  631MPD2     C 9340   1.440   0.873  15.706  0.7724  0.6216 -0.6823
  631MPD2    C1 9341   1.511   0.901  15.587  0.4120 -0.0891  0.0376
  631MPD2    C2 9342   1.618   0.823  15.551  0.0971 -0.6335  0.1120
  631MPD2    C3 9343   1.654   0.711  15.620 -0.2346  0.3894  0.3459
  631MPD2    C4 9344   1.591   0.682  15.745 -0.3278 -0.3778  0.3220
  631MPD2    C5 9345   1.491   0.773  15.788  0.4732 -0.7654  0.7654
  631MPD2     H 9346   1.671   0.834  15.457 -0.0405 -0.8419  0.0102
  631MPD2    H1 9347   1.615   0.591  15.799 -2.1764  0.3023  2.2458
  631MPD2    H2 9348   1.360   0.939  15.739 -0.2175  0.2234 -2.3099
  631MPD2    H3 9349   1.450   0.760  15.888 -1.5441  1.9655  0.2765
  631MPD2     N 9350   1.762   0.646  15.570  0.0878 -0.2786 -0.2984
  631MPD2    H5 9351   1.802   0.691  15.488 -0.9276 -0.0828 -0.6865
  631MPD2    N1 9352   1.469   1.024  15.526 -0.3550  0.0993 -0.4422
  631MPD2    H7 9353   1.393   1.078  15.566 -0.9723 -1.3623  0.3927
  632TMC3    C1 9354   1.499   1.219  15.401  0.3277 -0.7507  0.5555
  632TMC3    C2 9355   1.373   1.269  15.428  0.0592  0.9039  0.2774
  632TMC3    C3 9356   1.341   1.395  15.369 -0.4244 -0.2719 -0.0797
  632TMC3    C4 9357   1.587   1.290  15.328  0.1069 -0.0649 -0.1911
  632TMC3    C5 9358   1.550   1.415  15.286 -0.0871  0.4451 -0.1774
  632TMC3    C6 9359   1.434   1.478  15.307 -0.1960 -0.0871 -0.9391
  632TMC3     C 9360   1.534   1.077  15.417  0.1428  0.0032 -0.6495
  632TMC3     O 9361   1.623   1.024  15.353 -0.2792 -0.1177  0.6010
  632TMC3     H 9362   1.297   1.200  15.464  1.1887 -1.3400 -1.6356
  632TMC3    H1 9363   1.686   1.250  15.310  0.2702  0.5096 -0.5874
  632TMC3    H2 9364   1.413   1.577  15.269  1.4655  0.8668  0.6210
  632TMC3    C7 9365   1.648   1.492  15.214 -0.3332  0.1646 -0.4626
  632TMC3    C8 9366   1.209   1.442  15.395  0.1846  0.2096 -0.0044
  632TMC3    O1 9367   1.617   1.573  15.127 -0.8355  0.3577 -0.2804
  632TMC3    O2 9368   1.158   1.411  15.500  0.2324  0.2460 -0.1152
  633MPD2     C 9369   1.479   4.026  17.437  0.4313 -0.7539 -0.0926
  633MPD2    C1 9370   1.548   3.952  17.341  0.1893 -0.4315 -0.6367
  633MPD2    C2 9371   1.579   3.822  17.371 -0.3168 -0.2276 -0.1914
  633MPD2    C3 9372   1.538   3.755  17.484  0.2535 -0.3544 -0.1981
  633MPD2    C4 9373   1.446   3.825  17.562  0.2845 -0.3067 -0.2957
  633MPD2    C5 9374   1.419   3.958  17.535 -0.3258  0.4161  0.3696
  633MPD2     H 9375   1.632   3.767  17.295 -0.8589 -1.6926  0.4998
  633MPD2    H1 9376   1.399   3.772  17.644  1.4551 -0.9428 -0.0414
  633MPD2    H2 9377   1.467   4.133  17.428  1.2572 -0.8766 -2.9085
  633MPD2    H3 9378   1.345   4.013  17.593 -1.9694 -2.5637  1.0768
  633MPD2     N 9379   1.575   3.618  17.519 -0.2586  0.4683 -0.0068
  633MPD2    H5 9380   1.546   3.569  17.603 -1.8532  1.3437 -0.0569
  633MPD2    N1 9381   1.598   4.008  17.222  0.1737  0.0065 -0.2895
  633MPD2    H7 9382   1.665   3.952  17.171 -0.5059 -1.8274  0.8251
  634TMC3    C1 9383   1.622   4.157  17.042  0.0120  0.2351  0.3171
  634TMC3    C2 9384   1.669   4.050  16.966 -0.0559 -1.1183  0.5637
  634TMC3    C3 9385   1.692   4.074  16.832 -0.3313  0.9886 -0.8591
  634TMC3    C4 9386   1.591   4.277  16.984 -0.4652 -0.5947 -0.6267
  634TMC3    C5 9387   1.617   4.299  16.853  0.8201 -0.6421 -0.6597
  634TMC3    C6 9388   1.669   4.200  16.776 -0.4910  0.4048  0.4139
  634TMC3     C 9389   1.567   4.131  17.173 -0.1963 -0.1306 -0.5874
  634TMC3     O 9390   1.494   4.218  17.212  0.8994  0.3033 -0.6092
  634TMC3     H 9391   1.684   3.950  17.005 -0.8113 -0.8702  1.4846
  634TMC3    H1 9392   1.562   4.358  17.050  0.6589  0.1530 -1.0583
  634TMC3    H2 9393   1.701   4.222  16.675  0.6037 -1.6894  0.3212
  634TMC3    C7 9394   1.566   4.418  16.774 -0.3427 -0.5474 -0.3802
  634TMC3    C8 9395   1.671   3.961  16.744  1.0527 -0.0528 -0.0498
  634TMC3    O1 9396   1.592   4.415  16.655  0.6249  0.4540 -0.4357
  634TMC3    O2 9397   1.632   3.861  16.802 -0.1327 -0.8918 -0.4282
  635TMC3    C1 9398   1.724   0.093  17.503  0.3517  0.8430 -0.8908
  635TMC3    C2 9399   1.836   0.051  17.434 -1.0042  0.9045  0.0007
  635TMC3    C3 9400   1.875   4.637  17.455  0.2364  0.2702 -0.2896
  635TMC3    C4 9401   1.647   0.016  17.580  0.9163 -0.4774  0.1059
  635TMC3    C5 9402   1.684   4.612  17.596 -0.7172 -0.3044 -0.1178
  635TMC3    C6 9403   1.800   4.562  17.537  0.6433 -0.2153 -0.7492
  635TMC3     C 9404   1.707   0.230  17.513  0.0477  0.4928  0.6976
  635TMC3     O 9405   1.646   0.281  17.605  0.2663  0.5314 -0.5078
  635TMC3     H 9406   1.908   0.115  17.384 -0.5701  0.5842  0.2201
  635TMC3    H1 9407   1.561   0.061  17.628  3.0309  2.3596  1.2163
  635TMC3    H2 9408   1.843   4.470  17.575 -0.2151 -0.4288 -0.2912
  635TMC3    C7 9409   1.610   4.537   0.004 -0.3987  0.2672 -0.2336
  635TMC3    C8 9410   1.992   4.590  17.393 -0.4993  0.1211  0.5512
  635TMC3    O1 9411   1.561   4.608   0.090 -0.4683  0.3401 -0.0944
  635TMC3    O2 9412   2.055   4.654  17.309  0.2118  0.4555 -0.6803
  636MPD2     C 9413   2.704   4.173  16.312 -0.0734 -0.5509 -0.5978
  636MPD2    C1 9414   2.703   4.263  16.410  0.5984  0.1071 -0.0640
  636MPD2    C2 9415   2.725   4.233  16.541  0.0302  0.1192 -0.0230
  636MPD2    C3 9416   2.747   4.106  16.579 -0.0788  0.4147 -0.3109
  636MPD2    C4 9417   2.756   4.012  16.478 -0.2731  0.0365 -0.2645
  636MPD2    C5 9418   2.737   4.041  16.348 -0.9529  0.0076 -0.6450
  636MPD2     H 9419   2.719   4.318  16.608  1.8255 -2.4196  3.3074
  636MPD2    H1 9420   2.783   3.909  16.499  2.7664  0.7248 -0.8046
  636MPD2    H2 9421   2.674   4.192  16.210  2.2665  3.1365 -0.6168
  636MPD2    H3 9422   2.750   3.960  16.277  0.4809 -0.7822  0.4955
  636MPD2     N 9423   2.792   4.086  16.714  0.3194 -0.4172 -0.5423
  636MPD2    H5 9424   2.823   4.167  16.766  0.0414 -1.5961  1.4590
  636MPD2    N1 9425   2.650   4.391  16.394 -0.2187  0.4157  0.3858
  636MPD2    H7 9426   2.643   4.443  16.481 -0.8910 -1.4243  1.4311
  637TMC3    C1 9427   2.936   3.985  16.872  0.1882  0.2467 -0.8231
  637TMC3    C2 9428   2.932   4.106  16.932 -0.5227 -0.0787  0.8025
  637TMC3    C3 9429   3.045   4.180  16.932  0.3310  0.1365  0.2208
  637TMC3    C4 9430   3.053   3.924  16.824  0.2111  0.2786 -0.1035
  637TMC3    C5 9431   3.166   4.004  16.813  0.3205 -0.3010 -0.2398
  637TMC3    C6 9432   3.163   4.128  16.870  0.4850 -0.2289  0.6910
  637TMC3     C 9433   2.838   3.966  16.761  0.0868  0.1203  0.0213
  637TMC3     O 9434   2.829   3.852  16.712  0.1455 -0.0993 -0.1920
  637TMC3     H 9435   2.840   4.147  16.970 -1.3578  0.7500 -2.1296
  637TMC3    H1 9436   3.042   3.827  16.777 -0.7230  0.3708 -0.0674
  637TMC3    H2 9437   3.240   4.199  16.843  0.9285 -1.3702 -1.0818
  637TMC3    C7 9438   3.209   4.012  16.672  0.3073  0.6114  0.5661
  637TMC3    C8 9439   3.008   4.308  16.880  0.3055  0.3004 -0.0821
  637TMC3    O1 9440   3.254   4.117  16.632  0.0311  0.7371 -0.2175
  637TMC3    O2 9441   2.899   4.322  16.825 -0.2186  0.3027 -0.6830
  638MPD2     C 9442   2.898   3.425  14.955 -0.8001  0.1232 -0.2593
  638MPD2    C1 9443   2.789   3.375  14.894  0.0448 -0.4960 -0.0971
  638MPD2    C2 9444   2.737   3.253  14.937  0.1590 -0.0508 -0.7668
  638MPD2    C3 9445   2.790   3.189  15.042  0.0832  0.3350  0.4164
  638MPD2    C4 9446   2.896   3.253  15.109  0.3499 -0.1415 -0.6312
  638MPD2    C5 9447   2.949   3.369  15.065 -0.4138 -0.3575  0.1319
  638MPD2     H 9448   2.650   3.219  14.881  0.3114  0.5183 -1.3581
  638MPD2    H1 9449   2.939   3.208  15.198 -0.1413  0.5957 -0.0267
  638MPD2    H2 9450   2.958   3.508  14.921  1.0331 -0.4294  1.6473
  638MPD2    H3 9451   3.037   3.410  15.111  0.0381  0.3446 -1.3539
  638MPD2     N 9452   2.739   3.062  15.072 -0.3151 -0.0023  0.1128
  638MPD2    H5 9453   2.679   3.022  15.000  0.5037  0.1339 -0.6580
  638MPD2    N1 9454   2.741   3.452  14.776 -0.2097  0.0062 -0.3934
  638MPD2    H7 9455   2.810   3.522  14.750  1.4240 -1.6795 -0.5872
  639TMC3    C1 9456   2.728   2.847  15.172  0.3768 -0.0797 -0.5103
  639TMC3    C2 9457   2.607   2.828  15.106 -0.5183  0.3053 -0.1290
  639TMC3    C3 9458   2.538   2.714  15.132 -1.3366  0.1678 -0.1891
  639TMC3    C4 9459   2.772   2.759  15.268  0.1930 -0.4376 -0.3493
  639TMC3    C5 9460   2.705   2.639  15.278 -0.1063  0.0479 -0.1104
  639TMC3    C6 9461   2.583   2.615  15.219  0.7131  0.4033 -0.1797
  639TMC3     C 9462   2.774   2.985  15.181  0.7498 -0.5854  0.0706
  639TMC3     O 9463   2.862   3.008  15.260 -0.0445 -0.0683 -0.5339
  639TMC3     H 9464   2.556   2.895  15.037  0.2265 -0.6039 -1.5714
  639TMC3    H1 9465   2.865   2.775  15.321 -1.6110  1.5675  2.1898
  639TMC3    H2 9466   2.537   2.521  15.246 -1.0708  1.8649  1.8744
  639TMC3    C7 9467   2.775   2.519  15.325 -0.1872  0.1902  0.0013
  639TMC3    C8 9468   2.464   2.666  15.014 -0.0393  0.1704 -0.4007
  639TMC3    O1 9469   2.703   2.433  15.369 -0.1224 -0.0610  0.6265
  639TMC3    O2 9470   2.503   2.711  14.910  0.0267 -0.8082  0.6408
  640MPD2     C 9471   3.282   1.864  10.143 -0.5430  0.0240  0.7724
  640MPD2    C1 9472   3.273   1.964  10.049  0.4042 -0.8648  0.5012
  640MPD2    C2 9473   3.203   2.078  10.085 -0.4397 -0.2979  0.0546
  640MPD2    C3 9474   3.126   2.091  10.197 -0.2563  0.4077 -1.0218
  640MPD2    C4 9475   3.135   1.982  10.281  0.1863  0.5065 -0.5348
  640MPD2    C5 9476   3.211   1.873  10.261  0.3365  0.6484 -0.7060
  640MPD2     H 9477   3.206   2.157  10.011  0.3851 -1.2136 -0.9051
  640MPD2    H1 9478   3.081   1.986  10.375 -0.0377 -1.1139 -0.5914
  640MPD2    H2 9479   3.322   1.764  10.128 -1.2235 -0.1697  0.2359
  640MPD2    H3 9480   3.219   1.792  10.333  2.2026  2.2667  0.9040
  640MPD2     N 9481   3.049   2.204  10.232 -0.2764 -0.0935  0.0318
  640MPD2    H5 9482   2.995   2.217  10.317 -0.9066 -0.6152 -0.2962
  640MPD2    N1 9483   3.328   1.941   9.919 -0.5180 -0.4170 -0.0395
  640MPD2    H7 9484   3.371   1.850   9.908  1.4645  0.4651  0.3980
  641TMC3    C1 9485   3.384   1.972   9.700 -0.5038  0.0511 -0.0918
  641TMC3    C2 9486   3.500   1.899   9.723 -0.1172 -0.6924 -1.0920
  641TMC3    C3 9487   3.595   1.895   9.627 -0.7250 -0.0733 -0.0909
  641TMC3    C4 9488   3.360   2.041   9.581 -0.3383 -0.5564  0.4268
  641TMC3    C5 9489   3.458   2.033   9.488 -0.0550 -0.4389 -0.4243
  641TMC3    C6 9490   3.574   1.959   9.503  0.0331 -1.1527 -0.3662
  641TMC3     C 9491   3.299   2.016   9.804  0.7114 -0.2241  0.0388
  641TMC3     O 9492   3.232   2.117   9.781  0.3035  0.4142 -0.0812
  641TMC3     H 9493   3.511   1.836   9.810 -2.0419  1.9357  1.0229
  641TMC3    H1 9494   3.264   2.086   9.559 -0.3917 -0.1233  1.5328
  641TMC3    H2 9495   3.645   1.957   9.421 -0.0538 -1.4524 -0.4352
  641TMC3    C7 9496   3.452   2.123   9.371 -0.0280  0.5350 -0.1656
  641TMC3    C8 9497   3.721   1.836   9.656  0.1142 -0.2036 -0.0238
  641TMC3    O1 9498   3.553   2.125   9.300 -0.2972 -0.6408  0.7487
  641TMC3    O2 9499   3.791   1.825   9.556 -0.6026  0.3942 -0.2264
  642TMC3    C1 9500   4.269   3.116  12.078 -0.2701 -0.0329 -0.8167
  642TMC3    C2 9501   4.358   3.107  12.186  0.0441  0.1857 -0.0795
  642TMC3    C3 9502   4.392   2.978  12.212  0.2722 -0.7184  0.2208
  642TMC3    C4 9503   4.252   3.016  11.988 -0.7385 -0.0437 -0.1805
  642TMC3    C5 9504   4.290   2.887  12.022 -0.0741  0.6203 -0.2190
  642TMC3    C6 9505   4.364   2.866  12.137 -0.0411 -0.6720  0.4597
  642TMC3     C 9506   4.196   3.239  12.064 -0.2366  0.4977 -0.6244
  642TMC3     O 9507   4.122   3.244  11.970  0.2498  0.2400 -0.1511
  642TMC3     H 9508   4.384   3.187  12.255  0.1472  0.2302 -0.1696
  642TMC3    H1 9509   4.199   3.022  11.893  0.8846 -0.9660 -1.1479
  642TMC3    H2 9510   4.399   2.767  12.167  1.6118  0.0680  0.9497
  642TMC3    C7 9511   4.208   2.777  11.982  0.0019  0.7842  0.1478
  642TMC3    C8 9512   4.489   2.951  12.311  0.7206 -0.9263  0.3882
  642TMC3    O1 9513   4.162   2.786  11.870  0.7905 -0.1269 -0.0938
  642TMC3    O2 9514   4.580   2.872  12.287  0.8674  0.2906 -0.3590
  643TMC3    C1 9515   3.377   2.100   0.305  0.4515  0.2262 -0.0715
  643TMC3    C2 9516   3.331   2.179   0.202  0.0483 -0.2487 -0.5299
  643TMC3    C3 9517   3.245   2.126   0.113 -0.0223 -0.0542  0.4311
  643TMC3    C4 9518   3.355   1.967   0.305 -0.3131  0.2918 -0.0878
  643TMC3    C5 9519   3.268   1.918   0.209  0.4064  0.2852  0.4132
  643TMC3    C6 9520   3.201   1.999   0.124  0.6364 -0.1927 -0.2253
  643TMC3     C 9521   3.511   2.138   0.346  0.0475 -0.2232  0.8712
  643TMC3     O 9522   3.579   2.165   0.250  0.1736 -0.4365  0.4835
  643TMC3     H 9523   3.342   2.287   0.209 -3.2682  0.1697 -1.7711
  643TMC3    H1 9524   3.396   1.903   0.382 -2.3589 -3.2384 -1.9246
  643TMC3    H2 9525   3.117   1.957   0.070 -0.1568 -1.3801  1.9053
  643TMC3    C7 9526   3.239   1.773   0.204 -0.2602 -0.6052  0.1850
  643TMC3    C8 9527   3.209   2.198  17.688  1.0454  0.8044  0.0061
  643TMC3    O1 9528   3.243   1.733   0.318  0.1676 -0.6075  0.3673
  643TMC3    O2 9529   3.129   2.141  17.613 -0.0490  0.1840  0.2446
  644MPD2     C 9530   3.679   2.185   9.840 -0.2237  0.7691  0.3753
  644MPD2    C1 9531   3.738   2.225   9.725 -0.5491 -0.4915 -0.2802
  644MPD2    C2 9532   3.681   2.319   9.641  0.3779  0.1645  0.0369
  644MPD2    C3 9533   3.559   2.374   9.671  0.5051 -0.1261 -0.1446
  644MPD2    C4 9534   3.503   2.342   9.796 -0.6760 -0.5651 -0.0429
  644MPD2    C5 9535   3.567   2.248   9.877 -0.6436 -0.6569 -0.1210
  644MPD2     H 9536   3.719   2.331   9.541 -0.0943 -0.0676 -0.1714
  644MPD2    H1 9537   3.407   2.381   9.829 -0.8915 -1.2210  0.1049
  644MPD2    H2 9538   3.719   2.108   9.904 -0.4966  0.5415  0.2725
  644MPD2    H3 9539   3.510   2.215   9.963 -0.3998 -0.4021  0.1373
  644MPD2     N 9540   3.507   2.466   9.588 -0.2314  0.4890  0.0995
  644MPD2    H5 9541   3.580   2.488   9.522  0.3359 -1.1677  0.1624
  644MPD2    N1 9542   3.855   2.155   9.694  0.0482 -0.1718  0.1470
  644MPD2    H7 9543   3.886   2.077   9.751  1.1640 -0.4591 -0.8664
  645TMC3    C1 9544   3.350   2.600   9.475  0.4688  0.3544 -0.6054
  645TMC3    C2 9545   3.448   2.630   9.387 -0.7275  0.0115 -0.2753
  645TMC3    C3 9546   3.407   2.716   9.288 -0.3564 -0.4985 -0.6786
  645TMC3    C4 9547   3.223   2.636   9.450 -0.0944  0.2293  0.0723
  645TMC3    C5 9548   3.185   2.711   9.347  0.1581 -0.5852 -0.4422
  645TMC3    C6 9549   3.281   2.759   9.261  0.6171  0.0416  0.4485
  645TMC3     C 9550   3.375   2.500   9.574  0.3949 -0.3715  0.1506
  645TMC3     O 9551   3.279   2.448   9.626  0.0528  0.1465 -0.5819
  645TMC3     H 9552   3.549   2.591   9.388 -1.2779 -1.4036 -1.2678
  645TMC3    H1 9553   3.155   2.588   9.519  1.7899 -1.7591  0.5328
  645TMC3    H2 9554   3.260   2.809   9.167  1.1395  0.4490  0.5452
  645TMC3    C7 9555   3.059   2.783   9.355 -0.0354 -0.3345  0.0940
  645TMC3    C8 9556   3.507   2.783   9.220  0.3534 -0.1112  0.4049
  645TMC3    O1 9557   3.049   2.880   9.288  0.2564 -0.1821 -0.4734
  645TMC3    O2 9558   3.611   2.722   9.220 -0.1040  0.0827 -0.6211
  646MPD2     C 9559   3.078   2.069  14.492 -0.0089  0.4511 -0.7113
  646MPD2    C1 9560   2.962   2.014  14.542  0.1690 -0.6492 -0.0711
  646MPD2    C2 9561   2.844   2.068  14.508  0.6274  0.2223  0.0212
  646MPD2    C3 9562   2.829   2.155  14.398 -0.1252  0.1336  0.3499
  646MPD2    C4 9563   2.945   2.219  14.345  0.2471 -0.8347 -0.3472
  646MPD2    C5 9564   3.068   2.167  14.395 -0.9889 -0.1843 -0.1249
  646MPD2     H 9565   2.757   2.031  14.562  0.1576  0.9051 -0.2684
  646MPD2    H1 9566   2.938   2.293  14.266 -1.2545  1.8906  2.3154
  646MPD2    H2 9567   3.175   2.036  14.526 -0.6038 -1.0712 -0.4510
  646MPD2    H3 9568   3.163   2.195  14.350  0.1271  0.7658  2.8308
  646MPD2     N 9569   2.700   2.201  14.363  0.1291 -0.4273 -0.0913
  646MPD2    H5 9570   2.623   2.153  14.409 -0.7312  2.7140  1.7450
  646MPD2    N1 9571   2.987   1.916  14.637  0.2777 -0.4530  0.6111
  646MPD2    H7 9572   3.085   1.892  14.653  0.7044 -0.0444 -1.3709
  647TMC3    C1 9573   2.938   1.734  14.787 -0.4888  0.0934 -0.3388
  647TMC3    C2 9574   2.846   1.678  14.874  0.3788 -0.1722  0.2540
  647TMC3    C3 9575   2.897   1.623  14.994 -0.0281 -0.0801 -0.3978
  647TMC3    C4 9576   3.076   1.717  14.805 -0.1167 -0.2947  0.6830
  647TMC3    C5 9577   3.109   1.670  14.924  0.7447 -0.1606  0.3709
  647TMC3    C6 9578   3.032   1.630  15.022 -0.0035  0.8152 -0.0356
  647TMC3     C 9579   2.885   1.841  14.700  0.7455  0.2651  0.8461
  647TMC3     O 9580   2.764   1.844  14.693 -0.0163  0.1842 -0.5980
  647TMC3     H 9581   2.742   1.669  14.846  1.0232 -0.3745 -2.0712
  647TMC3    H1 9582   3.144   1.738  14.723 -1.1327  2.7297  0.6121
  647TMC3    H2 9583   3.073   1.592  15.115  0.8471 -0.8480 -1.0890
  647TMC3    C7 9584   3.246   1.620  14.934 -0.6625 -0.5696 -0.6920
  647TMC3    C8 9585   2.829   1.515  15.067  0.4240 -0.2142  0.1753
  647TMC3    O1 9586   3.275   1.525  15.008 -0.0281 -0.0625 -0.8902
  647TMC3    O2 9587   2.896   1.454  15.147  0.4929  0.2327  0.1511
  648TMC3    C1 9588   2.071   3.966  16.183  0.2713  0.6084  0.6280
  648TMC3    C2 9589   2.120   3.850  16.131 -0.2502  1.2279  0.5404
  648TMC3    C3 9590   2.147   3.843  16.000  0.7372  0.1024  0.0298
  648TMC3    C4 9591   2.031   4.071  16.104 -0.4784 -0.2465  0.2784
  648TMC3    C5 9592   2.056   4.056  15.971 -0.1272 -0.5129 -0.2002
  648TMC3    C6 9593   2.106   3.943  15.919 -0.7781  0.2854  1.4363
  648TMC3     C 9594   2.085   3.998  16.322  0.5902  0.3628  0.2229
  648TMC3     O 9595   2.075   4.117  16.351  0.1729  0.9856  1.1985
  648TMC3     H 9596   2.139   3.768  16.200 -1.3694  0.7677  0.3007
  648TMC3    H1 9597   2.021   4.171  16.145  0.1125  0.0347 -0.2663
  648TMC3    H2 9598   2.121   3.934  15.812 -1.5539  4.4434  0.9817
  648TMC3    C7 9599   1.999   4.152  15.874 -0.3660 -0.6688 -0.2718
  648TMC3    C8 9600   2.121   3.716  15.948  0.8896  0.2223  0.9054
  648TMC3    O1 9601   2.053   4.146  15.763  0.5388  0.0333 -0.3700
  648TMC3    O2 9602   2.049   3.633  16.011 -0.1906 -0.2719  0.7124
  649TMC3    C1 9603   1.110   0.422  12.772  0.0187 -0.6145 -0.0985
  649TMC3    C2 9604   1.209   0.507  12.815  0.3405  0.1738  0.0366
  649TMC3    C3 9605   1.218   0.536  12.947 -0.1177  0.3325 -0.5214
  649TMC3    C4 9606   1.028   0.359  12.863 -0.5428  0.0137 -0.5886
  649TMC3    C5 9607   1.049   0.396  12.998 -0.4144  0.5324 -0.0178
  649TMC3    C6 9608   1.134   0.492  13.047 -0.1998 -1.0139  0.4791
  649TMC3     C 9609   1.066   0.424  12.633  0.0304  1.1080  0.8781
  649TMC3     O 9610   0.946   0.393  12.627  0.4013 -0.4248 -0.0393
  649TMC3     H 9611   1.279   0.554  12.747 -0.3412 -0.6442 -1.2328
  649TMC3    H1 9612   0.942   0.300  12.836  0.2286 -1.3885 -0.0271
  649TMC3    H2 9613   1.144   0.506  13.154 -0.6256 -0.2729  0.4180
  649TMC3    C7 9614   0.974   0.321  13.090 -0.0918  0.5512  0.1418
  649TMC3    C8 9615   1.315   0.642  12.971 -0.1884  0.1819 -0.0860
  649TMC3    O1 9616   0.960   0.367  13.201 -0.0587 -0.4567 -0.2692
  649TMC3    O2 9617   1.411   0.661  12.898  0.7095  0.1471 -0.1356
  650TMC3    C1 9618   3.878   2.360  12.848  0.3478 -0.0833  0.6440
  650TMC3    C2 9619   3.890   2.489  12.890  0.2346  0.0105  0.5158
  650TMC3    C3 9620   3.883   2.592  12.794  0.3691 -0.2100  0.3353
  650TMC3    C4 9621   3.837   2.322  12.722 -0.3043  0.0387 -0.3676
  650TMC3    C5 9622   3.816   2.422  12.631  0.5684 -0.4153 -0.2311
  650TMC3    C6 9623   3.829   2.551  12.671  0.3758  0.9103 -0.6224
  650TMC3     C 9624   3.925   2.260  12.939 -0.0692  0.2291  0.6362
  650TMC3     O 9625   3.928   2.290  13.061  0.5529  0.0933 -0.0926
  650TMC3     H 9626   3.934   2.510  12.987 -0.4794 -1.6145  1.1883
  650TMC3    H1 9627   3.818   2.220  12.692  0.0227 -0.4816  1.1941
  650TMC3    H2 9628   3.819   2.635  12.602 -2.6158  0.7438 -0.4061
  650TMC3    C7 9629   3.736   2.382  12.515  0.0661 -0.5710 -0.7203
  650TMC3    C8 9630   3.848   2.727  12.832  0.4364 -0.6694  0.0111
  650TMC3    O1 9631   3.739   2.267  12.484  0.6141 -0.6033  0.3304
  650TMC3    O2 9632   3.942   2.805  12.838  0.0576 -0.0519  0.1898
  651MPD2     C 9633   2.882   3.664  10.714 -0.7702 -0.0488 -0.5952
  651MPD2    C1 9634   2.832   3.795  10.715 -0.1182  1.1046 -0.7301
  651MPD2    C2 9635   2.929   3.893  10.702 -0.2475 -0.4363 -0.2058
  651MPD2    C3 9636   3.062   3.866  10.665  0.3179 -0.4293 -0.5957
  651MPD2    C4 9637   3.102   3.734  10.654 -0.0875 -0.4079 -0.8163
  651MPD2    C5 9638   3.010   3.637  10.679  0.0027  0.2985  0.2471
  651MPD2     H 9639   2.888   3.993  10.709 -2.7825 -1.6353  1.7162
  651MPD2    H1 9640   3.205   3.702  10.641 -0.2633 -1.3673  0.1663
  651MPD2    H2 9641   2.820   3.578  10.734 -0.1907 -0.7848 -1.9031
  651MPD2    H3 9642   3.032   3.531  10.673  3.3608  1.1158 -1.7464
  651MPD2     N 9643   3.151   3.969  10.635  0.6688  0.1538  0.1637
  651MPD2    H5 9644   3.112   4.063  10.627  1.7462  0.5498 -0.4338
  651MPD2    N1 9645   2.698   3.830  10.733  0.1254  0.2069 -0.7007
  651MPD2    H7 9646   2.682   3.928  10.754 -3.7638 -0.5184 -0.4013
  652TMC3    C1 9647   3.535   4.215  10.615  0.2123  0.2225 -0.1154
  652TMC3    C2 9648   3.474   4.092  10.631 -0.4368 -0.3399  0.3299
  652TMC3    C3 9649   3.347   4.080  10.583 -0.7380 -0.2212  0.0349
  652TMC3    C4 9650   3.488   4.311  10.528 -0.4046  0.2219 -0.0448
  652TMC3    C5 9651   3.372   4.282  10.460  0.4926 -0.0274  0.1432
  652TMC3    C6 9652   3.303   4.165  10.488 -0.0881  0.6285  1.0065
  652TMC3     C 9653   3.660   4.243  10.687  0.5684 -0.8679 -0.6462
  652TMC3     O 9654   3.673   4.190  10.799 -0.7025  0.1497 -0.2912
  652TMC3     H 9655   3.522   4.012  10.686  0.1792  0.5683  1.1182
  652TMC3    H1 9656   3.536   4.407  10.513  1.2784 -0.7173 -0.7822
  652TMC3    H2 9657   3.212   4.145  10.432  1.2836 -2.6216 -0.0353
  652TMC3    C7 9658   3.316   4.373  10.357 -0.2259  0.0976  0.5533
  652TMC3    C8 9659   3.287   3.954  10.599 -0.3417 -0.4034 -0.4507
  652TMC3    O1 9660   3.226   4.332  10.284 -0.1961 -0.0895 -0.5994
  652TMC3    O2 9661   3.366   3.867  10.631  0.0860  0.8531  0.5992
  653MPD2     C 9662   1.090   4.041  17.575 -0.1707 -0.1994 -1.1577
  653MPD2    C1 9663   1.085   4.144  17.481 -0.2114 -0.3689 -0.1667
  653MPD2    C2 9664   1.060   4.098  17.351 -0.4181 -0.2400  0.2179
  653MPD2    C3 9665   1.028   3.965  17.322 -0.2468 -0.0558  0.4674
  653MPD2    C4 9666   1.022   3.868  17.422 -0.0761  0.3149  0.5233
  653MPD2    C5 9667   1.061   3.911  17.546  0.2218 -0.0423 -0.0989
  653MPD2     H 9668   1.072   4.174  17.274 -1.1530 -0.0225  0.3153
  653MPD2    H1 9669   0.996   3.763  17.411  0.4582 -0.1144  3.3030
  653MPD2    H2 9670   1.121   4.054  17.678 -0.1411  0.2161 -1.2201
  653MPD2    H3 9671   1.071   3.833  17.620  0.7035  2.3457  2.3140
  653MPD2     N 9672   1.012   3.924  17.186  0.3765  0.1938 -0.5236
  653MPD2    H5 9673   1.004   4.003  17.123 -0.4952  0.0300 -0.6200
  653MPD2    N1 9674   1.133   4.276  17.504 -0.4869 -0.3428 -0.0882
  653MPD2    H7 9675   1.152   4.334  17.423 -1.8464  0.8465  0.4354
  654TMC3    C1 9676   0.993   3.778  16.991 -0.3513 -0.6048  0.0277
  654TMC3    C2 9677   0.873   3.842  16.951  0.1502  0.2710  0.0858
  654TMC3    C3 9678   0.803   3.787  16.852 -0.6662 -0.2233  0.2734
  654TMC3    C4 9679   1.024   3.651  16.948  0.1211 -0.1075  0.6696
  654TMC3    C5 9680   0.950   3.603  16.847 -0.0536 -0.0524  0.2650
  654TMC3    C6 9681   0.844   3.671  16.792  0.1082 -0.4428 -0.2292
  654TMC3     C 9682   1.023   3.792  17.135  0.0992  0.0181  0.4615
  654TMC3     O 9683   1.045   3.685  17.193 -0.4149  0.9378  0.1210
  654TMC3     H 9684   0.840   3.930  17.004 -0.9272  0.8453 -1.5123
  654TMC3    H1 9685   1.115   3.607  16.988  1.7666  1.6094 -1.2744
  654TMC3    H2 9686   0.781   3.621  16.720 -1.8038  2.1038 -0.3133
  654TMC3    C7 9687   0.963   3.471  16.795  0.4401 -0.2273 -0.0213
  654TMC3    C8 9688   0.673   3.845  16.830 -0.7641  0.0786  0.2871
  654TMC3    O1 9689   0.883   3.441  16.712 -0.4538 -0.4495  0.4444
  654TMC3    O2 9690   0.652   3.963  16.864 -0.1145 -0.1636  0.0949
  655MPD2     C 9691   2.593   4.079  15.610  0.1827  0.3034 -0.3543
  655MPD2    C1 9692   2.504   4.152  15.537 -0.1155  0.3586  1.0650
  655MPD2    C2 9693   2.484   4.124  15.408  0.8221 -0.6660 -0.0845
  655MPD2    C3 9694   2.571   4.027  15.350  0.0102 -0.2228  0.2823
  655MPD2    C4 9695   2.668   3.960  15.425  0.4373 -0.2488  0.4425
  655MPD2    C5 9696   2.677   3.981  15.553  0.5893 -0.2015 -0.2864
  655MPD2     H 9697   2.395   4.163  15.360  1.1377  1.1676  0.8285
  655MPD2    H1 9698   2.735   3.887  15.382 -0.6948 -0.1949 -1.3755
  655MPD2    H2 9699   2.606   4.087  15.717 -0.6389  0.8020 -0.2918
  655MPD2    H3 9700   2.745   3.919  15.611 -0.3370  0.1779  1.1953
  655MPD2     N 9701   2.572   3.991  15.211 -0.2075  0.4686 -0.4265
  655MPD2    H5 9702   2.626   3.909  15.187 -0.4446  0.3324 -0.4892
  655MPD2    N1 9703   2.406   4.232  15.593  0.5073 -0.7118  0.2977
  655MPD2    H7 9704   2.343   4.280  15.529  1.3082 -0.5767 -0.3943
  656TMC3    C1 9705   2.314   4.378  15.763  0.1141 -0.1639  1.0765
  656TMC3    C2 9706   2.272   4.392  15.895  0.2047  0.2726 -0.4088
  656TMC3    C3 9707   2.221   4.511  15.937  0.1164  0.4753 -0.1801
  656TMC3    C4 9708   2.312   4.482  15.676  0.4489  0.7120  0.1184
  656TMC3    C5 9709   2.257   4.601  15.724 -0.1558  0.4679  0.3963
  656TMC3    C6 9710   2.205   4.619  15.846 -0.8239  0.2381  0.0346
  656TMC3     C 9711   2.405   4.273  15.727 -0.0503 -0.5258  0.4277
  656TMC3     O 9712   2.467   4.222  15.817  0.2759 -0.1540  0.1249
  656TMC3     H 9713   2.267   4.306  15.961 -1.3384 -0.8925 -2.0373
  656TMC3    H1 9714   2.368   4.479  15.583 -1.6408 -0.9419 -1.0800
  656TMC3    H2 9715   2.192   4.721  15.881  0.6412  0.1970  0.7071
  656TMC3    C7 9716   2.222   4.696  15.622 -0.2935 -1.0355  0.0694
  656TMC3    C8 9717   2.151   4.507  16.063 -0.4494  0.1311  0.2785
  656TMC3    O1 9718   2.285   4.691  15.515 -0.2557  0.4521 -0.0866
  656TMC3    O2 9719   2.163   4.403  16.124  0.3249  0.0393  0.0655
  657TMC3    C1 9720   1.411   3.637  14.969 -0.6873 -0.2371  0.0032
  657TMC3    C2 9721   1.436   3.685  15.095  0.5688  0.0720  0.6869
  657TMC3    C3 9722   1.407   3.814  15.121 -0.4043 -0.1713  0.3079
  657TMC3    C4 9723   1.359   3.717  14.882 -0.1945 -0.4785 -0.2533
  657TMC3    C5 9724   1.325   3.846  14.907  0.9427 -0.2731  0.0440
  657TMC3    C6 9725   1.350   3.899  15.026 -0.5425 -0.7738  0.2955
  657TMC3     C 9726   1.442   3.503  14.923  0.5561 -0.0873 -0.1815
  657TMC3     O 9727   1.399   3.480  14.808  1.1967  0.3271  0.2709
  657TMC3     H 9728   1.464   3.609  15.168 -0.2335 -1.7221 -0.8740
  657TMC3    H1 9729   1.343   3.685  14.780  0.2378 -0.3496 -0.3588
  657TMC3    H2 9730   1.356   4.005  15.047 -4.0153 -0.4297 -0.5121
  657TMC3    C7 9731   1.292   3.930  14.791 -0.2427  0.3789  0.4030
  657TMC3    C8 9732   1.457   3.889  15.237 -0.1464  1.1555 -0.0110
  657TMC3    O1 9733   1.338   3.893  14.684  0.4163 -0.2900  0.0816
  657TMC3    O2 9734   1.426   4.005  15.253 -0.1999  0.2355 -0.3209
  658MPD2     C 9735   2.921   3.908  14.633 -0.1916  0.0595  0.3650
  658MPD2    C1 9736   2.791   3.927  14.600 -0.5767 -0.4961  0.6205
  658MPD2    C2 9737   2.767   3.970  14.469  0.4001  0.1430 -0.0380
  658MPD2    C3 9738   2.873   3.988  14.384 -0.0670 -0.0935 -0.4103
  658MPD2    C4 9739   3.003   3.968  14.421  0.6573 -0.3529  0.2242
  658MPD2    C5 9740   3.024   3.928  14.548 -0.0372  0.4893 -0.1607
  658MPD2     H 9741   2.664   4.004  14.459  0.7509  0.8492 -1.1564
  658MPD2    H1 9742   3.084   4.010  14.363  0.4557 -1.3953 -0.8156
  658MPD2    H2 9743   2.942   3.887  14.737 -0.5528 -2.4052 -0.0538
  658MPD2    H3 9744   3.127   3.909  14.577 -1.0595  0.1181  3.3190
  658MPD2     N 9745   2.833   4.032  14.260  0.1818 -0.0703 -0.1660
  658MPD2    H5 9746   2.734   4.033  14.237  0.1138 -1.0480  0.0841
  658MPD2    N1 9747   2.690   3.915  14.703 -0.2610 -0.1333  0.3622
  658MPD2    H7 9748   2.724   3.914  14.799  0.4002 -0.0002  0.1361
  659TMC3    C1 9749   2.490   3.865  14.807 -0.0162 -0.7435  0.3606
  659TMC3    C2 9750   2.537   3.912  14.924 -0.2622 -0.1125  0.0945
  659TMC3    C3 9751   2.455   3.922  15.030 -0.1550 -0.6361  1.0991
  659TMC3    C4 9752   2.361   3.820  14.791 -0.2906 -0.4869 -0.0926
  659TMC3    C5 9753   2.274   3.832  14.901 -0.1821 -0.1504 -0.9738
  659TMC3    C6 9754   2.320   3.892  15.016  0.1080 -0.0666  0.2401
  659TMC3     C 9755   2.557   3.892  14.682 -0.5903 -0.3936 -0.6071
  659TMC3     O 9756   2.507   3.862  14.578 -0.8884 -0.0877 -0.4377
  659TMC3     H 9757   2.629   3.969  14.928 -0.2872  0.0916 -2.3368
  659TMC3    H1 9758   2.317   3.787  14.698 -0.6944  0.1658 -0.1343
  659TMC3    H2 9759   2.247   3.913  15.093 -1.9552  2.6752 -2.4894
  659TMC3    C7 9760   2.136   3.865  14.865 -0.0185  0.4336 -0.9022
  659TMC3    C8 9761   2.477   4.030  15.122 -0.5109 -0.3816  0.0535
  659TMC3    O1 9762   2.092   3.977  14.897 -0.3239 -0.1430  0.1663
  659TMC3    O2 9763   2.378   4.100  15.140 -0.2315 -0.1354 -0.2213
  660MPD2     C 9764   0.797   2.962  12.744 -0.1254 -0.3754 -0.3153
  660MPD2    C1 9765   0.662   2.966  12.703  0.5642  0.2905  0.2240
  660MPD2    C2 9766   0.562   2.898  12.780  0.3206 -0.3981  0.0477
  660MPD2    C3 9767   0.599   2.817  12.885 -0.4374 -0.0927 -0.4086
  660MPD2    C4 9768   0.730   2.813  12.923 -0.0597  0.1790  0.0428
  660MPD2    C5 9769   0.820   2.891  12.859  0.1376 -0.3013  0.2889
  660MPD2     H 9770   0.465   2.885  12.732  0.1214 -0.1759  0.3948
  660MPD2    H1 9771   0.772   2.751  13.001 -1.8003 -1.4453 -0.3043
  660MPD2    H2 9772   0.873   3.030  12.707 -1.6140  0.0773 -2.5350
  660MPD2    H3 9773   0.923   2.872  12.886 -0.1406 -2.9160 -0.4968
  660MPD2     N 9774   0.505   2.740  12.961 -0.0296 -0.0899 -0.0440
  660MPD2    H5 9775   0.545   2.692  13.041 -0.2789  1.4059  0.9697
  660MPD2    N1 9776   0.633   3.037  12.590 -0.1873 -0.5353 -0.5484
  660MPD2    H7 9777   0.709   3.049  12.524  0.3883  0.6875  0.3316
  661TMC3    C1 9778   0.497   3.113  12.407 -0.6560 -0.2723  0.2031
  661TMC3    C2 9779   0.597   3.102  12.312 -0.3515 -0.1326  0.8636
  661TMC3    C3 9780   0.568   3.134  12.182  0.5599 -0.3652 -0.1667
  661TMC3    C4 9781   0.371   3.159  12.373  0.2794  0.3615  0.2277
  661TMC3    C5 9782   0.349   3.192  12.244 -0.5666  0.1608 -0.1544
  661TMC3    C6 9783   0.447   3.191  12.147 -0.0234 -0.0257 -0.0079
  661TMC3     C 9784   0.506   3.079  12.554  0.2938  0.0703  0.0307
  661TMC3     O 9785   0.404   3.088  12.619 -0.5044  0.0106  0.1430
  661TMC3     H 9786   0.699   3.069  12.333  0.1834  0.6947 -0.3905
  661TMC3    H1 9787   0.287   3.157  12.441 -0.1620  0.5327 -0.3126
  661TMC3    H2 9788   0.436   3.217  12.043 -1.5257  0.3377  0.2385
  661TMC3    C7 9789   0.221   3.253  12.213  0.6943  0.2599  0.5756
  661TMC3    C8 9790   0.689   3.150  12.095  0.7383 -0.0459 -0.7420
  661TMC3    O1 9791   0.159   3.293  12.315  0.4188  0.4012  0.0458
  661TMC3    O2 9792   0.767   3.059  12.105  0.4487 -0.8246  0.5171
  662MPD2     C 9793   0.238   1.897   0.229 -0.0556 -0.7485 -0.3333
  662MPD2    C1 9794   0.273   2.032   0.233  0.2525  0.0420  0.6831
  662MPD2    C2 9795   0.185   2.112   0.304 -0.0017  0.3323  0.1400
  662MPD2    C3 9796   0.069   2.058   0.362  0.0632 -0.2810  0.3109
  662MPD2    C4 9797   0.036   1.925   0.359  0.3853 -0.1883 -0.3016
  662MPD2    C5 9798   0.121   1.848   0.287 -0.0419  0.1299 -0.9297
  662MPD2     H 9799   0.203   2.219   0.306  0.9105  0.1941 -0.6994
  662MPD2    H1 9800   4.677   1.880   0.415  0.9575 -1.9697 -0.8772
  662MPD2    H2 9801   0.289   1.832   0.159  0.0479 -0.9714 -0.0459
  662MPD2    H3 9802   0.091   1.745   0.270 -2.7615  1.0485 -1.6233
  662MPD2     N 9803   4.705   2.132   0.440  0.8163 -0.3682  0.5427
  662MPD2    H5 9804   4.628   2.081   0.482  1.2212 -1.5150 -0.1015
  662MPD2    N1 9805   0.385   2.080   0.159  0.0084  0.4338 -0.3919
  662MPD2    H7 9806   0.445   2.008   0.121  0.9283 -0.0001  1.8501
  663TMC3    C1 9807   0.571   2.214   0.091 -0.2054  0.4002  0.6153
  663TMC3    C2 9808   0.641   2.328   0.121 -0.0916 -0.6146 -0.0367
  663TMC3    C3 9809   0.775   2.324   0.090  0.1518  0.2838  0.0846
  663TMC3    C4 9810   0.619   2.114   0.016 -0.6452  0.0791 -0.7340
  663TMC3    C5 9811   0.751   2.115  17.678  0.0742 -0.0288  0.0600
  663TMC3    C6 9812   0.831   2.208   0.050  0.8122  0.6978 -0.1296
  663TMC3     C 9813   0.448   2.200   0.171 -0.6786  0.0802 -0.3402
  663TMC3     O 9814   0.417   2.298   0.234 -0.0850 -0.2979 -0.1494
  663TMC3     H 9815   0.618   2.399   0.199  0.1313 -3.4500  2.6108
  663TMC3    H1 9816   0.547   2.050  17.658  0.8919 -1.5652 -0.8615
  663TMC3    H2 9817   0.939   2.204   0.039  0.7319  1.1902 -1.0716
  663TMC3    C7 9818   0.819   2.011  17.595 -0.3489  0.6830 -0.0802
  663TMC3    C8 9819   0.849   2.405   0.184 -0.4000 -0.1344 -0.5347
  663TMC3    O1 9820   0.923   2.041  17.542  0.0079  0.1027 -0.0756
  663TMC3    O2 9821   0.950   2.359   0.237 -0.2330 -0.2172 -0.8268
  664MPD2     C 9822   3.662   0.246  17.295 -0.2760 -0.5212  0.0749
  664MPD2    C1 9823   3.621   0.381  17.299 -0.5146 -0.1880 -0.1216
  664MPD2    C2 9824   3.627   0.448  17.422  0.0404  0.0470  0.0475
  664MPD2    C3 9825   3.652   0.380  17.539  0.0923  1.1791  0.3065
  664MPD2    C4 9826   3.680   0.246  17.524  0.3309  0.1419 -0.3919
  664MPD2    C5 9827   3.681   0.176  17.411  0.2824  0.0939  0.6515
  664MPD2     H 9828   3.597   0.552  17.428  0.4637  0.2280 -0.9925
  664MPD2    H1 9829   3.697   0.180  17.609 -1.0702 -0.3121 -0.4713
  664MPD2    H2 9830   3.654   0.198  17.198  0.8101 -0.9735  0.2001
  664MPD2    H3 9831   3.715   0.074  17.406 -2.5875 -0.7844 -0.6936
  664MPD2     N 9832   3.643   0.452  17.663  0.9711  0.1584  0.1038
  664MPD2    H5 9833   3.624   0.552  17.661  0.7347  0.1408  1.4125
  664MPD2    N1 9834   3.591   0.458  17.187 -0.0940  0.2141 -0.7632
  664MPD2    H7 9835   3.585   0.559  17.199  1.6627  0.1251  0.7594
  665TMC3    C1 9836   3.585   0.497   0.193  0.0593 -0.0070 -0.4450
  665TMC3    C2 9837   3.531   0.453   0.311  0.6448 -0.2173  0.3234
  665TMC3    C3 9838   3.511   0.542   0.414  0.1153 -0.5562 -0.1948
  665TMC3    C4 9839   3.636   0.620   0.188  0.7899 -0.2765 -0.7680
  665TMC3    C5 9840   3.615   0.704   0.290 -0.1124 -0.0647  0.5437
  665TMC3    C6 9841   3.553   0.669   0.406  0.1139  0.4257 -0.7508
  665TMC3     C 9842   3.635   0.400   0.098 -0.4118  0.1019 -0.1686
  665TMC3     O 9843   3.645   0.280   0.124  0.2499 -0.1542 -1.2351
  665TMC3     H 9844   3.515   0.348   0.333 -0.5460  0.0597  0.7532
  665TMC3    H1 9845   3.679   0.657   0.096  0.5857 -0.8001 -1.0725
  665TMC3    H2 9846   3.532   0.744   0.481 -0.6777 -0.5829  0.0435
  665TMC3    C7 9847   3.684   0.835   0.281 -0.2423 -0.5394  0.4130
  665TMC3    C8 9848   3.449   0.496   0.534 -0.6453 -0.3637 -0.6986
  665TMC3    O1 9849   3.724   0.861   0.168  0.1763 -0.1030 -0.2210
  665TMC3    O2 9850   3.471   0.555   0.639  0.4280  0.2433 -0.1007
  666TMC3    C1 9851   3.588   1.295   9.638 -0.0108  0.0295  0.3499
  666TMC3    C2 9852   3.694   1.280   9.717 -0.8059 -0.0317 -0.3276
  666TMC3    C3 9853   3.721   1.379   9.805  0.5206 -0.0052  0.2678
  666TMC3    C4 9854   3.506   1.410   9.640  0.7696  1.0204  0.4480
  666TMC3    C5 9855   3.536   1.507   9.734  0.5183 -0.0848  0.5133
  666TMC3    C6 9856   3.649   1.490   9.813  0.6826  0.0917 -0.7922
  666TMC3     C 9857   3.543   1.170   9.579 -0.3033 -0.0438  0.6098
  666TMC3     O 9858   3.567   1.070   9.646 -0.0552  0.1722 -0.0919
  666TMC3     H 9859   3.771   1.206   9.700 -1.3542 -0.2357 -1.9670
  666TMC3    H1 9860   3.414   1.430   9.587  1.0485  0.7021 -0.1581
  666TMC3    H2 9861   3.678   1.559   9.891 -0.0312 -1.3586  0.7501
  666TMC3    C7 9862   3.419   1.559   9.801  0.0029 -0.1050  0.2862
  666TMC3    C8 9863   3.799   1.350   9.919 -0.1912  0.1121 -0.4364
  666TMC3    O1 9864   3.424   1.569   9.924  0.3614 -0.3404 -0.2562
  666TMC3    O2 9865   3.872   1.437   9.960 -0.2875 -0.0298 -0.5658
  667MPD2     C 9866   4.621   1.110  14.443  0.0382 -0.0021  0.0198
  667MPD2    C1 9867   4.577   1.108  14.571  0.4546  0.2256  0.1243
  667MPD2    C2 9868   4.464   1.034  14.613  0.1044  0.3883 -0.3279
  667MPD2    C3 9869   4.400   0.948  14.524  0.2862 -0.5579 -0.2035
  667MPD2    C4 9870   4.447   0.940  14.390  0.5460  0.3653 -0.2739
  667MPD2    C5 9871   4.547   1.025  14.355 -0.2961 -0.0813 -0.2383
  667MPD2     H 9872   4.437   1.037  14.718  1.0469 -0.9738 -0.0467
  667MPD2    H1 9873   4.410   0.869  14.317 -1.5351 -0.6201  1.7355
  667MPD2    H2 9874   4.703   1.171  14.410  1.2420 -2.5401 -1.6984
  667MPD2    H3 9875   4.582   1.023  14.253  0.3797 -0.5824  0.0044
  667MPD2     N 9876   4.290   0.865  14.560  0.2415 -0.4655  0.2223
  667MPD2    H5 9877   4.247   0.806  14.490  1.2247 -0.6908 -0.1932
  667MPD2    N1 9878   4.641   1.183  14.677 -0.2628 -0.1366  0.3217
  667MPD2    H7 9879   4.608   1.169  14.772  1.3767  1.3596  1.1098
  668TMC3    C1 9880   0.043   1.338  14.790  0.4117 -0.8802 -0.8076
  668TMC3    C2 9881   0.061   1.470  14.790 -0.2036  0.8484  0.1606
  668TMC3    C3 9882   0.064   1.538  14.916  0.4811 -0.2036 -0.9766
  668TMC3    C4 9883   0.033   1.269  14.908  0.0002 -0.0219 -0.5354
  668TMC3    C5 9884   0.048   1.333  15.028  0.1066  0.3458  0.3037
  668TMC3    C6 9885   0.068   1.468  15.029 -0.4187  0.0150 -0.6587
  668TMC3     C 9886   0.027   1.268  14.663  0.1986  0.0769 -0.5696
  668TMC3     O 9887   0.091   1.302  14.569  0.0068 -0.2076  0.2606
  668TMC3     H 9888   0.049   1.515  14.692 -0.6940  1.6923  0.6086
  668TMC3    H1 9889   0.029   1.161  14.906  0.3856 -0.0470  0.2806
  668TMC3    H2 9890   0.076   1.530  15.117 -1.3755  0.0987 -0.6350
  668TMC3    C7 9891   0.040   1.272  15.155  0.3675  0.0234  0.4533
  668TMC3    C8 9892   0.092   1.678  14.914  0.0736 -0.4454 -0.1090
  668TMC3    O1 9893   0.080   1.343  15.246 -0.3034  0.2407 -0.3243
  668TMC3    O2 9894   0.085   1.748  15.018  0.0016 -0.0513 -0.4861
  669TMC3    C1 9895   2.800   1.135  14.842 -0.3685  0.0990 -0.3622
  669TMC3    C2 9896   2.690   1.137  14.764  0.1049  0.3997  0.6593
  669TMC3    C3 9897   2.668   1.239  14.669  0.6040  0.4539 -0.3018
  669TMC3    C4 9898   2.900   1.226  14.822  0.5627 -0.5099  0.3882
  669TMC3    C5 9899   2.889   1.316  14.716  0.0103 -0.2646 -0.7998
  669TMC3    C6 9900   2.773   1.324  14.641  0.0924  0.3905 -0.6575
  669TMC3     C 9901   2.814   1.034  14.946  0.0969  0.6647 -0.7743
  669TMC3     O 9902   2.740   0.937  14.931 -0.5623  0.2252 -0.4676
  669TMC3     H 9903   2.616   1.057  14.773  1.0340 -0.5944 -0.4372
  669TMC3    H1 9904   2.989   1.224  14.884 -1.1767  1.7849  2.9489
  669TMC3    H2 9905   2.775   1.385  14.552  0.1906  1.2584 -0.0576
  669TMC3    C7 9906   3.006   1.388  14.671 -0.4962 -0.2457  0.2705
  669TMC3    C8 9907   2.601   1.196  14.553  0.2996  0.7000 -0.1075
  669TMC3    O1 9908   2.979   1.495  14.617 -0.5582 -0.1691 -0.5524
  669TMC3    O2 9909   2.574   1.078  14.530 -0.1303  0.4325  0.6253
  670MPD2     C 9910   1.074   3.739  13.566 -0.1707  0.3860  0.2182
  670MPD2    C1 9911   1.182   3.724  13.647 -0.0807  0.1232 -0.3202
  670MPD2    C2 9912   1.174   3.630  13.748  0.0812 -0.2365  0.0115
  670MPD2    C3 9913   1.054   3.560  13.775 -0.3610 -0.0222 -0.4310
  670MPD2    C4 9914   0.949   3.580  13.690 -0.3005 -0.3694  0.5912
  670MPD2    C5 9915   0.960   3.669  13.592  0.4682  0.2529  0.1401
  670MPD2     H 9916   1.255   3.604  13.816 -0.5704  1.3280  1.3788
  670MPD2    H1 9917   0.850   3.537  13.702  0.0167 -1.1839  0.2108
  670MPD2    H2 9918   1.068   3.819  13.494  1.0106  1.0642  0.8661
  670MPD2    H3 9919   0.876   3.684  13.524  0.4588 -0.3125  0.0314
  670MPD2     N 9920   1.045   3.473  13.881  0.4728  0.1920  0.0627
  670MPD2    H5 9921   1.134   3.464  13.930  0.6046  0.6739 -0.0819
  670MPD2    N1 9922   1.297   3.804  13.647  0.2311  0.2836 -0.1439
  670MPD2    H7 9923   1.370   3.787  13.715  0.7176  2.5457 -0.0995
  671TMC3    C1 9924   0.950   3.316  14.041  0.5645 -0.3974 -0.3750
  671TMC3    C2 9925   1.061   3.241  14.058  0.3627 -0.4959 -0.0383
  671TMC3    C3 9926   1.065   3.139  14.154 -0.5273 -0.2097 -0.6121
  671TMC3    C4 9927   0.835   3.261  14.092  0.4565  0.2339 -0.4659
  671TMC3    C5 9928   0.834   3.148  14.162  0.1990 -0.3950  0.2482
  671TMC3    C6 9929   0.951   3.092  14.213 -0.0452  0.3364  0.1401
  671TMC3     C 9930   0.934   3.395  13.922  0.6984  0.1586 -0.1835
  671TMC3     O 9931   0.826   3.390  13.871  0.8540 -0.0809  0.4315
  671TMC3     H 9932   1.153   3.265  14.005  2.4015 -1.8935  2.8892
  671TMC3    H1 9933   0.743   3.302  14.054  0.7911  0.8611 -0.6115
  671TMC3    H2 9934   0.943   2.999  14.267  0.8975 -0.0218 -0.3442
  671TMC3    C7 9935   0.745   3.066  14.089  0.2323 -0.2059 -0.5659
  671TMC3    C8 9936   1.167   3.041  14.129  0.0170  0.4073  0.2698
  671TMC3    O1 9937   0.705   3.098  13.975  0.8033  0.2109 -0.3297
  671TMC3    O2 9938   1.174   2.999  14.015 -0.0761 -0.0692  0.4287
  672MPD2     C 9939   1.348   3.357   1.262  0.3213  0.3480 -0.4554
  672MPD2    C1 9940   1.375   3.455   1.180  0.3748  0.0550  0.6441
  672MPD2    C2 9941   1.448   3.567   1.220 -0.0710  0.2709  0.0822
  672MPD2    C3 9942   1.497   3.579   1.349 -0.8591  0.3826  0.2401
  672MPD2    C4 9943   1.470   3.472   1.435  0.7684 -0.4010  0.9324
  672MPD2    C5 9944   1.394   3.369   1.393  0.3344 -0.1180 -0.6201
  672MPD2     H 9945   1.486   3.644   1.155  1.5707  1.1364  2.0789
  672MPD2    H1 9946   1.504   3.472   1.538 -0.8222  1.7355  1.4658
  672MPD2    H2 9947   1.285   3.278   1.223  0.5792 -0.5826  1.0101
  672MPD2    H3 9948   1.372   3.295   1.470  0.3425  0.5820  0.0542
  672MPD2     N 9949   1.568   3.696   1.381  0.2521  0.0801 -0.7043
  672MPD2    H5 9950   1.575   3.773   1.315  2.1365  2.2474  1.9912
  672MPD2    N1 9951   1.337   3.435   1.045 -0.4062 -0.2324 -0.2208
  672MPD2    H7 9952   1.301   3.343   1.021 -1.3736  0.3276 -0.9337
  673TMC3    C1 9953   1.334   3.477   0.811  0.6231  0.2844  0.0543
  673TMC3    C2 9954   1.411   3.365   0.793  0.6106 -0.1209  0.8499
  673TMC3    C3 9955   1.406   3.298   0.670 -0.0750  0.7189  0.1223
  673TMC3    C4 9956   1.268   3.551   0.715  0.7339  0.0025  0.0587
  673TMC3    C5 9957   1.286   3.490   0.593  0.4813  0.0831  0.0900
  673TMC3    C6 9958   1.350   3.374   0.570  0.1355  0.2693 -0.4434
  673TMC3     C 9959   1.339   3.534   0.947 -0.3195  0.2964  0.1333
  673TMC3     O 9960   1.314   3.654   0.958  0.5936 -0.2328  0.0633
  673TMC3     H 9961   1.477   3.333   0.873  3.4355  1.0448 -1.0332
  673TMC3    H1 9962   1.210   3.641   0.735  0.5785 -0.0838  0.0002
  673TMC3    H2 9963   1.355   3.342   0.467  0.1675 -1.3192  0.0534
  673TMC3    C7 9964   1.263   3.567   0.469  0.2207  0.3041 -0.1709
  673TMC3    C8 9965   1.525   3.226   0.627 -0.1006 -0.7799  0.2666
  673TMC3    O1 9966   1.269   3.513   0.358 -0.5955 -0.8640 -0.3166
  673TMC3    O2 9967   1.547   3.223   0.505 -0.0800 -0.2513 -0.1895
  674MPD2     C 9968   0.311   3.323   0.076 -0.4284  0.8698  1.0888
  674MPD2    C1 9969   0.326   3.429   0.170  0.4831 -0.1518 -0.9146
  674MPD2    C2 9970   0.220   3.459   0.255 -0.5109  0.2803 -0.1935
  674MPD2    C3 9971   0.101   3.382   0.258 -0.2047  0.0151  0.1506
  674MPD2    C4 9972   0.085   3.286   0.161  0.2148  0.0005  0.7905
  674MPD2    C5 9973   0.190   3.259   0.073 -0.3514  0.0517  0.8072
  674MPD2     H 9974   0.237   3.534   0.332 -2.2095 -1.5013  1.9066
  674MPD2    H1 9975   4.714   3.232   0.152  0.6218 -0.4208 -0.9995
  674MPD2    H2 9976   0.390   3.301   0.005 -1.4581 -0.7668  0.4510
  674MPD2    H3 9977   0.174   3.184  17.688  1.4725 -0.4843  0.9498
  674MPD2     N 9978   0.006   3.412   0.356 -0.3258 -0.0486 -0.4642
  674MPD2    H5 9979   0.045   3.479   0.422 -0.2755 -0.1610 -0.3798
  674MPD2    N1 9980   0.444   3.502   0.175  0.3478 -0.1324  0.0425
  674MPD2    H7 9981   0.508   3.470   0.103 -0.7984 -0.8802 -0.6525
  675TMC3    C1 9982   0.622   3.620   0.264 -0.0048  0.9607 -0.2092
  675TMC3    C2 9983   0.676   3.703   0.353 -0.1540 -0.4799  0.7691
  675TMC3    C3 9984   0.809   3.701   0.378  0.2649 -0.4544 -0.3222
  675TMC3    C4 9985   0.693   3.510   0.221  0.2107 -0.2108  0.0098
  675TMC3    C5 9986   0.823   3.495   0.260 -0.3654 -0.0509  0.8683
  675TMC3    C6 9987   0.888   3.591   0.335  0.1126 -0.3871 -0.3634
  675TMC3     C 9988   0.481   3.595   0.273 -0.5185  0.3224 -0.2519
  675TMC3     O 9989   0.420   3.646   0.366  0.7064 -0.0640  0.4283
  675TMC3     H 9990   0.609   3.779   0.392  0.9383  2.0187 -2.2292
  675TMC3    H1 9991   0.642   3.421   0.185 -0.8976  0.5199 -0.2121
  675TMC3    H2 9992   0.995   3.591   0.349 -0.0056 -0.2641  0.5641
  675TMC3    C7 9993   0.878   3.370   0.253  0.9373 -0.5763  0.0638
  675TMC3    C8 9994   0.862   3.789   0.481 -0.3222  0.4483 -0.2125
  675TMC3    O1 9995   0.978   3.338   0.318 -0.0080  0.2809 -0.2086
  675TMC3    O2 9996   0.798   3.890   0.505  0.4651  0.0706  0.0329
  676MPD2     C 9997   3.724   2.062  10.985  0.5392  0.2174 -0.1992
  676MPD2    C1 9998   3.645   1.958  11.033 -0.1176  0.3287  0.2564
  676MPD2    C2 9999   3.714   1.839  11.070 -0.4626 -0.5133 -0.3713
  676MPD2    C310000   3.849   1.822  11.073  0.4046 -0.8414 -0.0495
  676MPD2    C410001   3.920   1.928  11.025 -0.1310  0.1018  0.2787
  676MPD2    C510002   3.862   2.055  10.995 -0.7865 -0.2522  0.2284
  676MPD2     H10003   3.650   1.757  11.099 -0.6264  0.3365  1.6732
  676MPD2    H110004   4.027   1.928  11.015 -0.1720 -0.7090 -0.1211
  676MPD2    H210005   3.685   2.155  10.945 -1.2779 -0.7810 -0.7372
  676MPD2    H310006   3.917   2.140  10.956 -0.2407 -1.1760 -1.0240
  676MPD2     N10007   3.911   1.698  11.100  0.0254 -0.1608 -0.2667
  676MPD2    H510008   4.009   1.687  11.076  0.1251 -1.8607  0.9177
  676MPD2    N110009   3.503   1.959  11.030 -0.3184 -0.1697 -0.7175
  676MPD2    H710010   3.460   1.878  11.075  0.6510 -1.2891 -1.8328
  677TMC3    C110011   3.299   2.074  11.060  0.8476  0.3694  0.0114
  677TMC3    C210012   3.228   1.965  11.106 -0.0769 -1.1011  0.0216
  677TMC3    C310013   3.125   1.980  11.200 -0.1172 -0.2228  0.8106
  677TMC3    C410014   3.275   2.198  11.116  0.2655 -0.1220 -0.3074
  677TMC3    C510015   3.183   2.208  11.213  0.0288 -0.0271  0.1800
  677TMC3    C610016   3.099   2.109  11.244 -0.0352  0.2869 -0.2947
  677TMC3     C10017   3.424   2.065  10.990  0.7276 -0.0167 -1.0943
  677TMC3     O10018   3.450   2.169  10.932 -0.5726 -0.0568  0.3546
  677TMC3     H10019   3.261   1.868  11.068 -1.6602 -0.7064 -2.3449
  677TMC3    H110020   3.321   2.290  11.083  0.8571 -0.3212 -0.0328
  677TMC3    H210021   3.019   2.127  11.314 -0.1337 -1.0828 -0.0437
  677TMC3    C710022   3.192   2.316  11.302  0.1623 -0.6506 -0.5578
  677TMC3    C810023   3.075   1.861  11.264  0.2221 -0.2842  0.0514
  677TMC3    O110024   3.092   2.342  11.366 -0.1181 -0.1611  0.0919
  677TMC3    O210025   3.057   1.763  11.192  0.4130 -0.0487  0.1362
  678MPD2     C10026   4.524   2.181   1.295  0.5037  0.1901  0.0343
  678MPD2    C110027   4.577   2.139   1.176 -0.3191 -0.5806  0.6264
  678MPD2    C210028   4.544   2.013   1.126  0.4766 -0.1943  0.0801
  678MPD2    C310029   4.441   1.942   1.187 -0.0106  0.2463  0.2341
  678MPD2    C410030   4.396   1.987   1.312 -0.5554 -0.5080 -0.6471
  678MPD2    C510031   4.443   2.106   1.369  0.0873  0.7397  0.3169
  678MPD2     H10032   4.583   1.985   1.029 -0.0012  0.8617 -0.4242
  678MPD2    H110033   4.315   1.940   1.368  0.4209  1.0576  2.0683
  678MPD2    H210034   4.552   2.276   1.338 -1.2383  0.5862  0.2902
  678MPD2    H310035   4.403   2.134   1.466  2.2307  0.5990  1.2461
  678MPD2     N10036   4.380   1.831   1.129  1.1377  0.3739 -0.0708
  678MPD2    H510037   4.403   1.814   1.032 -0.3640 -0.3675 -0.2864
  678MPD2    N110038   4.665   2.218   1.097 -0.0983 -0.2078 -0.9795
  678MPD2    H710039   4.701   2.177   1.012  0.7504  2.3773 -1.8672
  679TMC3    C110040   0.238   2.332   0.867 -0.0705 -0.4954 -0.0713
  679TMC3    C210041   0.159   2.299   0.977  0.0449 -0.2519 -0.3064
  679TMC3    C310042   0.074   2.391   1.028  0.0590 -0.2263  0.1120
  679TMC3    C410043   0.226   2.454   0.810 -0.7594  0.8174 -0.4698
  679TMC3    C510044   0.142   2.553   0.866 -0.0307 -0.1621 -0.2137
  679TMC3    C610045   0.061   2.516   0.972  0.5678 -0.2800 -0.3291
  679TMC3     C10046   0.265   2.221   0.776 -0.5331  1.0387  0.2370
  679TMC3     O10047   0.202   2.118   0.802 -0.4767  1.1579 -0.1449
  679TMC3     H10048   0.182   2.211   1.036  1.8379 -0.8154 -1.8618
  679TMC3    H110049   0.283   2.480   0.722 -2.3135 -2.5891 -2.4631
  679TMC3    H210050   0.002   2.586   1.030  2.3662  1.4408 -0.5672
  679TMC3    C710051   0.148   2.691   0.813  0.3213 -0.6538  0.3531
  679TMC3    C810052   4.697   2.345   1.123  0.9135  0.6305  0.8402
  679TMC3    O110053   0.242   2.709   0.732  0.1654 -0.0171 -0.3334
  679TMC3    O210054   4.644   2.431   1.195  0.2560 -0.5365  0.0147
  680MPD2     C10055   0.175   0.707  13.706  0.5331  0.2547 -0.3923
  680MPD2    C110056   0.291   0.627  13.728  0.1768 -0.3938  0.1834
  680MPD2    C210057   0.391   0.672  13.809 -0.2156 -0.9184 -0.2965
  680MPD2    C310058   0.393   0.805  13.853 -0.0447  0.1984 -0.1128
  680MPD2    C410059   0.291   0.894  13.816  0.4122  0.5467  0.1580
  680MPD2    C510060   0.181   0.838  13.750 -0.3458 -0.2216  0.0843
  680MPD2     H10061   0.475   0.604  13.822  0.3192 -0.1090  0.4346
  680MPD2    H110062   0.290   1.000  13.839 -1.8627  0.3539  0.9054
  680MPD2    H210063   0.086   0.671  13.654  1.2391 -2.5433  0.3498
  680MPD2    H310064   0.112   0.904  13.700 -0.2556 -0.3718 -0.2332
  680MPD2     N10065   0.493   0.853  13.945  0.5750 -0.3715 -0.0854
  680MPD2    H510066   0.515   0.951  13.956 -0.9836  0.0798 -1.0732
  680MPD2    N110067   0.294   0.503  13.661  0.1008  0.2672 -0.2549
  680MPD2    H710068   0.218   0.491  13.594  0.7170 -0.4340 -0.8260
  681TMC3    C110069   0.352   0.313  13.542 -0.2088 -0.2380  0.9747
  681TMC3    C210070   0.229   0.264  13.570  0.5295  0.4582  0.3054
  681TMC3    C310071   0.213   0.128  13.583 -0.3463 -0.3307 -0.4555
  681TMC3    C410072   0.455   0.232  13.504  0.1270  0.3927  0.3491
  681TMC3    C510073   0.430   0.096  13.501  0.7874  0.6132  0.5499
  681TMC3    C610074   0.309   0.040  13.545 -0.7652  0.3968  0.2022
  681TMC3     C10075   0.396   0.418  13.637  0.8427 -0.1371 -0.4464
  681TMC3     O10076   0.510   0.421  13.673 -0.1580 -0.6654  0.3470
  681TMC3     H10077   0.149   0.337  13.579  0.3138  0.3928 -1.1011
  681TMC3    H110078   0.539   0.285  13.460 -1.0292  0.2785 -2.0178
  681TMC3    H210079   0.292   4.656  13.559 -2.4700  0.7432  0.7233
  681TMC3    C710080   0.525   4.722  13.437 -0.1776  0.8760 -0.1076
  681TMC3    C810081   0.077   0.074  13.573  0.2867 -0.0049  0.1532
  681TMC3    O110082   0.494   4.603  13.431  0.5788  0.2160  0.0652
  681TMC3    O210083   0.054   4.706  13.497  0.8651 -0.2347 -0.1197
  682MPD2     C10084   2.575   2.057  10.722 -0.1470 -0.1807 -0.2948
  682MPD2    C110085   2.573   1.919  10.732 -0.4976 -0.3265  0.4433
  682MPD2    C210086   2.503   1.860  10.839 -0.7992 -1.2643 -0.4794
  682MPD2    C310087   2.458   1.944  10.946 -0.4190  0.4646 -0.1109
  682MPD2    C410088   2.469   2.078  10.936  0.6443 -0.2378 -0.0025
  682MPD2    C510089   2.521   2.134  10.822  0.0057 -0.3090 -0.4370
  682MPD2     H10090   2.500   1.752  10.844  3.1129 -1.2976  1.1733
  682MPD2    H110091   2.445   2.150  11.013 -0.0549  2.2304 -2.5215
  682MPD2    H210092   2.612   2.111  10.636  1.2764 -0.0047  0.4160
  682MPD2    H310093   2.521   2.242  10.811 -2.1585 -0.2763 -0.2513
  682MPD2     N10094   2.398   1.893  11.062 -0.1021  0.2154  0.4449
  682MPD2    H510095   2.368   1.959  11.133  2.5463 -0.7140  2.4576
  682MPD2    N110096   2.626   1.833  10.638 -0.7659  0.6378  0.6154
  682MPD2    H710097   2.601   1.734  10.640  1.7145 -0.0223 -0.9272
  683TMC3    C110098   2.359   1.720  11.438  0.1208 -0.7770  0.1973
  683TMC3    C210099   2.269   1.619  11.463 -0.6037  0.0958  0.3517
  683TMC3    C310100   2.201   1.580  11.352  0.1070 -0.2085  0.5071
  683TMC3    C410101   2.367   1.790  11.319 -0.1877  0.0761 -0.0135
  683TMC3    C510102   2.300   1.746  11.216  0.1809  0.1936 -0.5116
  683TMC3    C610103   2.215   1.638  11.230  0.6408  0.6818 -0.2594
  683TMC3     C10104   2.441   1.773  11.544  0.5745  0.1107 -0.2889
  683TMC3     O10105   2.491   1.885  11.536 -0.0040  0.3612 -0.1178
  683TMC3     H10106   2.234   1.589  11.561  0.7348 -0.3056  0.7025
  683TMC3    H110107   2.442   1.869  11.313  1.4405 -1.5727 -1.3033
  683TMC3    H210108   2.159   1.610  11.141  1.5410  0.5683 -0.7887
  683TMC3    C710109   2.346   1.773  11.074  0.3850 -0.3220 -0.2879
  683TMC3    C810110   2.119   1.467  11.366  0.9868 -0.1803  0.2877
  683TMC3    O110111   2.348   1.679  10.995 -1.4210  0.2313 -0.4615
  683TMC3    O210112   2.015   1.457  11.306  0.3379  0.1627 -0.1174
  684MPD2     C10113   0.815   1.606  16.317  0.1203 -0.0245 -0.0985
  684MPD2    C110114   0.769   1.601  16.192 -0.3385  0.2444 -0.6773
  684MPD2    C210115   0.849   1.659  16.094  0.6886 -0.4232  0.0766
  684MPD2    C310116   0.976   1.699  16.126  0.1568 -0.8744 -0.3668
  684MPD2    C410117   1.023   1.708  16.252 -0.5803 -0.4370 -1.2333
  684MPD2    C510118   0.938   1.662  16.347 -0.6509 -0.3967  0.6339
  684MPD2     H10119   0.823   1.659  15.989 -1.0709 -0.3969  0.5155
  684MPD2    H110120   1.124   1.741  16.272 -0.7119  0.1240 -1.4902
  684MPD2    H210121   0.758   1.556  16.394  1.4495 -1.9085 -0.3254
  684MPD2    H310122   0.975   1.670  16.449  1.5838 -1.6335 -0.0597
  684MPD2     N10123   1.072   1.724  16.034 -0.3196 -0.8038 -0.0236
  684MPD2    H510124   1.160   1.743  16.081 -0.8859  0.9890  0.2981
  684MPD2    N110125   0.659   1.518  16.163 -0.3539  0.0840  0.1570
  684MPD2    H710126   0.630   1.459  16.240  2.8542 -2.5847 -0.6816
  685TMC3    C110127   0.538   1.383  16.006  0.6988 -0.1213 -0.5731
  685TMC3    C210128   0.432   1.378  15.917 -0.7992 -0.7289 -0.3849
  685TMC3    C310129   0.406   1.257  15.855  0.4174  0.7017  0.2888
  685TMC3    C410130   0.616   1.272  16.023 -0.5327  0.1054 -0.0593
  685TMC3    C510131   0.596   1.154  15.951  0.8641  0.1071  0.3403
  685TMC3    C610132   0.486   1.149  15.871 -0.1135 -0.5649  0.2326
  685TMC3     C10133   0.602   1.508  16.036  0.0145  0.2062 -0.1580
  685TMC3     O10134   0.593   1.597  15.947  0.0501 -0.0173 -0.1394
  685TMC3     H10135   0.378   1.470  15.899 -0.7852 -0.4686  0.8523
  685TMC3    H110136   0.711   1.290  16.072 -0.8236  0.6663  0.3125
  685TMC3    H210137   0.465   1.063  15.809 -0.3512  0.1063 -0.6106
  685TMC3    C710138   0.713   1.065  15.937  0.7063  0.8065  0.3648
  685TMC3    C810139   0.289   1.235  15.774  0.5517  0.1353 -0.7741
  685TMC3    O110140   0.715   1.002  15.833 -0.0120 -0.4240  0.2699
  685TMC3    O210141   0.285   1.169  15.673 -0.2535 -0.2378 -0.0631
  686MPD2     C10142   2.053   1.090  15.173  0.0682 -0.7151  0.3163
  686MPD2    C110143   1.994   1.012  15.264  0.3439  0.1545  0.6651
  686MPD2    C210144   2.028   0.877  15.259  0.3203  0.0016  0.0189
  686MPD2    C310145   2.098   0.826  15.150  0.1349 -0.0515 -0.7980
  686MPD2    C410146   2.139   0.910  15.054 -0.3101 -0.0678  0.8766
  686MPD2    C510147   2.116   1.043  15.068 -0.3762  0.0220  0.1221
  686MPD2     H10148   1.972   0.809  15.324  0.4010  0.5405  0.6522
  686MPD2    H110149   2.200   0.890  14.967  1.2831  1.5186  1.6115
  686MPD2    H210150   2.052   1.198  15.177 -1.6789 -0.7730  1.2749
  686MPD2    H310151   2.155   1.113  14.994  2.5579 -2.2145 -0.4072
  686MPD2     N10152   2.138   0.692  15.130 -0.3853 -0.4230  0.5860
  686MPD2    H510153   2.169   0.675  15.035 -0.8589  0.4890  0.2585
  686MPD2    N110154   1.947   1.067  15.382  0.2381  0.2472  0.2724
  686MPD2    H710155   1.945   1.169  15.378 -1.1060  0.2070 -0.0530
  687TMC3    C110156   2.081   0.601  15.351  0.4157 -0.1182 -0.8183
  687TMC3    C210157   1.970   0.546  15.421 -0.1976 -0.3934  0.3801
  687TMC3    C310158   1.970   0.556  15.558  0.1610 -0.1799  0.0872
  687TMC3    C410159   2.172   0.676  15.424  0.1594  0.7975  0.8607
  687TMC3    C510160   2.167   0.679  15.558  0.2593  0.3567 -0.3800
  687TMC3    C610161   2.064   0.628  15.630  0.0238  0.2186 -0.0495
  687TMC3     C10162   2.103   0.581  15.205 -0.1647 -0.4054 -0.5834
  687TMC3     O10163   2.088   0.465  15.165 -0.4914  0.7122 -0.2327
  687TMC3     H10164   1.892   0.492  15.369  1.0289 -1.3026 -0.5019
  687TMC3    H110165   2.265   0.702  15.375 -0.4228 -0.6690 -1.0058
  687TMC3    H210166   2.050   0.659  15.733  0.9042 -0.0562  0.1543
  687TMC3    C710167   2.228   0.796  15.622  0.1473 -0.3851  0.1912
  687TMC3    C810168   1.838   0.550  15.625  0.0753 -0.4530 -1.0027
  687TMC3    O110169   2.239   0.800  15.744  0.3213 -0.0471 -0.1119
  687TMC3    O210170   1.827   0.512  15.741  0.6536  0.3740 -0.3140
  688MPD2     C10171   1.496   0.133  17.223  0.6806  0.2965 -0.1535
  688MPD2    C110172   1.495   0.003  17.275 -0.9374 -1.0532  0.0543
  688MPD2    C210173   1.580   4.633  17.225  0.1561 -1.0137 -0.1707
  688MPD2    C310174   1.679   4.679  17.137 -0.0734  0.0791 -0.4083
  688MPD2    C410175   1.677   0.082  17.084 -0.3518  0.0897 -0.1718
  688MPD2    C510176   1.584   0.173  17.129  0.2345 -0.7775 -0.2003
  688MPD2     H10177   1.588   4.539  17.280 -2.3673 -0.0179  1.8626
  688MPD2    H110178   1.753   0.110  17.011 -1.6147  0.8475 -1.1892
  688MPD2    H210179   1.412   0.197  17.251  0.2998 -0.7799  1.1621
  688MPD2    H310180   1.585   0.274  17.089 -0.5149 -0.4236  0.6551
  688MPD2     N10181   1.782   4.594  17.088  0.1250  0.3351 -0.0590
  688MPD2    H510182   1.834   4.623  17.006  2.6983 -0.5430  1.2515
  688MPD2    N110183   1.396   4.680  17.368  0.4542  0.2743 -0.1585
  688MPD2    H710184   1.379   4.581  17.382  2.5724 -0.0305  0.2753
  689TMC3    C110185   1.265   4.681  17.564 -0.3859  0.0084 -0.1775
  689TMC3    C210186   1.261   0.016  17.691  0.2873 -0.0970 -0.3278
  689TMC3    C310187   1.229   4.653   0.099 -0.0833 -0.0330 -0.4665
  689TMC3    C410188   1.222   4.550  17.533 -0.2699 -1.1439 -0.4787
  689TMC3    C510189   1.190   4.472  17.638  0.8550  0.2383  0.7360
  689TMC3    C610190   1.201   4.520   0.073  0.6736 -0.4672 -0.1879
  689TMC3     C10191   1.336   0.030  17.466  0.4030 -0.0788  0.3870
  689TMC3     O10192   1.356   0.148  17.491  0.3490  0.5241 -0.2186
  689TMC3     H10193   1.284   0.121   0.011  1.4528 -0.4972  0.8979
  689TMC3    H110194   1.233   4.503  17.436  0.8646  0.6656 -1.2217
  689TMC3    H210195   1.178   4.460   0.161  1.2812 -1.2917 -0.5877
  689TMC3    C710196   1.158   4.331  17.632  0.0280 -0.2801  0.6865
  689TMC3    C810197   1.241   4.690   0.241  0.6981 -0.0587  0.3077
  689TMC3    O110198   1.150   4.277   0.048 -0.1426  0.4133  0.2225
  689TMC3    O210199   1.246   4.597   0.317 -0.4687  0.1131  0.3109
  690MPD2     C10200   3.938   1.989  15.553 -0.6758  0.0343 -0.5516
  690MPD2    C110201   3.865   1.980  15.436 -0.2295  0.4400  0.0937
  690MPD2    C210202   3.913   2.040  15.319  0.6852 -0.1097  0.3346
  690MPD2    C310203   4.030   2.116  15.328 -0.0005  0.3210 -0.1910
  690MPD2    C410204   4.096   2.121  15.446 -1.1445  0.3747 -0.0922
  690MPD2    C510205   4.050   2.059  15.554  0.1759 -0.1994 -0.5484
  690MPD2     H10206   3.848   2.029  15.233  1.3676 -0.2232 -0.1665
  690MPD2    H110207   4.188   2.176  15.463 -0.7714 -0.3911  0.3818
  690MPD2    H210208   3.910   1.950  15.651 -2.4750  2.2729 -0.1890
  690MPD2    H310209   4.112   2.057  15.642 -0.4757 -2.0913 -0.1330
  690MPD2     N10210   4.079   2.181  15.210 -0.0371  0.8027  0.3243
  690MPD2    H510211   4.031   2.156  15.124  0.5467 -1.4557  0.6570
  690MPD2    N110212   3.735   1.918  15.429  0.9507 -0.4263  0.1337
  690MPD2    H710213   3.688   1.919  15.339  1.7416 -1.3520 -0.2877
  691TMC3    C110214   3.544   1.806  15.509 -0.2005 -0.3604  0.0726
  691TMC3    C210215   3.476   1.841  15.397  0.7112 -0.1135  0.3901
  691TMC3    C310216   3.357   1.773  15.377  0.2931 -0.2511  0.8957
  691TMC3    C410217   3.525   1.694  15.584  0.1995 -0.5528  0.0129
  691TMC3    C510218   3.412   1.626  15.552  0.4875 -0.0158  0.5670
  691TMC3    C610219   3.324   1.665  15.452 -0.0425  0.5888  0.2228
  691TMC3     C10220   3.667   1.870  15.537 -0.5723 -0.4967 -0.6252
  691TMC3     O10221   3.703   1.863  15.651  0.8131 -0.1149 -0.3685
  691TMC3     H10222   3.494   1.935  15.345  1.1043  1.4544  3.3267
  691TMC3    H110223   3.577   1.675  15.677 -0.1307 -1.1201  0.0865
  691TMC3    H210224   3.232   1.610  15.440  0.7723 -1.2311  2.2609
  691TMC3    C710225   3.410   1.497  15.618  0.5934  0.6911  0.3402
  691TMC3    C810226   3.246   1.823  15.297  0.3636 -0.0824 -0.0721
  691TMC3    O110227   3.528   1.454  15.634  0.2156  0.0271  0.3489
  691TMC3    O210228   3.259   1.876  15.190  0.0141  0.1457 -0.1989
  692TMC3    C110229   0.834   2.949  16.039  0.7256 -0.1273 -0.0595
  692TMC3    C210230   0.909   2.914  16.150 -0.2777 -0.5240  0.3333
  692TMC3    C310231   0.984   2.802  16.141  1.1844  0.5957  0.0210
  692TMC3    C410232   0.865   2.897  15.914  0.0112 -0.1705  0.3170
  692TMC3    C510233   0.946   2.793  15.912 -0.3957 -0.3547 -0.4421
  692TMC3    C610234   1.024   2.752  16.018 -0.0142 -0.1455 -0.0381
  692TMC3     C10235   0.695   2.965  16.073 -0.3463  0.3160 -0.1090
  692TMC3     O10236   0.667   3.015  16.183 -0.8340 -0.1043 -0.0206
  692TMC3     H10237   0.866   2.944  16.245 -2.3981 -0.5731 -0.6199
  692TMC3    H110238   0.799   2.931  15.835  0.6915 -2.2796 -1.1903
  692TMC3    H210239   1.072   2.655  16.022  1.3135  0.5660  1.5281
  692TMC3    C710240   0.878   2.682  15.846  0.9676 -1.0984 -0.4724
  692TMC3    C810241   0.939   2.695  16.234  0.0119 -0.5220 -0.2155
  692TMC3    O110242   0.758   2.699  15.819 -0.0692  0.2510 -0.5581
  692TMC3    O210243   0.940   2.584  16.178 -0.7920  0.2622  0.1830
  693MPD2     C10244   0.276   1.478  10.583 -0.1337 -0.1363  0.6425
  693MPD2    C110245   0.294   1.428  10.711  0.3198  0.6819 -0.8917
  693MPD2    C210246   0.418   1.419  10.774 -0.4635  0.1666 -0.3497
  693MPD2    C310247   0.530   1.433  10.693  0.1780  0.9011 -0.1919
  693MPD2    C410248   0.509   1.471  10.560 -0.0038 -0.2406  0.5628
  693MPD2    C510249   0.390   1.496  10.508 -0.2758 -0.0061 -0.2580
  693MPD2     H10250   0.429   1.387  10.877 -1.3293 -1.6559 -0.8252
  693MPD2    H110251   0.594   1.495  10.496  0.1651 -1.3113  0.3977
  693MPD2    H210252   0.178   1.476  10.538  0.2618  0.7680 -0.2440
  693MPD2    H310253   0.383   1.514  10.401 -3.8362  0.7022  0.0858
  693MPD2     N10254   0.663   1.405  10.726 -0.2841 -0.5946  0.3423
  693MPD2    H510255   0.738   1.418  10.658  0.5034  0.4531  1.4045
  693MPD2    N110256   0.177   1.387  10.772 -0.7866  0.1845  0.2206
  693MPD2    H710257   0.086   1.398  10.727  0.6275 -1.6138 -3.0637
  694TMC3    C110258   0.049   1.285  10.941 -0.5941  0.3802  0.0124
  694TMC3    C210259   4.699   1.211  10.851 -0.7937 -0.0421 -0.2507
  694TMC3    C310260   4.603   1.134  10.899  0.2738  0.6664 -0.1979
  694TMC3    C410261   0.037   1.273  11.072  0.2338 -0.1186  0.4497
  694TMC3    C510262   4.653   1.202  11.113  0.2929  0.4655 -0.7117
  694TMC3    C610263   4.571   1.126  11.032  0.2717  0.6668  0.3392
  694TMC3     C10264   0.173   1.346  10.903  1.0153 -0.9562  0.0760
  694TMC3     O10265   0.255   1.361  10.991  0.0043 -0.3224  0.0517
  694TMC3     H10266   0.001   1.216  10.746  0.5326  0.7709  0.0959
  694TMC3    H110267   0.089   1.347  11.133  1.3844 -1.8197  1.5153
  694TMC3    H210268   4.484   1.068  11.061  1.7085 -0.6122  2.1183
  694TMC3    C710269   4.617   1.235  11.247 -0.0136  0.4640 -0.2506
  694TMC3    C810270   4.558   1.025  10.819 -0.2961 -0.0217 -0.3050
  694TMC3    O110271   4.643   1.349  11.288 -0.1232 -0.8894  0.3530
  694TMC3    O210272   4.462   0.958  10.863 -0.6061  0.4588  0.1937
  695MPD2     C10273   1.135   2.434  13.298 -0.2104  0.6054  0.7168
  695MPD2    C110274   1.094   2.446  13.429 -0.5210  0.3290  0.1956
  695MPD2    C210275   0.975   2.502  13.461  0.0872 -0.7962  0.4822
  695MPD2    C310276   0.897   2.560  13.364 -0.1819 -0.3919  0.1325
  695MPD2    C410277   0.936   2.553  13.232 -0.2114  0.2369  0.5088
  695MPD2    C510278   1.053   2.494  13.200 -0.2135  0.3179 -0.9188
  695MPD2     H10279   0.940   2.500  13.564 -0.7392 -2.4776  0.1654
  695MPD2    H110280   0.879   2.602  13.155  1.2232 -1.2718 -1.5019
  695MPD2    H210281   1.227   2.388  13.264 -0.4707 -0.2039  1.1168
  695MPD2    H310282   1.093   2.484  13.100 -0.9331  2.7309 -1.4315
  695MPD2     N10283   0.777   2.622  13.404 -0.7390 -0.0080  0.8611
  695MPD2    H510284   0.761   2.650  13.500  1.4225  1.4591  0.7861
  695MPD2    N110285   1.168   2.397  13.538  0.8831 -0.2709  0.2361
  695MPD2    H710286   1.129   2.388  13.631  0.2068  0.5759  0.0269
  696TMC3    C110287   0.574   2.741  13.378  0.0014  0.2284 -0.3233
  696TMC3    C210288   0.539   2.719  13.509  0.4269 -0.6306  0.7234
  696TMC3    C310289   0.461   2.823  13.563 -0.4413 -0.1834 -0.0739
  696TMC3    C410290   0.529   2.838  13.293  0.3140 -1.1610 -0.3960
  696TMC3    C510291   0.460   2.939  13.360 -0.0684 -0.4858  0.0310
  696TMC3    C610292   0.419   2.932  13.490  0.8551 -0.4669  0.5704
  696TMC3     C10293   0.688   2.666  13.315 -0.0330 -0.3126 -0.4363
  696TMC3     O10294   0.660   2.616  13.205  0.2852  0.1088 -0.2525
  696TMC3     H10295   0.577   2.639  13.572  2.8526  0.2252  0.3326
  696TMC3    H110296   0.565   2.857  13.192  0.6313 -0.2164 -0.1041
  696TMC3    H210297   0.354   3.001  13.542  0.1356  0.1414 -1.1364
  696TMC3    C710298   0.497   3.070  13.318  0.6082 -0.6783 -0.5918
  696TMC3    C810299   0.481   2.848  13.704  0.3172 -0.4380  0.0158
  696TMC3    O110300   0.506   3.096  13.203 -0.1847 -0.0219  0.9159
  696TMC3    O210301   0.501   2.969  13.722  0.2289  0.1126  0.5025
  697MPD2     C10302   0.217   4.447  15.859 -0.5069  0.2842 -1.0362
  697MPD2    C110303   0.277   4.394  15.745  0.2684 -0.4581  0.0644
  697MPD2    C210304   0.343   4.478  15.651  0.7196  0.1249 -0.2783
  697MPD2    C310305   0.349   4.616  15.676  0.1345 -0.8698 -0.4755
  697MPD2    C410306   0.289   4.667  15.792 -0.1807 -0.4889 -0.1700
  697MPD2    C510307   0.234   4.582  15.881  0.5570  0.2832 -0.2028
  697MPD2     H10308   0.397   4.435  15.566  0.7592 -0.2802 -0.0495
  697MPD2    H110309   0.275   0.047  15.826 -0.5959 -0.3155 -0.8545
  697MPD2    H210310   0.178   4.387  15.940  0.7721 -0.5935 -1.0666
  697MPD2    H310311   0.193   4.626  15.971  3.0255  0.6843  0.7517
  697MPD2     N10312   0.414   4.708  15.579  0.3572 -0.4243  0.2857
  697MPD2    H510313   0.412   4.679  15.482  0.1907 -1.9087  0.7260
  697MPD2    N110314   0.284   4.256  15.720  0.2049  0.6447  0.3467
  697MPD2    H710315   0.322   4.232  15.628 -0.2940 -1.1013  0.5863
  698TMC3    C110316   0.476   0.191  15.491 -0.2672 -0.4464 -1.3189
  698TMC3    C210317   0.578   0.284  15.512  0.4290 -0.2672 -0.6208
  698TMC3    C310318   0.613   0.365  15.401 -0.1954 -0.3070  0.2196
  698TMC3    C410319   0.414   0.171  15.373  0.4437  0.1610 -0.2676
  698TMC3    C510320   0.454   0.252  15.272  0.1868 -0.3529 -0.2538
  698TMC3    C610321   0.547   0.348  15.280  0.2338 -0.2373  0.1204
  698TMC3     C10322   0.440   0.113  15.605  0.4372 -0.3947  0.0941
  698TMC3     O10323   0.456   0.170  15.715 -0.4507 -1.4584  0.2849
  698TMC3     H10324   0.624   0.297  15.609 -0.2577  2.4140 -0.6553
  698TMC3    H110325   0.335   0.099  15.354  0.1818  0.0276  1.3022
  698TMC3    H210326   0.567   0.411  15.195  0.6885  0.7781  0.9733
  698TMC3    C710327   0.419   0.205  15.136 -0.4331 -0.3865 -0.1268
  698TMC3    C810328   0.743   0.418  15.384  0.4112  0.2361  0.1564
  698TMC3    O110329   0.314   0.140  15.121  0.3277 -0.2865 -0.3886
  698TMC3    O210330   0.773   0.441  15.268 -0.4091 -0.3372 -0.2286
  699TMC3    C110331   0.292   2.701  13.064 -0.1325  0.2971  0.1386
  699TMC3    C210332   0.357   2.600  13.137 -0.7388 -0.2409  0.1255
  699TMC3    C310333   0.285   2.546  13.242 -0.2688  0.2758  0.4383
  699TMC3    C410334   0.174   2.754  13.108 -0.2121  0.4151 -0.0517
  699TMC3    C510335   0.121   2.716  13.232 -0.7627  0.0636 -0.2181
  699TMC3    C610336   0.174   2.605  13.296 -0.0288 -0.7700  0.4549
  699TMC3     C10337   0.368   2.761  12.952  0.6977  0.1916  0.1909
  699TMC3     O10338   0.304   2.834  12.877 -0.1399  0.2783  0.2065
  699TMC3     H10339   0.438   2.552  13.083  0.3710 -0.1970  1.7650
  699TMC3    H110340   0.120   2.827  13.048 -0.2755 -1.4307 -2.2267
  699TMC3    H210341   0.122   2.582  13.389 -0.3891 -1.3031  0.1230
  699TMC3    C710342   0.060   2.813  13.316 -0.1740  0.4477 -0.0897
  699TMC3    C810343   0.343   2.434  13.311  0.2555  0.9506 -0.4632
  699TMC3    O110344   0.000   2.784  13.421  0.1355  0.4222  0.0346
  699TMC3    O210345   0.259   2.387  13.387  0.4383  1.0181  0.0297
  700TMC3    C110346   3.957   0.254  17.051  0.0704  0.3924 -0.3278
  700TMC3    C210347   4.008   0.154  17.131 -0.5588 -0.3429  0.5875
  700TMC3    C310348   4.026   0.190  17.259 -0.6463 -0.6890 -0.4416
  700TMC3    C410349   3.920   0.377  17.102 -0.1347  0.7972  0.4474
  700TMC3    C510350   3.924   0.405  17.239 -0.3229  0.7551  0.0944
  700TMC3    C610351   3.986   0.311  17.316  0.3707 -0.1987 -0.7109
  700TMC3     C10352   4.029   0.254  16.921 -0.3508 -0.3497 -0.1233
  700TMC3     O10353   4.027   0.154  16.853 -0.7258  0.0719 -0.1557
  700TMC3     H10354   4.029   0.059  17.083  2.3865  0.3212  0.6017
  700TMC3    H110355   3.885   0.447  17.027 -1.1325 -0.0145  0.1513
  700TMC3    H210356   3.988   0.331  17.422 -1.4662  0.4751 -0.8005
  700TMC3    C710357   3.964   0.545  17.256  0.1930 -0.4765 -0.4138
  700TMC3    C810358   4.144   0.127  17.326  1.3207 -0.2466 -0.5190
  700TMC3    O110359   4.000   0.617  17.161 -0.0673 -0.4793 -0.2103
  700TMC3    O210360   4.166   0.160  17.444  0.3212 -0.3154 -0.0327
  701TMC3    C110361   4.347   3.572  15.762 -1.0271  0.1106  0.4341
  701TMC3    C210362   4.344   3.523  15.635  0.2940 -0.0353 -0.4609
  701TMC3    C310363   4.444   3.551  15.551 -0.0931  0.3968 -0.0393
  701TMC3    C410364   4.455   3.639  15.807  0.8645  0.4159 -0.8861
  701TMC3    C510365   4.554   3.668  15.717  0.6758  0.1516  0.6816
  701TMC3    C610366   4.549   3.623  15.587  0.9052  0.0670  0.0208
  701TMC3     C10367   4.232   3.581  15.849  0.0753 -0.1604 -0.0873
  701TMC3     O10368   4.239   3.568  15.972  0.8096  0.4912  0.5847
  701TMC3     H10369   4.261   3.458  15.610  0.9152 -1.5278  1.3667
  701TMC3    H110370   4.443   3.688  15.903 -2.2225 -1.3948 -0.3517
  701TMC3    H210371   4.625   3.646  15.514  1.2218 -1.3261 -0.1029
  701TMC3    C710372   4.602   3.802  15.721 -0.4184  0.2308 -0.4133
  701TMC3    C810373   4.464   3.457  15.437 -0.0584 -0.4612 -0.3479
  701TMC3    O110374   4.626   3.855  15.616 -0.6629 -0.1801 -0.0690
  701TMC3    O210375   4.573   3.410  15.426  0.1458  0.5941  0.8739
  702MPD2     C10376   4.114   1.488  10.513  0.5422  0.1261  0.2415
  702MPD2    C110377   3.986   1.477  10.564 -0.3154 -0.0309  0.2728
  702MPD2    C210378   3.880   1.480  10.474 -0.0886 -0.5564 -1.0710
  702MPD2    C310379   3.896   1.501  10.338 -0.2983  0.2412 -0.7227
  702MPD2    C410380   4.023   1.489  10.288 -0.8442  0.1807  0.7088
  702MPD2    C510381   4.132   1.492  10.379 -0.5668 -0.1014 -0.4323
  702MPD2     H10382   3.782   1.475  10.520  0.4369  1.2101  0.2712
  702MPD2    H110383   4.047   1.484  10.183  1.0428 -1.5980  1.2094
  702MPD2    H210384   4.205   1.474  10.571 -0.1692 -2.1801  0.7858
  702MPD2    H310385   4.232   1.481  10.337 -0.6564 -0.1996 -0.6208
  702MPD2     N10386   3.788   1.531  10.250 -0.1926 -0.1063 -0.1741
  702MPD2    H510387   3.798   1.507  10.152 -1.1259 -0.8377 -0.0842
  702MPD2    N110388   3.951   1.452  10.695  0.0228 -0.0031  0.1060
  702MPD2    H710389   3.851   1.442  10.714  0.0581  0.7479  0.6964
  703TMC3    C110390   3.694   1.702  10.385  0.5801 -0.9704  0.5126
  703TMC3    C210391   3.625   1.687  10.500  0.2147 -0.2709  0.7266
  703TMC3    C310392   3.672   1.734  10.615  0.1889 -0.6546 -0.2514
  703TMC3    C410393   3.801   1.783  10.384 -1.0525 -0.4082  0.0055
  703TMC3    C510394   3.850   1.825  10.503  0.3353  0.4434 -0.0154
  703TMC3    C610395   3.784   1.817  10.619 -0.8733 -0.1323  0.0321
  703TMC3     C10396   3.679   1.606  10.281  0.5005  0.3396 -0.0121
  703TMC3     O10397   3.572   1.611  10.216  0.7716 -0.5816 -0.1721
  703TMC3     H10398   3.543   1.616  10.508 -0.4186  0.5786  1.8329
  703TMC3    H110399   3.854   1.787  10.290 -2.7266 -0.0312 -0.9381
  703TMC3    H210400   3.822   1.837  10.718 -2.4115 -1.9507  0.9752
  703TMC3    C710401   3.984   1.880  10.497 -0.2336  0.5325 -0.0780
  703TMC3    C810402   3.645   1.651  10.730 -0.5649  0.2104  0.0039
  703TMC3    O110403   4.022   1.905  10.382  0.1838  0.1651 -0.1974
  703TMC3    O210404   3.740   1.627  10.805  0.1841  0.3025 -0.1034
  704TMC3    C110405   1.552   4.512  12.346  0.2196 -0.0470 -0.3991
  704TMC3    C210406   1.684   4.539  12.350  0.6231 -0.4372  0.4307
  704TMC3    C310407   1.763   4.465  12.432 -0.9386 -0.3670 -0.3453
  704TMC3    C410408   1.491   4.405  12.407 -0.1511 -0.3382 -0.0392
  704TMC3    C510409   1.578   4.322  12.472 -0.6735  0.1996 -0.1141
  704TMC3    C610410   1.708   4.358  12.495  0.0452  0.6724 -0.2024
  704TMC3     C10411   1.481   4.573  12.239  0.6487 -0.5054 -0.8289
  704TMC3     O10412   1.357   4.577  12.249  0.1257 -0.0961  0.4731
  704TMC3     H10413   1.715   4.633  12.305 -0.4005  0.5322  1.7316
  704TMC3    H110414   1.387   4.385  12.385  0.4247 -2.2221 -1.1054
  704TMC3    H210415   1.775   4.288  12.545  1.2910  0.9864 -1.4462
  704TMC3    C710416   1.564   4.181  12.442 -0.2026  0.0122 -0.4354
  704TMC3    C810417   1.895   4.452  12.371 -0.1011  1.2327  0.1082
  704TMC3    O110418   1.661   4.112  12.456  0.2072  0.0428  0.6037
  704TMC3    O210419   1.905   4.503  12.260 -0.6179  0.1707  0.0251
  705MPD2     C10420   0.938   2.095  16.200  0.1269  0.4863  0.4489
  705MPD2    C110421   0.921   2.231  16.193  0.1746 -0.9606  0.3581
  705MPD2    C210422   0.796   2.289  16.226  0.1977 -0.0302 -0.6102
  705MPD2    C310423   0.708   2.217  16.300  0.3581 -0.4100 -0.4436
  705MPD2    C410424   0.731   2.084  16.326  0.0311 -0.3991  0.6168
  705MPD2    C510425   0.836   2.019  16.261  1.4986 -0.2372 -0.7536
  705MPD2     H10426   0.780   2.392  16.198 -1.4771 -0.1454 -0.0528
  705MPD2    H110427   0.664   2.015  16.376 -0.1292 -0.2673  0.5823
  705MPD2    H210428   1.026   2.042  16.168 -0.5100  0.3877 -1.1328
  705MPD2    H310429   0.860   1.915  16.279  0.5288 -0.4694 -0.8203
  705MPD2     N10430   0.593   2.287  16.346  0.2434  0.0528 -0.4263
  705MPD2    H510431   0.568   2.373  16.299 -3.5630 -0.9535 -0.2208
  705MPD2    N110432   1.022   2.312  16.135 -0.5570 -0.2633 -0.5693
  705MPD2    H710433   1.004   2.412  16.141  0.4678 -0.0676 -0.7554
  706TMC3    C110434   1.465   2.419  16.016 -0.3206 -1.0737  0.3592
  706TMC3    C210435   1.468   2.511  16.110 -0.7115  0.2748 -0.0328
  706TMC3    C310436   1.357   2.533  16.193 -0.0581  0.7676  0.0937
  706TMC3    C410437   1.352   2.343  16.001 -0.7842 -0.0309 -0.4611
  706TMC3    C510438   1.242   2.372  16.083  0.9066  0.1537 -0.1890
  706TMC3    C610439   1.240   2.466  16.182 -0.1169 -0.0396  0.3749
  706TMC3     C10440   1.562   2.419  15.908  0.4770 -0.2495  0.9749
  706TMC3     O10441   1.655   2.499  15.904 -0.1743 -0.3466 -0.1742
  706TMC3     H10442   1.550   2.582  16.118  0.6141 -1.1088 -1.3564
  706TMC3    H110443   1.337   2.260  15.933 -3.1260 -1.2484  1.5578
  706TMC3    H210444   1.162   2.494  16.252 -0.7940  0.7993 -0.7223
  706TMC3    C710445   1.141   2.268  16.082 -0.1255 -0.1377 -0.2963
  706TMC3    C810446   1.333   2.675  16.212  0.0668  0.4346 -0.0704
  706TMC3    O110447   1.184   2.158  16.059 -0.1003  0.2872 -0.1501
  706TMC3    O210448   1.382   2.744  16.127 -0.1379 -0.0423  0.0869
  707TMC3    C110449   2.727   1.138   1.770  0.0648 -0.1462 -0.3397
  707TMC3    C210450   2.705   1.019   1.703  0.0955 -0.0522  0.1759
  707TMC3    C310451   2.589   0.945   1.717 -0.2794 -0.0857 -1.1829
  707TMC3    C410452   2.623   1.196   1.840 -0.2981 -0.9195  0.2456
  707TMC3    C510453   2.505   1.127   1.841  0.2887 -0.0522  0.4751
  707TMC3    C610454   2.483   1.004   1.784  0.3922  1.0886 -0.4957
  707TMC3     C10455   2.862   1.185   1.762  0.2688 -0.3725 -0.5794
  707TMC3     O10456   2.915   1.160   1.657  0.0542  0.0255  0.5641
  707TMC3     H10457   2.780   0.985   1.632 -1.3336 -0.0153 -1.3590
  707TMC3    H110458   2.635   1.286   1.899 -1.3964 -1.1913  0.8780
  707TMC3    H210459   2.389   0.952   1.778 -0.3427  2.2905  0.7117
  707TMC3    C710460   2.376   1.202   1.863  0.4210 -0.3244  0.1938
  707TMC3    C810461   2.552   0.845   1.615 -0.0722  0.3461  0.5136
  707TMC3    O110462   2.274   1.143   1.885  0.0461  0.0602  0.0386
  707TMC3    O210463   2.441   0.844   1.569  0.4228 -1.3260  0.0374
  708MPD2     C10464   4.162   1.558  13.631  0.2090  0.3142  0.4388
  708MPD2    C110465   4.065   1.504  13.714  0.3483  1.0340 -0.0982
  708MPD2    C210466   4.107   1.418  13.811  0.1609  0.0263 -0.4268
  708MPD2    C310467   4.241   1.397  13.844 -0.2259 -0.0552  0.1015
  708MPD2    C410468   4.336   1.457  13.770  0.1904  0.1960  0.5403
  708MPD2    C510469   4.298   1.540  13.666 -0.3674  0.5081  0.3281
  708MPD2     H10470   4.024   1.368  13.861  0.7452 -1.2091 -0.6913
  708MPD2    H110471   4.440   1.432  13.788  0.5014 -0.0423 -1.6494
  708MPD2    H210472   4.137   1.635  13.558  3.4442  0.5813 -0.4277
  708MPD2    H310473   4.370   1.596  13.608  0.3676 -1.4333 -0.6269
  708MPD2     N10474   4.281   1.309  13.945 -0.3540  0.1926 -0.4426
  708MPD2    H510475   4.382   1.299  13.955 -0.2918  2.2960  0.8471
  708MPD2    N110476   3.923   1.515  13.700  0.3353 -0.3619  0.0734
  708MPD2    H710477   3.866   1.469  13.770  0.2275 -0.9265 -0.3909
  709TMC3    C110478   3.720   1.527  13.577  0.1586 -0.4976 -0.0686
  709TMC3    C210479   3.709   1.443  13.469 -0.6730  0.4100  0.5450
  709TMC3    C310480   3.660   1.315  13.498  0.4568  0.0787 -0.2077
  709TMC3    C410481   3.664   1.509  13.696 -0.0695  0.0808  0.8389
  709TMC3    C510482   3.604   1.388  13.725  0.3709  0.5160  0.4044
  709TMC3    C610483   3.613   1.289  13.626 -0.4600 -0.3447 -0.0543
  709TMC3     C10484   3.859   1.576  13.591 -0.0988 -0.4133  0.0036
  709TMC3     O10485   3.916   1.634  13.493 -0.5999  0.4313  0.0209
  709TMC3     H10486   3.760   1.464  13.376  1.3046 -2.1571  1.0659
  709TMC3    H110487   3.679   1.574  13.782  0.6511 -0.3216  1.0187
  709TMC3    H210488   3.588   1.188  13.657 -2.6323  0.9469  2.4729
  709TMC3    C710489   3.649   1.343  13.858 -1.2438 -0.6244 -0.2061
  709TMC3    C810490   3.687   1.202  13.409  0.0639 -0.0319 -0.0681
  709TMC3    O110491   3.763   1.393  13.888 -0.0065  0.5086  0.0232
  709TMC3    O210492   3.669   1.094  13.458 -0.4719  0.3674  0.1902
  710TMC3    C110493   0.539   3.285   0.521  0.2920 -0.8085 -0.6890
  710TMC3    C210494   0.619   3.204   0.449 -0.4723  0.2095 -0.5553
  710TMC3    C310495   0.561   3.119   0.364  0.5468  0.5814 -0.5600
  710TMC3    C410496   0.402   3.276   0.510 -0.3223 -1.4099  0.3860
  710TMC3    C510497   0.346   3.193   0.426  0.4423 -0.1471 -0.3743
  710TMC3    C610498   0.426   3.113   0.349 -0.0787 -0.1146  0.3829
  710TMC3     C10499   0.594   3.399   0.599 -1.1370  0.9454 -1.1663
  710TMC3     O10500   0.698   3.449   0.558  0.5291 -0.0879  0.1070
  710TMC3     H10501   0.724   3.224   0.466 -0.0879 -0.9431 -1.5839
  710TMC3    H110502   0.349   3.348   0.571  0.5941  0.2549 -0.7891
  710TMC3    H210503   0.387   3.030   0.290 -2.3714  1.4397 -0.2897
  710TMC3    C710504   0.230   3.132   0.483  0.1167  0.0620  0.0392
  710TMC3    C810505   0.641   3.012   0.300 -0.2421 -0.0674  0.7519
  710TMC3    O110506   0.227   3.014   0.454 -0.1545 -0.4068 -0.2870
  710TMC3    O210507   0.581   2.947   0.212 -0.0153 -0.4144 -0.3350
  711TMC3    C110508   0.159   3.509  15.140 -0.0406  0.0678 -0.2395
  711TMC3    C210509   0.188   3.547  15.267  0.7754 -0.1718  0.3872
  711TMC3    C310510   0.320   3.538  15.308  0.3398 -0.4245 -0.0731
  711TMC3    C410511   0.250   3.432  15.067 -0.0072  0.0893  0.1430
  711TMC3    C510512   0.379   3.432  15.117  0.1930 -0.2609 -0.0812
  711TMC3    C610513   0.416   3.494  15.230 -0.0584  0.6662 -0.0945
  711TMC3     C10514   0.023   3.507  15.089  0.2222 -0.4120 -0.2818
  711TMC3     O10515   4.722   3.416  15.011 -0.3815  0.8175  0.5179
  711TMC3     H10516   0.111   3.585  15.334  0.8459 -1.8446  1.4105
  711TMC3    H110517   0.217   3.379  14.978 -1.1944  2.8958 -1.1036
  711TMC3    H210518   0.520   3.498  15.261 -0.0089 -0.6536 -0.0964
  711TMC3    C710519   0.479   3.331  15.077  1.2289  0.7450  0.6785
  711TMC3    C810520   0.332   3.477  15.441  0.4442 -0.1961  0.2696
  711TMC3    O110521   0.582   3.332  15.145 -0.0940 -0.4147 -0.5374
  711TMC3    O210522   0.224   3.449  15.491  0.7820  0.5523  0.2749
  712MPD2     C10523   1.125   4.409  13.192  0.0170  0.7827  0.1887
  712MPD2    C110524   1.265   4.396  13.178 -0.3871  0.0387 -0.7455
  712MPD2    C210525   1.345   4.503  13.216  0.5298  0.7524  0.1380
  712MPD2    C310526   1.282   4.622  13.262 -0.1420  0.7943 -0.3279
  712MPD2    C410527   1.144   4.630  13.269  0.2189 -0.2230  0.3026
  712MPD2    C510528   1.061   4.523  13.240 -1.2616 -0.0742 -0.0385
  712MPD2     H10529   1.452   4.485  13.207  0.1778 -1.1594 -0.1274
  712MPD2    H110530   1.097   4.717  13.313 -0.7920  0.1163 -1.4042
  712MPD2    H210531   1.065   4.320  13.175  0.8090 -0.1229  2.1635
  712MPD2    H310532   0.952   4.525  13.242 -1.2762 -2.4601  1.7504
  712MPD2     N10533   1.364   0.010  13.306 -0.6647 -0.3606  0.2281
  712MPD2    H510534   1.317   0.092  13.344  0.0383  0.2720 -0.2604
  712MPD2    N110535   1.301   4.267  13.143 -0.0290 -0.1440 -0.5665
  712MPD2    H710536   1.219   4.208  13.144 -0.3156  0.2619 -0.2899
  713TMC3    C110537   1.547   0.134  13.389  0.3183  0.1955  0.5150
  713TMC3    C210538   1.662   0.106  13.458 -0.5199 -0.0959 -0.4054
  713TMC3    C310539   1.687   0.173  13.568  0.1387 -0.2627 -0.3978
  713TMC3    C410540   1.471   0.239  13.415  0.1913  0.1554 -0.3328
  713TMC3    C510541   1.519   0.319  13.513  0.7308 -0.2808 -0.9150
  713TMC3    C610542   1.621   0.285  13.596 -0.3069 -0.3011  0.8627
  713TMC3     C10543   1.498   0.025  13.305  0.3084 -0.2113 -0.5461
  713TMC3     O10544   1.585   4.682  13.248 -0.4061 -0.1676  0.0199
  713TMC3     H10545   1.714   0.012  13.443  0.7607  1.0570 -3.0753
  713TMC3    H110546   1.404   0.283  13.342  1.6135  1.3372 -0.9207
  713TMC3    H210547   1.661   0.351  13.672  1.5718 -0.8338  0.3267
  713TMC3    C710548   1.435   0.440  13.554 -0.1081  0.5215  1.3739
  713TMC3    C810549   1.811   0.146  13.637  0.1011 -0.1411 -0.6894
  713TMC3    O110550   1.486   0.516  13.638 -0.6403 -0.2383 -0.0561
  713TMC3    O210551   1.893   0.077  13.575 -0.1526 -0.2996  0.3989
  714MPD2     C10552   2.756   3.245   1.256 -0.4508  0.2976  0.3089
  714MPD2    C110553   2.813   3.119   1.224 -0.6490 -0.0372  0.1811
  714MPD2    C210554   2.808   3.077   1.096  0.4226 -0.4610 -0.6475
  714MPD2    C310555   2.763   3.155   0.994 -0.9201  0.5121 -0.2101
  714MPD2    C410556   2.715   3.283   1.026 -0.7509  0.3273 -0.8376
  714MPD2    C510557   2.711   3.325   1.158 -0.9496  0.1958  0.2890
  714MPD2     H10558   2.851   2.980   1.073 -0.1102 -0.8401 -0.0626
  714MPD2    H110559   2.676   3.347   0.948  2.5983 -1.0422 -3.6317
  714MPD2    H210560   2.743   3.284   1.357  0.6396 -0.5366  0.7639
  714MPD2    H310561   2.665   3.421   1.176 -0.1848  0.6361 -0.1356
  714MPD2     N10562   2.765   3.098   0.866  0.1157  0.7000 -0.5026
  714MPD2    H510563   2.812   3.010   0.845 -1.0213  0.2116 -1.0697
  714MPD2    N110564   2.859   3.035   1.330  0.5010  0.3713 -0.2161
  714MPD2    H710565   2.851   3.078   1.421  0.5758 -1.0505  0.4534
  715TMC3    C110566   2.998   2.879   1.433 -0.1447  0.0690  0.0007
  715TMC3    C210567   3.037   2.746   1.439  0.0454 -0.1644  0.0824
  715TMC3    C310568   3.112   2.712   1.545 -0.4220 -0.0761 -0.2413
  715TMC3    C410569   3.025   2.964   1.540 -0.2973  0.1870 -0.7106
  715TMC3    C510570   3.107   2.923   1.644  0.0685 -0.0829  0.3572
  715TMC3    C610571   3.152   2.793   1.645 -0.1940  0.0416  0.5428
  715TMC3     C10572   2.927   2.915   1.315  1.0022 -0.0927  0.3320
  715TMC3     O10573   2.927   2.834   1.221 -0.1909  0.4979 -0.2919
  715TMC3     H10574   3.034   2.680   1.354  1.8164  0.4682 -0.4845
  715TMC3    H110575   3.013   3.071   1.524 -0.0627  0.3066 -0.1044
  715TMC3    H210576   3.235   2.767   1.710  1.0149  0.5696 -0.7837
  715TMC3    C710577   3.182   3.029   1.705 -0.9238  0.2044 -0.3804
  715TMC3    C810578   3.185   2.592   1.525  0.7226  0.0492  0.5778
  715TMC3    O110579   3.295   3.013   1.740  0.3628 -0.1749  0.0188
  715TMC3    O210580   3.192   2.543   1.417  0.6321  0.1278  0.2051
  716MPD2     C10581   3.911   1.822   9.972 -0.2532  0.4022  0.1746
  716MPD2    C110582   3.882   1.802   9.840 -0.0862 -0.0112  0.1453
  716MPD2    C210583   3.974   1.729   9.772 -0.0868 -0.4064 -0.2299
  716MPD2    C310584   4.086   1.666   9.826  0.0877  0.2324  0.4947
  716MPD2    C410585   4.107   1.691   9.961  0.2491  0.6618 -0.3040
  716MPD2    C510586   4.026   1.768  10.027  0.0091 -0.0604  0.0957
  716MPD2     H10587   3.956   1.727   9.665 -1.2714  1.6850 -0.0604
  716MPD2    H110588   4.196   1.651  10.009 -1.7695  0.2958  3.1415
  716MPD2    H210589   3.846   1.879  10.037 -0.6191  1.9370 -1.5527
  716MPD2    H310590   4.040   1.795  10.131  3.9351 -0.2500 -0.3921
  716MPD2     N10591   4.159   1.585   9.740  0.2248  0.3232  0.1208
  716MPD2    H510592   4.132   1.582   9.642 -1.6635  0.6541  0.6343
  716MPD2    N110593   3.759   1.854   9.792  0.4845  0.7661  0.6142
  716MPD2    H710594   3.691   1.889   9.859 -0.2344 -1.6272  1.1665
  717TMC3    C110595   4.270   1.399   9.666 -0.2152  0.0133 -0.1883
  717TMC3    C210596   4.178   1.392   9.559  0.2014 -0.3164 -1.0047
  717TMC3    C310597   4.196   1.292   9.470 -0.0123 -0.0880  0.4124
  717TMC3    C410598   4.341   1.289   9.704  0.4330 -1.3808 -0.0801
  717TMC3    C510599   4.345   1.183   9.619  0.4405  0.1316 -0.3321
  717TMC3    C610600   4.285   1.190   9.494 -0.2254 -0.4327 -0.1230
  717TMC3     C10601   4.250   1.502   9.772  0.8607  0.1035  0.2424
  717TMC3     O10602   4.307   1.476   9.878 -0.6319 -0.6103  0.0714
  717TMC3     H10603   4.126   1.480   9.524  1.1212  0.8611  0.6128
  717TMC3    H110604   4.398   1.289   9.796  0.1028  3.2859  0.1345
  717TMC3    H210605   4.310   1.117   9.418 -1.3486 -2.5822  1.5636
  717TMC3    C710606   4.417   1.063   9.660  0.3589 -0.2403  0.1634
  717TMC3    C810607   4.114   1.292   9.347 -0.1826 -0.6698  0.2699
  717TMC3    O110608   4.483   1.083   9.764 -0.3833  0.0216 -0.6597
  717TMC3    O210609   4.041   1.391   9.330  0.6872 -0.5892 -0.2492
  718MPD2     C10610   3.064   0.653  13.016 -0.6837  0.1277 -0.5647
  718MPD2    C110611   3.085   0.574  12.906 -0.2624  0.2896 -0.4188
  718MPD2    C210612   3.004   0.465  12.883 -0.1385  0.1053  0.1714
  718MPD2    C310613   2.903   0.429  12.975  0.1618 -0.6804  0.4687
  718MPD2    C410614   2.896   0.502  13.093  0.2196  0.3762 -0.1935
  718MPD2    C510615   2.977   0.610  13.112  0.2507  0.1732  0.0696
  718MPD2     H10616   3.013   0.404  12.794 -2.0699  0.7726 -0.4724
  718MPD2    H110617   2.831   0.478  13.176  0.6772 -0.4507 -0.0737
  718MPD2    H210618   3.115   0.747  13.034 -0.1607 -0.4128  0.7971
  718MPD2    H310619   2.964   0.662  13.206 -0.1032 -2.0526  1.2591
  718MPD2     N10620   2.808   0.337  12.932  0.2215 -0.2580 -0.3103
  718MPD2    H510621   2.810   0.302  12.837  0.7286  2.1138 -1.1799
  718MPD2    N110622   3.181   0.611  12.806 -0.1028  0.5884  0.2419
  718MPD2    H710623   3.196   0.542  12.733  0.0555  0.2524  0.5933
  719TMC3    C110624   3.327   0.726  12.670  0.1375  0.3288 -0.5274
  719TMC3    C210625   3.331   0.602  12.611  0.3437  0.1356  0.1759
  719TMC3    C310626   3.292   0.590  12.480 -0.6066  0.1808  0.0155
  719TMC3    C410627   3.309   0.838  12.600 -0.4227  0.1944 -0.4328
  719TMC3    C510628   3.295   0.828  12.466  0.0434  0.4199  0.9163
  719TMC3    C610629   3.273   0.703  12.409  0.1959  0.3706  0.1294
  719TMC3     C10630   3.250   0.730  12.794  0.2080  0.1103 -0.1533
  719TMC3     O10631   3.231   0.842  12.847  0.3834 -0.4561  0.0870
  719TMC3     H10632   3.351   0.513  12.670 -0.0643  0.3352  0.6251
  719TMC3    H110633   3.342   0.932  12.643  0.6611  0.1132 -1.0793
  719TMC3    H210634   3.255   0.696  12.302 -0.1423 -3.9742  0.4573
  719TMC3    C710635   3.359   0.922  12.370  0.1260  0.5230  0.3016
  719TMC3    C810636   3.190   0.490  12.479 -0.6998 -0.2322  0.7375
  719TMC3    O110637   3.447   0.885  12.293  0.8141  0.4087 -0.4461
  719TMC3    O210638   3.177   0.425  12.577  0.3019 -0.0486  0.1425
  720MPD2     C10639   1.662   1.160  14.100  0.3280 -0.2577  0.4965
  720MPD2    C110640   1.678   1.296  14.088 -0.1327 -0.8724  0.5421
  720MPD2    C210641   1.750   1.367  14.194  0.8499  0.2582  0.3006
  720MPD2    C310642   1.821   1.291  14.286  0.8876  0.4357  0.2602
  720MPD2    C410643   1.816   1.155  14.288  0.6826  0.1252 -0.4847
  720MPD2    C510644   1.732   1.092  14.194  0.2390 -0.6131  0.0797
  720MPD2     H10645   1.748   1.475  14.191  1.2349  0.2878  1.0176
  720MPD2    H110646   1.883   1.091  14.343 -0.8501 -1.5808 -0.5831
  720MPD2    H210647   1.621   1.105  14.016  1.1720  0.5434 -0.4450
  720MPD2    H310648   1.751   0.986  14.178  2.5125 -0.0766 -0.7514
  720MPD2     N10649   1.909   1.359  14.369 -0.0820 -0.2926  0.4606
  720MPD2    H510650   1.918   1.458  14.352 -1.7909 -0.2121  0.0213
  720MPD2    N110651   1.620   1.378  13.989  0.4812  0.1262 -0.4168
  720MPD2    H710652   1.637   1.477  14.002 -0.2559  0.0219  1.4471
  721TMC3    C110653   2.081   1.410  14.521  0.0407 -0.5151  0.5799
  721TMC3    C210654   2.106   1.420  14.658 -0.2143  0.2407 -0.2187
  721TMC3    C310655   2.195   1.514  14.701 -0.1476 -0.4956 -1.0277
  721TMC3    C410656   2.148   1.482  14.428  0.2252 -0.6315 -0.7118
  721TMC3    C510657   2.250   1.563  14.480  0.0758 -0.4122  0.5046
  721TMC3    C610658   2.278   1.576  14.612  0.0587  0.3445 -0.0653
  721TMC3     C10659   1.987   1.310  14.471  0.3876  0.5408 -0.0765
  721TMC3     O10660   1.989   1.200  14.528 -0.2727 -0.1782 -0.1956
  721TMC3     H10661   2.042   1.371  14.730 -0.8031 -0.0696 -0.9431
  721TMC3    H110662   2.132   1.478  14.321 -0.8387 -2.5894 -0.4660
  721TMC3    H210663   2.343   1.657  14.645 -0.0944  0.8396 -0.9786
  721TMC3    C710664   2.319   1.662  14.400 -0.2414 -0.1273 -0.1493
  721TMC3    C810665   2.201   1.543  14.839  0.0361  0.3880  0.4777
  721TMC3    O110666   2.429   1.702  14.441 -0.3541  0.4127  0.4474
  721TMC3    O210667   2.304   1.589  14.880 -0.2470  0.2260  0.6451
  722MPD2     C10668   0.435   0.131  13.105 -0.1590  0.3078  0.1070
  722MPD2    C110669   0.388   0.253  13.134  0.2575 -0.3068 -0.2698
  722MPD2    C210670   0.263   0.265  13.191 -0.2875 -0.6075 -0.3484
  722MPD2    C310671   0.174   0.153  13.190  0.2141  0.1747 -0.2212
  722MPD2    C410672   0.226   0.028  13.163  0.2891  0.4684 -0.6034
  722MPD2    C510673   0.362   0.021  13.127 -0.0519  0.8582  0.8196
  722MPD2     H10674   0.230   0.365  13.216 -1.2852 -1.1083  0.3064
  722MPD2    H110675   0.172   4.656  13.155  1.0969 -0.0654  0.2381
  722MPD2    H210676   0.530   0.106  13.059  0.5056  0.0796  1.5963
  722MPD2    H310677   0.405   4.644  13.117 -0.4485  0.6066  1.6368
  722MPD2     N10678   0.037   0.166  13.201  0.3724 -0.4867 -0.7714
  722MPD2    H510679   4.710   0.081  13.173  2.8674 -1.6152 -1.7438
  722MPD2    N110680   0.475   0.365  13.127 -0.1468  0.1872 -0.5760
  722MPD2    H710681   0.447   0.451  13.173 -1.7373 -1.2401  1.1258
  723TMC3    C110682   4.546   0.262  13.177  0.3087  0.5060 -0.0601
  723TMC3    C210683   4.526   0.177  13.072  0.4573  0.5319  0.2284
  723TMC3    C310684   4.413   0.202  12.994  0.3970 -0.5495  0.2209
  723TMC3    C410685   4.454   0.355  13.214  0.4141 -0.7111 -0.1546
  723TMC3    C510686   4.351   0.380  13.129 -0.7372 -0.1456  0.5646
  723TMC3    C610687   4.325   0.301  13.020  0.4310 -0.0025 -0.0789
  723TMC3     C10688   4.686   0.284  13.222 -0.6648 -0.2491  0.0105
  723TMC3     O10689   4.713   0.400  13.255 -0.2222  0.9839  0.2586
  723TMC3     H10690   4.603   0.111  13.032 -0.6957 -1.8961  2.0044
  723TMC3    H110691   4.464   0.407  13.308  0.7018 -0.4918 -0.3080
  723TMC3    H210692   4.231   0.310  12.967  0.3378  0.1912  0.1176
  723TMC3    C710693   4.341   0.518  13.100  0.6626  0.7230 -0.2780
  723TMC3    C810694   4.403   0.134  12.864  0.3614 -0.8289  0.2708
  723TMC3    O110695   4.366   0.587  13.196 -0.2904 -0.0786  0.2024
  723TMC3    O210696   4.358   0.203  12.776 -0.4005 -0.5716 -0.2758
  724TMC3    C110697   1.144   3.321  11.265  0.4155 -0.0881  0.1731
  724TMC3    C210698   1.148   3.266  11.136  0.0295 -0.4582  0.1835
  724TMC3    C310699   1.200   3.350  11.045  1.1619 -0.0851  0.3142
  724TMC3    C410700   1.201   3.434  11.300  0.3190  0.4533  0.1101
  724TMC3    C510701   1.283   3.496  11.210 -0.5651  0.2774  0.5862
  724TMC3    C610702   1.274   3.462  11.080  0.0389  0.4232  1.2245
  724TMC3     C10703   1.099   3.226  11.373 -0.5285 -0.6614  0.5350
  724TMC3     O10704   1.065   3.282  11.474 -0.2417  0.4384  0.1016
  724TMC3     H10705   1.076   3.192  11.103  0.0351 -2.1249  3.9243
  724TMC3    H110706   1.206   3.458  11.405 -0.0862  0.4963  0.1188
  724TMC3    H210707   1.311   3.529  11.003 -2.0096  1.7520  1.3851
  724TMC3    C710708   1.351   3.619  11.235 -0.7385 -0.9197  0.1187
  724TMC3    C810709   1.164   3.329  10.906  0.5594 -0.6391 -0.6476
  724TMC3    O110710   1.406   3.672  11.136 -0.4062 -0.0559 -0.0096
  724TMC3    O210711   1.098   3.228  10.876  0.6031 -0.2228  0.0278
  725TMC3    C110712   2.669   1.728  13.002  0.2066 -0.2588  0.0846
  725TMC3    C210713   2.555   1.794  12.983  0.7030  0.5869  0.1350
  725TMC3    C310714   2.446   1.724  12.958 -0.2040 -0.1024  0.1808
  725TMC3    C410715   2.670   1.592  13.027 -0.3576  0.0701 -0.1189
  725TMC3    C510716   2.557   1.518  13.007  0.0826 -1.2009 -0.1582
  725TMC3    C610717   2.440   1.584  12.968  0.7365  0.8293  0.4524
  725TMC3     C10718   2.769   1.817  13.054  0.1850  0.4311  0.5493
  725TMC3     O10719   2.738   1.904  13.133 -0.4349  0.0483 -0.1150
  725TMC3     H10720   2.550   1.901  12.997  0.7800  0.5513  0.4159
  725TMC3    H110721   2.761   1.547  13.064 -0.5586 -0.7947 -0.6542
  725TMC3    H210722   2.347   1.533  12.949  0.5811  0.6553  1.6571
  725TMC3    C710723   2.580   1.386  12.965 -0.4716  0.0582  0.5430
  725TMC3    C810724   2.325   1.796  12.914  0.6466 -0.5934 -0.3255
  725TMC3    O110725   2.686   1.331  12.991  1.2681 -0.7367 -0.3534
  725TMC3    O210726   2.216   1.764  12.954  0.2374 -0.2580 -0.1595
  726MPD2     C10727   0.441   3.440  10.355  0.4071 -0.5544 -0.0233
  726MPD2    C110728   0.336   3.524  10.375 -0.2671 -0.8711 -0.5888
  726MPD2    C210729   0.208   3.470  10.373  0.8468  0.2629 -0.1044
  726MPD2    C310730   0.189   3.328  10.369  0.7179 -0.7062 -0.1561
  726MPD2    C410731   0.297   3.247  10.347 -0.0066 -0.0049  0.7124
  726MPD2    C510732   0.423   3.302  10.335  0.5822  1.1308  0.3733
  726MPD2     H10733   0.125   3.539  10.374  2.1890  1.9263 -2.1607
  726MPD2    H110734   0.295   3.140  10.328 -1.0829  0.0376  0.6353
  726MPD2    H210735   0.540   3.481  10.340  0.2765 -0.3924 -0.4385
  726MPD2    H310736   0.506   3.234  10.322  0.9903  2.1761 -2.3653
  726MPD2     N10737   0.061   3.265  10.377 -0.2373  1.1690 -0.7982
  726MPD2    H510738   0.059   3.165  10.359 -1.2117  1.2744 -1.2622
  726MPD2    N110739   0.353   3.668  10.386 -0.4272  0.2329  0.1418
  726MPD2    H710740   0.273   3.731  10.382  0.7937  1.7565 -0.2826
  727TMC3    C110741   0.475   3.868  10.436 -0.3269 -1.1891 -0.4124
  727TMC3    C210742   0.565   3.931  10.524 -0.4120  0.2631 -0.3878
  727TMC3    C310743   0.604   4.065  10.505  0.1651 -0.3035 -0.0040
  727TMC3    C410744   0.428   3.935  10.325  0.1195 -0.2874 -0.8351
  727TMC3    C510745   0.475   4.062  10.306 -0.1550 -0.6320 -0.2156
  727TMC3    C610746   0.567   4.125  10.389  0.1087 -0.0748 -0.0242
  727TMC3     C10747   0.470   3.720  10.437  0.3161 -0.5696  0.1754
  727TMC3     O10748   0.569   3.654  10.474 -0.6190 -0.4990  0.1734
  727TMC3     H10749   0.618   3.883  10.606 -0.0802  1.4591  0.0864
  727TMC3    H110750   0.344   3.894  10.269 -0.0007  1.1947 -1.7277
  727TMC3    H210751   0.608   4.221  10.361 -0.3308 -0.3327 -1.5820
  727TMC3    C710752   0.420   4.138  10.187  0.5970  0.8200 -0.2532
  727TMC3    C810753   0.688   4.137  10.601  0.4981 -0.2876  0.6898
  727TMC3    O110754   0.365   4.075  10.096  0.5308  0.0737  0.1540
  727TMC3    O210755   0.753   4.073  10.681 -0.5585  0.4324 -0.3619
  728TMC3    C110756   4.227   2.333  15.088  0.4323 -0.2282  0.3183
  728TMC3    C210757   4.334   2.415  15.114 -0.1748 -0.2106 -0.6793
  728TMC3    C310758   4.361   2.525  15.035  0.4844  0.3955  0.0914
  728TMC3    C410759   4.144   2.361  14.985 -0.3055 -0.4198  0.8416
  728TMC3    C510760   4.177   2.465  14.903 -0.1003 -0.5851  0.0520
  728TMC3    C610761   4.282   2.551  14.930 -0.7614 -0.4846  0.6925
  728TMC3     C10762   4.182   2.273  15.209  0.5730 -0.5171  0.2766
  728TMC3     O10763   4.230   2.321  15.308 -0.5141 -0.3225 -0.4768
  728TMC3     H10764   4.403   2.388  15.192  0.3099  2.2237 -0.2454
  728TMC3    H110765   4.056   2.299  14.969 -1.5252  1.4828  0.2634
  728TMC3    H210766   4.306   2.631  14.861 -4.3139 -1.0405 -1.1811
  728TMC3    C710767   4.084   2.512  14.798 -0.0580 -0.1585 -0.0766
  728TMC3    C810768   4.449   2.626  15.085  0.0934 -0.0651  0.0751
  728TMC3    O110769   4.029   2.422  14.735 -0.0309  1.1654  0.3968
  728TMC3    O210770   4.432   2.741  15.050 -0.0299  0.2325  0.0033
  729MPD2     C10771   1.387   3.631  16.918 -0.6125  0.4130  0.1928
  729MPD2    C110772   1.369   3.493  16.917  0.3314 -0.5313 -0.7021
  729MPD2    C210773   1.363   3.423  17.036 -0.3943  0.3336  0.0385
  729MPD2    C310774   1.376   3.485  17.156 -0.1365 -0.6425  0.7295
  729MPD2    C410775   1.376   3.620  17.168  0.1562 -0.2467 -0.7123
  729MPD2    C510776   1.379   3.690  17.045 -0.3013  0.1609  0.1639
  729MPD2     H10777   1.363   3.315  17.044 -1.4488  0.2765 -0.6536
  729MPD2    H110778   1.395   3.679  17.257 -0.4580 -0.2737 -0.5604
  729MPD2    H210779   1.397   3.692  16.829 -0.6541 -0.5626 -0.4801
  729MPD2    H310780   1.393   3.797  17.057  2.9211  0.0051 -2.2085
  729MPD2     N10781   1.382   3.414  17.282  0.1651 -0.1699  0.8873
  729MPD2    H510782   1.411   3.469  17.361  1.8203 -2.7031  2.0548
  729MPD2    N110783   1.380   3.426  16.789 -0.5094 -0.4035 -0.2078
  729MPD2    H710784   1.389   3.484  16.706  0.4011  0.9336  0.8209
  730TMC3    C110785   1.507   3.247  17.378 -0.7073  0.0906 -1.0112
  730TMC3    C210786   1.607   3.196  17.304 -0.1581  0.0299 -0.6478
  730TMC3    C310787   1.735   3.247  17.313  0.1416 -0.7378 -0.1012
  730TMC3    C410788   1.533   3.358  17.462  0.3546 -0.7151 -0.4767
  730TMC3    C510789   1.664   3.407  17.463 -0.2361  0.2032 -0.6570
  730TMC3    C610790   1.762   3.356  17.387 -0.1745 -0.2044  0.0676
  730TMC3     C10791   1.396   3.279  17.298  0.2302 -0.1171 -0.1560
  730TMC3     O10792   1.345   3.189  17.233 -0.1217  0.2404 -0.3930
  730TMC3     H10793   1.577   3.102  17.261 -1.2944 -0.2207  0.6705
  730TMC3    H110794   1.458   3.402  17.526  1.6625  0.0093  0.5565
  730TMC3    H210795   1.867   3.383  17.391  0.0082 -0.6085 -2.5838
  730TMC3    C710796   1.677   3.551  17.456 -0.4040  0.4694  0.0281
  730TMC3    C810797   1.815   3.216  17.195 -0.2501  0.7996  0.5222
  730TMC3    O110798   1.756   3.586  17.372 -0.2221 -0.2432 -0.2975
  730TMC3    O210799   1.823   3.098  17.175  0.3145  0.5599 -0.2295
  731MPD2     C10800   2.028   1.311  12.719  0.8566  0.6386 -0.5737
  731MPD2    C110801   1.976   1.189  12.676  0.1344 -0.4764  0.6212
  731MPD2    C210802   1.900   1.115  12.767  0.6661  0.5791  0.2203
  731MPD2    C310803   1.890   1.157  12.896 -0.1188 -0.0877  0.1806
  731MPD2    C410804   1.954   1.274  12.935 -1.1459  0.5406 -0.5566
  731MPD2    C510805   2.010   1.357  12.845  0.3996  0.3185  0.0105
  731MPD2     H10806   1.869   1.014  12.741 -0.4010  1.6533 -2.6561
  731MPD2    H110807   1.944   1.310  13.037 -0.6959 -1.6806  0.2582
  731MPD2    H210808   2.092   1.365  12.650  0.9530  0.8678 -0.3033
  731MPD2    H310809   2.048   1.456  12.866  1.2085 -0.2001  1.0619
  731MPD2     N10810   1.838   1.062  12.989  0.7189  0.1461 -0.1667
  731MPD2    H510811   1.788   0.991  12.937  0.3457  0.8635 -0.7795
  731MPD2    N110812   1.998   1.157  12.538  0.3897  0.0326 -0.2053
  731MPD2    H710813   2.064   1.217  12.492  0.6454 -0.3307 -0.3085
  732TMC3    C110814   2.024   1.019  12.346  0.6869  0.2598 -0.5190
  732TMC3    C210815   1.949   0.966  12.250 -0.2127  0.1656 -0.1651
  732TMC3    C310816   1.994   0.972  12.117 -0.7579  0.4388  0.7112
  732TMC3    C410817   2.152   1.059  12.322  0.9351 -0.2211  0.1922
  732TMC3    C510818   2.196   1.058  12.193  0.3209  0.4284 -0.5536
  732TMC3    C610819   2.119   1.021  12.086 -0.6555  0.3228 -0.1586
  732TMC3     C10820   1.957   1.039  12.479 -0.7860 -0.4678 -0.2345
  732TMC3     O10821   1.870   0.955  12.511  0.4204  0.3544 -0.2726
  732TMC3     H10822   1.852   0.930  12.283  0.1436  1.3523  2.1641
  732TMC3    H110823   2.211   1.099  12.404 -0.2620  1.3139  0.3127
  732TMC3    H210824   2.160   0.998  11.988 -0.4545  1.8939 -0.4392
  732TMC3    C710825   2.328   1.113  12.160 -0.3563  0.0605  0.2465
  732TMC3    C810826   1.913   0.945  12.005  0.3455  0.6150  0.2015
  732TMC3    O110827   2.355   1.151  12.045 -0.3087  0.1056 -0.0390
  732TMC3    O210828   1.968   0.907  11.902 -0.5055  0.4512  0.1169
  733TMC3    C110829   2.383   0.249  12.819  0.8341 -0.4280  0.7530
  733TMC3    C210830   2.471   0.249  12.926  0.4604 -0.0988  0.4739
  733TMC3    C310831   2.605   0.239  12.899  0.0688  0.1318  0.4755
  733TMC3    C410832   2.420   0.214  12.696 -0.2678 -0.0357  0.6868
  733TMC3    C510833   2.550   0.198  12.677 -0.4766 -0.1107  0.6893
  733TMC3    C610834   2.640   0.205  12.777  0.0750  0.0213  0.0335
  733TMC3     C10835   2.249   0.215  12.853  0.4596 -0.1464  0.2455
  733TMC3     O10836   2.165   0.282  12.791 -0.2559 -0.5279  0.7757
  733TMC3     H10837   2.441   0.268  13.029 -0.0421  0.6146  0.2014
  733TMC3    H110838   2.342   0.205  12.622  1.6066 -0.3741 -1.2543
  733TMC3    H210839   2.743   0.173  12.765 -0.1630 -1.5289  2.0828
  733TMC3    C710840   2.590   0.235  12.543 -0.5323 -0.2532 -0.0440
  733TMC3    C810841   2.694   0.300  12.999  0.3878 -0.7005 -0.2978
  733TMC3    O110842   2.499   0.284  12.476 -0.0473 -0.5876  0.2793
  733TMC3    O210843   2.660   0.336  13.110  0.4687  0.2617 -0.0220
  734MPD2     C10844   0.390   2.684  12.509 -0.6518  0.1162  0.1580
  734MPD2    C110845   0.249   2.673  12.507 -0.4994 -0.5238  0.0728
  734MPD2    C210846   0.181   2.732  12.402 -0.2132 -0.0278  0.0968
  734MPD2    C310847   0.246   2.788  12.296 -0.0408 -0.2936  0.1186
  734MPD2    C410848   0.386   2.783  12.288 -0.2539 -0.4700  0.2573
  734MPD2    C510849   0.457   2.742  12.401  0.1836 -0.2636  1.2261
  734MPD2     H10850   0.073   2.726  12.392 -0.3596  2.0692  0.5078
  734MPD2    H110851   0.442   2.814  12.201  0.1976 -1.3490  0.2382
  734MPD2    H210852   0.440   2.653  12.599  1.9894  0.1618 -1.2971
  734MPD2    H310853   0.565   2.739  12.401  0.1716 -0.7639 -0.2816
  734MPD2     N10854   0.167   2.829  12.182 -0.2481 -0.8058  0.0494
  734MPD2    H510855   0.068   2.818  12.199 -0.3301  0.3000  0.2889
  734MPD2    N110856   0.190   2.577  12.601  0.0620  0.0832 -0.5090
  734MPD2    H710857   0.241   2.524  12.671 -0.7250  0.9241  0.6983
  735TMC3    C110858   0.027   2.409  12.658 -0.0404 -0.4191  0.7124
  735TMC3    C210859   4.622   2.371  12.654  0.4497 -0.1398 -0.0563
  735TMC3    C310860   4.588   2.247  12.622 -0.0917  0.1895  0.5491
  735TMC3    C410861   0.126   2.309  12.658 -0.4117 -0.5693  0.4026
  735TMC3    C510862   0.082   2.184  12.637 -0.3255 -0.0638  0.0271
  735TMC3    C610863   4.677   2.143  12.617 -0.2024  0.6090  0.6168
  735TMC3     C10864   0.056   2.534  12.591  0.0068  0.2475  0.2787
  735TMC3     O10865   4.675   2.574  12.536 -0.1095 -0.2124 -0.2118
  735TMC3     H10866   4.550   2.449  12.675 -3.3353 -3.1511 -1.8685
  735TMC3    H110867   0.233   2.328  12.662 -0.1887 -1.5682 -0.9030
  735TMC3    H210868   4.648   2.060  12.555 -1.5993  0.6956  1.1663
  735TMC3    C710869   0.184   2.090  12.609 -0.1387 -0.2575 -0.0281
  735TMC3    C810870   4.494   2.237  12.510 -0.3793 -0.4343  0.6677
  735TMC3    O110871   0.298   2.125  12.604 -0.1887 -0.4269 -0.3403
  735TMC3    O210872   4.441   2.127  12.493  0.1886  0.2933  0.7599
  736MPD2     C10873   0.188   1.727  12.610 -0.2104  0.6902  0.5814
  736MPD2    C110874   0.219   1.852  12.567 -0.1686 -0.4181 -0.3344
  736MPD2    C210875   0.328   1.872  12.489  1.3204  0.2329 -0.5714
  736MPD2    C310876   0.411   1.766  12.458  0.6139 -0.0906 -0.6130
  736MPD2    C410877   0.386   1.636  12.501  0.2783  0.4811 -0.2381
  736MPD2    C510878   0.267   1.619  12.569 -0.5475 -0.0566 -0.1673
  736MPD2     H10879   0.346   1.959  12.426  2.9031  1.6627  1.8305
  736MPD2    H110880   0.439   1.547  12.468 -0.2154 -0.4408  1.4704
  736MPD2    H210881   0.102   1.714  12.674 -0.4890  2.1393  0.5045
  736MPD2    H310882   0.248   1.517  12.601  0.7884 -0.1991  0.1746
  736MPD2     N10883   0.524   1.780  12.373  0.0211 -0.6823  0.0210
  736MPD2    H510884   0.573   1.692  12.360  0.9622 -0.5558  2.7434
  736MPD2    N110885   0.139   1.962  12.610 -0.0501 -0.1969  0.0148
  736MPD2    H710886   0.050   1.936  12.651  0.0581  1.5180  1.3571
  737TMC3    C110887   0.700   1.869  12.250  0.1732  0.0928  0.1243
  737TMC3    C210888   0.766   1.984  12.212 -0.1876 -0.8563  0.7006
  737TMC3    C310889   0.869   1.976  12.115 -0.3891 -0.5947 -0.6420
  737TMC3    C410890   0.734   1.746  12.199 -0.0030  0.2986  0.1647
  737TMC3    C510891   0.838   1.749  12.108 -0.5291  0.6662 -0.3095
  737TMC3    C610892   0.906   1.856  12.063  0.0504 -0.4636  0.4065
  737TMC3     C10893   0.578   1.894  12.320  0.2189 -0.7441  0.4767
  737TMC3     O10894   0.535   2.011  12.317 -0.3922 -0.2096 -0.2417
  737TMC3     H10895   0.729   2.079  12.249  3.1482  0.9429 -0.5346
  737TMC3    H110896   0.688   1.649  12.213 -0.4472  0.6974  1.5018
  737TMC3    H210897   0.956   1.857  11.967  0.6463  0.8596  0.7238
  737TMC3    C710898   0.857   1.628  12.027 -0.0795  0.2818  0.5453
  737TMC3    C810899   0.876   2.094  12.035  0.3919  0.3681  0.6042
  737TMC3    O110900   0.767   1.548  12.030 -0.1153  0.0984 -0.6593
  737TMC3    O210901   0.874   2.198  12.103 -0.4554 -0.1783  0.5776
  738MPD2     C10902   0.998   0.537  15.626 -0.0471  0.0178  0.3131
  738MPD2    C110903   0.945   0.487  15.508  0.5388 -0.4442  0.2246
  738MPD2    C210904   1.023   0.491  15.395  0.6788 -1.1565  0.4729
  738MPD2    C310905   1.150   0.547  15.397 -0.0715  0.6361 -0.2766
  738MPD2    C410906   1.205   0.605  15.515  0.0355 -1.1527 -0.1859
  738MPD2    C510907   1.129   0.594  15.627 -0.4824 -0.0250 -0.7757
  738MPD2     H10908   0.993   0.441  15.304 -1.5533  0.5903  0.2521
  738MPD2    H110909   1.300   0.657  15.522 -0.7416  0.2275  0.1901
  738MPD2    H210910   0.939   0.543  15.717  1.1687  0.8966  1.0438
  738MPD2    H310911   1.161   0.637  15.722  0.3622  1.5148 -1.7625
  738MPD2     N10912   1.231   0.544  15.286 -0.3076  0.3717 -0.0562
  738MPD2    H510913   1.328   0.566  15.304 -0.0320 -0.1252 -0.9399
  738MPD2    N110914   0.808   0.448  15.495  0.4504  0.3718  0.0629
  738MPD2    H710915   0.752   0.430  15.578 -0.6216  1.3688 -0.4555
  739TMC3    C110916   1.287   0.530  15.050  0.1695  0.7381 -0.6758
  739TMC3    C210917   1.235   0.570  14.927  0.7963 -0.7035 -0.5210
  739TMC3    C310918   1.299   0.531  14.814 -0.5148  0.5491 -0.1420
  739TMC3    C410919   1.413   0.458  15.046 -0.2346 -0.0208  0.0956
  739TMC3    C510920   1.474   0.428  14.927  0.6313  0.3442 -0.4955
  739TMC3    C610921   1.420   0.460  14.810  0.7802  0.8288 -0.1212
  739TMC3     C10922   1.192   0.512  15.156  0.0497 -0.1048 -0.3743
  739TMC3     O10923   1.085   0.484  15.110 -0.0009 -0.5916  0.5877
  739TMC3     H10924   1.150   0.635  14.919  0.9561 -0.3252  0.8034
  739TMC3    H110925   1.447   0.420  15.141  1.1145 -1.2208 -0.8653
  739TMC3    H210926   1.471   0.439  14.717 -1.0304 -1.0621 -0.6899
  739TMC3    C710927   1.570   0.316  14.914 -0.0103  0.2187  0.4296
  739TMC3    C810928   1.259   0.582  14.685 -0.0323  0.6818  0.3302
  739TMC3    O110929   1.605   0.280  14.800  0.4793  0.2724  0.3336
  739TMC3    O210930   1.138   0.587  14.670 -0.1077  0.0669 -0.0602
  740TMC3    C110931   1.535   1.860  14.459  0.3689 -0.2412 -0.3055
  740TMC3    C210932   1.499   1.764  14.545 -0.3954 -0.0132 -0.0640
  740TMC3    C310933   1.583   1.657  14.567  0.7287 -0.8362 -0.1030
  740TMC3    C410934   1.650   1.853  14.389 -0.1281 -0.0306 -0.0704
  740TMC3    C510935   1.731   1.744  14.404 -0.3664 -0.0202 -0.1181
  740TMC3    C610936   1.696   1.648  14.492 -0.1549 -0.3201  0.2434
  740TMC3     C10937   1.447   1.977  14.449 -0.4532 -0.1583 -0.2836
  740TMC3     O10938   1.465   2.071  14.377  0.2732  0.2168  0.1476
  740TMC3     H10939   1.409   1.762  14.605 -0.0131 -0.3926  0.4966
  740TMC3    H110940   1.678   1.934  14.323 -1.0611 -0.3975 -0.9255
  740TMC3    H210941   1.762   1.562  14.493  1.1939  0.7184  0.0598
  740TMC3    C710942   1.840   1.724  14.313 -0.1515 -0.0043  0.5211
  740TMC3    C810943   1.527   1.563  14.664  0.6735 -0.6628 -0.2988
  740TMC3    O110944   1.920   1.642  14.353  0.0344 -0.0651  0.3280
  740TMC3    O210945   1.410   1.565  14.690  0.1745 -0.1392 -0.5221
  741TMC3    C110946   1.069   1.268  14.321 -0.6440 -0.1660  0.4470
  741TMC3    C210947   0.944   1.217  14.304  0.2220 -0.6113  0.4926
  741TMC3    C310948   0.907   1.125  14.393  0.0771  0.1505  0.4553
  741TMC3    C410949   1.165   1.223  14.412 -0.6396 -0.4477  0.1391
  741TMC3    C510950   1.121   1.131  14.502  0.0757  0.7237 -0.0829
  741TMC3    C610951   0.993   1.084  14.490  0.7004  0.3210  0.2900
  741TMC3     C10952   1.114   1.380  14.237 -0.8847 -0.3736 -0.3101
  741TMC3     O10953   1.231   1.411  14.245 -0.0362 -0.1285 -0.3575
  741TMC3     H10954   0.882   1.244  14.219  0.8331  1.2626  0.6275
  741TMC3    H110955   1.256   1.277  14.431 -0.9652  0.2953 -0.4225
  741TMC3    H210956   0.963   1.008  14.562  0.7912 -0.9352 -1.0022
  741TMC3    C710957   1.210   1.051  14.585 -0.0379  0.4162 -0.0589
  741TMC3    C810958   0.765   1.083  14.382  0.4863  0.5409  0.6647
  741TMC3    O110959   1.159   0.989  14.676 -0.1321  0.5436  0.3337
  741TMC3    O210960   0.707   1.126  14.286 -0.7264  0.0497 -0.0131
  742TMC3    C110961   0.838   4.409  15.437 -0.5900 -0.8744 -0.1253
  742TMC3    C210962   0.769   4.429  15.321 -0.4901 -0.0078 -0.7030
  742TMC3    C310963   0.832   4.429  15.198 -0.4711 -0.2532  1.0923
  742TMC3    C410964   0.975   4.394  15.433 -0.9536 -0.1434 -0.1938
  742TMC3    C510965   1.039   4.394  15.314 -0.1556 -0.5270 -0.7654
  742TMC3    C610966   0.971   4.419  15.196  0.0703 -0.7129  0.3436
  742TMC3     C10967   0.771   4.384  15.562  0.8829  0.0226  0.1657
  742TMC3     O10968   0.653   4.347  15.552 -0.0228 -0.4806 -0.0293
  742TMC3     H10969   0.661   4.416  15.323 -0.4268 -0.5501 -0.8112
  742TMC3    H110970   1.024   4.359  15.523  0.0125 -2.0944 -1.4896
  742TMC3    H210971   1.019   4.413  15.099  0.3343 -0.6056  0.4690
  742TMC3    C710972   1.183   4.382  15.303  0.0494  0.2150  0.4428
  742TMC3    C810973   0.771   4.446  15.070 -0.0014  0.2472 -0.3859
  742TMC3    O110974   1.229   4.358  15.188 -1.3529 -0.1351  0.0087
  742TMC3    O210975   0.842   4.425  14.972  0.2410  0.0239 -0.4951
  743MPD2     C10976   3.588   0.534   1.767  0.3405 -0.0908  0.2387
  743MPD2    C110977   3.602   0.488   1.640 -0.5687 -0.0568  0.1540
  743MPD2    C210978   3.719   0.530   1.581  0.1079  0.8614 -0.5185
  743MPD2    C310979   3.821   0.600   1.651 -0.4867 -0.5721 -0.1615
  743MPD2    C410980   3.794   0.649   1.774  0.4272 -0.5288  0.5135
  743MPD2    C510981   3.674   0.624   1.830  0.6215  0.1161 -0.2434
  743MPD2     H10982   3.744   0.492   1.483 -2.1110  0.2359 -0.8344
  743MPD2    H110983   3.851   0.719   1.834  1.1490  0.6112 -1.4953
  743MPD2    H210984   3.497   0.516   1.824  1.3863  0.3848  2.0661
  743MPD2    H310985   3.646   0.658   1.928  1.8580  0.2773  0.0559
  743MPD2     N10986   3.948   0.618   1.589 -0.3949 -0.2700 -0.1917
  743MPD2    H510987   3.954   0.573   1.498  0.9400 -1.5690  0.5369
  743MPD2    N110988   3.495   0.425   1.571 -0.0520 -0.2838 -0.2947
  743MPD2    H710989   3.401   0.430   1.608  0.8900  1.8096  1.7880
  744TMC3    C110990   3.377   0.344   1.379  0.6324 -0.1917 -0.0699
  744TMC3    C210991   3.258   0.377   1.441  0.3032 -0.3121  0.9928
  744TMC3    C310992   3.153   0.403   1.356 -0.4308  0.0686 -0.1583
  744TMC3    C410993   3.391   0.339   1.240 -0.1736 -0.0750  0.0016
  744TMC3    C510994   3.287   0.369   1.164  0.7905  0.5105 -0.2558
  744TMC3    C610995   3.172   0.416   1.222 -0.0945  0.0083  0.4892
  744TMC3     C10996   3.503   0.361   1.449 -0.1699  0.8328 -0.8686
  744TMC3     O10997   3.604   0.343   1.387  0.2817 -0.7992 -0.1955
  744TMC3     H10998   3.260   0.381   1.549  1.5113  0.0584  0.9515
  744TMC3    H110999   3.487   0.317   1.194 -0.6392 -1.5539 -0.2610
  744TMC3    H211000   3.096   0.467   1.164 -0.1773 -3.0449 -2.0801
  744TMC3    C711001   3.299   0.374   1.025  0.1298 -0.3674 -0.0334
  744TMC3    C811002   3.032   0.458   1.417  0.0925 -0.6994 -0.6367
  744TMC3    O111003   3.417   0.380   0.989  0.8022 -0.3123  0.6035
  744TMC3    O211004   3.047   0.518   1.526  0.1139  0.0801  0.1361
  745TMC3    C111005   1.407   4.091  13.046 -0.0450  0.7664 -0.6789
  745TMC3    C211006   1.328   4.011  13.121 -0.6593  0.1014 -0.0699
  745TMC3    C311007   1.219   3.943  13.062 -0.1061  0.3848  0.2156
  745TMC3    C411008   1.414   4.077  12.915  0.8080 -0.2704  0.3863
  745TMC3    C511009   1.312   4.014  12.850 -0.5510 -0.4417  0.5276
  745TMC3    C611010   1.213   3.951  12.927  0.6580  0.2573 -0.0286
  745TMC3     C11011   1.425   4.220  13.105  0.5101  0.5048  0.6697
  745TMC3     O11012   1.521   4.288  13.069 -0.0360  0.0964 -0.0001
  745TMC3     H11013   1.351   4.010  13.227 -0.6219 -0.1077 -0.0807
  745TMC3    H111014   1.496   4.118  12.857  1.6123 -0.1567  1.5944
  745TMC3    H211015   1.127   3.908  12.875  1.0069  0.2232 -0.5835
  745TMC3    C711016   1.257   4.092  12.741 -0.1341  0.3674 -0.4974
  745TMC3    C811017   1.087   3.968  13.122 -0.4449 -0.7831  0.7249
  745TMC3    O111018   1.161   4.051  12.673  0.4398  0.1882  0.0803
  745TMC3    O211019   0.995   3.985  13.046 -0.5601  0.7295  0.1263
  746TMC3    C111020   3.922   1.463  11.142  0.1974  0.3992 -0.0211
  746TMC3    C211021   4.009   1.480  11.037 -0.0759  0.1843  0.3659
  746TMC3    C311022   3.983   1.404  10.923 -0.4594  0.4449  0.3932
  746TMC3    C411023   3.829   1.358  11.145  0.0571 -0.2839 -0.4483
  746TMC3    C511024   3.802   1.294  11.026 -0.2978  0.4600  0.7445
  746TMC3    C611025   3.879   1.321  10.916 -0.4295 -0.4720 -0.1607
  746TMC3     C11026   3.853   1.588  11.160 -0.8981  0.2731  0.0651
  746TMC3     O11027   3.743   1.586  11.214 -0.3505  0.7343 -0.1341
  746TMC3     H11028   4.097   1.544  11.042  0.3367 -0.4648  1.3222
  746TMC3    H111029   3.772   1.344  11.236  0.4211  0.9939 -0.0257
  746TMC3    H211030   3.863   1.259  10.829  0.0314 -0.8991  0.0575
  746TMC3    C711031   3.685   1.209  11.012 -0.5292  0.5185 -0.1890
  746TMC3    C811032   4.042   1.444  10.799 -0.0733 -0.1251 -0.3093
  746TMC3    O111033   3.650   1.190  10.898  0.1332 -0.2031 -0.5660
  746TMC3    O211034   4.160   1.473  10.793 -0.2426 -0.1023 -1.0422
  747TMC3    C111035   1.651   1.305  11.402  0.0713  0.4061  0.2860
  747TMC3    C211036   1.552   1.252  11.482 -0.4741 -0.0601  0.2955
  747TMC3    C311037   1.492   1.332  11.581 -0.8186  0.5724  0.8205
  747TMC3    C411038   1.687   1.434  11.411 -0.2679  0.2455  0.2983
  747TMC3    C511039   1.635   1.510  11.517 -0.5321 -0.4798 -0.3920
  747TMC3    C611040   1.537   1.465  11.598  0.2088 -0.3935 -0.0339
  747TMC3     C11041   1.738   1.214  11.328 -0.6191  0.8330  0.1545
  747TMC3     O11042   1.768   1.110  11.385  0.5707 -0.1110 -0.0506
  747TMC3     H11043   1.537   1.145  11.478  2.6112 -0.5142  0.8555
  747TMC3    H111044   1.769   1.464  11.347  1.0560 -1.9687  0.9272
  747TMC3    H211045   1.500   1.536  11.671  0.7757  0.4513 -0.5786
  747TMC3    C711046   1.710   1.625  11.574 -0.1366  0.1446 -0.3922
  747TMC3    C811047   1.350   1.320  11.596  0.2902 -1.2943 -0.0392
  747TMC3    O111048   1.689   1.658  11.689 -0.1820  0.4684 -0.3161
  747TMC3    O211049   1.297   1.240  11.518  0.6296 -0.8211  0.4856
  748MPD2     C11050   2.579   1.677   2.130  0.4285  0.2339  0.3709
  748MPD2    C111051   2.649   1.562   2.106  0.2903  0.8736 -0.4490
  748MPD2    C211052   2.731   1.555   1.996 -0.4775 -0.3635 -0.6159
  748MPD2    C311053   2.736   1.661   1.908 -0.6268  0.1840  0.2180
  748MPD2    C411054   2.648   1.765   1.928 -0.0155  0.1253 -0.0864
  748MPD2    C511055   2.561   1.771   2.032  0.1435 -0.1708  0.0744
  748MPD2     H11056   2.775   1.465   1.955 -0.9505 -0.9767  0.2253
  748MPD2    H111057   2.638   1.847   1.857 -2.0911  1.5469  1.8449
  748MPD2    H211058   2.515   1.668   2.217 -0.0522  0.5513  0.0498
  748MPD2    H311059   2.486   1.847   2.045 -0.5469 -0.6555 -1.0716
  748MPD2     N11060   2.818   1.646   1.793 -0.2903 -0.1015  0.0929
  748MPD2    H511061   2.870   1.559   1.789 -1.6604 -0.8664 -1.0124
  748MPD2    N111062   2.617   1.455   2.196  0.3720  1.3987 -0.2057
  748MPD2    H711063   2.557   1.465   2.278  0.4029  2.9774 -0.3792
  749TMC3    C111064   2.931   1.693   1.596  0.1778  0.3661  0.6043
  749TMC3    C211065   3.034   1.622   1.646 -0.6076  0.2973  0.5795
  749TMC3    C311066   3.137   1.598   1.565 -1.0271  0.3227  0.3552
  749TMC3    C411067   2.926   1.756   1.475 -0.1633  0.4682  0.1350
  749TMC3    C511068   3.036   1.726   1.398 -0.6662  0.6955 -0.2949
  749TMC3    C611069   3.144   1.654   1.440  0.4127 -0.3794 -0.9296
  749TMC3     C11070   2.830   1.736   1.690  0.2335  0.1992 -0.1788
  749TMC3     O11071   2.773   1.846   1.673 -0.1035  0.2396 -0.0253
  749TMC3     H11072   3.020   1.577   1.744 -2.1230  0.0168  0.2313
  749TMC3    H111073   2.844   1.817   1.439 -2.2494 -0.9744  2.4614
  749TMC3    H211074   3.228   1.652   1.371 -0.5176  1.1860 -2.1068
  749TMC3    C711075   3.040   1.798   1.273 -0.0487  0.5566  0.0568
  749TMC3    C811076   3.255   1.549   1.633  0.8500 -0.3235  0.6365
  749TMC3    O111077   2.984   1.903   1.255  0.4517  0.3457 -0.8154
  749TMC3    O211078   3.251   1.570   1.752  1.1372 -0.0217  0.4339
  750MPD2     C11079   3.574   3.182  11.127 -0.9404  0.3312  0.1403
  750MPD2    C111080   3.441   3.159  11.127 -0.0584  0.3722 -0.2014
  750MPD2    C211081   3.398   3.032  11.085 -0.3690  1.0812 -0.0953
  750MPD2    C311082   3.484   2.932  11.059  0.8252  0.2483 -0.8173
  750MPD2    C411083   3.623   2.946  11.069  0.2971  0.5197  0.0338
  750MPD2    C511084   3.661   3.075  11.096  0.0562  0.0508  0.5279
  750MPD2     H11085   3.291   3.013  11.076  0.0471 -0.8464 -0.8075
  750MPD2    H111086   3.700   2.875  11.043  0.8282  1.5866 -1.2985
  750MPD2    H211087   3.613   3.276  11.166 -0.7433 -0.0043  0.7443
  750MPD2    H311088   3.769   3.083  11.090 -0.0560 -0.0971 -1.7381
  750MPD2     N11089   3.437   2.798  11.034 -0.6268  0.0281  0.2385
  750MPD2    H511090   3.506   2.724  11.030 -0.1479  0.4789  0.0972
  750MPD2    N111091   3.360   3.265  11.170 -0.0216 -0.2801  0.2915
  750MPD2    H711092   3.405   3.344  11.213 -0.7674  0.2881  0.0336
  751TMC3    C111093   3.294   2.617  11.020  0.4068 -0.8200  0.1263
  751TMC3    C211094   3.167   2.567  11.035 -0.0098 -0.6550 -0.5144
  751TMC3    C311095   3.125   2.495  10.928  0.1133  1.0824  0.0217
  751TMC3    C411096   3.380   2.574  10.922  0.1410  0.3624  0.4341
  751TMC3    C511097   3.335   2.490  10.825  0.2273  0.5324 -0.8576
  751TMC3    C611098   3.199   2.461  10.819 -0.5072  0.4540 -0.3252
  751TMC3     C11099   3.310   2.752  11.054 -0.3033 -0.7659  0.2932
  751TMC3     O11100   3.217   2.815  11.096  0.1082 -0.0672  0.1902
  751TMC3     H11101   3.102   2.590  11.118 -0.5540 -0.6143 -0.9533
  751TMC3    H111102   3.482   2.612  10.914 -0.2517  0.9638 -1.6757
  751TMC3    H211103   3.160   2.407  10.733  0.0896 -0.8418  0.2260
  751TMC3    C711104   3.423   2.451  10.716 -1.1422  1.0637  0.0909
  751TMC3    C811105   3.028   2.387  10.948  0.0254  0.1803  0.2970
  751TMC3    O111106   3.531   2.509  10.704  0.0966 -0.2233 -0.6642
  751TMC3    O211107   3.047   2.282  10.888  0.0562 -0.0061 -0.2302
  752TMC3    C111108   1.945   2.706  17.262 -0.0446  0.1424  0.0528
  752TMC3    C211109   2.000   2.601  17.327  0.1082 -1.1689  0.0363
  752TMC3    C311110   1.965   2.573  17.455  1.1331 -0.4381 -0.1134
  752TMC3    C411111   1.840   2.772  17.320 -0.2849  0.2528  0.9537
  752TMC3    C511112   1.794   2.729  17.444 -0.2917 -0.2830 -0.4504
  752TMC3    C611113   1.856   2.627  17.515 -0.0981 -0.0716  0.9112
  752TMC3     C11114   1.997   2.744  17.130  0.4688 -0.0621 -0.4192
  752TMC3     O11115   2.110   2.704  17.099 -0.2237 -0.1922  0.2206
  752TMC3     H11116   2.099   2.575  17.293  0.4703  0.9381 -0.5556
  752TMC3    H111117   1.786   2.853  17.272  2.0872  1.2504 -0.0266
  752TMC3    H211118   1.824   2.608  17.616 -1.2563  0.1512  0.5923
  752TMC3    C711119   1.755   2.824  17.534  0.5404 -0.8631 -0.3353
  752TMC3    C811120   2.022   2.457  17.504 -0.2368  0.4934 -0.5284
  752TMC3    O111121   1.668   2.790  17.614  0.1091  0.3979 -0.2369
  752TMC3    O211122   2.080   2.389  17.420  0.1559 -0.0656 -0.0256
  753TMC3    C111123   4.544   4.223  13.470  0.2411 -0.1104  0.1650
  753TMC3    C211124   4.606   4.226  13.592  0.6010 -0.0283  0.5082
  753TMC3    C311125   4.722   4.160  13.606  0.9925 -0.0952  0.3964
  753TMC3    C411126   4.599   4.153  13.362 -0.2262  0.5916  0.2409
  753TMC3    C511127   4.721   4.094  13.385 -0.2624  0.9224  0.0695
  753TMC3    C611128   0.066   4.108  13.505  0.9832 -0.4128 -0.3528
  753TMC3     C11129   4.443   4.318  13.435 -0.0028 -0.0232 -0.3245
  753TMC3     O11130   4.374   4.302  13.335  0.1542 -0.1753 -0.0822
  753TMC3     H11131   4.540   4.245  13.676  0.6471 -0.5019  0.6548
  753TMC3    H111132   4.536   4.152  13.274 -2.3760  2.4032  1.7559
  753TMC3    H211133   0.151   4.042  13.524  1.7984  0.9433  0.6944
  753TMC3    C711134   0.074   4.061  13.273  0.9199 -0.4943  0.4801
  753TMC3    C811135   0.046   4.111  13.736  0.0937 -0.1174 -0.3083
  753TMC3    O111136   0.194   4.093  13.276  0.0302 -0.5333  0.2646
  753TMC3    O211137   0.116   4.010  13.740  0.4301 -0.2348 -0.0903
  754MPD2     C11138   3.644   3.022  13.186  0.4562  0.3997  0.4830
  754MPD2    C111139   3.643   2.882  13.184 -0.3035 -0.9411 -0.3957
  754MPD2    C211140   3.526   2.821  13.169 -0.4976 -0.5343  0.5681
  754MPD2    C311141   3.408   2.889  13.142 -0.8655  1.2072 -0.6456
  754MPD2    C411142   3.414   3.025  13.145  0.3582 -0.1838  0.3528
  754MPD2    C511143   3.528   3.091  13.167  0.4821  0.0780  0.0008
  754MPD2     H11144   3.518   2.713  13.168  1.3808 -0.6395 -2.3914
  754MPD2    H111145   3.323   3.084  13.145  0.1258 -0.5377  1.5122
  754MPD2    H211146   3.736   3.077  13.205 -0.4197  1.0498  2.8923
  754MPD2    H311147   3.516   3.196  13.189 -0.0534  0.2520 -1.1035
  754MPD2     N11148   3.284   2.832  13.128 -0.4488  0.2480  0.0161
  754MPD2    H511149   3.209   2.896  13.150 -0.0805  0.3771  0.8629
  754MPD2    N111150   3.769   2.825  13.206 -0.0643  0.1639  0.4848
  754MPD2    H711151   3.851   2.873  13.171  0.6923 -1.9933 -0.6990
  755MPD2     C11152   2.386   3.002  13.117 -0.3327  0.0164  0.3654
  755MPD2    C111153   2.458   2.998  13.235 -0.0072  0.2612  0.2444
  755MPD2    C211154   2.562   2.909  13.245 -0.6119 -0.0587  0.2697
  755MPD2    C311155   2.603   2.836  13.137  0.0991 -0.2467  0.1382
  755MPD2    C411156   2.542   2.847  13.017 -0.0652 -0.3534 -0.6137
  755MPD2    C511157   2.433   2.934  13.007 -1.0789 -0.3030 -0.1601
  755MPD2     H11158   2.613   2.898  13.340 -0.7690 -0.5619  0.2951
  755MPD2    H111159   2.579   2.795  12.929 -1.9300 -1.2815 -0.8474
  755MPD2    H211160   2.297   3.065  13.109 -0.5503 -0.6016 -2.0465
  755MPD2    H311161   2.375   2.946  12.916 -0.2336  1.4404 -0.4786
  755MPD2     N11162   2.705   2.743  13.147  0.7978  0.1114  0.3759
  755MPD2    H511163   2.720   2.685  13.065  0.8801 -0.6441  0.9238
  755MPD2    N111164   2.422   3.076  13.345 -0.4451 -0.2619 -0.6101
  755MPD2    H711165   2.483   3.064  13.425  0.6251 -2.7079 -1.7637
  756MPD2     C11166   3.807   3.195   9.549  0.2738 -0.0971 -0.6803
  756MPD2    C111167   3.732   3.283   9.634  0.2789 -0.0966 -0.2267
  756MPD2    C211168   3.594   3.265   9.648 -0.4917  0.2967 -0.2717
  756MPD2    C311169   3.533   3.161   9.589  0.1103 -0.2104  0.1250
  756MPD2    C411170   3.609   3.075   9.513 -0.1322 -0.7529  0.8011
  756MPD2    C511171   3.740   3.094   9.485  0.6587  0.3882  0.0231
  756MPD2     H11172   3.538   3.318   9.725  0.5583 -1.5135  1.7298
  756MPD2    H111173   3.563   2.998   9.452 -0.6402  0.4995 -0.4054
  756MPD2    H211174   3.914   3.204   9.536  0.7750  0.0967  3.3859
  756MPD2    H311175   3.794   3.021   9.426  0.3167 -0.1160  0.3457
  756MPD2     N11176   3.398   3.135   9.621 -0.1845  0.3023 -0.1745
  756MPD2    H511177   3.350   3.211   9.670  0.9586  0.7041  0.3088
  756MPD2    N111178   3.790   3.376   9.724  0.2468  0.2211  0.0478
  756MPD2    H711179   3.725   3.420   9.788 -0.7173 -0.6928 -0.2993
  757MPD2     C11180   2.468   3.440   9.571  0.4805  0.3484 -0.4439
  757MPD2    C111181   2.436   3.308   9.597 -0.1869 -0.1615 -0.0255
  757MPD2    C211182   2.538   3.218   9.611 -0.4915 -0.5663 -0.0690
  757MPD2    C311183   2.671   3.261   9.598  0.4385 -0.0586 -0.1184
  757MPD2    C411184   2.707   3.395   9.580  0.1627 -0.4874  0.2439
  757MPD2    C511185   2.599   3.483   9.562 -0.3547  0.4254  0.1532
  757MPD2     H11186   2.513   3.115   9.631 -0.9996 -0.8359 -2.1184
  757MPD2    H111187   2.807   3.436   9.574  0.2851 -1.1222 -2.1097
  757MPD2    H211188   2.394   3.519   9.567  0.6066  0.4796 -0.1690
  757MPD2    H311189   2.618   3.587   9.537  1.1302  0.1373  0.0873
  757MPD2     N11190   2.774   3.165   9.623  0.4628  0.3858 -0.0894
  757MPD2    H511191   2.756   3.080   9.675  0.4922  0.6055  0.2780
  757MPD2    N111192   2.300   3.275   9.609  0.1061  0.3086  0.2289
  757MPD2    H711193   2.242   3.357   9.606  0.8048  0.7949 -0.0231
  758MPD2     C11194   3.039   1.854  16.009 -0.5538  0.3354 -0.2262
  758MPD2    C111195   3.107   1.910  16.113 -0.3358  0.4518  0.0849
  758MPD2    C211196   3.042   2.005  16.194 -0.0612 -0.7393  0.8233
  758MPD2    C311197   2.909   2.028  16.175 -0.2354 -0.5136 -0.3731
  758MPD2    C411198   2.839   1.960  16.078 -0.1439 -0.6400  0.5589
  758MPD2    C511199   2.905   1.876  16.000  0.1319 -0.0738 -0.4553
  758MPD2     H11200   3.093   2.051  16.278  0.1001  1.8106 -0.6664
  758MPD2    H111201   2.734   1.983  16.068  0.5650  2.0066 -0.5719
  758MPD2    H211202   3.083   1.781  15.942 -3.7178  0.3013 -2.2580
  758MPD2    H311203   2.843   1.819  15.932  0.8513 -0.3541 -0.8743
  758MPD2     N11204   2.855   2.113  16.269 -0.5139  0.5404 -0.1453
  758MPD2    H511205   2.919   2.166  16.327 -1.2223  1.9834 -0.6787
  758MPD2    N111206   3.242   1.877  16.141 -0.3303 -0.4324  0.2274
  758MPD2    H711207   3.294   1.831  16.068 -0.5891 -0.2743 -0.0565
  759MPD2     C11208   2.558   1.398  10.306  0.3412  0.3146  0.6412
  759MPD2    C111209   2.617   1.284  10.252  0.8656 -0.0558 -0.2739
  759MPD2    C211210   2.673   1.297  10.127  0.6926 -0.1728  0.0058
  759MPD2    C311211   2.650   1.412  10.060 -0.2820 -0.0264  0.6157
  759MPD2    C411212   2.598   1.528  10.112  0.1996  0.2872 -0.1044
  759MPD2    C511213   2.554   1.519  10.239 -0.5117  0.3580  0.1862
  759MPD2     H11214   2.721   1.213  10.078  0.0764  0.9613 -2.5515
  759MPD2    H111215   2.572   1.614  10.051 -0.1412  0.5065  0.3485
  759MPD2    H211216   2.531   1.387  10.410 -0.1368 -0.8684  0.4010
  759MPD2    H311217   2.498   1.596  10.290 -1.1713 -0.3597  0.5435
  759MPD2     N11218   2.695   1.405   9.929  0.4471  0.0854  0.2992
  759MPD2    H511219   2.747   1.323   9.900 -2.1454 -0.8581 -1.6341
  759MPD2    N111220   2.623   1.157  10.314 -0.1952 -0.6599  0.2504
  759MPD2    H711221   2.658   1.084  10.253  2.0961 -0.2137  1.0160
  760MPD2     C11222   1.916   3.090  12.085 -0.1535 -0.0358 -0.4543
  760MPD2    C111223   2.050   3.070  12.064 -0.1614  0.0156 -0.4152
  760MPD2    C211224   2.111   2.961  12.110  0.2160 -0.2968  0.6513
  760MPD2    C311225   2.039   2.859  12.171  0.0280 -0.6983 -0.1820
  760MPD2    C411226   1.902   2.868  12.184  0.4195 -0.0603 -0.5513
  760MPD2    C511227   1.847   2.987  12.145  0.1575 -0.0746 -0.6486
  760MPD2     H11228   2.219   2.953  12.101  0.4394  2.7113  0.7981
  760MPD2    H111229   1.842   2.789  12.228 -1.5173  1.6292 -0.1469
  760MPD2    H211230   1.866   3.184  12.066  0.2699  0.0314 -1.2476
  760MPD2    H311231   1.741   3.012  12.145  0.4831  1.2900 -0.6200
  760MPD2     N11232   2.111   2.742  12.215  0.4633 -0.3551  0.0809
  760MPD2    H511233   2.063   2.680  12.279 -1.9818  1.5742  0.1449
  760MPD2    N111234   2.131   3.171  12.009  0.0761 -0.0392  0.5792
  760MPD2    H711235   2.232   3.162  12.017  0.2190  1.1629 -0.0077
  761MPD2     C11236   2.661   2.164  11.217  0.3403  0.3770 -0.4595
  761MPD2    C111237   2.752   2.112  11.127 -0.1517 -0.6651  0.0231
  761MPD2    C211238   2.841   2.193  11.061 -0.0632  0.0696 -0.2867
  761MPD2    C311239   2.834   2.331  11.083  0.0044 -0.3490  0.4628
  761MPD2    C411240   2.746   2.379  11.179 -1.4200  0.5949  0.3210
  761MPD2    C511241   2.661   2.295  11.235  0.2749 -0.1311 -0.3748
  761MPD2     H11242   2.911   2.149  10.991  0.6896  0.5297  0.1835
  761MPD2    H111243   2.746   2.486  11.201  1.7297  0.8537 -0.9268
  761MPD2    H211244   2.584   2.102  11.261  0.7862 -1.0669 -1.7223
  761MPD2    H311245   2.581   2.341  11.291 -0.3192 -1.6187 -0.0088
  761MPD2     N11246   2.930   2.416  11.033  0.0684 -0.4702  0.2241
  761MPD2    H511247   2.936   2.506  11.080  2.3175  0.7657 -2.4714
  761MPD2    N111248   2.751   1.973  11.108 -0.1359 -0.0929  0.1644
  761MPD2    H711249   2.690   1.925  11.174 -1.9541  1.4180 -0.4327
  762MPD2     C11250   3.314   1.445  11.067  0.1841 -0.0406 -0.7778
  762MPD2    C111251   3.244   1.497  10.959 -0.4539 -0.1444  0.8795
  762MPD2    C211252   3.318   1.551  10.853  0.7353  0.0092 -0.0483
  762MPD2    C311253   3.455   1.572  10.863 -0.7604 -0.2875 -0.7058
  762MPD2    C411254   3.516   1.523  10.973  0.7743  0.1821 -0.3335
  762MPD2    C511255   3.452   1.449  11.068  0.3313 -0.3724 -0.4992
  762MPD2     H11256   3.261   1.586  10.768  2.7933  2.4182 -0.4462
  762MPD2    H111257   3.618   1.554  10.990  0.3153  1.2592  0.4699
  762MPD2    H211258   3.254   1.400  11.146 -1.1798  3.2972  0.0755
  762MPD2    H311259   3.503   1.407  11.154  0.0712 -0.8044 -0.5552
  762MPD2     N11260   3.512   1.631  10.749  0.3623 -0.1427  0.5890
  762MPD2    H511261   3.445   1.665  10.682  1.7395  0.5066 -0.4559
  762MPD2    N111262   3.100   1.503  10.979  0.3491  0.0983  0.0116
  762MPD2    H711263   3.074   1.483  11.075  0.1269 -1.7687 -0.4431
  763MPD2     C11264   0.494   2.562  16.065 -0.0384  0.2889 -1.6134
  763MPD2    C111265   0.360   2.596  16.065 -0.0856 -0.8746  0.2512
  763MPD2    C211266   0.314   2.679  16.174  0.1782  0.4805 -0.8784
  763MPD2    C311267   0.404   2.718  16.271 -0.8844 -0.8223  0.2901
  763MPD2    C411268   0.536   2.693  16.257 -0.4561  0.4870  0.5136
  763MPD2    C511269   0.574   2.607  16.167  0.1246  0.1220  0.7707
  763MPD2     H11270   0.210   2.709  16.169 -0.4011 -0.9892  2.8351
  763MPD2    H111271   0.614   2.723  16.325 -1.2040  4.0700 -0.1969
  763MPD2    H211272   0.533   2.498  15.987  1.0908 -0.5218 -0.3845
  763MPD2    H311273   0.679   2.585  16.150  0.2994  0.6091  1.2341
  763MPD2     N11274   0.371   2.783  16.388  0.1890  0.0078  0.0844
  763MPD2    H511275   0.452   2.834  16.420  0.6898 -1.5951  1.3567
  763MPD2    N111276   0.265   2.559  15.967  0.1551 -0.1000 -0.6571
  763MPD2    H711277   0.170   2.596  15.975 -0.0897 -0.5820 -1.3532
  764MPD2     C11278   3.143   4.672   0.150  0.6391  0.0948  0.8186
  764MPD2    C111279   3.129   4.624   0.026  0.3807 -0.2607 -0.0786
  764MPD2    C211280   3.069   4.503   0.004 -0.5440  0.7664  0.1178
  764MPD2    C311281   3.019   4.430   0.109  0.5038  0.3021  0.3777
  764MPD2    C411282   3.044   4.470   0.235 -0.0103  0.6176  0.0275
  764MPD2    C511283   3.111   4.586   0.256  0.1365 -0.1477  0.3484
  764MPD2     H11284   3.056   4.469  17.594  0.2297 -0.2444  0.3687
  764MPD2    H111285   3.019   4.405   0.318  1.1408 -0.2290 -0.2953
  764MPD2    H211286   3.180   0.047   0.179 -0.5172  0.6206  0.5298
  764MPD2    H311287   3.123   4.625   0.357  0.7366 -2.2364  1.0687
  764MPD2     N11288   2.953   4.312   0.080 -0.2173 -0.0052 -0.6519
  764MPD2    H511289   2.946   4.288  17.673 -1.5572 -3.1117  0.2193
  764MPD2    N111290   3.170   4.693  17.600  0.0821 -0.2158  0.4102
  764MPD2    H711291   3.163   4.645  17.510  0.0714 -0.4681  0.5448
  765MPD2     C11292   2.745   1.962  15.281  0.5378  0.2415 -0.3298
  765MPD2    C111293   2.789   1.946  15.409 -0.3099 -0.1909 -0.1669
  765MPD2    C211294   2.914   1.894  15.436 -0.3052 -0.7694  0.1238
  765MPD2    C311295   2.997   1.852  15.335  0.0930  0.5046 -0.9583
  765MPD2    C411296   2.960   1.872  15.205  0.2754  0.6332 -0.6498
  765MPD2    C511297   2.830   1.926  15.187 -0.2507  0.0002  0.2150
  765MPD2     H11298   2.951   1.885  15.537 -2.8502 -0.1718  1.0984
  765MPD2    H111299   3.028   1.865  15.121  1.2151 -2.2963  0.3891
  765MPD2    H211300   2.648   1.995  15.248 -1.0246 -2.2826  1.7274
  765MPD2    H311301   2.795   1.948  15.087  0.1002  0.2669  0.1506
  765MPD2     N11302   3.128   1.818  15.372 -0.5238 -0.1294  0.4706
  765MPD2    H511303   3.128   1.806  15.473  1.1749 -3.7582  0.0398
  765MPD2    N111304   2.708   2.002  15.511 -0.5591  0.4803 -0.0558
  765MPD2    H711305   2.614   2.035  15.489 -1.6272 -1.3198  1.8227
  766MPD2     C11306   2.323   2.139  15.198  0.0311  0.0042  0.4247
  766MPD2    C111307   2.428   2.209  15.246  0.1559 -0.5413  0.2175
  766MPD2    C211308   2.520   2.264  15.159  0.0244 -0.3756  0.0259
  766MPD2    C311309   2.514   2.232  15.022 -0.0283  0.2883 -0.6680
  766MPD2    C411310   2.412   2.150  14.978 -0.0226  0.1745  0.2263
  766MPD2    C511311   2.313   2.111  15.062 -0.4543 -0.0047  0.4552
  766MPD2     H11312   2.609   2.318  15.190  0.7276 -1.5051 -0.0186
  766MPD2    H111313   2.405   2.132  14.871 -1.0604  3.6503 -0.2736
  766MPD2    H211314   2.255   2.097  15.271 -2.4221  3.4117  0.0928
  766MPD2    H311315   2.227   2.059  15.022  2.3002 -2.9512 -1.5623
  766MPD2     N11316   2.604   2.278  14.927  0.0609 -0.3181  0.2630
  766MPD2    H511317   2.578   2.265  14.830  1.6170 -0.1534 -0.1773
  766MPD2    N111318   2.449   2.240  15.385  0.2703 -0.3810 -0.7643
  766MPD2    H711319   2.529   2.298  15.407  0.6060 -1.5780  1.2062
  767MPD2     C11320   2.182   2.431  15.009 -0.0305  0.1098  0.0849
  767MPD2    C111321   2.291   2.494  14.960  0.1337 -0.7876 -0.3905
  767MPD2    C211322   2.335   2.480  14.828 -0.4903 -0.3124  0.1283
  767MPD2    C311323   2.267   2.395  14.744 -0.3469 -0.7718 -0.0678
  767MPD2    C411324   2.152   2.331  14.790 -0.3805 -0.5841 -0.0923
  767MPD2    C511325   2.118   2.337  14.928 -0.4925  0.3494  0.1786
  767MPD2     H11326   2.429   2.523  14.794 -0.4495 -1.5628 -1.3650
  767MPD2    H111327   2.104   2.250  14.735 -1.1925  0.4788 -0.9475
  767MPD2    H211328   2.140   2.456  15.106  0.9870  1.0860  0.2640
  767MPD2    H311329   2.035   2.287  14.977 -0.6377  0.5799  0.1676
  767MPD2     N11330   2.321   2.383  14.614  0.0445 -0.6328  0.4225
  767MPD2    H511331   2.401   2.443  14.597 -0.1064 -0.5451  0.0260
  767MPD2    N111332   2.365   2.576  15.049  0.3933  0.4686 -0.3906
  767MPD2    H711333   2.351   2.574  15.149 -0.5020 -0.5636 -0.5365
  768MPD2     C11334   3.708   1.017  10.431  0.2593  0.2045  0.7348
  768MPD2    C111335   3.686   0.943  10.540 -0.2473  0.0162 -0.4213
  768MPD2    C211336   3.753   0.967  10.655 -0.1837  0.4856 -0.1162
  768MPD2    C311337   3.867   1.050  10.657 -0.0953 -0.3536  0.0095
  768MPD2    C411338   3.899   1.114  10.535  0.5394 -0.0837 -0.5986
  768MPD2    C511339   3.816   1.105  10.429  0.5356 -0.1937 -0.5213
  768MPD2     H11340   3.736   0.907  10.745  0.5196  0.3782 -0.0487
  768MPD2    H111341   3.986   1.176  10.518 -0.0001  0.2457 -2.1981
  768MPD2    H211342   3.640   1.011  10.347 -0.4408 -0.9586  1.3825
  768MPD2    H311343   3.825   1.168  10.341 -0.6119  0.1193 -0.4164
  768MPD2     N11344   3.957   1.042  10.767 -0.3058 -0.0371 -0.0892
  768MPD2    H511345   4.052   1.064  10.741  0.2393 -1.7283  0.4919
  768MPD2    N111346   3.567   0.868  10.551  0.3778  0.1818  0.1306
  768MPD2    H711347   3.548   0.841  10.647 -1.1019  0.7950  0.0061
  769MPD2     C11348   4.271   3.159  15.050 -0.3588  0.3841  0.5223
  769MPD2    C111349   4.177   3.252  15.094  0.4381 -0.0223 -0.3332
  769MPD2    C211350   4.207   3.344  15.199 -0.4608  0.7292  0.4515
  769MPD2    C311351   4.332   3.345  15.263 -0.2600  0.9170 -1.3881
  769MPD2    C411352   4.424   3.254  15.214  0.2414 -0.6585 -0.1147
  769MPD2    C511353   4.400   3.167  15.110 -0.4952 -0.0455  0.1620
  769MPD2     H11354   4.130   3.419  15.210  0.7104  1.6617  2.2618
  769MPD2    H111355   4.524   3.262  15.255  0.7974 -0.4378 -1.5129
  769MPD2    H211356   4.239   3.093  14.971 -0.7377  1.5655 -0.3220
  769MPD2    H311357   4.474   3.095  15.077 -0.2024 -0.3546  1.4752
  769MPD2     N11358   4.351   3.433  15.369  0.3953 -0.0607 -0.6892
  769MPD2    H511359   4.272   3.488  15.401 -0.5369 -2.1123  0.5322
  769MPD2    N111360   4.052   3.265  15.017 -0.3101  0.1270  0.2417
  769MPD2    H711361   4.047   3.193  14.945  0.4418  0.5996 -0.2863
  770MPD2     C11362   3.673   2.558  14.815 -0.2527  0.0747  0.9657
  770MPD2    C111363   3.703   2.629  14.934  0.3449 -0.1319  0.3219
  770MPD2    C211364   3.733   2.764  14.930 -0.2084 -0.2700  0.5757
  770MPD2    C311365   3.724   2.833  14.814 -0.0741  0.2841  0.0280
  770MPD2    C411366   3.694   2.768  14.696 -1.1100 -0.4457  0.2914
  770MPD2    C511367   3.676   2.632  14.698  0.3898 -0.3020 -0.0696
  770MPD2     H11368   3.750   2.814  15.024 -0.5171  0.1999  0.3849
  770MPD2    H111369   3.695   2.824  14.603 -0.6868  0.9862  1.1602
  770MPD2    H211370   3.665   2.450  14.816 -1.8337  0.1906  2.2480
  770MPD2    H311371   3.664   2.589  14.600 -0.3708 -0.6375  0.1750
  770MPD2     N11372   3.730   2.974  14.842 -0.1263  0.0052  0.0362
  770MPD2    H511373   3.744   3.004  14.938 -0.3904  0.6961 -0.1350
  770MPD2    N111374   3.711   2.555  15.054  0.3789  0.2372  0.5488
  770MPD2    H711375   3.675   2.460  15.052  1.2915 -0.0983 -0.0192
  771MPD2     C11376   0.046   1.339  13.679  0.0034 -0.6401  0.9887
  771MPD2    C111377   4.718   1.454  13.632  0.4503  0.0504 -0.6315
  771MPD2    C211378   4.615   1.453  13.541 -0.3644 -0.6618 -0.6348
  771MPD2    C311379   4.552   1.334  13.509  0.2257 -0.4904 -0.4678
  771MPD2    C411380   4.592   1.216  13.561  0.3785 -0.4600  1.0021
  771MPD2    C511381   4.707   1.218  13.640  1.0431 -0.0089  0.3081
  771MPD2     H11382   4.574   1.542  13.495  1.0806  0.7643  0.8553
  771MPD2    H111383   4.540   1.123  13.543  1.6589 -0.9149 -0.2698
  771MPD2    H211384   0.128   1.330  13.749  0.1950 -3.7464  0.3966
  771MPD2    H311385   0.031   1.126  13.674  1.2023  0.0696  0.3039
  771MPD2     N11386   4.444   1.343  13.411  0.2318 -0.0703 -0.1955
  771MPD2    H511387   4.442   1.427  13.354 -0.8951  1.1518  1.6612
  771MPD2    N111388   0.054   1.579  13.673 -0.2804  0.2608 -0.5544
  771MPD2    H711389   0.018   1.669  13.643 -2.1186 -0.8572 -1.6891
  772MPD2     C11390   4.601   2.191  14.054 -0.1475  0.4352  0.0457
  772MPD2    C111391   4.569   2.094  13.964 -1.0173 -0.2603  0.5012
  772MPD2    C211392   4.434   2.060  13.945 -0.3722  0.7060 -0.5498
  772MPD2    C311393   4.338   2.116  14.023 -0.2082 -0.0064 -0.5394
  772MPD2    C411394   4.370   2.215  14.117 -0.3106 -0.1945 -0.0278
  772MPD2    C511395   4.499   2.256  14.119  0.3547  0.7149  0.7932
  772MPD2     H11396   4.415   1.976  13.879  1.0494  0.3657 -0.5470
  772MPD2    H111397   4.291   2.265  14.172  1.7644  1.3739  1.4768
  772MPD2    H211398   4.701   2.231  14.067 -0.4827  1.0059  0.9348
  772MPD2    H311399   4.529   2.338  14.183 -1.0296  0.6351  1.5405
  772MPD2     N11400   4.203   2.073  14.009 -0.0242 -0.4117  0.1774
  772MPD2    H511401   4.138   2.136  14.055 -0.2108 -1.4165  1.3009
  772MPD2    N111402   4.670   2.015  13.896  0.6601 -0.4771  0.8864
  772MPD2    H711403   4.642   1.941  13.833 -0.8401  0.3093  0.6085
  773MPD2     C11404   4.001   2.641   0.123 -0.1251  0.1292  0.6936
  773MPD2    C111405   3.920   2.606   0.022  0.0606 -0.4768  0.4854
  773MPD2    C211406   3.917   2.467  17.687 -0.0141  0.5966 -0.5715
  773MPD2    C311407   3.980   2.380   0.082  0.0512  0.1676  0.0749
  773MPD2    C411408   4.061   2.417   0.181 -0.0129  0.5650 -0.0765
  773MPD2    C511409   4.078   2.556   0.195 -0.4101 -0.7084  0.2086
  773MPD2     H11410   3.846   2.424  17.617  0.5519 -1.6271  0.2297
  773MPD2    H111411   4.118   2.353   0.246  0.0126  1.5043  0.8234
  773MPD2    H211412   4.009   2.746   0.150  0.1116  0.4555 -0.6409
  773MPD2    H311413   4.132   2.596   0.280  1.9147 -2.3995 -0.4721
  773MPD2     N11414   3.954   2.241   0.062 -0.1613  0.1533 -0.0722
  773MPD2    H511415   3.912   2.207  17.667  0.5910 -0.5567 -0.1593
  773MPD2    N111416   3.850   2.695  17.631 -0.4616  0.7066  0.4942
  773MPD2    H711417   3.794   2.646  17.562 -0.1787  1.3219 -0.1658
  774MPD2     C11418   3.147   1.937  13.340  0.3354  0.0529 -0.1573
  774MPD2    C111419   3.107   2.027  13.435 -0.6386 -0.3270 -0.2455
  774MPD2    C211420   3.168   2.148  13.459  0.3497 -0.4631 -0.2449
  774MPD2    C311421   3.269   2.184  13.376  0.2374  0.0632  1.2710
  774MPD2    C411422   3.316   2.092  13.280 -0.0119  0.3973  0.6228
  774MPD2    C511423   3.252   1.970  13.263  0.4945  0.1724  0.8564
  774MPD2     H11424   3.140   2.218  13.538  1.3384  0.4341 -0.6930
  774MPD2    H111425   3.401   2.115  13.217 -0.2073  1.9823  0.9289
  774MPD2    H211426   3.098   1.841  13.330 -0.8648  0.4683  1.8036
  774MPD2    H311427   3.272   1.908  13.177  0.6550  1.6037 -0.1335
  774MPD2     N11428   3.339   2.311  13.401 -0.0245 -0.6312 -0.2463
  774MPD2    H511429   3.294   2.379  13.461  0.2727 -0.6502  0.0002
  774MPD2    N111430   3.007   1.981  13.518 -0.1342  0.8897 -0.0341
  774MPD2    H711431   2.972   1.887  13.506 -0.0642  0.9102 -0.4062
  775MPD2     C11432   4.617   3.296  15.955  0.5307  0.6729  0.3443
  775MPD2    C111433   4.618   3.422  16.011 -0.3957 -0.9703  0.6784
  775MPD2    C211434   4.719   3.501  15.968 -0.1491  0.4053  0.6800
  775MPD2    C311435   0.071   3.478  15.852 -0.4960  0.3924  0.3706
  775MPD2    C411436   0.051   3.362  15.784  0.1445 -0.3253  0.5967
  775MPD2    C511437   4.691   3.265  15.841  0.5064  0.4413 -0.6428
  775MPD2     H11438   0.022   3.584  16.033  0.9824 -1.0788  2.1258
  775MPD2    H111439   0.112   3.338  15.698  1.4291 -0.7835  1.6525
  775MPD2    H211440   4.550   3.222  15.998  0.7829  0.2609  0.0380
  775MPD2    H311441   4.683   3.172  15.787 -1.4309 -0.4457  1.1503
  775MPD2     N11442   0.160   3.566  15.787 -0.2212 -0.1339  0.3255
  775MPD2    H511443   0.175   3.553  15.688 -2.6524  0.8419 -0.1622
  775MPD2    N111444   4.532   3.454  16.113 -0.5557  1.1039  0.1497
  775MPD2    H711445   4.469   3.384  16.151  0.2172  0.4921  0.3073
  776MPD2     C11446   3.588   3.835  11.270 -0.2726 -0.5121 -0.3880
  776MPD2    C111447   3.458   3.845  11.293  0.4240  0.5348 -0.2855
  776MPD2    C211448   3.410   3.973  11.327  0.1919 -0.2421 -0.1135
  776MPD2    C311449   3.491   4.082  11.332 -0.3711 -0.5428  0.5464
  776MPD2    C411450   3.624   4.066  11.311 -0.3461  0.4339  0.4789
  776MPD2    C511451   3.674   3.944  11.276  0.1918  0.5250  0.4211
  776MPD2     H11452   3.305   3.988  11.351  0.4197 -0.0080  0.7545
  776MPD2    H111453   3.685   4.156  11.311 -2.0792  1.6203  0.7623
  776MPD2    H211454   3.636   3.739  11.248  0.6770 -0.4649  1.5023
  776MPD2    H311455   3.780   3.941  11.256  0.3973  0.9410  1.4447
  776MPD2     N11456   3.446   4.206  11.367  1.0886  0.7452  0.4147
  776MPD2    H511457   3.521   4.270  11.390 -0.7872  3.6805 -1.5954
  776MPD2    N111458   3.380   3.726  11.284  0.5282 -0.4199 -0.2233
  776MPD2    H711459   3.429   3.637  11.286  0.7135 -0.4106 -4.7607
  777MPD2     C11460   4.001   1.157   0.524 -0.2974  0.5275 -0.1501
  777MPD2    C111461   3.912   1.100   0.614  0.0873  1.1939  0.9197
  777MPD2    C211462   3.818   1.007   0.568  0.2427  0.7088 -0.0416
  777MPD2    C311463   3.817   0.972   0.437 -0.2328  0.5525  0.5557
  777MPD2    C411464   3.909   1.021   0.349  0.3199 -0.5726 -0.7111
  777MPD2    C511465   3.998   1.112   0.392 -0.4419 -0.0976 -0.7321
  777MPD2     H11466   3.759   0.948   0.637  0.5600  0.1356 -0.2607
  777MPD2    H111467   3.915   0.978   0.249 -0.2508 -1.5588 -0.3141
  777MPD2    H211468   4.085   1.215   0.560 -0.6437 -0.2061  1.8574
  777MPD2    H311469   4.069   1.149   0.318 -1.0650  1.5550 -0.4993
  777MPD2     N11470   3.713   0.879   0.405 -0.3308 -0.5938  0.0683
  777MPD2    H511471   3.671   0.845   0.491  0.0210 -2.2885 -0.4297
  777MPD2    N111472   3.922   1.139   0.744 -0.5797  0.8964 -0.3910
  777MPD2    H711473   4.000   1.201   0.764 -0.8913  1.9073 -2.4093
  778MPD2     C11474   0.228   1.930  14.815  0.0768  0.2110 -0.0155
  778MPD2    C111475   0.243   1.807  14.760 -0.8094 -0.5999 -0.3457
  778MPD2    C211476   0.324   1.781  14.653  0.1411 -0.2307 -0.7710
  778MPD2    C311477   0.400   1.886  14.610 -0.4603  0.0217  1.0323
  778MPD2    C411478   0.389   2.012  14.660 -0.5482  0.2979 -0.0313
  778MPD2    C511479   0.307   2.034  14.764  0.1064  0.0232  0.7456
  778MPD2     H11480   0.345   1.680  14.622 -0.3348 -0.5441 -0.0632
  778MPD2    H111481   0.449   2.099  14.636 -0.9482  0.4791 -0.3689
  778MPD2    H211482   0.150   1.960  14.884 -0.8135 -0.6960 -0.6433
  778MPD2    H311483   0.306   2.134  14.806  2.0493  0.7523 -0.9666
  778MPD2     N11484   0.508   1.854  14.521 -0.0081  0.2658  0.1416
  778MPD2    H511485   0.510   1.762  14.478  2.9574 -1.3899  3.8062
  778MPD2    N111486   0.161   1.697  14.794 -0.1613  0.0548 -0.6886
  778MPD2    H711487   0.175   1.611  14.742 -1.1981  0.5579 -1.7893
  779MPD2     C11488   4.385   0.341  14.236  0.2614 -0.0775 -0.7762
  779MPD2    C111489   4.513   0.363  14.291  0.0744 -0.0360 -0.6213
  779MPD2    C211490   4.583   0.477  14.259 -0.3627 -0.2328  0.6209
  779MPD2    C311491   4.526   0.583  14.186  0.3598 -0.2379  0.3683
  779MPD2    C411492   4.406   0.555  14.125  0.2839 -1.2202  0.5210
  779MPD2    C511493   4.334   0.438  14.151  0.0626  0.2547  0.7657
  779MPD2     H11494   4.684   0.498  14.294 -1.1291  0.2887  2.5092
  779MPD2    H111495   4.360   0.612  14.045 -1.7398 -0.4321  2.2586
  779MPD2    H211496   4.328   0.251  14.258 -0.4499  1.0819  2.1193
  779MPD2    H311497   4.243   0.420  14.096  0.3990  0.2108  0.2270
  779MPD2     N11498   4.610   0.699  14.154  0.2768 -0.2919 -0.1669
  779MPD2    H511499   4.685   0.707  14.222 -1.7816 -3.8132  2.5235
  779MPD2    N111500   4.587   0.266  14.368 -0.1019  0.6433 -0.6670
  779MPD2    H711501   4.684   0.282  14.393 -0.6194  1.8909  0.5336
  780MPD2     C11502   3.104   4.470   0.631 -0.3368 -0.1633 -0.5669
  780MPD2    C111503   3.198   4.401   0.559 -0.3976 -0.1407  0.4846
  780MPD2    C211504   3.328   4.458   0.543 -0.0638  0.2571  0.2685
  780MPD2    C311505   3.353   4.586   0.583  0.1008 -0.1037 -0.6597
  780MPD2    C411506   3.255   4.652   0.646  0.5078 -0.0598  0.2946
  780MPD2    C511507   3.134   4.596   0.668 -0.6798 -0.1305 -0.3556
  780MPD2     H11508   3.401   4.407   0.481 -0.0534  1.3092 -0.5795
  780MPD2    H111509   3.256   0.033   0.679  2.2190  0.4500 -1.3312
  780MPD2    H211510   3.003   4.434   0.646 -0.2324  0.5521  1.7682
  780MPD2    H311511   3.057   4.657   0.714  1.7193  2.1328  0.6556
  780MPD2     N11512   3.483   4.645   0.566 -1.0023 -0.5233  0.2111
  780MPD2    H511513   3.541   4.612   0.489  0.0525 -0.6819  1.0729
  780MPD2    N111514   3.160   4.272   0.511  0.6073 -0.4002 -0.4143
  780MPD2    H711515   3.074   4.226   0.535  0.7186  0.1662  1.0615
  781MPD2     C11516   1.789   1.306  12.170  0.3396 -0.6600 -0.4986
  781MPD2    C111517   1.858   1.364  12.274  0.2929  0.2247 -0.4854
  781MPD2    C211518   1.986   1.412  12.254 -0.5228 -1.0496  0.1652
  781MPD2    C311519   2.053   1.399  12.136 -0.0408 -0.4111 -0.2094
  781MPD2    C411520   1.987   1.330  12.038 -0.5413 -0.5416  0.2629
  781MPD2    C511521   1.857   1.300  12.053 -0.0666  0.5155 -0.5842
  781MPD2     H11522   2.022   1.469  12.339 -2.3051 -0.8765  0.8131
  781MPD2    H111523   2.022   1.319  11.936 -2.8607 -2.1958 -0.3607
  781MPD2    H211524   1.694   1.255  12.175  0.6893 -1.2653  0.0477
  781MPD2    H311525   1.801   1.263  11.967 -1.2768  1.9509 -0.4169
  781MPD2     N11526   2.169   1.475  12.098 -0.8203 -0.2906 -0.2628
  781MPD2    H511527   2.193   1.470  11.999  1.9706  2.2514  0.2766
  781MPD2    N111528   1.801   1.375  12.403 -0.1502  1.1014  0.1608
  781MPD2    H711529   1.853   1.420  12.479  0.9141 -0.7090  0.4957
  782MPD2     C11530   4.124   2.672   9.973  0.1318 -0.1373 -0.7128
  782MPD2    C111531   4.170   2.618  10.088  0.7566 -0.0776 -0.2521
  782MPD2    C211532   4.219   2.697  10.183 -0.2499 -0.2145  0.2006
  782MPD2    C311533   4.239   2.830  10.161  0.0998  0.2444  0.9773
  782MPD2    C411534   4.212   2.883  10.039  0.6429 -0.1667  0.4168
  782MPD2    C511535   4.139   2.809   9.948  0.3067 -0.5051 -0.5650
  782MPD2     H11536   4.233   2.654  10.282  0.8977 -0.2167  0.0285
  782MPD2    H111537   4.238   2.981  10.002  1.2847 -0.4883  0.0112
  782MPD2    H211538   4.050   2.630   9.906  0.4389  0.2472 -1.2909
  782MPD2    H311539   4.109   2.855   9.854 -1.3299  2.5403  1.4411
  782MPD2     N11540   4.311   2.906  10.257 -0.7264 -0.5430 -0.7441
  782MPD2    H511541   4.332   2.862  10.346 -2.3526  1.3650  0.5967
  782MPD2    N111542   4.157   2.478  10.107  0.0270 -0.0141  0.3760
  782MPD2    H711543   4.194   2.441  10.194  0.9010 -0.8712 -0.3651
  783MPD2     C11544   3.367   2.119  10.562  0.4976  0.0294 -0.1200
  783MPD2    C111545   3.438   2.240  10.579 -1.0734 -0.3620 -0.0968
  783MPD2    C211546   3.561   2.269  10.526  0.2323 -0.8523 -0.2609
  783MPD2    C311547   3.619   2.177  10.442  0.5644 -0.2394 -0.5744
  783MPD2    C411548   3.558   2.053  10.429  0.3126 -0.4524  0.2512
  783MPD2    C511549   3.432   2.032  10.488 -1.1907 -0.4124 -0.2748
  783MPD2     H11550   3.601   2.369  10.532  0.0433 -0.5811 -3.7795
  783MPD2    H111551   3.614   1.967  10.397 -0.2677 -0.8766  0.3811
  783MPD2    H211552   3.265   2.106  10.597  0.5012 -3.6081 -1.4408
  783MPD2    H311553   3.381   1.937  10.472 -2.9191  0.3617  0.6633
  783MPD2     N11554   3.748   2.210  10.392 -0.0539  0.2460  0.1298
  783MPD2    H511555   3.787   2.299  10.421 -0.6080  0.9059 -1.1489
  783MPD2    N111556   3.377   2.326  10.674  0.2270 -0.7356 -0.0124
  783MPD2    H711557   3.290   2.298  10.717  0.4223 -1.2890  0.0221
  784MPD2     C11558   1.938   2.946   0.681 -0.0983  0.1259  1.0955
  784MPD2    C111559   1.932   3.029   0.789 -1.0433 -1.4155  0.4629
  784MPD2    C211560   1.807   3.092   0.810  0.9107 -0.3640  0.5099
  784MPD2    C311561   1.712   3.098   0.710  1.0393  0.0899  0.3931
  784MPD2    C411562   1.732   3.023   0.593  0.0504  0.1925  0.4013
  784MPD2    C511563   1.837   2.941   0.589 -0.0925 -0.3087  0.0228
  784MPD2     H11564   1.804   3.152   0.900 -0.7192  0.7179 -0.2727
  784MPD2    H111565   1.660   3.026   0.511 -0.5130  0.0869  0.8900
  784MPD2    H211566   2.022   2.884   0.652 -0.4291 -0.3043  1.0708
  784MPD2    H311567   1.831   2.881   0.498 -1.1964 -1.2049  0.6815
  784MPD2     N11568   1.597   3.179   0.734 -0.1286 -0.3710  0.2534
  784MPD2    H511569   1.573   3.199   0.830 -2.4271  0.0228 -0.4105
  784MPD2    N111570   2.034   3.058   0.882  0.2181 -0.1401  0.1873
  784MPD2    H711571   2.019   3.117   0.963  0.7732  1.6091 -0.9799
  785MPD2     C11572   2.106   2.221  10.979  0.7156  0.7459  0.1127
  785MPD2    C111573   2.008   2.167  11.053 -0.0898  0.3296  0.1988
  785MPD2    C211574   1.988   2.025  11.046  0.1472 -0.3127  0.2786
  785MPD2    C311575   2.038   1.953  10.940 -0.2726  0.2428 -0.1017
  785MPD2    C411576   2.123   2.008  10.854  0.4122 -0.3297  0.4201
  785MPD2    C511577   2.159   2.141  10.878 -0.7510  1.2488 -1.3577
  785MPD2     H11578   1.936   1.973  11.126 -1.4532  1.1485  0.1904
  785MPD2    H111579   2.180   1.960  10.775 -0.9669 -1.4075  0.0903
  785MPD2    H211580   2.140   2.324  10.982 -0.7608  1.2731 -1.2617
  785MPD2    H311581   2.235   2.172  10.808  0.2905  1.8436  0.0293
  785MPD2     N11582   1.989   1.817  10.928  0.3193 -0.1253 -0.5581
  785MPD2    H511583   1.920   1.792  10.998  0.1649 -2.1248 -1.4279
  785MPD2    N111584   1.943   2.243  11.159  0.1481  0.5734 -0.0686
  785MPD2    H711585   1.965   2.342  11.163 -1.2018  0.8358  0.9313
  786MPD2     C11586   0.362   4.474  14.767  0.4327 -0.0481 -0.7152
  786MPD2    C111587   0.491   4.433  14.743  0.3558  0.4589  0.5819
  786MPD2    C211588   0.579   4.435  14.853 -0.6802 -0.4961 -1.0761
  786MPD2    C311589   0.548   4.490  14.972 -0.1003 -0.3311 -0.1992
  786MPD2    C411590   0.420   4.532  14.992  0.1484  0.1975  0.8303
  786MPD2    C511591   0.331   4.526  14.890 -0.3328  0.0124  0.4141
  786MPD2     H11592   0.678   4.397  14.831 -0.8036 -0.7721 -1.1651
  786MPD2    H111593   0.394   4.581  15.085 -1.7031  1.0648 -0.1421
  786MPD2    H211594   0.287   4.453  14.691 -2.2528  1.9743  1.3806
  786MPD2    H311595   0.226   4.548  14.908 -0.3637 -1.3104  1.8352
  786MPD2     N11596   0.641   4.493  15.076 -0.2310  0.0044  0.4124
  786MPD2    H511597   0.599   4.517  15.165  0.8101  0.8640  0.6688
  786MPD2    N111598   0.521   4.352  14.633 -0.4614  0.2788 -0.3611
  786MPD2    H711599   0.610   4.303  14.636  0.1817  1.3930 -1.2786
  787MPD2     C11600   0.856   3.987  14.832  0.1164 -0.0963  0.1317
  787MPD2    C111601   0.831   3.911  14.718 -0.5657 -0.5546  0.5015
  787MPD2    C211602   0.883   3.777  14.707  0.5345  0.2129  0.0522
  787MPD2    C311603   0.954   3.727  14.812  0.3160 -1.0933  0.0383
  787MPD2    C411604   0.979   3.796  14.927  0.3615  0.1124 -0.2292
  787MPD2    C511605   0.935   3.924  14.927  0.2532  0.0725  0.2859
  787MPD2     H11606   0.860   3.730  14.612 -0.4613  2.3553 -0.7741
  787MPD2    H111607   1.051   3.758  14.998 -0.7797 -0.4019  0.6583
  787MPD2    H211608   0.826   4.090  14.844  0.9677  0.5322 -3.0706
  787MPD2    H311609   0.957   3.987  15.012 -1.7591 -0.1493  0.9668
  787MPD2     N11610   0.998   3.594  14.786 -0.1283  0.4442 -0.2136
  787MPD2    H511611   0.977   3.569  14.690  2.5154 -2.8997  0.0726
  787MPD2    N111612   0.757   3.976  14.618 -0.1932 -0.3644  0.0092
  787MPD2    H711613   0.753   4.077  14.617  0.7668 -0.3221  0.7871
  788MPD2     C11614   2.463   2.249   1.109  0.2229 -0.0960 -0.0579
  788MPD2    C111615   2.409   2.203   0.994  0.5951 -0.6403  0.0139
  788MPD2    C211616   2.397   2.292   0.895  0.2175  0.0554  0.2915
  788MPD2    C311617   2.440   2.426   0.896 -0.6425 -0.2571 -0.9268
  788MPD2    C411618   2.489   2.478   1.015  0.0523 -0.6041 -0.4439
  788MPD2    C511619   2.498   2.385   1.125  0.3842 -0.2582 -0.4881
  788MPD2     H11620   2.337   2.258   0.812  0.1558 -0.3286  0.4969
  788MPD2    H111621   2.522   2.581   1.013  2.2072 -1.2653  1.3747
  788MPD2    H211622   2.467   2.188   1.198 -3.4970 -1.3926 -0.7935
  788MPD2    H311623   2.558   2.418   1.209  2.2487  1.5572 -2.5125
  788MPD2     N11624   2.419   2.506   0.782 -0.7677  0.1903 -0.7520
  788MPD2    H511625   2.456   2.600   0.791 -1.0484  0.4529 -2.3543
  788MPD2    N111626   2.352   2.073   0.978  0.2654 -0.3038 -0.1263
  788MPD2    H711627   2.284   2.064   0.903  1.3162 -2.2002 -0.8441
  789MPD2     C11628   2.724   1.974  16.787 -0.7727 -0.4565  1.0430
  789MPD2    C111629   2.649   1.930  16.681  0.3788 -0.1625 -0.0710
  789MPD2    C211630   2.509   1.936  16.691 -0.1747  0.1182 -0.2137
  789MPD2    C311631   2.445   2.000  16.802 -0.3639  0.4276 -0.0620
  789MPD2    C411632   2.527   2.038  16.908 -0.0186  0.1423  0.2105
  789MPD2    C511633   2.662   2.018  16.904 -0.3385 -0.2497  0.0505
  789MPD2     H11634   2.452   1.900  16.605 -1.0769 -0.8487  0.7886
  789MPD2    H111635   2.486   2.084  16.997 -0.2649 -2.9402  1.6931
  789MPD2    H211636   2.832   1.972  16.802 -0.6582 -0.3253  0.2199
  789MPD2    H311637   2.722   2.054  16.986 -0.0001  1.7929 -1.0892
  789MPD2     N11638   2.304   2.016  16.817 -0.1262  0.5172 -0.1934
  789MPD2    H511639   2.273   2.050  16.908  1.3125 -1.7204  1.1232
  789MPD2    N111640   2.705   1.875  16.563 -0.1599  0.3298 -0.0619
  789MPD2    H711641   2.642   1.834  16.495  3.3144 -3.6068 -0.9429
  790MPD2     C11642   3.774   4.687  13.470 -0.6803 -0.1126 -0.0545
  790MPD2    C111643   3.811   4.565  13.519 -0.1759 -0.4040 -0.3437
  790MPD2    C211644   3.801   4.450  13.441  0.9710 -0.7361 -0.2173
  790MPD2    C311645   3.752   4.464  13.314  0.1616 -0.2622 -0.1496
  790MPD2    C411646   3.737   4.592  13.262  0.4944 -0.1447 -0.2220
  790MPD2    C511647   3.739   4.705  13.336 -0.3416  0.8590 -1.2226
  790MPD2     H11648   3.825   4.354  13.485  1.4997 -0.3052  0.4156
  790MPD2    H111649   3.693   4.604  13.163  0.1815 -1.4877 -0.2420
  790MPD2    H211650   3.781   0.054  13.530 -1.1456  0.3045 -0.6187
  790MPD2    H311651   3.708   0.079  13.298  1.5768  2.0644  0.2409
  790MPD2     N11652   3.719   4.346  13.247  0.0026 -0.6676  0.2453
  790MPD2    H511653   3.714   4.267  13.311 -2.4027 -0.3815  0.4128
  790MPD2    N111654   3.846   4.569  13.654 -0.0124 -0.0008  0.2442
  790MPD2    H711655   3.839   4.656  13.705  1.6578 -0.0496  0.5770
  791MPD2     C11656   3.118   4.271  12.783  0.2030  0.3861  0.0245
  791MPD2    C111657   3.142   4.152  12.855 -0.0139 -0.2459 -0.1807
  791MPD2    C211658   3.045   4.056  12.841 -0.1959 -0.2755  0.5693
  791MPD2    C311659   2.930   4.076  12.760  0.8282  0.0129  0.3338
  791MPD2    C411660   2.908   4.198  12.689  0.1602  0.1392 -0.4937
  791MPD2    C511661   3.001   4.297  12.715  0.3376 -0.5416 -0.2749
  791MPD2     H11662   3.069   3.962  12.889  0.2841 -0.1810  0.5068
  791MPD2    H111663   2.830   4.226  12.619  0.5105  0.7903 -0.6192
  791MPD2    H211664   3.194   4.348  12.785  1.1918 -0.6271  1.9019
  791MPD2    H311665   2.984   4.394  12.669  1.1683 -0.1371  0.2614
  791MPD2     N11666   2.860   3.955  12.745 -0.2542 -0.4598  0.2749
  791MPD2    H511667   2.903   3.888  12.807 -1.1940  0.0764  1.4875
  791MPD2    N111668   3.264   4.140  12.928  0.3835 -0.1379 -0.1158
  791MPD2    H711669   3.321   4.224  12.919  1.8420 -1.1129 -0.0586
  792MPD2     C11670   4.380   3.890  11.516  0.1041  0.5437 -0.2667
  792MPD2    C111671   4.303   3.937  11.411  0.3653 -0.2260  0.3584
  792MPD2    C211672   4.239   3.842  11.334 -0.1295 -0.3514 -0.2953
  792MPD2    C311673   4.243   3.705  11.359 -0.4495  0.0954  0.1033
  792MPD2    C411674   4.332   3.657  11.454  0.7363  0.2007  0.2467
  792MPD2    C511675   4.404   3.752  11.523 -0.2157 -0.2983  0.5923
  792MPD2     H11676   4.177   3.880  11.254  0.3679  1.3783  0.1331
  792MPD2    H111677   4.346   3.551  11.469 -2.0986 -0.1964 -0.0447
  792MPD2    H211678   4.420   3.955  11.593  0.6933 -1.0368  0.7612
  792MPD2    H311679   4.456   3.727  11.614 -2.1121  1.9390  2.3059
  792MPD2     N11680   4.175   3.606  11.291  0.7131  0.7344 -0.7493
  792MPD2    H511681   4.188   3.511  11.324 -1.2252  0.0437 -1.9614
  792MPD2    N111682   4.310   4.079  11.379 -0.0773 -0.7481 -0.3529
  792MPD2    H711683   4.388   4.136  11.412  0.5985 -2.2555  0.6532
  793MPD2     C11684   3.641   3.619  10.407  0.0690  0.0347  0.6128
  793MPD2    C111685   3.773   3.570  10.410  0.2063 -0.1895 -0.3579
  793MPD2    C211686   3.833   3.530  10.532  0.0093 -1.0942  0.7926
  793MPD2    C311687   3.762   3.531  10.649  0.2640 -0.0696 -1.0251
  793MPD2    C411688   3.630   3.581  10.640  0.0615  0.7059 -0.2577
  793MPD2    C511689   3.570   3.626  10.525 -0.0194 -0.0548 -0.9071
  793MPD2     H11690   3.933   3.486  10.532  0.7363  0.5864 -2.4428
  793MPD2    H111691   3.569   3.596  10.728 -1.6708  0.2641 -1.3948
  793MPD2    H211692   3.602   3.659  10.314  1.4990 -1.7879 -0.7689
  793MPD2    H311693   3.466   3.658  10.530  0.2567  0.1988  3.2505
  793MPD2     N11694   3.821   3.492  10.775  0.0327 -0.1066  0.3117
  793MPD2    H511695   3.915   3.454  10.781  0.3384  0.2646 -2.1253
  793MPD2    N111696   3.850   3.564  10.291  0.1341  0.1021 -0.0394
  793MPD2    H711697   3.946   3.535  10.303  0.0041 -0.3186  0.0021
  794MPD2     C11698   3.549   3.496  17.488  0.8590 -0.2249 -0.1592
  794MPD2    C111699   3.541   3.420  17.373  0.3366 -0.7910  0.0751
  794MPD2    C211700   3.508   3.489  17.253  0.3735 -0.1179 -0.3536
  794MPD2    C311701   3.488   3.622  17.257 -0.0315 -0.6445  0.0218
  794MPD2    C411702   3.484   3.691  17.374 -0.2587 -1.0218  0.1930
  794MPD2    C511703   3.517   3.631  17.495  0.7890  0.3167  0.0903
  794MPD2     H11704   3.510   3.430  17.162  4.3208  1.3449 -1.2028
  794MPD2    H111705   3.453   3.795  17.371 -1.4746 -1.4414 -1.7349
  794MPD2    H211706   3.582   3.458  17.585 -0.7915  0.3882  0.6460
  794MPD2    H311707   3.516   3.674  17.594 -0.1673 -0.9225  0.6285
  794MPD2     N11708   3.455   3.695  17.138 -0.0691 -0.5580 -0.1515
  794MPD2    H511709   3.431   3.792  17.151  0.6731  0.0848 -3.6418
  794MPD2    N111710   3.563   3.282  17.371  0.6096 -0.4994 -0.6218
  794MPD2    H711711   3.542   3.223  17.291 -2.6382  1.4673 -1.2147
  795MPD2     C11712   1.020   0.749  13.522 -0.1800 -0.5496  0.2610
  795MPD2    C111713   1.002   0.642  13.434  0.8251 -0.3226 -0.4814
  795MPD2    C211714   1.087   0.535  13.450  0.0851  0.6102  0.2639
  795MPD2    C311715   1.211   0.547  13.515  1.0894 -0.0556  0.3861
  795MPD2    C411716   1.233   0.657  13.587  0.1764  0.2712 -0.2533
  795MPD2    C511717   1.131   0.754  13.594 -0.1901  0.2946 -0.5253
  795MPD2     H11718   1.083   0.447  13.387 -1.6700 -0.5211  1.9268
  795MPD2    H111719   1.326   0.680  13.639  0.6196 -2.0822  0.0001
  795MPD2    H211720   0.943   0.822  13.545  2.8697  2.2514  1.6200
  795MPD2    H311721   1.154   0.837  13.661  1.4443 -0.2025 -0.4701
  795MPD2     N11722   1.302   0.438  13.503  0.2055  0.2670  0.2794
  795MPD2    H511723   1.273   0.362  13.443  2.3494  0.7517 -1.3523
  795MPD2    N111724   0.886   0.622  13.353 -0.3481  0.0423 -0.0088
  795MPD2    H711725   0.880   0.537  13.298 -2.1694  1.0592 -1.3909
  796MPD2     C11726   0.816   2.185  15.801  0.3349  0.5679  0.2174
  796MPD2    C111727   0.954   2.206  15.798  0.2508 -0.0594 -0.1251
  796MPD2    C211728   1.000   2.336  15.807  0.1133  0.1792  0.1942
  796MPD2    C311729   0.913   2.440  15.825  0.0213  0.1856 -1.1295
  796MPD2    C411730   0.776   2.416  15.821  0.6894  0.0015  0.6175
  796MPD2    C511731   0.726   2.289  15.809 -0.5804 -0.4317 -0.1368
  796MPD2     H11732   1.106   2.358  15.815  0.3637 -1.2301  0.8513
  796MPD2    H111733   0.696   2.488  15.813  0.5425 -0.3992 -1.4465
  796MPD2    H211734   0.778   2.085  15.783  0.7317  0.0550  2.1938
  796MPD2    H311735   0.621   2.277  15.788 -0.5779 -1.1896  0.2670
  796MPD2     N11736   0.963   2.569  15.837  0.1734  0.8175  0.1526
  796MPD2    H511737   1.064   2.577  15.840  0.4964 -3.0044 -0.5494
  796MPD2    N111738   1.041   2.091  15.780  0.1185  0.0791 -0.0765
  796MPD2    H711739   1.003   1.997  15.778  1.3452 -0.3689 -2.9449
  797MPD2     C11740   1.296   1.721  16.979 -0.6452  0.0824 -0.0781
  797MPD2    C111741   1.258   1.831  17.058  0.1981  0.4865 -0.3602
  797MPD2    C211742   1.184   1.935  16.999  0.1589  0.0232  0.6716
  797MPD2    C311743   1.150   1.922  16.862 -0.2665  0.2475  0.6764
  797MPD2    C411744   1.197   1.820  16.788 -0.4877 -0.1052  0.1589
  797MPD2    C511745   1.275   1.720  16.844  0.0487  0.5990 -0.1620
  797MPD2     H11746   1.169   2.025  17.058  1.4258 -0.3935  1.6046
  797MPD2    H111747   1.179   1.827  16.681 -1.1623 -0.1354  0.2708
  797MPD2    H211748   1.345   1.636  17.023 -0.0376  1.4039  1.7929
  797MPD2    H311749   1.324   1.641  16.788  1.5239  0.5218  1.2400
  797MPD2     N11750   1.081   2.029  16.793  0.4202 -0.4621  0.7385
  797MPD2    H511751   1.072   2.020  16.692 -1.8163  0.6527  0.8259
  797MPD2    N111752   1.284   1.854  17.197 -0.0636 -0.0750  0.2143
  797MPD2    H711753   1.254   1.941  17.240 -0.4950 -0.7796  1.3372
  798MPD2     C11754   1.054   2.532  17.343  0.1169 -0.3657  0.5709
  798MPD2    C111755   1.104   2.460  17.239  0.3273  0.2955 -0.1406
  798MPD2    C211756   1.192   2.356  17.275  0.5775  0.4262 -0.6157
  798MPD2    C311757   1.222   2.336  17.409 -0.2826 -0.5436  0.3620
  798MPD2    C411758   1.176   2.414  17.510  0.2002  0.4993  0.4879
  798MPD2    C511759   1.083   2.512  17.478 -0.0943 -0.8340  0.0965
  798MPD2     H11760   1.220   2.280  17.203 -0.0237  1.8362 -2.3476
  798MPD2    H111761   1.198   2.398  17.615  0.7582 -1.1416  0.1264
  798MPD2    H211762   0.990   2.616  17.320  0.2831  0.0710  1.7224
  798MPD2    H311763   1.034   2.571  17.554  1.6681  1.0137 -0.1853
  798MPD2     N11764   1.307   2.222  17.424  0.0126  0.4994 -0.1578
  798MPD2    H511765   1.342   2.185  17.336  1.9507  1.6004  0.1539
  798MPD2    N111766   1.069   2.479  17.105 -0.2263 -0.1354  0.1317
  798MPD2    H711767   0.988   2.537  17.086 -0.3839 -1.0662 -1.9702
  799MPD2     C11768   0.702   3.315  14.791  0.2114 -0.3121  0.0956
  799MPD2    C111769   0.718   3.244  14.673  0.2989  0.2655  0.3738
  799MPD2    C211770   0.686   3.311  14.553 -0.0138 -0.2129  0.3804
  799MPD2    C311771   0.639   3.439  14.546  0.3793  0.1611 -0.0504
  799MPD2    C411772   0.629   3.509  14.661 -0.0527  0.3632  0.4469
  799MPD2    C511773   0.662   3.445  14.782 -0.5291  0.8214 -0.8983
  799MPD2     H11774   0.705   3.258  14.460  1.0845  0.0496  0.4583
  799MPD2    H111775   0.591   3.611  14.667 -0.5464 -0.0925  5.3060
  799MPD2    H211776   0.718   3.286  14.894 -0.1295  0.1432  0.2780
  799MPD2    H311777   0.655   3.494  14.878 -0.3894 -0.1114 -0.4133
  799MPD2     N11778   0.609   3.507  14.420  0.2716  0.2748 -0.0719
  799MPD2    H511779   0.585   3.604  14.438 -0.3723  0.0448  0.2952
  799MPD2    N111780   0.783   3.124  14.667  0.0455  0.6841  0.0273
  799MPD2    H711781   0.754   3.070  14.586  1.0394  2.2858 -1.3881
  800MPD2     C11782   0.849   4.294  13.427  0.1730 -0.0961 -0.5020
  800MPD2    C111783   0.977   4.275  13.475 -0.2286  0.7619  0.3704
  800MPD2    C211784   1.052   4.170  13.431 -0.1503 -1.0639 -0.4858
  800MPD2    C311785   1.015   4.096  13.316  0.3965  0.3256 -0.5051
  800MPD2    C411786   0.883   4.116  13.272 -1.0065 -0.5122  0.1792
  800MPD2    C511787   0.804   4.215  13.322 -0.0289 -0.2051 -0.2683
  800MPD2     H11788   1.151   4.156  13.473 -0.2842  0.8693  0.4586
  800MPD2    H111789   0.838   4.064  13.188  1.7548  0.9706 -2.2067
  800MPD2    H211790   0.787   4.374  13.467  3.5444  2.5605 -0.5847
  800MPD2    H311791   0.704   4.232  13.286 -0.5475  0.2029  1.3654
  800MPD2     N11792   1.098   4.003  13.254  0.4614  0.1024 -0.5352
  800MPD2    H511793   1.182   3.976  13.304  2.0467  2.7169 -1.7654
  800MPD2    N111794   1.035   4.369  13.557 -0.7959 -0.1112 -0.4626
  800MPD2    H711795   0.967   4.428  13.604  0.2631  2.2897 -1.9707
  801MPD2     C11796   0.999   0.380  13.721  0.2330  0.2227 -0.2002
  801MPD2    C111797   0.974   0.273  13.809 -0.4537 -0.1377 -0.6563
  801MPD2    C211798   0.885   0.279  13.910 -0.0037 -0.0913 -0.2023
  801MPD2    C311799   0.811   0.391  13.924 -0.0155  0.4468 -0.2682
  801MPD2    C411800   0.833   0.499  13.841 -0.5851  0.4177  0.1363
  801MPD2    C511801   0.927   0.492  13.737  0.3396 -0.4634 -0.1818
  801MPD2     H11802   0.871   0.204  13.987  0.2019 -2.7399 -2.7867
  801MPD2    H111803   0.775   0.590  13.857  1.7043  1.8010  0.6233
  801MPD2    H211804   1.072   0.372  13.641 -0.4085 -2.1590 -0.5542
  801MPD2    H311805   0.937   0.577  13.671 -2.6393 -0.1715 -0.2756
  801MPD2     N11806   0.716   0.413  14.027  0.1424  0.2691 -0.5418
  801MPD2    H511807   0.647   0.488  14.018 -2.1532 -1.7599  0.2000
  801MPD2    N111808   1.053   0.156  13.806  0.1417  0.2847 -0.7177
  801MPD2    H711809   1.057   0.091  13.884 -0.3783  0.6220 -0.4106
  802MPD2     C11810   4.467   0.262  17.028  0.8007 -0.4161 -0.0161
  802MPD2    C111811   4.508   0.258  17.160 -0.6486 -0.2431  0.4027
  802MPD2    C211812   4.627   0.213  17.200  0.0400  0.0573  0.3222
  802MPD2    C311813   4.713   0.149  17.110  0.5899 -0.0359  0.2278
  802MPD2    C411814   4.679   0.159  16.977  0.2821 -0.1043 -0.6106
  802MPD2    C511815   4.555   0.209  16.933  0.6013  0.2209  0.0736
  802MPD2     H11816   4.668   0.226  17.300  0.8251 -1.2018  0.1593
  802MPD2    H111817   0.022   0.126  16.897  0.4265 -0.8025 -0.2067
  802MPD2    H211818   4.372   0.296  16.989  0.6741 -1.0082 -0.2281
  802MPD2    H311819   4.533   0.213  16.827  1.7392 -0.3182 -0.1854
  802MPD2     N11820   0.105   0.089  17.166 -0.4857 -0.1125  0.0659
  802MPD2    H511821   0.113   0.099  17.267 -2.5764  0.7984  0.1326
  802MPD2    N111822   4.428   0.314  17.264  0.3392 -0.3030 -1.0789
  802MPD2    H711823   4.465   0.309  17.358 -1.0087  3.0237 -0.3702
  803MPD2     C11824   1.996   4.117  11.512 -0.9113  0.0819  0.0200
  803MPD2    C111825   2.074   4.076  11.621 -0.4799  0.7308 -0.1553
  803MPD2    C211826   2.041   3.956  11.680  0.2793  0.3743  0.1472
  803MPD2    C311827   1.932   3.888  11.632  0.6483  0.3010 -0.5248
  803MPD2    C411828   1.855   3.930  11.523 -0.7242  0.0022 -0.1056
  803MPD2    C511829   1.886   4.050  11.465  0.0647  0.4549 -0.1101
  803MPD2     H11830   2.090   3.929  11.773 -0.4920 -0.1789  0.3950
  803MPD2    H111831   1.765   3.876  11.497  0.3191 -2.1169  0.6859
  803MPD2    H211832   2.031   4.207  11.462 -0.9803 -0.5205 -1.1181
  803MPD2    H311833   1.817   4.100  11.397 -1.8562 -1.3116  0.5254
  803MPD2     N11834   1.875   3.783  11.707 -0.1180  0.3586  0.4858
  803MPD2    H511835   1.798   3.732  11.664  1.5026 -1.1981 -0.5789
  803MPD2    N111836   2.172   4.153  11.678 -0.8979 -0.9202  0.3067
  803MPD2    H711837   2.223   4.112  11.756  0.0010 -0.2073  0.1039
  804MPD2     C11838   1.093   0.475  16.961 -0.0215 -0.1635  0.0021
  804MPD2    C111839   1.118   0.454  17.089  0.1576 -0.0028  0.2718
  804MPD2    C211840   1.188   0.544  17.171  0.1750  0.2685 -0.0731
  804MPD2    C311841   1.224   0.668  17.113 -0.1187 -0.0499 -0.1580
  804MPD2    C411842   1.179   0.698  16.984 -0.1889  0.0817 -1.4720
  804MPD2    C511843   1.127   0.596  16.909 -0.8274  0.9036  0.0498
  804MPD2     H11844   1.234   0.529  17.268  1.8856  0.9524 -0.7612
  804MPD2    H111845   1.198   0.790  16.931  1.9349  0.6716  0.3049
  804MPD2    H211846   1.049   0.411  16.885 -0.1740 -0.2536  0.1665
  804MPD2    H311847   1.090   0.623  16.811 -0.3598  0.9838 -0.1049
  804MPD2     N11848   1.317   0.742  17.185  0.7531 -0.1467 -0.6936
  804MPD2    H511849   1.350   0.703  17.272 -1.8638 -1.6906 -0.3861
  804MPD2    N111850   1.087   0.327  17.150 -0.1903  0.6660 -0.1981
  804MPD2    H711851   1.106   0.314  17.249 -1.5470 -1.0492 -0.1635
  805MPD2     C11852   0.417   3.324  15.690  0.0758  0.6914  0.0429
  805MPD2    C111853   0.498   3.408  15.619 -0.2332 -0.6612 -0.0725
  805MPD2    C211854   0.614   3.435  15.682 -0.0248 -0.0438 -0.2941
  805MPD2    C311855   0.651   3.384  15.807  0.4010 -0.0145  0.0805
  805MPD2    C411856   0.559   3.301  15.878 -0.8508  0.1612 -0.0056
  805MPD2    C511857   0.438   3.270  15.813  0.8909  0.3371  0.0996
  805MPD2     H11858   0.690   3.497  15.638  0.7842 -2.7306 -2.6777
  805MPD2    H111859   0.583   3.255  15.973 -0.7510 -1.8599 -1.0146
  805MPD2    H211860   0.314   3.316  15.655  0.0595 -0.6412  0.3948
  805MPD2    H311861   0.368   3.199  15.855 -3.4060  3.6711 -1.4077
  805MPD2     N11862   0.776   3.412  15.860  0.2570  0.6888  0.7771
  805MPD2    H511863   0.844   3.468  15.809 -2.1307  2.2984 -0.6757
  805MPD2    N111864   0.458   3.476  15.498 -0.2905 -0.7416  0.5250
  805MPD2    H711865   0.528   3.528  15.446 -1.3632  1.2284  1.0626
  806MPD2     C11866   0.988   3.839   0.969 -0.1052  0.9078  0.4602
  806MPD2    C111867   0.983   3.703   0.942 -0.0175  0.3774  0.2108
  806MPD2    C211868   0.962   3.657   0.812  0.7351 -0.2831  0.6003
  806MPD2    C311869   0.953   3.755   0.709 -1.0013 -0.4779 -0.7346
  806MPD2    C411870   0.958   3.884   0.736  0.4493  0.1237  0.2699
  806MPD2    C511871   0.973   3.928   0.865  0.0817 -0.3849  0.1050
  806MPD2     H11872   0.958   3.550   0.791 -2.4674 -0.2801  1.1902
  806MPD2    H111873   0.954   3.958   0.657  2.0176 -1.4472 -1.2724
  806MPD2    H211874   1.001   3.883   1.067 -1.5915  3.0799 -0.3002
  806MPD2    H311875   0.995   4.031   0.887 -0.6844  0.0290 -1.0983
  806MPD2     N11876   0.924   3.710   0.578 -0.0247  0.2996 -0.2455
  806MPD2    H511877   0.920   3.609   0.564 -2.0029  0.3751 -0.2837
  806MPD2    N111878   0.987   3.611   1.052  0.4209  0.0249  0.1119
  806MPD2    H711879   1.008   3.663   1.137  1.2148 -0.5095  0.2348
  807MPD2     C11880   0.467   3.486   1.586  0.7674  0.2052  0.0512
  807MPD2    C111881   0.511   3.377   1.518  0.7851  0.5535 -0.4694
  807MPD2    C211882   0.433   3.264   1.521  0.3662  0.3882  0.1695
  807MPD2    C311883   0.314   3.263   1.587  0.6761  0.1507  0.9243
  807MPD2    C411884   0.269   3.377   1.653 -0.0011  0.7372  0.2828
  807MPD2    C511885   0.346   3.490   1.653 -0.4579  0.2414  0.2091
  807MPD2     H11886   0.457   3.176   1.461 -1.7679  1.1478 -1.8038
  807MPD2    H111887   0.169   3.374   1.695 -0.0403 -2.0151 -0.0084
  807MPD2    H211888   0.522   3.579   1.578  1.9145 -0.4291  0.5030
  807MPD2    H311889   0.303   3.577   1.701 -1.4804 -0.0886 -0.0946
  807MPD2     N11890   0.248   3.137   1.592 -0.1068  0.5072  0.0038
  807MPD2    H511891   0.302   3.058   1.560  0.1028  0.6751 -0.0588
  807MPD2    N111892   0.628   3.370   1.439 -0.2345 -0.2532  0.1331
  807MPD2    H711893   0.646   3.286   1.385 -0.0132 -0.7758  1.0304
  808MPD2     C11894   1.375   4.532  10.371  0.1282  0.1911  0.3394
  808MPD2    C111895   1.419   4.472  10.261  1.0290  0.0105  0.4608
  808MPD2    C211896   1.506   4.545  10.178  0.2418  0.1368 -0.4435
  808MPD2    C311897   1.542   4.675  10.196  0.1949 -0.3304  0.0009
  808MPD2    C411898   1.480   0.019  10.299  0.1915 -0.4692 -0.5734
  808MPD2    C511899   1.389   4.666  10.376  0.1516 -0.5918  0.2069
  808MPD2     H11900   1.544   4.497  10.088 -1.0892 -0.4202 -0.7027
  808MPD2    H111901   1.490   0.127  10.305  1.9876 -0.7114  0.6866
  808MPD2    H211902   1.308   4.473  10.432  0.1677  0.7780  0.9545
  808MPD2    H311903   1.334   4.717  10.454  0.6815  0.3217 -0.0065
  808MPD2     N11904   1.647   0.029  10.125  0.6519  0.4384  0.4640
  808MPD2    H511905   1.673   0.123  10.155  2.1540 -0.1830  1.1068
  808MPD2    N111906   1.413   4.331  10.243 -0.2709  0.1158  0.2189
  808MPD2    H711907   1.463   4.296  10.162 -0.4806  0.7854 -0.2043
  809MPD2     C11908   1.994   4.696   9.199  0.0356 -0.8898 -0.1338
  809MPD2    C111909   2.106   0.020   9.266  0.2511  0.3630 -0.3271
  809MPD2    C211910   2.092   0.059   9.399 -0.4428 -0.7922 -0.0024
  809MPD2    C311911   1.966   0.064   9.461  0.3834 -0.0704  1.2716
  809MPD2    C411912   1.855   0.023   9.388  0.6979 -0.1935 -0.4240
  809MPD2    C511913   1.872   4.700   9.257  0.0720  0.0961  0.1677
  809MPD2     H11914   2.177   0.101   9.451  1.0088 -2.9521 -0.6345
  809MPD2    H111915   1.758   0.011   9.434  1.2582  2.8761  1.5084
  809MPD2    H211916   2.000   4.651   9.100 -1.1434  1.9312 -1.4993
  809MPD2    H311917   1.780   4.654   9.223 -0.3722 -0.7844  2.5374
  809MPD2     N11918   1.945   0.096   9.596 -0.0764 -0.3783 -0.1501
  809MPD2    H511919   1.856   0.068   9.634 -0.3291  1.2121  0.4646
  809MPD2    N111920   2.227   0.039   9.204 -0.5225 -0.6204  0.1263
  809MPD2    H711921   2.301   0.085   9.256 -0.2143  0.1352 -0.9813
  810MPD2     C11922   0.900   3.640  11.341 -0.5634 -0.1899 -0.1745
  810MPD2    C111923   0.972   3.680  11.233 -0.0148  0.3956 -0.0285
  810MPD2    C211924   1.038   3.802  11.242 -0.0977  0.8968  1.0160
  810MPD2    C311925   1.028   3.878  11.355  0.5783 -0.2041 -0.6744
  810MPD2    C411926   0.952   3.832  11.459  0.0961 -0.0096 -0.8589
  810MPD2    C511927   0.889   3.711  11.457  0.2456 -0.1957 -0.2461
  810MPD2     H11928   1.086   3.837  11.150  1.6177  0.2187  1.6449
  810MPD2    H111929   0.929   3.888  11.549  2.7313  1.9338 -1.3655
  810MPD2    H211930   0.844   3.547  11.333 -0.6462  0.0424 -2.2418
  810MPD2    H311931   0.827   3.682  11.541  0.3249 -0.0589 -0.1403
  810MPD2     N11932   1.078   4.008  11.362 -1.0691 -1.0886  0.1025
  810MPD2    H511933   1.059   4.058  11.447 -0.3754 -1.6203  0.5769
  810MPD2    N111934   0.954   3.608  11.113 -0.4873  0.1368  0.6663
  810MPD2    H711935   0.893   3.527  11.126 -0.6330  0.1126 -0.1959
  811MPD2     C11936   0.756   3.696  10.197  0.2579 -0.2076 -0.8401
  811MPD2    C111937   0.820   3.768  10.296 -0.1825 -0.2336 -0.4402
  811MPD2    C211938   0.868   3.901  10.278  0.3301 -0.9364  0.1298
  811MPD2    C311939   0.857   3.963  10.149  0.4052  0.0404  0.0822
  811MPD2    C411940   0.795   3.891  10.048 -0.6992  1.0272 -0.9165
  811MPD2    C511941   0.752   3.758  10.073 -0.0567 -0.1405  0.3462
  811MPD2     H11942   0.907   3.944  10.370 -3.2782  1.5468  0.4834
  811MPD2    H111943   0.790   3.918   9.943 -1.0009  2.8231 -0.4366
  811MPD2    H211944   0.715   3.597  10.213 -0.8189  0.4778  0.6657
  811MPD2    H311945   0.710   3.703   9.990  0.7661  3.4774 -2.4696
  811MPD2     N11946   0.920   4.089  10.133  0.1371 -0.0086  0.1407
  811MPD2    H511947   0.945   4.128  10.223  2.2615  0.2433 -0.5721
  811MPD2    N111948   0.831   3.695  10.409 -0.1770  0.0939  0.0456
  811MPD2    H711949   0.774   3.612  10.425 -0.2365  0.1667  0.2084
  812MPD2     C11950   4.496   3.680  12.194  0.4639  0.7299 -0.2454
  812MPD2    C111951   4.391   3.726  12.267 -0.3529 -0.6597 -0.1950
  812MPD2    C211952   4.352   3.670  12.389 -0.4121  0.3863 -0.2235
  812MPD2    C311953   4.422   3.556  12.427  0.1551  0.5302  0.0623
  812MPD2    C411954   4.535   3.515  12.354  0.1661 -0.0766  0.3714
  812MPD2    C511955   4.576   3.580  12.242  0.2197 -0.5702 -0.4995
  812MPD2     H11956   4.268   3.714  12.442  0.1361  0.4739  0.5587
  812MPD2    H111957   4.562   3.413  12.378 -0.3639 -0.0580  1.0636
  812MPD2    H211958   4.521   3.724  12.098  0.9244  0.4994 -0.2311
  812MPD2    H311959   4.635   3.526  12.168 -1.3771  0.2981 -2.4094
  812MPD2     N11960   4.376   3.482  12.537 -0.6080 -0.1891 -0.3790
  812MPD2    H511961   4.285   3.505  12.577 -0.1324 -0.3845  0.7892
  812MPD2    N111962   4.324   3.840  12.213 -0.1611 -0.0449 -0.0330
  812MPD2    H711963   4.355   3.885  12.127  1.3527 -0.5804  0.2312
  813MPD2     C11964   3.622   0.941  12.658 -0.1685 -0.1398  0.4436
  813MPD2    C111965   3.584   1.076  12.675 -0.9235 -0.4313 -0.3281
  813MPD2    C211966   3.526   1.119  12.797 -0.0300 -0.3218 -0.0021
  813MPD2    C311967   3.519   1.030  12.903 -0.1269 -0.1745  0.1652
  813MPD2    C411968   3.559   0.899  12.882  0.4586  0.3619 -0.1016
  813MPD2    C511969   3.612   0.853  12.763  0.2399  0.1515  0.8347
  813MPD2     H11970   3.495   1.223  12.802  1.6919  0.0563  3.0289
  813MPD2    H111971   3.547   0.822  12.957 -0.7753 -0.1306 -0.8071
  813MPD2    H211972   3.684   0.906  12.577  0.6619  0.5685  0.7704
  813MPD2    H311973   3.625   0.747  12.742 -0.6263 -0.0010  1.0633
  813MPD2     N11974   3.473   1.082  13.024  0.4424  0.0316  0.5112
  813MPD2    H511975   3.438   1.177  13.020  1.3696  0.4892  2.7228
  813MPD2    N111976   3.642   1.167  12.585 -0.4532 -0.7143 -1.1934
  813MPD2    H711977   3.699   1.122  12.514 -1.7342 -0.5219 -2.3480
  814MPD2     C11978   3.832   2.448  12.088 -0.5541  0.1251 -0.2938
  814MPD2    C111979   3.890   2.475  11.966 -0.8424  0.0043  0.2112
  814MPD2    C211980   4.003   2.555  11.963 -0.3186  0.0351 -0.7804
  814MPD2    C311981   4.050   2.614  12.083 -0.6461 -0.1553  0.5026
  814MPD2    C411982   3.996   2.579  12.201  0.8195 -0.4899 -0.2339
  814MPD2    C511983   3.897   2.487  12.202  0.2439 -0.3127 -0.3203
  814MPD2     H11984   4.050   2.583  11.870  1.4248  0.4261  0.2056
  814MPD2    H111985   4.034   2.600  12.300  1.0796 -0.6295 -0.3041
  814MPD2    H211986   3.740   2.390  12.095 -0.4132 -0.4098 -2.8837
  814MPD2    H311987   3.871   2.447  12.300 -0.7431  0.9275 -0.0605
  814MPD2     N11988   4.156   2.707  12.089 -0.1971  0.3156  0.0251
  814MPD2    H511989   4.180   2.732  12.185 -0.9480  2.3343 -0.3091
  814MPD2    N111990   3.852   2.426  11.841  0.0644 -0.3729 -0.1709
  814MPD2    H711991   3.891   2.479  11.763  1.7967 -0.0480  0.9075
  815MPD2     C11992   4.620   1.502  11.896  0.4836 -0.3924  0.1822
  815MPD2    C111993   4.574   1.372  11.887  0.4309  0.3172  0.2626
  815MPD2    C211994   4.441   1.342  11.914  0.6528  0.1281  0.1205
  815MPD2    C311995   4.364   1.442  11.955 -0.5143 -0.7170  0.0906
  815MPD2    C411996   4.409   1.574  11.958 -0.5762  0.6308  0.5369
  815MPD2    C511997   4.534   1.603  11.926  0.3971 -0.5514  0.2879
  815MPD2     H11998   4.416   1.236  11.922  1.5596 -0.1354 -0.5713
  815MPD2    H111999   4.342   1.657  11.973 -0.7845  0.6980 -0.8427
  815MPD2    H212000   4.716   1.531  11.855 -0.8426  0.6505 -2.2447
  815MPD2    H312001   4.566   1.706  11.927  0.2052 -0.4930  0.5811
  815MPD2     N12002   4.226   1.407  11.960 -0.3776 -0.3301  0.2757
  815MPD2    H512003   4.202   1.309  11.962 -0.9839 -0.1678  0.9786
  815MPD2    N112004   4.672   1.281  11.822 -0.2363 -0.0130 -0.2547
  815MPD2    H712005   0.033   1.307  11.770  0.7355 -0.2403  1.1826
  816MPD2     C12006   4.388   4.691  17.405  0.2898  0.1687 -0.4019
  816MPD2    C112007   4.342   4.714  17.278 -0.6718  0.4048  0.2337
  816MPD2    C212008   4.410   4.652  17.172  0.0315  0.2196  0.4683
  816MPD2    C312009   4.518   4.575  17.194 -0.2222  0.0426 -0.3542
  816MPD2    C412010   4.565   4.554  17.323 -0.1014 -0.4753 -0.0437
  816MPD2    C512011   4.498   4.614  17.425 -0.2700 -0.4564  0.4979
  816MPD2     H12012   4.382   4.663  17.068  1.0612  0.5720  0.2332
  816MPD2    H112013   4.640   4.478  17.345 -0.5530 -0.3538  1.8597
  816MPD2    H212014   4.347   0.018  17.492 -0.3818 -1.7403  0.3782
  816MPD2    H312015   4.531   4.602  17.527  2.3444  0.0450 -0.2783
  816MPD2     N12016   4.578   4.518  17.085  0.0222  0.5513  0.3341
  816MPD2    H512017   4.550   4.559  16.996  0.1883  2.0776  0.9842
  816MPD2    N112018   4.224   0.056  17.245 -0.4140  0.6604  0.2583
  816MPD2    H712019   4.198   0.048  17.147 -1.3230  0.3023  0.5190
  817MPD2     C12020   4.668   1.636   9.996 -0.1934  1.0016 -0.3488
  817MPD2    C112021   4.652   1.603   9.863  0.7373 -0.3770  0.0921
  817MPD2    C212022   4.565   1.680   9.788  0.4313 -0.7508  0.1838
  817MPD2    C312023   4.481   1.776   9.844  0.0516  0.8973 -0.1485
  817MPD2    C412024   4.497   1.805   9.979  0.1982  0.0489 -0.6808
  817MPD2    C512025   4.595   1.738  10.044 -0.6776  0.3509 -0.0416
  817MPD2     H12026   4.554   1.653   9.684  1.7554 -0.0919 -0.1220
  817MPD2    H112027   4.431   1.869  10.035  0.1332 -0.0370 -0.6584
  817MPD2    H212028   0.004   1.582  10.069 -0.1706  1.2403 -0.1889
  817MPD2    H312029   4.623   1.769  10.144 -0.6185  0.3397 -0.0544
  817MPD2     N12030   4.385   1.829   9.758 -0.0555  0.3394 -0.0144
  817MPD2    H512031   4.390   1.799   9.662  0.7907  0.1468  0.0929
  817MPD2    N112032   4.712   1.486   9.810 -0.8209 -0.6144 -0.5458
  817MPD2    H712033   4.714   1.477   9.709  1.5259  1.7368 -0.7198
  818MPD2     C12034   2.942   1.740   9.808 -0.6579  0.0159 -0.1818
  818MPD2    C112035   3.013   1.679   9.902 -0.6712  0.2424  0.0896
  818MPD2    C212036   3.135   1.621   9.873 -0.6875 -0.2822  0.0368
  818MPD2    C312037   3.191   1.647   9.752  0.2898 -0.5974 -0.2387
  818MPD2    C412038   3.119   1.718   9.654 -0.4425 -0.3271  0.0880
  818MPD2    C512039   2.998   1.764   9.686 -0.2540  0.2075 -0.0614
  818MPD2     H12040   3.188   1.566   9.950  0.5556  1.5351  0.4859
  818MPD2    H112041   3.159   1.747   9.557 -0.8063  2.1157  0.6644
  818MPD2    H212042   2.836   1.755   9.827 -0.0351  1.2865  2.3056
  818MPD2    H312043   2.938   1.807   9.606 -0.5106  0.3743  0.2195
  818MPD2     N12044   3.324   1.609   9.718 -0.1661 -0.2367 -0.2097
  818MPD2    H512045   3.353   1.613   9.621 -1.4719 -0.3187 -0.6058
  818MPD2    N112046   2.963   1.658  10.035  0.0728 -0.2462  0.1177
  818MPD2    H712047   3.009   1.597  10.102 -1.2150  0.6929  1.8563
  819MPD2     C12048   1.100   3.139  15.686 -0.0515 -0.1811  0.6224
  819MPD2    C112049   1.133   3.011  15.675 -1.0334 -0.2221  0.6804
  819MPD2    C212050   1.232   2.969  15.755  0.0412 -0.8694 -0.3156
  819MPD2    C312051   1.300   3.048  15.846 -0.0946  0.0204 -0.0054
  819MPD2    C412052   1.273   3.184  15.847  0.6244 -0.4104 -0.4463
  819MPD2    C512053   1.168   3.227  15.769  0.2880  0.0367  0.1472
  819MPD2     H12054   1.264   2.865  15.751  0.3654 -0.6763 -2.9867
  819MPD2    H112055   1.341   3.248  15.901 -1.7213  1.0166  0.8045
  819MPD2    H212056   1.029   3.181  15.616 -1.7832 -0.7772  2.0064
  819MPD2    H312057   1.157   3.334  15.765  1.2786  0.0917 -1.2467
  819MPD2     N12058   1.406   2.986  15.917 -0.5768  0.4492  0.0936
  819MPD2    H512059   1.443   2.898  15.884 -3.0165 -1.5981  2.7676
  819MPD2    N112060   1.056   2.931  15.584 -0.7848  0.7038 -0.3199
  819MPD2    H712061   0.978   2.981  15.542 -1.2791  1.1554  1.1271
  820MPD2     C12062   0.435   3.041  14.851 -0.3939  0.8218  0.8734
  820MPD2    C112063   0.479   3.113  14.954 -0.1822 -0.4442  0.6214
  820MPD2    C212064   0.562   3.043  15.040  0.1231 -0.0511 -0.2152
  820MPD2    C312065   0.582   2.905  15.031 -0.0541 -0.7357 -0.0243
  820MPD2    C412066   0.530   2.843  14.920 -0.4509 -0.0208  0.7083
  820MPD2    C512067   0.448   2.906  14.836 -0.5676 -0.1598 -0.0651
  820MPD2     H12068   0.618   3.098  15.115  0.4080 -1.4599  0.5946
  820MPD2    H112069   0.554   2.739  14.899  1.2366  0.5384 -0.1152
  820MPD2    H212070   0.382   3.090  14.770 -0.1616 -0.0435  0.2009
  820MPD2    H312071   0.389   2.857  14.760 -0.7753 -0.8638  0.5502
  820MPD2     N12072   0.662   2.831  15.122 -0.7021 -0.1380  0.1364
  820MPD2    H512073   0.686   2.734  15.101  0.0029 -0.6838  3.5898
  820MPD2    N112074   0.433   3.251  14.968  0.5958 -0.1201  0.2157
  820MPD2    H712075   0.359   3.285  14.907  0.5556 -1.3849 -0.4417
  821MPD2     C12076   1.177   4.336  12.583 -0.3164 -0.3600  0.3319
  821MPD2    C112077   1.268   4.336  12.687  0.1167 -0.3411  0.5027
  821MPD2    C212078   1.321   4.456  12.724  0.2417 -0.4067 -0.7636
  821MPD2    C312079   1.297   4.575  12.653 -0.9420 -0.1407  0.3206
  821MPD2    C412080   1.210   4.568  12.543 -0.3456  0.0068  0.0688
  821MPD2    C512081   1.141   4.453  12.520  0.1826  0.2786 -0.7807
  821MPD2     H12082   1.378   4.454  12.817 -0.4873  2.7304 -0.2374
  821MPD2    H112083   1.171   4.656  12.493 -1.0186 -0.4391 -0.1912
  821MPD2    H212084   1.120   4.248  12.556 -0.5018  0.1211 -0.8219
  821MPD2    H312085   1.069   4.440  12.440  0.8493  1.3714 -1.5568
  821MPD2     N12086   1.344   4.703  12.691 -0.3072  0.5016  0.6131
  821MPD2    H512087   1.298   0.059  12.646  1.2432 -0.7552 -3.1207
  821MPD2    N112088   1.305   4.218  12.752  0.8751  0.7650  0.2334
  821MPD2    H712089   1.386   4.228  12.812  0.8249  1.5929  0.1692
  822MPD2     C12090   1.921   4.393  15.737  0.4227 -0.3906 -0.1384
  822MPD2    C112091   1.868   4.352  15.860  0.1462 -0.1520 -0.6110
  822MPD2    C212092   1.780   4.434  15.923  0.1449 -0.2572  0.0208
  822MPD2    C312093   1.751   4.558  15.874 -0.6130  0.6431  0.0809
  822MPD2    C412094   1.807   4.608  15.762  0.6856  0.6525 -0.3033
  822MPD2    C512095   1.890   4.524  15.689  0.2817  0.0638  0.2783
  822MPD2     H12096   1.731   4.402  16.014  0.8746  0.1948  0.5707
  822MPD2    H112097   1.792   4.707  15.722  0.3508  0.7277  0.0172
  822MPD2    H212098   1.996   4.348  15.672 -0.4654 -0.7282 -0.9320
  822MPD2    H312099   1.927   4.556  15.592  0.2586  0.5092  0.4147
  822MPD2     N12100   1.664   4.638  15.951 -0.4886 -0.5506 -0.1122
  822MPD2    H512101   1.618   4.590  16.027 -0.7285  0.7882  0.5945
  822MPD2    N112102   1.900   4.232  15.923 -0.1851  0.7369  0.0453
  822MPD2    H712103   1.865   4.208  16.015 -0.5658 -1.2448 -0.6148
  823MPD2     C12104   1.311   0.145  16.710 -0.0366 -0.2031  0.4507
  823MPD2    C112105   1.362   0.053  16.616 -0.1946 -0.1090  0.4583
  823MPD2    C212106   1.428   4.662  16.660 -0.3798  0.2831 -0.0297
  823MPD2    C312107   1.433   4.628  16.795 -0.3042  0.0003 -0.1353
  823MPD2    C412108   1.383   4.718  16.883 -0.9144  0.1447  0.3243
  823MPD2    C512109   1.328   0.114  16.845 -0.4035 -0.6256 -0.3293
  823MPD2     H12110   1.466   4.592  16.587  1.5173  1.2885  0.0105
  823MPD2    H112111   1.404   4.693  16.987 -1.1978  0.8243  0.5460
  823MPD2    H212112   1.275   0.245  16.690 -2.1120 -0.6740  1.8834
  823MPD2    H312113   1.291   0.186  16.917  3.9538  1.1741  0.1087
  823MPD2     N12114   1.493   4.510  16.845  0.5417 -0.0425 -0.3586
  823MPD2    H512115   1.504   4.501  16.945 -1.7706  0.5068 -0.0532
  823MPD2    N112116   1.356   0.089  16.479  0.5434 -0.0961 -0.5895
  823MPD2    H712117   1.333   0.187  16.463  1.6661  0.0339 -1.3849
  824MPD2     C12118   2.086   3.480  15.781  0.3000 -0.0068  0.3860
  824MPD2    C112119   2.198   3.567  15.774  0.2831  0.4857 -0.2249
  824MPD2    C212120   2.311   3.533  15.703 -0.0725  0.4571  0.3828
  824MPD2    C312121   2.334   3.408  15.654 -0.0570 -0.1451  0.2344
  824MPD2    C412122   2.229   3.319  15.671 -0.4096  0.3632 -0.3236
  824MPD2    C512123   2.106   3.357  15.724 -0.5025 -0.8013 -0.6757
  824MPD2     H12124   2.393   3.605  15.707  0.5762 -0.2365 -0.4053
  824MPD2    H112125   2.229   3.214  15.643  1.2976  0.5172 -0.9266
  824MPD2    H212126   1.986   3.502  15.817  1.0243  1.1180  1.7500
  824MPD2    H312127   2.022   3.290  15.740  0.0227 -0.9663  1.3528
  824MPD2     N12128   2.461   3.370  15.603  0.1553 -0.1457  0.1208
  824MPD2    H512129   2.530   3.444  15.593 -0.0252 -0.0137 -0.1588
  824MPD2    N112130   2.199   3.696  15.834 -0.2461  0.5483  0.2752
  824MPD2    H712131   2.265   3.762  15.795  0.4460  0.3640  1.1287
  825MPD2     C12132   3.220   3.536  15.250 -1.2846 -0.5287  0.3991
  825MPD2    C112133   3.099   3.585  15.300 -0.2382  0.1394 -0.2517
  825MPD2    C212134   3.058   3.711  15.271 -0.6299 -0.8682 -0.5968
  825MPD2    C312135   3.132   3.795  15.192  0.2501 -0.0360 -0.7322
  825MPD2    C412136   3.246   3.744  15.135 -0.4981  0.0706 -0.4646
  825MPD2    C512137   3.289   3.619  15.160 -0.6138  0.2104 -0.0315
  825MPD2     H12138   2.965   3.744  15.316 -1.1618 -1.0751 -1.5412
  825MPD2    H112139   3.311   3.802  15.071 -0.4863 -0.8501 -1.3032
  825MPD2    H212140   3.273   3.443  15.270  1.5402  0.7225 -1.2930
  825MPD2    H312141   3.381   3.585  15.116 -1.8031 -1.2524 -1.3821
  825MPD2     N12142   3.093   3.932  15.169 -0.2403 -0.3165  0.5590
  825MPD2    H512143   3.141   3.984  15.096 -1.6282  1.9650  1.2707
  825MPD2    N112144   3.021   3.488  15.371 -0.4448 -0.3207 -0.3674
  825MPD2    H712145   3.060   3.396  15.388  0.2841  0.3926  1.8496
  826MPD2     C12146   2.616   3.435  13.735  0.0875 -0.1782  0.0550
  826MPD2    C112147   2.590   3.458  13.600  0.1995 -0.2367  0.4764
  826MPD2    C212148   2.535   3.583  13.566  0.6265  0.4399 -0.2894
  826MPD2    C312149   2.495   3.685  13.654  0.3103  0.5505 -0.2548
  826MPD2    C412150   2.506   3.651  13.784 -0.9188  0.3500 -0.5241
  826MPD2    C512151   2.572   3.535  13.822  0.5392 -0.2384 -0.7550
  826MPD2     H12152   2.505   3.594  13.462  0.0750 -0.6861 -0.2475
  826MPD2    H112153   2.467   3.714  13.864  0.3119  0.7902 -0.2711
  826MPD2    H212154   2.659   3.340  13.763 -1.9450 -1.1268  0.0022
  826MPD2    H312155   2.581   3.520  13.929 -1.5019  1.8907 -0.2851
  826MPD2     N12156   2.418   3.798  13.620 -0.8765 -0.2647 -0.4139
  826MPD2    H512157   2.380   3.859  13.692 -0.0261  0.3853 -0.5148
  826MPD2    N112158   2.635   3.365  13.507  0.2553  0.6024  0.0072
  826MPD2    H712159   2.689   3.288  13.545  1.6180  0.6817 -1.7420
  827MPD2     C12160   3.998   0.450  10.058  0.1871  0.1564  0.0109
  827MPD2    C112161   3.991   0.343  10.143  0.3617 -0.0820 -0.9544
  827MPD2    C212162   3.919   0.229  10.097  1.0762  0.4675  0.7328
  827MPD2    C312163   3.887   0.221   9.963  0.3763  0.1038 -0.5926
  827MPD2    C412164   3.912   0.322   9.878 -0.1631 -0.5644  0.2457
  827MPD2    C512165   3.967   0.440   9.923  0.0251 -0.0004 -0.2003
  827MPD2     H12166   3.892   0.156  10.172  0.2232  1.2526  1.1948
  827MPD2    H112167   3.890   0.326   9.772 -0.6024  4.3833  0.5311
  827MPD2    H212168   4.038   0.548  10.079  1.0557  0.0741 -1.2578
  827MPD2    H312169   3.980   0.517   9.848 -1.0681  1.5406  1.2062
  827MPD2     N12170   3.816   0.104   9.923 -0.3130  0.0924 -0.0436
  827MPD2    H512171   3.801   0.042  10.001  0.0790 -0.0399 -0.0732
  827MPD2    N112172   4.033   0.369  10.275 -0.7335  0.2926 -0.1868
  827MPD2    H712173   4.064   0.463  10.295 -1.3573  0.1847  1.2601
  828MPD2     C12174   2.023   4.718  12.647 -0.5699 -0.1162  0.1213
  828MPD2    C112175   2.028   0.024  12.509  0.3353 -0.1382  0.1951
  828MPD2    C212176   2.144   0.003  12.442 -0.0998 -0.0936  0.0715
  828MPD2    C312177   2.245   4.655  12.502  0.1053  0.4495 -0.8488
  828MPD2    C412178   2.244   4.619  12.637 -0.4924  0.5881  0.1004
  828MPD2    C512179   2.128   4.655  12.711  0.6455 -0.5045 -0.9991
  828MPD2     H12180   2.150   0.033  12.338 -1.8163 -1.7578 -0.5056
  828MPD2    H112181   2.328   4.578  12.692  0.0071  1.7512  0.2125
  828MPD2    H212182   1.938   0.020  12.709 -0.9966  0.9668 -0.8915
  828MPD2    H312183   2.106   4.639  12.816  0.6990  0.5107 -0.8319
  828MPD2     N12184   2.365   4.625  12.427  0.6186  0.4163  0.1420
  828MPD2    H512185   2.437   4.575  12.479 -1.1564 -1.0660  1.1874
  828MPD2    N112186   1.929   0.105  12.445 -0.0461  0.1076 -0.1826
  828MPD2    H712187   1.952   0.136  12.352 -0.0723 -1.2472 -0.6439
  829MPD2     C12188   2.025   0.221  11.630  0.2144  0.2746 -0.8884
  829MPD2    C112189   1.893   0.255  11.634 -0.5716  0.3661  0.6798
  829MPD2    C212190   1.826   0.260  11.749  0.1452  0.6704  0.5058
  829MPD2    C312191   1.894   0.236  11.866 -0.5233  0.4286  0.1633
  829MPD2    C412192   2.033   0.207  11.862  0.0316  0.5435  0.6560
  829MPD2    C512193   2.098   0.197  11.744 -0.1005 -0.3509 -0.4301
  829MPD2     H12194   1.719   0.279  11.749 -0.1783 -1.0493 -0.9191
  829MPD2    H112195   2.086   0.179  11.952 -1.0137 -3.0712  0.1493
  829MPD2    H212196   2.091   0.207  11.544  1.6573 -0.5551  0.3462
  829MPD2    H312197   2.197   0.158  11.723  0.7072  1.2490  0.3565
  829MPD2     N12198   1.832   0.232  11.994  0.0455 -0.5345 -0.0137
  829MPD2    H512199   1.882   0.197  12.075 -0.8638 -0.2033  0.6911
  829MPD2    N112200   1.844   0.294  11.506  0.5485  0.1733 -0.3157
  829MPD2    H712201   1.896   0.268  11.423  1.0179  0.6845 -0.1879
  830MPD2     C12202   2.190   2.677  15.819  0.0330  1.0334 -0.3568
  830MPD2    C112203   2.089   2.759  15.781 -0.2524 -0.0009  0.2900
  830MPD2    C212204   2.092   2.820  15.654 -0.0474 -0.0218 -0.2682
  830MPD2    C312205   2.189   2.797  15.564  0.8980 -0.5983 -0.4201
  830MPD2    C412206   2.295   2.717  15.609 -0.0326 -0.0156  0.1662
  830MPD2    C512207   2.297   2.653  15.733 -0.2025 -0.3954  0.2225
  830MPD2     H12208   2.015   2.895  15.638 -0.2560 -0.8747 -3.2959
  830MPD2    H112209   2.382   2.692  15.549 -0.6663  0.9055 -1.1446
  830MPD2    H212210   2.182   2.619  15.910  3.2069  0.0482 -0.6899
  830MPD2    H312211   2.374   2.583  15.766 -2.1318 -2.7929 -0.3340
  830MPD2     N12212   2.190   2.878  15.450 -0.4351  0.4040  0.3813
  830MPD2    H512213   2.108   2.936  15.433 -0.3059  0.2746 -0.6464
  830MPD2    N112214   1.972   2.771  15.867  0.3659 -0.0802 -0.7854
  830MPD2    H712215   1.987   2.723  15.955  0.7185  0.2159 -0.6864
  831MPD2     C12216   1.919   4.719  16.244  0.0507 -0.3689  0.4884
  831MPD2    C112217   1.963   4.603  16.183  0.4887  0.0294  0.5153
  831MPD2    C212218   1.903   4.485  16.222  0.0803 -0.4542 -0.1487
  831MPD2    C312219   1.798   4.482  16.307 -1.0256 -0.2028  0.2417
  831MPD2    C412220   1.759   4.595  16.371 -0.1116 -0.6990 -0.6060
  831MPD2    C512221   1.823   4.714  16.339  0.4808 -0.9240  0.2052
  831MPD2     H12222   1.922   4.396  16.163 -0.5810 -0.7835  0.1447
  831MPD2    H112223   1.674   4.602  16.438  0.3707  1.9155 -0.2811
  831MPD2    H212224   1.968   0.091  16.224  0.1217 -0.5181 -0.0201
  831MPD2    H312225   1.800   0.079  16.400 -1.8415 -1.2031 -0.2750
  831MPD2     N12226   1.710   4.373  16.328 -0.1880 -0.3185  0.0857
  831MPD2    H512227   1.633   4.393  16.392  1.8264  3.4496  1.3191
  831MPD2    N112228   2.072   4.617  16.099  0.3773  0.3860  0.7661
  831MPD2    H712229   2.083   4.708  16.057 -0.4137 -0.5441 -1.4955
  832MPD2     C12230   0.465   0.655  17.273  0.3066  0.3832 -0.0029
  832MPD2    C112231   0.444   0.791  17.263 -0.3931 -0.0991  0.5569
  832MPD2    C212232   0.362   0.840  17.164 -0.0323 -0.2446 -0.3307
  832MPD2    C312233   0.280   0.759  17.094  0.3437  0.0418 -0.5566
  832MPD2    C412234   0.302   0.624  17.103  0.0765 -0.7969  0.3683
  832MPD2    C512235   0.397   0.567  17.191  0.0171 -0.1517  0.0541
  832MPD2     H12236   0.339   0.946  17.154  0.7225  0.1648  2.3038
  832MPD2    H112237   0.241   0.562  17.038 -0.5371 -0.4444  0.6064
  832MPD2    H212238   0.529   0.604  17.344 -0.9721  0.9265  1.5357
  832MPD2    H312239   0.411   0.460  17.182 -1.6647 -0.3525 -0.2493
  832MPD2     N12240   0.171   0.806  17.014 -0.2018  0.1137  1.1033
  832MPD2    H512241   0.112   0.730  16.981 -0.0984 -0.0009  1.1858
  832MPD2    N112242   0.510   0.872  17.357 -0.0768  0.8200  0.3152
  832MPD2    H712243   0.557   0.830  17.436 -0.9326 -1.0577 -0.1596
  833MPD2     C12244   2.540   2.249  12.903  0.0708  0.8966 -0.1480
  833MPD2    C112245   2.533   2.330  12.800  0.2189 -0.6532 -0.8293
  833MPD2    C212246   2.619   2.303  12.695 -0.4236 -0.1319 -0.3869
  833MPD2    C312247   2.707   2.197  12.699 -0.0124 -0.6202  0.0364
  833MPD2    C412248   2.711   2.113  12.813 -0.5208 -0.5395  0.6955
  833MPD2    C512249   2.622   2.136  12.914 -0.1203  0.0027  0.6585
  833MPD2     H12250   2.595   2.348  12.600  2.3622  0.9989 -0.5579
  833MPD2    H112251   2.782   2.031  12.815  0.8891  0.6514 -0.1894
  833MPD2    H212252   2.464   2.266  12.978 -0.9893  1.8846 -1.4515
  833MPD2    H312253   2.609   2.087  13.010 -4.1429  0.6954  0.4775
  833MPD2     N12254   2.783   2.156  12.589  0.0885  0.1813 -0.1158
  833MPD2    H512255   2.833   2.068  12.599  1.3740  0.9391  0.1769
  833MPD2    N112256   2.428   2.423  12.785  0.3065 -0.2740 -0.2582
  833MPD2    H712257   2.360   2.432  12.860 -0.1492 -1.6571 -0.5127
  834MPD2     C12258   2.545   1.559  11.819 -0.0273  0.1106 -0.1912
  834MPD2    C112259   2.540   1.677  11.753  0.0955  0.7200  0.9304
  834MPD2    C212260   2.602   1.795  11.797 -0.4933  0.2949  0.0255
  834MPD2    C312261   2.671   1.793  11.921 -0.4496  0.3313 -0.4733
  834MPD2    C412262   2.681   1.669  11.986 -0.3366  0.0045 -0.4974
  834MPD2    C512263   2.613   1.559  11.933 -0.3862 -0.2141 -0.1270
  834MPD2     H12264   2.584   1.890  11.749 -1.9719  0.4245  0.8287
  834MPD2    H112265   2.739   1.654  12.076 -0.9505  0.5736 -0.0057
  834MPD2    H212266   2.504   1.467  11.778  0.3283 -0.3938  0.5879
  834MPD2    H312267   2.614   1.465  11.986 -0.0607  0.5725  1.2683
  834MPD2     N12268   2.733   1.913  11.980  0.4967 -0.4866  0.3993
  834MPD2    H512269   2.732   2.000  11.929 -1.6069 -1.1427 -0.6742
  834MPD2    N112270   2.466   1.671  11.633 -0.0512  0.0366 -0.0676
  834MPD2    H712271   2.430   1.579  11.611 -0.1460  0.0531  0.0191
  835MPD2     C12272   3.106   0.069  11.003 -0.1472 -0.4451 -0.1116
  835MPD2    C112273   2.987   0.136  10.976  0.1099  0.3553  0.1459
  835MPD2    C212274   2.905   0.164  11.081  0.3448 -0.3583  0.4237
  835MPD2    C312275   2.937   0.118  11.214  0.2128 -0.5545  0.7907
  835MPD2    C412276   3.062   0.059  11.237 -0.0312 -0.6392  0.2734
  835MPD2    C512277   3.139   0.029  11.131 -0.4134 -1.0516  1.1158
  835MPD2     H12278   2.807   0.203  11.055  0.0832 -1.6904 -0.5890
  835MPD2    H112279   3.085   0.032  11.339 -2.2568 -1.3098  0.5964
  835MPD2    H212280   3.164   0.036  10.917 -0.2782 -0.8757 -0.0336
  835MPD2    H312281   3.235   4.707  11.154 -0.5017 -1.0847  1.4272
  835MPD2     N12282   2.854   0.124  11.328 -0.5526 -0.2880  0.1590
  835MPD2    H512283   2.899   0.088  11.412  0.9571 -1.4898 -1.1541
  835MPD2    N112284   2.941   0.180  10.850  0.1408 -0.0262  0.1586
  835MPD2    H712285   2.862   0.243  10.851 -0.4756 -0.8805  3.1768
  836MPD2     C12286   2.239   0.610  11.338 -0.0793 -0.7656  0.2009
  836MPD2    C112287   2.257   0.557  11.461 -0.4812  0.4125  0.6034
  836MPD2    C212288   2.159   0.578  11.556 -0.4789 -0.6916 -0.0588
  836MPD2    C312289   2.036   0.650  11.520  0.3115 -0.2639  0.7886
  836MPD2    C412290   2.030   0.709  11.394  0.4400 -0.4824  0.1983
  836MPD2    C512291   2.135   0.690  11.305 -0.4664 -0.5470  0.3550
  836MPD2     H12292   2.162   0.541  11.658 -1.1495  2.2850  1.0324
  836MPD2    H112293   1.959   0.783  11.358  0.2075 -0.6646  0.2853
  836MPD2    H212294   2.313   0.591  11.261  0.7752  2.4952  0.2063
  836MPD2    H312295   2.144   0.732  11.205 -0.2212  0.6211  0.8701
  836MPD2     N12296   1.919   0.678  11.599  0.2569  0.0175 -0.9267
  836MPD2    H512297   1.842   0.727  11.555  0.2583  0.1276 -0.8049
  836MPD2    N112298   2.369   0.471  11.488  0.0508  0.3859  0.1508
  836MPD2    H712299   2.420   0.447  11.404 -0.3864 -1.1050  0.3117
  837MPD2     C12300   0.824   0.081  10.442  0.3328 -0.4707 -0.0183
  837MPD2    C112301   0.885   0.098  10.323 -0.4005  0.3940 -0.1406
  837MPD2    C212302   0.891   0.221  10.269 -0.3378  0.1105  0.1398
  837MPD2    C312303   0.823   0.323  10.333  0.1294  0.0826  0.3698
  837MPD2    C412304   0.751   0.298  10.445 -0.4309  1.0971  0.1329
  837MPD2    C512305   0.764   0.180  10.505 -0.2144  0.2867  0.0384
  837MPD2     H12306   0.949   0.238  10.179  1.0523 -0.3095  0.9524
  837MPD2    H112307   0.708   0.378  10.504  2.0979  4.1197 -2.0807
  837MPD2    H212308   0.808   4.703  10.481 -0.2141 -0.0929  0.7097
  837MPD2    H312309   0.718   0.164  10.602 -0.6556  1.5894  0.0443
  837MPD2     N12310   0.827   0.444  10.261  0.8541  0.5180 -0.2093
  837MPD2    H512311   0.877   0.446  10.173 -0.0280 -0.1812 -0.7201
  837MPD2    N112312   0.945   4.712  10.252 -0.2292 -0.3697 -0.0627
  837MPD2    H712313   1.006   0.019  10.176 -0.6985  1.8677  0.4441
  838MPD2     C12314   3.696   3.385  11.713  0.4066  0.4920  0.8473
  838MPD2    C112315   3.661   3.253  11.711  0.9222 -1.0005 -0.0580
  838MPD2    C212316   3.580   3.205  11.810 -0.2049  0.0688 -0.1728
  838MPD2    C312317   3.533   3.289  11.908  0.0266  0.8868  0.0287
  838MPD2    C412318   3.557   3.423  11.903  0.1678 -0.8598  0.4002
  838MPD2    C512319   3.654   3.461  11.816 -0.0207  0.7163 -0.0645
  838MPD2     H12320   3.565   3.101  11.835  2.6765 -0.1137  0.8436
  838MPD2    H112321   3.526   3.492  11.981 -0.3776  0.0898 -0.6598
  838MPD2    H212322   3.765   3.431  11.644  0.6175 -1.5455 -0.3116
  838MPD2    H312323   3.679   3.566  11.808  4.6751 -0.5418 -1.6001
  838MPD2     N12324   3.450   3.242  12.008  0.0530 -0.0009 -0.1170
  838MPD2    H512325   3.448   3.141  12.009  3.1403 -0.0884 -2.4181
  838MPD2    N112326   3.710   3.158  11.622  0.5368  0.3306 -0.0160
  838MPD2    H712327   3.685   3.062  11.642  0.5921  0.8607  2.6169
  839MPD2     C12328   3.299   2.461  11.528  0.5040  0.2089 -0.0515
  839MPD2    C112329   3.354   2.462  11.405 -0.6463 -0.7236 -0.3215
  839MPD2    C212330   3.464   2.535  11.375  0.0227 -0.1210  0.4010
  839MPD2    C312331   3.512   2.619  11.475 -1.2786  0.4799 -0.1357
  839MPD2    C412332   3.448   2.628  11.595  0.0194  0.0191  0.3181
  839MPD2    C512333   3.352   2.540  11.627 -0.5983  0.1194 -0.3854
  839MPD2     H12334   3.504   2.536  11.274  2.4123  0.0075  1.3526
  839MPD2    H112335   3.475   2.713  11.656  2.8064  0.5350 -1.5986
  839MPD2    H212336   3.213   2.401  11.553  1.3095 -1.2753 -0.9014
  839MPD2    H312337   3.311   2.549  11.728  1.1127  0.6636  0.2578
  839MPD2     N12338   3.609   2.722  11.454 -0.7129 -0.2978  0.3339
  839MPD2    H512339   3.618   2.791  11.528 -2.7689 -1.1087  1.3274
  839MPD2    N112340   3.304   2.384  11.297  0.1593 -0.3606  0.2962
  839MPD2    H712341   3.360   2.364  11.215 -0.1021  1.6548 -0.3861
  840MPD2     C12342   4.566   0.688  10.426  0.1410 -0.0193  0.2972
  840MPD2    C112343   4.482   0.693  10.531  0.3752 -0.4662  0.1685
  840MPD2    C212344   4.507   0.789  10.630 -0.6581 -0.4752 -0.6553
  840MPD2    C312345   4.613   0.876  10.625  0.2245  0.2756 -0.2268
  840MPD2    C412346   4.691   0.875  10.506 -0.2227  0.3734  0.5755
  840MPD2    C512347   4.667   0.777  10.413  0.3945  0.4545  0.2654
  840MPD2     H12348   4.427   0.807  10.700 -0.5603  0.3132 -0.7492
  840MPD2    H112349   0.054   0.940  10.495 -0.0673 -0.1214 -1.2310
  840MPD2    H212350   4.553   0.624  10.340 -2.0392  0.6492  0.1274
  840MPD2    H312351   0.002   0.778  10.322 -2.0068 -2.5223 -1.3143
  840MPD2     N12352   4.642   0.978  10.719  0.6897  0.4200 -0.4424
  840MPD2    H512353   4.715   1.043  10.691  1.9757  0.1262  2.2272
  840MPD2    N112354   4.384   0.588  10.540  0.7910 -0.0269  0.2988
  840MPD2    H712355   4.372   0.535  10.454 -3.6257  0.8732  0.3446
  841MPD2     C12356   3.300   0.739  14.622 -0.5054 -0.1732 -0.3355
  841MPD2    C112357   3.343   0.619  14.659 -0.7055  1.1317 -0.7729
  841MPD2    C212358   3.479   0.589  14.655 -0.4654  0.3692 -1.1199
  841MPD2    C312359   3.563   0.684  14.602 -0.2800  0.4242  0.6760
  841MPD2    C412360   3.519   0.812  14.555 -0.1198  0.0386 -0.4538
  841MPD2    C512361   3.390   0.834  14.574  0.3410  0.1250  0.3678
  841MPD2     H12362   3.531   0.496  14.676 -1.3065 -0.2752 -1.8853
  841MPD2    H112363   3.586   0.890  14.522  1.1732 -0.3632  1.1944
  841MPD2    H212364   3.195   0.766  14.620 -0.0168  1.6444 -1.2503
  841MPD2    H312365   3.343   0.926  14.540  0.8339 -0.2517 -1.3064
  841MPD2     N12366   3.698   0.656  14.601 -0.7269 -0.2715 -0.7400
  841MPD2    H512367   3.719   0.565  14.641  1.3761  0.5452 -0.0003
  841MPD2    N112368   3.254   0.514  14.701  0.5900  0.2079  0.7899
  841MPD2    H712369   3.294   0.422  14.715  2.3584  1.1333  1.7586
  842MPD2     C12370   4.047   0.879  16.518  0.1838 -0.4023 -0.5200
  842MPD2    C112371   3.915   0.921  16.489 -0.3136  0.4728 -0.4224
  842MPD2    C212372   3.814   0.827  16.512 -0.5542  0.3129  0.7863
  842MPD2    C312373   3.838   0.713  16.591  0.2458  0.3795  0.3947
  842MPD2    C412374   3.972   0.680  16.617 -0.5435 -0.6405  0.1944
  842MPD2    C512375   4.074   0.755  16.568 -0.4712 -0.5527 -0.3068
  842MPD2     H12376   3.713   0.867  16.507  0.2812  2.2699 -0.4822
  842MPD2    H112377   4.006   0.601  16.683  3.0343  0.5187 -0.2609
  842MPD2    H212378   4.126   0.951  16.499 -0.6046  1.0643  1.6462
  842MPD2    H312379   4.175   0.737  16.603 -0.3420  1.0811  0.1932
  842MPD2     N12380   3.736   0.639  16.660  0.0153  0.8120  0.0346
  842MPD2    H512381   3.771   0.612  16.751  1.5853 -0.9788 -1.1075
  842MPD2    N112382   3.879   1.055  16.442 -0.4095  0.2756  0.5181
  842MPD2    H712383   3.782   1.061  16.413 -0.6881 -0.7292  1.2412
  843MPD2     C12384   0.994   1.754   0.137  0.8905  1.1288 -0.1113
  843MPD2    C112385   1.116   1.695   0.105 -0.5153 -1.0794  0.0997
  843MPD2    C212386   1.241   1.757   0.148 -0.4666 -0.2061 -0.0360
  843MPD2    C312387   1.240   1.871   0.225 -0.5355  0.0688  0.4327
  843MPD2    C412388   1.113   1.926   0.261  0.2105 -0.0168 -1.1725
  843MPD2    C512389   1.002   1.864   0.214 -1.3474  0.4919  0.5480
  843MPD2     H12390   1.332   1.722   0.102 -0.2970  0.1639  0.0198
  843MPD2    H112391   1.105   2.012   0.326  1.3065 -0.8028 -0.0176
  843MPD2    H212392   0.904   1.702   0.108  0.9502  0.2426  1.2737
  843MPD2    H312393   0.906   1.907   0.237 -1.1216  0.9811  0.5772
  843MPD2     N12394   1.363   1.935   0.253 -0.6224 -0.2540 -0.5858
  843MPD2    H512395   1.359   2.019   0.309 -1.6011  0.0188 -1.0531
  843MPD2    N112396   1.116   1.564   0.046 -0.3116 -0.1638  0.1625
  843MPD2    H712397   1.037   1.505   0.070  0.0412 -0.2578  1.0876
  844MPD2     C12398   0.191   0.821  16.375 -0.1913 -0.5105  0.2234
  844MPD2    C112399   0.285   0.721  16.384  0.0558 -0.5104  0.6712
  844MPD2    C212400   0.391   0.730  16.471 -0.2319  0.3817 -0.4262
  844MPD2    C312401   0.403   0.833  16.564 -0.6036 -0.3330 -0.6209
  844MPD2    C412402   0.311   0.937  16.540  0.1451  0.2654 -0.7353
  844MPD2    C512403   0.214   0.934  16.452  0.1294 -0.7801  1.1313
  844MPD2     H12404   0.468   0.655  16.487  1.0358  1.7499 -0.1101
  844MPD2    H112405   0.325   1.028  16.598  0.2338 -0.0299 -0.2889
  844MPD2    H212406   0.111   0.824  16.302  1.3768 -1.7049 -1.5286
  844MPD2    H312407   0.142   1.015  16.449 -0.1990 -0.9906  3.0839
  844MPD2     N12408   0.486   0.822  16.681  0.2508 -0.3108 -0.2911
  844MPD2    H512409   0.541   0.737  16.690 -1.0533 -1.0475  0.7047
  844MPD2    N112410   0.261   0.597  16.321  0.2407 -0.1415  0.2653
  844MPD2    H712411   0.331   0.526  16.336  0.0650 -0.3507  0.0824
  845MPD2     C12412   0.948   1.586  17.072  0.5840  0.4907  0.4670
  845MPD2    C112413   0.817   1.541  17.099  0.2278 -0.0256 -0.1637
  845MPD2    C212414   0.771   1.409  17.096  0.2773  0.3549  0.2152
  845MPD2    C312415   0.860   1.310  17.051 -0.3345 -0.4106  0.4773
  845MPD2    C412416   0.994   1.346  17.030 -0.4274  0.1970  0.5472
  845MPD2    C512417   1.035   1.482  17.041 -0.3483  0.2659  0.5979
  845MPD2     H12418   0.665   1.391  17.110  0.0518  2.0279  0.8044
  845MPD2    H112419   1.059   1.272  16.984 -0.4553  1.2260 -1.1620
  845MPD2    H212420   0.988   1.683  17.101  0.0794  0.5575  0.9359
  845MPD2    H312421   1.139   1.509  17.021 -0.5612 -0.4831 -1.5243
  845MPD2     N12422   0.813   1.176  17.031 -0.0646 -0.5129 -0.1566
  845MPD2    H512423   0.713   1.173  17.017  0.0175  1.7305 -1.1360
  845MPD2    N112424   0.742   1.650  17.145 -0.0080 -0.7442  0.3179
  845MPD2    H712425   0.792   1.738  17.150  0.5514 -1.1112  1.1850
  846MPD2     C12426   2.010   1.658  13.832  0.1487 -0.7333  0.4380
  846MPD2    C112427   1.969   1.792  13.845  0.4311  0.1769 -0.0381
  846MPD2    C212428   1.911   1.830  13.967  0.1923  0.0834 -0.5914
  846MPD2    C312429   1.903   1.742  14.079  0.2177 -0.3076  0.0705
  846MPD2    C412430   1.959   1.614  14.066  0.0543 -0.1468  0.7030
  846MPD2    C512431   2.010   1.576  13.943 -0.7953  0.0257 -0.0436
  846MPD2     H12432   1.891   1.935  13.980 -0.7920 -0.2127  0.2725
  846MPD2    H112433   1.965   1.540  14.145  2.0438 -0.1708  0.5304
  846MPD2    H212434   2.037   1.616  13.736 -1.9843 -1.3785  0.1345
  846MPD2    H312435   2.063   1.481  13.940  0.5839  0.8369 -1.6026
  846MPD2     N12436   1.833   1.785  14.190  0.2885  0.6338  0.2472
  846MPD2    H512437   1.770   1.862  14.173 -0.5216  0.0263  0.4934
  846MPD2    N112438   1.994   1.884  13.735 -0.6610  0.0208  0.1929
  846MPD2    H712439   1.978   1.983  13.750  0.3776  0.1140  0.6974
  847MPD2     C12440   1.673   2.630  14.138  0.6952  0.4506  0.0411
  847MPD2    C112441   1.791   2.706  14.135 -0.4440  0.2303  0.3078
  847MPD2    C212442   1.877   2.699  14.240  0.0168  0.5721  0.0845
  847MPD2    C312443   1.860   2.590  14.332 -0.7208  0.3624 -0.5019
  847MPD2    C412444   1.752   2.501  14.324 -0.8924  0.6063  0.0445
  847MPD2    C512445   1.655   2.529  14.230  0.0965 -0.0301  0.0908
  847MPD2     H12446   1.955   2.773  14.251  0.2089  0.5613 -1.2024
  847MPD2    H112447   1.737   2.427  14.402 -2.1022  0.0035 -0.7688
  847MPD2    H212448   1.601   2.618  14.059  0.7762 -1.3050  0.2252
  847MPD2    H312449   1.565   2.468  14.228 -0.7921  1.3201 -0.9004
  847MPD2     N12450   1.953   2.573  14.436  0.1674  0.0242 -0.2036
  847MPD2    H512451   1.925   2.493  14.492 -1.3591  1.2349  0.7770
  847MPD2    N112452   1.817   2.811  14.043 -0.1804  0.1481 -0.3777
  847MPD2    H712453   1.906   2.854  14.064  0.0742 -0.4460 -0.2637
  848MPD2     C12454   4.397   1.329  16.534 -0.2663 -0.2009 -0.0389
  848MPD2    C112455   4.525   1.342  16.586  0.3260  0.7050  0.2492
  848MPD2    C212456   4.585   1.468  16.572 -0.1453 -0.1202 -0.6502
  848MPD2    C312457   4.515   1.572  16.511 -0.1841  0.0978  0.2776
  848MPD2    C412458   4.396   1.544  16.445 -1.2434 -0.3036 -0.1474
  848MPD2    C512459   4.332   1.425  16.465 -0.2072  0.2606  0.2243
  848MPD2     H12460   4.678   1.476  16.627  0.9464 -0.9646 -2.3839
  848MPD2    H112461   4.346   1.620  16.386  1.2569  2.3910  1.2226
  848MPD2    H212462   4.352   1.233  16.510 -0.0038 -0.6220  1.1711
  848MPD2    H312463   4.237   1.415  16.412 -0.6358 -0.9751  1.2377
  848MPD2     N12464   4.552   1.704  16.498 -0.3544 -0.7182  0.1487
  848MPD2    H512465   4.489   1.768  16.452  1.3466  0.4131 -0.6267
  848MPD2    N112466   4.603   1.237  16.634 -0.1047 -0.1248  0.0492
  848MPD2    H712467   4.703   1.248  16.647 -0.3537  1.0302  0.9336
  849MPD2     C12468   3.499   1.156  14.134  0.3534  0.4949 -0.4499
  849MPD2    C112469   3.590   1.199  14.042 -0.7248  0.1533  0.4630
  849MPD2    C212470   3.723   1.182  14.079  0.6357  0.7108 -0.9439
  849MPD2    C312471   3.773   1.139  14.205  0.1938  0.5526 -0.2276
  849MPD2    C412472   3.678   1.091  14.295  0.0988  0.0896  0.0076
  849MPD2    C512473   3.552   1.093  14.257  0.3795 -0.0318  0.4571
  849MPD2     H12474   3.795   1.210  14.002  1.6973  2.3775  0.6587
  849MPD2    H112475   3.697   1.042  14.389 -0.1282  1.3682  0.7209
  849MPD2    H212476   3.392   1.168  14.128  0.3100  1.6249  2.3854
  849MPD2    H312477   3.480   1.039  14.318  1.5136 -1.7260  0.2861
  849MPD2     N12478   3.912   1.128  14.221  0.3799  0.9073 -0.0404
  849MPD2    H512479   3.977   1.162  14.151  0.7066 -1.5479 -0.9453
  849MPD2    N112480   3.553   1.277  13.932 -0.0459  0.1044 -0.2294
  849MPD2    H712481   3.454   1.287  13.909 -0.7014 -2.0356  1.6881
  850MPD2     C12482   1.668   3.737  14.732  0.0018  0.3718 -0.6244
  850MPD2    C112483   1.719   3.851  14.784  0.1119 -0.2721 -0.0402
  850MPD2    C212484   1.860   3.865  14.788  0.1451  0.3247  0.1042
  850MPD2    C312485   1.939   3.752  14.765 -0.3186  0.2510  0.0843
  850MPD2    C412486   1.880   3.634  14.726 -0.2695  0.1573 -0.4207
  850MPD2    C512487   1.747   3.628  14.707 -0.0710  0.0024  0.0187
  850MPD2     H12488   1.896   3.963  14.818 -4.5029  2.2892 -0.7829
  850MPD2    H112489   1.939   3.544  14.711 -1.5981 -0.8775  0.5347
  850MPD2    H212490   1.562   3.723  14.718  0.6958 -3.3295 -2.2474
  850MPD2    H312491   1.695   3.538  14.676 -1.4471  0.3645  1.2397
  850MPD2     N12492   2.077   3.762  14.796  0.4288  0.1942 -0.3708
  850MPD2    H512493   2.138   3.682  14.785  1.5415  1.4450 -3.2819
  850MPD2    N112494   1.629   3.951  14.828 -0.1449  0.2022 -0.0916
  850MPD2    H712495   1.531   3.951  14.800 -0.2482  1.2272  0.2710
  851MPD2     C12496   2.286   3.780  15.342 -0.2069 -1.1851  0.1454
  851MPD2    C112497   2.176   3.737  15.275 -0.6341 -0.6584  0.1849
  851MPD2    C212498   2.182   3.609  15.223  0.1524  0.2632 -0.0218
  851MPD2    C312499   2.295   3.529  15.236  0.4475 -1.1729 -0.1129
  851MPD2    C412500   2.403   3.573  15.306  0.0599  0.0333 -0.0260
  851MPD2    C512501   2.398   3.700  15.360 -0.0647  0.4998  0.5225
  851MPD2     H12502   2.097   3.558  15.177  1.1437  1.0008 -2.7015
  851MPD2    H112503   2.482   3.507  15.340  0.4541  0.7317  0.4431
  851MPD2    H212504   2.286   3.879  15.385 -2.1333 -1.1376  0.0125
  851MPD2    H312505   2.459   3.736  15.442 -0.9944  1.8342  0.6284
  851MPD2     N12506   2.291   3.406  15.174 -0.0731 -0.0221 -0.0395
  851MPD2    H512507   2.205   3.371  15.132 -0.5795 -0.7201  1.5847
  851MPD2    N112508   2.069   3.829  15.272  0.4112  0.2050 -0.2444
  851MPD2    H712509   2.079   3.920  15.315 -2.0226 -0.0895  0.9594
  852MPD2     C12510   1.378   1.617  10.501 -0.1363  0.2781  0.8226
  852MPD2    C112511   1.482   1.700  10.544 -0.3093  0.4547 -0.5944
  852MPD2    C212512   1.485   1.829  10.493 -0.0564 -0.1355 -0.4992
  852MPD2    C312513   1.398   1.875  10.395  1.2043  0.5579  0.4135
  852MPD2    C412514   1.296   1.793  10.355 -0.4671 -0.1977  0.5711
  852MPD2    C512515   1.293   1.659  10.402  0.2885  0.4137 -0.9682
  852MPD2     H12516   1.568   1.894  10.517 -2.0980  2.0289  0.7685
  852MPD2    H112517   1.221   1.833  10.288  1.9588  1.6666 -1.0324
  852MPD2    H212518   1.369   1.517  10.540  0.0639 -0.5941 -1.3403
  852MPD2    H312519   1.213   1.591  10.378  0.8144 -0.2110 -0.9369
  852MPD2     N12520   1.418   2.008  10.341 -0.3162  0.1548 -0.0725
  852MPD2    H512521   1.479   2.067  10.397 -1.3392  0.5997  0.5716
  852MPD2    N112522   1.587   1.666  10.636  0.0372 -0.0831 -0.4288
  852MPD2    H712523   1.649   1.745  10.653 -0.0430 -0.4802  1.6140
  853MPD2     C12524   3.873   2.108  12.222 -0.1340 -0.6519 -0.1403
  853MPD2    C112525   3.765   2.023  12.241 -0.3713  0.0444  0.1600
  853MPD2    C212526   3.729   1.941  12.140  0.3609  0.4838  0.6621
  853MPD2    C312527   3.803   1.936  12.018 -0.2342  0.1580 -0.0720
  853MPD2    C412528   3.914   2.006  12.010 -0.6034  0.3320  0.3873
  853MPD2    C512529   3.956   2.092  12.111 -0.3220  0.0784  0.4779
  853MPD2     H12530   3.642   1.876  12.148 -1.0413  2.4825  1.8070
  853MPD2    H112531   3.977   2.002  11.922 -0.1959  0.6631  0.6689
  853MPD2    H212532   3.896   2.188  12.291 -1.3058 -0.3455 -0.1154
  853MPD2    H312533   4.040   2.159  12.096 -0.5136  0.3133  0.4492
  853MPD2     N12534   3.775   1.857  11.906  0.8459  0.4412 -0.3673
  853MPD2    H512535   3.839   1.868  11.828 -0.1907 -1.8272 -1.5346
  853MPD2    N112536   3.702   2.036  12.369  0.5523 -0.0812 -0.1907
  853MPD2    H712537   3.722   2.120  12.424 -1.9665  0.0253  0.5375
  854MPD2     C12538   0.373   1.916  12.851 -1.2251 -0.6137 -0.0315
  854MPD2    C112539   0.493   1.882  12.805  0.3046 -0.5707  0.1622
  854MPD2    C212540   0.552   1.767  12.843  0.4887 -0.2548  0.1110
  854MPD2    C312541   0.480   1.682  12.928 -0.3371  0.4018 -0.9000
  854MPD2    C412542   0.352   1.715  12.962 -0.5463  0.6214  0.1942
  854MPD2    C512543   0.295   1.830  12.913  0.0004 -0.2122 -0.0039
  854MPD2     H12544   0.643   1.734  12.794 -0.6922 -1.1664 -1.4639
  854MPD2    H112545   0.301   1.655  13.036 -1.5689 -1.1395 -1.9717
  854MPD2    H212546   0.322   2.007  12.820 -2.8428 -1.3842  0.3510
  854MPD2    H312547   0.193   1.848  12.944 -0.8029 -0.2549 -2.6457
  854MPD2     N12548   0.532   1.558  12.976  0.1547  0.5316  0.2615
  854MPD2    H512549   0.482   1.514  13.053 -0.9197  0.4105 -0.5093
  854MPD2    N112550   0.559   1.986  12.726 -0.4991 -0.4700 -0.1819
  854MPD2    H712551   0.509   2.073  12.720  0.4648  0.0179 -1.0768
  855MPD2     C12552   0.891   1.369  13.756 -0.7015 -0.1310  0.4338
  855MPD2    C112553   0.837   1.250  13.717 -0.6608  0.2575  0.1069
  855MPD2    C212554   0.778   1.240  13.594  0.6065 -0.0015 -0.0727
  855MPD2    C312555   0.780   1.344  13.503  0.1719  0.7398 -1.0317
  855MPD2    C412556   0.836   1.468  13.543 -0.8313  0.0230 -0.0339
  855MPD2    C512557   0.885   1.478  13.671  0.8804  0.2181 -0.2777
  855MPD2     H12558   0.745   1.144  13.558  0.0002  1.1276 -2.4906
  855MPD2    H112559   0.838   1.543  13.465 -0.8868  1.3387  1.2342
  855MPD2    H212560   0.954   1.376  13.843 -2.0738 -1.1850  1.5126
  855MPD2    H312561   0.946   1.565  13.691  1.3795 -0.0825 -0.4815
  855MPD2     N12562   0.738   1.337  13.371 -0.2657  0.3337  0.4532
  855MPD2    H512563   0.748   1.415  13.306 -1.7672  0.6110  0.5451
  855MPD2    N112564   0.835   1.131  13.794 -0.0451  0.0844  0.4005
  855MPD2    H712565   0.790   1.050  13.752 -0.3106  0.0065  0.8328
  856MPD2     C12566   3.202   2.115  13.890  0.5043 -0.6307 -0.0644
  856MPD2    C112567   3.228   2.242  13.842 -0.9402  0.8660  0.1453
  856MPD2    C212568   3.143   2.349  13.860  0.0506  0.2714  0.2920
  856MPD2    C312569   3.022   2.327  13.930 -0.2372 -0.2475  0.2205
  856MPD2    C412570   2.991   2.196  13.971 -0.1784 -0.3285 -0.0558
  856MPD2    C512571   3.081   2.090  13.952 -0.1417 -0.5729 -0.7482
  856MPD2     H12572   3.163   2.448  13.823  0.6888 -0.8613 -2.3952
  856MPD2    H112573   2.905   2.177  14.035  1.2578 -3.5527  0.9391
  856MPD2    H212574   3.275   2.036  13.896  0.6661 -0.5193 -0.4991
  856MPD2    H312575   3.058   1.997  14.004  0.0154  0.5055  1.2634
  856MPD2     N12576   2.927   2.426  13.958  0.2264 -0.5704  0.0599
  856MPD2    H512577   2.837   2.398  13.998 -0.3195  2.1241  0.7647
  856MPD2    N112578   3.352   2.278  13.775 -0.9749 -0.5797 -0.0034
  856MPD2    H712579   3.360   2.371  13.734  0.5000 -1.2013 -1.1373
  857MPD2     C12580   4.475   4.477  12.527 -0.0339  0.0675  0.4776
  857MPD2    C112581   4.508   4.437  12.656 -0.5206 -0.4103 -0.2850
  857MPD2    C212582   4.504   4.528  12.761 -0.5908 -0.5058  0.1579
  857MPD2    C312583   4.469   4.657  12.736 -0.1071  0.3578  0.2630
  857MPD2    C412584   4.435   4.699  12.610 -0.0719  0.2633  0.4792
  857MPD2    C512585   4.435   4.605  12.506  0.0725  0.4431  0.3490
  857MPD2     H12586   4.528   4.508  12.865 -2.9934 -1.8141  0.4644
  857MPD2    H112587   4.388   0.072  12.589 -0.4288 -0.1596 -0.6361
  857MPD2    H212588   4.481   4.413  12.440 -0.6044  1.2748 -0.4350
  857MPD2    H312589   4.404   4.638  12.408  0.6668 -0.0330 -0.0030
  857MPD2     N12590   4.468   0.017  12.851 -0.6665 -0.7723  1.0035
  857MPD2    H512591   4.503   4.688  12.932  0.7271 -1.0356  0.2315
  857MPD2    N112592   4.549   4.305  12.675 -0.0600 -0.6797 -0.1239
  857MPD2    H712593   4.550   4.250  12.590  0.7826 -2.8391  1.2789
  858MPD2     C12594   4.595   3.240  16.851 -0.2514 -0.2838  0.1590
  858MPD2    C112595   0.013   3.226  16.869  0.7141 -0.3758 -0.8593
  858MPD2    C212596   0.084   3.335  16.923  0.0499 -0.3801  0.0184
  858MPD2    C312597   0.026   3.457  16.960  0.1969  0.4415  0.0768
  858MPD2    C412598   4.608   3.463  16.948  0.0205 -0.0117 -0.6111
  858MPD2    C512599   4.537   3.358  16.898  0.0856  0.2993 -0.0888
  858MPD2     H12600   0.192   3.325  16.927  0.3055  1.6331 -1.6183
  858MPD2    H112601   4.551   3.553  16.969 -0.5265 -1.0024  2.1342
  858MPD2    H212602   4.528   3.160  16.820 -2.9354  2.2455 -0.5029
  858MPD2    H312603   4.434   3.382  16.873  0.5712  0.2944 -2.0987
  858MPD2     N12604   0.100   3.567  17.016  0.3243 -0.4562  0.0335
  858MPD2    H512605   0.048   3.652  17.038  3.6994  2.0008 -1.3999
  858MPD2    N112606   0.085   3.109  16.831 -0.4194  0.0339  1.4409
  858MPD2    H712607   0.030   3.041  16.780 -0.7105  0.2998  1.4013
  859MPD2     C12608   3.308   0.640  15.029  0.3985  0.6529 -0.2093
  859MPD2    C112609   3.447   0.653  15.046  0.1481 -0.3874  0.8160
  859MPD2    C212610   3.508   0.569  15.138  0.1445 -0.0962 -0.1610
  859MPD2    C312611   3.434   0.467  15.198  0.7932  0.4775  0.3472
  859MPD2    C412612   3.302   0.459  15.180  0.2575 -0.1271 -0.6071
  859MPD2    C512613   3.239   0.547  15.105  0.4565 -0.2816 -0.4826
  859MPD2     H12614   3.614   0.577  15.158  0.2558 -0.8866 -0.4338
  859MPD2    H112615   3.242   0.387  15.235 -2.0134  1.8039 -0.5528
  859MPD2    H212616   3.259   0.703  14.955  0.6496  3.3120  1.8811
  859MPD2    H312617   3.131   0.538  15.110  0.3017  2.3442  0.9447
  859MPD2     N12618   3.493   0.374  15.287 -0.1662 -0.0607  0.2881
  859MPD2    H512619   3.420   0.314  15.325 -0.9050  0.3141 -0.5369
  859MPD2    N112620   3.511   0.749  14.962  0.1187  0.4488 -0.0488
  859MPD2    H712621   3.454   0.798  14.892 -0.1073  0.3054  0.0353
  860MPD2     C12622   1.687   0.971  11.806  1.7413 -0.7247  0.4448
  860MPD2    C112623   1.676   0.969  11.940  0.3313  0.1488 -0.3905
  860MPD2    C212624   1.546   0.987  11.986 -0.2342  0.0375 -0.1256
  860MPD2    C312625   1.429   1.004  11.905  0.4951 -0.3902  0.0715
  860MPD2    C412626   1.448   0.975  11.773  0.5552 -0.5013  0.0283
  860MPD2    C512627   1.575   0.967  11.727  0.3272 -0.3723  0.0818
  860MPD2     H12628   1.525   0.993  12.092 -0.2132  0.2600 -0.1343
  860MPD2    H112629   1.375   0.973  11.693 -0.7312  1.2850  1.1552
  860MPD2    H212630   1.777   0.953  11.748  1.2605 -0.6766 -0.3163
  860MPD2    H312631   1.586   0.964  11.619  1.4172 -0.0233  0.1862
  860MPD2     N12632   1.311   1.057  11.959 -0.7566  0.2573 -0.4421
  860MPD2    H512633   1.302   1.102  12.049 -0.5198 -1.0724  0.2500
  860MPD2    N112634   1.780   0.955  12.034 -0.4157 -0.0574  0.4356
  860MPD2    H712635   1.750   0.962  12.131 -0.9149  0.8910  0.2070
  861MPD2     C12636   4.709   4.521  11.252 -0.5048  0.2197 -1.0088
  861MPD2    C112637   0.063   4.637  11.253  0.2455 -0.3936  0.3046
  861MPD2    C212638   0.052   4.722  11.140  0.5418 -0.1354 -0.4249
  861MPD2    C312639   4.671   4.710  11.055 -0.6340  0.3087 -0.2131
  861MPD2    C412640   4.591   4.589  11.052  0.4878 -0.6150 -0.1742
  861MPD2    C512641   4.612   4.500  11.154 -0.2928 -0.0639 -0.4371
  861MPD2     H12642   0.123   0.082  11.141  1.0102 -0.5299 -1.6673
  861MPD2    H112643   4.509   4.576  10.983  1.1310  2.8896 -1.6038
  861MPD2    H212644   4.716   4.443  11.327  0.6662 -0.6709 -2.0275
  861MPD2    H312645   4.557   4.407  11.144  1.8036 -1.3021 -0.4119
  861MPD2     N12646   4.649   0.081  10.957 -0.1133 -0.2172  0.4222
  861MPD2    H512647   4.575   0.064  10.890 -0.7488  3.7546  0.1390
  861MPD2    N112648   0.165   4.667  11.344  0.1937 -0.3653 -0.0956
  861MPD2    H712649   0.241   0.008  11.322 -0.9274  0.7637 -0.7106
  862MPD2     C12650   0.056   0.359  10.253  0.0416  0.0191 -0.6341
  862MPD2    C112651   0.045   0.252  10.341 -0.0085  0.1123 -0.0863
  862MPD2    C212652   0.000   0.134  10.294 -1.1319 -0.3235 -0.3168
  862MPD2    C312653   4.703   0.108  10.166 -0.3966 -0.2697  0.1991
  862MPD2    C412654   4.707   0.214  10.077 -0.5170 -0.2095  0.1361
  862MPD2    C512655   0.028   0.331  10.123 -0.6387 -0.1837  0.1783
  862MPD2     H12656   4.697   0.070  10.378 -0.1121 -0.7761 -0.3438
  862MPD2    H112657   4.681   0.204   9.972  2.4418  1.1387 -0.7514
  862MPD2    H212658   0.088   0.459  10.279  1.1203 -0.9051  1.5763
  862MPD2    H312659   0.049   0.411  10.053  0.5380 -1.8951 -1.4201
  862MPD2     N12660   4.670   4.699  10.126 -0.5532 -0.7980 -1.0144
  862MPD2    H512661   4.622   4.701  10.036 -1.1034  2.3845 -0.6300
  862MPD2    N112662   0.064   0.258  10.484 -0.6091 -0.6921 -0.5892
  862MPD2    H712663   0.043   0.177  10.541  0.0548 -1.3722 -1.3008
  863MPD2     C12664   3.235   2.431  16.567 -0.0366 -0.0779  0.2308
  863MPD2    C112665   3.144   2.383  16.665 -0.3204  0.2312 -0.4902
  863MPD2    C212666   3.187   2.369  16.798  0.6714  0.3483  0.1154
  863MPD2    C312667   3.318   2.400  16.833  0.4263  0.2986 -0.4501
  863MPD2    C412668   3.398   2.464  16.741  0.1890  1.8493  0.4048
  863MPD2    C512669   3.359   2.479  16.611 -0.7758 -0.2522 -0.1626
  863MPD2     H12670   3.123   2.315  16.867  1.0069 -1.9457 -1.3809
  863MPD2    H112671   3.493   2.510  16.767 -0.2114  2.8075  0.1658
  863MPD2    H212672   3.205   2.434  16.463 -0.8473 -2.9086  0.3665
  863MPD2    H312673   3.417   2.532  16.536  1.1268 -2.5707 -0.3177
  863MPD2     N12674   3.373   2.388  16.964  0.0547 -0.2656  0.1008
  863MPD2    H512675   3.471   2.414  16.967 -0.0428  0.3130 -1.6881
  863MPD2    N112676   3.013   2.331  16.621 -0.1036 -0.2858 -0.0298
  863MPD2    H712677   2.992   2.326  16.522 -0.9836  0.7354  0.1093
  864MPD2     C12678   3.988   4.065  17.398  0.0289  0.2555 -0.2014
  864MPD2    C112679   3.974   3.966  17.299 -0.6296  0.0859 -0.8193
  864MPD2    C212680   4.026   3.993  17.174 -0.2850 -0.0349 -0.0474
  864MPD2    C312681   4.103   4.107  17.149 -0.1868  0.1087 -0.2808
  864MPD2    C412682   4.125   4.193  17.253  0.0198  0.0301  0.1703
  864MPD2    C512683   4.062   4.175  17.373  0.5645  0.2546 -0.9656
  864MPD2     H12684   4.015   3.921  17.093  2.5973  1.2620 -1.5751
  864MPD2    H112685   4.191   4.278  17.241  0.3021 -0.2786 -0.4691
  864MPD2    H212686   3.952   4.061  17.500 -1.8021 -2.0355 -0.9491
  864MPD2    H312687   4.083   4.233  17.462 -0.9519 -1.7650  0.7002
  864MPD2     N12688   4.164   4.137  17.028 -0.0018 -0.4524 -0.8340
  864MPD2    H512689   4.204   4.229  17.015  0.7248 -0.7070 -0.3768
  864MPD2    N112690   3.905   3.849  17.336  0.2960  0.2912  0.0006
  864MPD2    H712691   3.882   3.828  17.432 -0.1864 -0.7321 -0.3439
  865MPD2     C12692   4.223   4.139  16.165  0.4222 -0.0865 -0.2411
  865MPD2    C112693   4.197   4.084  16.285  0.0783  0.1057  0.2329
  865MPD2    C212694   4.157   4.161  16.389 -0.4575 -0.7805 -0.4862
  865MPD2    C312695   4.133   4.302  16.368 -0.0928 -1.0544 -0.1534
  865MPD2    C412696   4.137   4.351  16.243 -0.1768  0.5592  0.4272
  865MPD2    C512697   4.192   4.275  16.143 -0.2685 -0.0427  0.3464
  865MPD2     H12698   4.116   4.116  16.479 -1.4970 -1.1004 -1.1087
  865MPD2    H112699   4.106   4.453  16.222 -0.2138  0.6447  0.8799
  865MPD2    H212700   4.268   4.085  16.083  1.0700 -1.4041  0.9788
  865MPD2    H312701   4.212   4.316  16.045 -0.7455 -0.2660  0.1582
  865MPD2     N12702   4.095   4.391  16.474  0.5428  0.6420 -0.7732
  865MPD2    H512703   4.058   4.477  16.434  0.8127  0.2556 -1.8713
  865MPD2    N112704   4.208   3.946  16.290  0.3405 -0.1886 -0.6906
  865MPD2    H712705   4.229   3.891  16.207  0.0489 -2.5777  0.8220
  866MPD2     C12706   0.722   0.099  11.742 -1.1474  0.1383 -0.1826
  866MPD2    C112707   0.713   0.070  11.609  0.5342 -0.2280  0.4185
  866MPD2    C212708   0.668   0.169  11.522 -0.3415 -0.5605 -0.1471
  866MPD2    C312709   0.625   0.291  11.574  0.2439  0.0529  0.2453
  866MPD2    C412710   0.621   0.312  11.714  0.1636 -0.0646  0.0191
  866MPD2    C512711   0.678   0.219  11.795  0.6322 -0.0182  0.0847
  866MPD2     H12712   0.676   0.152  11.416  0.2997  1.4744 -0.4327
  866MPD2    H112713   0.597   0.409  11.756  0.0509 -0.3008  0.5028
  866MPD2    H212714   0.747   0.014  11.803  1.0076 -1.2374 -2.9603
  866MPD2    H312715   0.675   0.246  11.900  2.0004  1.5326 -0.2746
  866MPD2     N12716   0.569   0.395  11.497  0.0156 -0.0377 -1.0260
  866MPD2    H512717   0.528   0.470  11.551  2.7535 -0.8166  2.0981
  866MPD2    N112718   0.743   4.659  11.567 -0.0657 -0.3331  0.3844
  866MPD2    H712719   0.780   4.602  11.642  0.4621 -0.3972  0.0811
  867MPD2     C12720   3.666   4.448  16.780  0.0475 -0.4073 -0.6585
  867MPD2    C112721   3.608   4.376  16.883  0.3490  0.0540 -0.0614
  867MPD2    C212722   3.544   4.446  16.990  0.2380  0.1080 -0.7490
  867MPD2    C312723   3.557   4.587  16.995  0.3325 -0.2318 -0.2994
  867MPD2    C412724   3.631   4.654  16.900 -0.0415 -0.1559 -0.4081
  867MPD2    C512725   3.678   4.579  16.794 -0.2751 -0.0658  0.3673
  867MPD2     H12726   3.501   4.383  17.067  1.0095 -0.2015 -0.5692
  867MPD2    H112727   3.651   0.038  16.903  1.2872 -0.4518  1.5285
  867MPD2    H212728   3.713   4.397  16.697 -0.2092 -0.6401 -0.6624
  867MPD2    H312729   3.730   4.646  16.727  1.7191 -1.5995  0.3749
  867MPD2     N12730   3.489   4.673  17.081  0.2449 -0.1347 -0.2580
  867MPD2    H512731   3.493   0.051  17.070  0.6827 -0.2443 -1.0434
  867MPD2    N112732   3.597   4.237  16.861 -0.5290  0.2562 -0.1604
  867MPD2    H712733   3.644   4.198  16.780 -1.9234  1.1299 -1.3688
  868MPD2     C12734   0.178   3.161  13.308 -0.4930 -0.3635 -0.1948
  868MPD2    C112735   0.094   3.059  13.348  0.2600  0.0858  0.0429
  868MPD2    C212736   0.037   3.068  13.470  0.3487  0.2881 -0.0203
  868MPD2    C312737   0.054   3.178  13.553  0.0342 -0.4134 -0.6748
  868MPD2    C412738   0.136   3.275  13.510 -0.1141 -0.7884  0.1380
  868MPD2    C512739   0.193   3.268  13.395  0.0477  0.4127 -0.1402
  868MPD2     H12740   4.708   2.986  13.519  0.9395  0.4266  0.8447
  868MPD2    H112741   0.163   3.368  13.559 -0.6207  1.2519 -3.4074
  868MPD2    H212742   0.239   3.162  13.218  0.5144  3.9428  0.5657
  868MPD2    H312743   0.259   3.349  13.366 -0.1283  0.3375 -0.7423
  868MPD2     N12744   4.710   3.182  13.682  0.0372 -0.1633 -0.3564
  868MPD2    H512745   4.636   3.114  13.694 -1.5149  1.6291  0.2324
  868MPD2    N112746   0.106   2.937  13.272 -0.4251  0.0383  0.0663
  868MPD2    H712747   0.154   2.948  13.183 -1.5128 -0.6710 -0.6081
  869MPD2     C12748   0.342   1.049   1.231  0.6066 -0.7495 -1.1095
  869MPD2    C112749   0.332   1.183   1.227  0.1655 -0.5160  0.0938
  869MPD2    C212750   0.321   1.247   1.104  0.3600  0.5844  0.7639
  869MPD2    C312751   0.311   1.169   0.987 -0.3829  0.8796  0.5838
  869MPD2    C412752   0.321   1.035   0.996  0.2293  0.5447 -0.2248
  869MPD2    C512753   0.342   0.975   1.118 -0.4238 -0.8238 -1.1301
  869MPD2     H12754   0.278   1.347   1.096 -0.1747  0.4736  2.1284
  869MPD2    H112755   0.289   0.974   0.912 -1.9369 -1.7849  2.3213
  869MPD2    H212756   0.338   0.988   1.320 -0.4970 -1.1046 -1.4007
  869MPD2    H312757   0.328   0.867   1.119 -0.0168 -0.8340  2.1134
  869MPD2     N12758   0.304   1.228   0.865  0.3038 -0.1597  0.2435
  869MPD2    H512759   0.300   1.164   0.787  0.0463 -0.6103  0.6212
  869MPD2    N112760   0.339   1.244   1.357 -0.5387 -0.4704  0.6151
  869MPD2    H712761   0.360   1.173   1.426  1.6124  0.5274  0.9966
  870MPD2     C12762   4.303   4.537   1.143  0.4742  0.5419  0.0363
  870MPD2    C112763   4.417   4.593   1.194  0.3436 -0.2179  0.4146
  870MPD2    C212764   4.501   4.662   1.110  0.2926 -0.3370 -0.0056
  870MPD2    C312765   4.470   4.682   0.981 -0.2383 -0.3422  0.6326
  870MPD2    C412766   4.352   4.625   0.936  0.1510  0.7498 -0.5872
  870MPD2    C512767   4.271   4.549   1.008  0.7726  0.0226  0.8473
  870MPD2     H12768   4.585   4.721   1.145 -0.6430  0.6571  0.5586
  870MPD2    H112769   4.332   4.617   0.830  1.0295  0.4433 -0.7223
  870MPD2    H212770   4.239   4.482   1.212  1.1311  0.3831  0.5233
  870MPD2    H312771   4.191   4.492   0.961  0.3307  0.3354  1.2314
  870MPD2     N12772   4.557   0.017   0.888 -0.4911  0.4412  0.2717
  870MPD2    H512773   4.648   0.049   0.919  1.0526 -4.2354  0.5231
  870MPD2    N112774   4.429   4.606   1.338 -0.0219  0.1171  0.6724
  870MPD2    H712775   4.367   4.558   1.402 -0.3994  0.1713  0.3452
  871MPD2     C12776   1.751   3.931  16.386  0.2765  0.3343  0.0342
  871MPD2    C112777   1.709   3.889  16.509 -0.0991  0.0701 -0.4296
  871MPD2    C212778   1.665   3.764  16.523  0.3147 -0.0430 -0.2359
  871MPD2    C312779   1.660   3.671  16.421  0.0517 -0.3025 -0.6115
  871MPD2    C412780   1.703   3.718  16.293 -1.0580 -0.6212  0.4052
  871MPD2    C512781   1.762   3.843  16.283 -0.3425  0.2890 -0.3268
  871MPD2     H12782   1.626   3.737  16.621 -0.4547 -0.1462 -0.5730
  871MPD2    H112783   1.716   3.658  16.204  0.1130  0.5004 -0.1963
  871MPD2    H212784   1.797   4.030  16.382  1.1270 -0.1198 -1.2890
  871MPD2    H312785   1.821   3.875  16.197 -2.4801  0.0305 -1.8701
  871MPD2     N12786   1.604   3.547  16.450  0.4022 -0.2489  0.2495
  871MPD2    H512787   1.590   3.528  16.549  3.3944 -0.5860  0.6010
  871MPD2    N112788   1.715   3.982  16.615  0.6057  0.6773 -0.0880
  871MPD2    H712789   1.762   4.071  16.599 -1.7429  1.4271 -2.8361
  872MPD2     C12790   2.334   2.045  14.066  0.0663 -0.1872  0.1895
  872MPD2    C112791   2.427   1.948  14.106  0.1675 -0.0247 -0.2615
  872MPD2    C212792   2.390   1.840  14.183 -0.1295  0.5022  0.0368
  872MPD2    C312793   2.266   1.838  14.233  0.1355 -0.2184  0.1979
  872MPD2    C412794   2.174   1.931  14.196 -1.1218  0.3387 -0.1478
  872MPD2    C512795   2.208   2.031  14.109  1.0531  0.7998 -0.1479
  872MPD2     H12796   2.458   1.758  14.203 -0.5876  0.0453 -0.2733
  872MPD2    H112797   2.070   1.932  14.227 -1.0798 -2.0552  0.0180
  872MPD2    H212798   2.351   2.129  14.001  1.9082 -0.1493  0.7010
  872MPD2    H312799   2.138   2.110  14.086  0.3843  0.5723  1.0833
  872MPD2     N12800   2.226   1.727  14.313 -0.1767  0.1084  0.9889
  872MPD2    H512801   2.130   1.718  14.344 -0.5133  0.9840  0.2068
  872MPD2    N112802   2.547   1.939  14.045 -0.4370  0.5027  0.0409
  872MPD2    H712803   2.608   1.877  14.097 -1.2976  0.0397  0.4971
  873MPD2     C12804   4.428   1.576   0.531  0.0364 -0.3325 -0.5582
  873MPD2    C112805   4.362   1.485   0.613  0.2314  0.5262 -0.0207
  873MPD2    C212806   4.364   1.352   0.569 -0.1184 -0.1272 -0.0848
  873MPD2    C312807   4.430   1.307   0.458 -0.2283  0.8526  0.2732
  873MPD2    C412808   4.490   1.402   0.371  0.1951 -0.8723 -0.0132
  873MPD2    C512809   4.492   1.531   0.416  0.2790 -0.3015  0.0475
  873MPD2     H12810   4.306   1.284   0.631 -0.1877 -0.2644 -0.3007
  873MPD2    H112811   4.553   1.383   0.285 -3.5608 -2.4755 -2.4032
  873MPD2    H212812   4.422   1.680   0.561  0.3239 -0.0079 -1.6411
  873MPD2    H312813   4.532   1.597   0.340  0.0881 -1.0935 -0.7529
  873MPD2     N12814   4.443   1.170   0.431  0.3575 -0.0514 -0.3275
  873MPD2    H512815   4.489   1.143   0.344  0.2766  0.9975 -0.6856
  873MPD2    N112816   4.299   1.534   0.729  0.0629  0.3368 -0.2772
  873MPD2    H712817   4.317   1.629   0.759 -1.9769  0.2084  1.3587
  874MPD2     C12818   4.042   1.897  16.147 -0.2062 -0.1498  0.0616
  874MPD2    C112819   4.064   1.838  16.271  0.1461  0.2676  0.0160
  874MPD2    C212820   4.154   1.897  16.357 -0.6122 -0.0559  0.0575
  874MPD2    C312821   4.229   2.010  16.320 -0.4509  0.2471 -0.5550
  874MPD2    C412822   4.204   2.066  16.194  0.3635  1.0651  0.2404
  874MPD2    C512823   4.106   2.012  16.123  0.2320 -0.0059 -0.5669
  874MPD2     H12824   4.181   1.852  16.452 -1.8376  1.3010  1.0452
  874MPD2    H112825   4.272   2.138  16.151  2.2568 -0.6276  0.3421
  874MPD2    H212826   3.972   1.855  16.075 -0.0874 -2.1034  1.0972
  874MPD2    H312827   4.084   2.057  16.027  1.0884 -0.2447 -0.8753
  874MPD2     N12828   4.322   2.055  16.415  0.5781  0.2634 -0.2930
  874MPD2    H512829   4.332   1.997  16.498  2.4979  1.5847  0.3922
  874MPD2    N112830   3.989   1.718  16.290  0.1500  0.3812 -0.0718
  874MPD2    H712831   3.939   1.680  16.210 -0.5958  0.0807  0.5294
  875MPD2     C12832   0.540   0.124  14.650  0.0781 -0.0818  0.2629
  875MPD2    C112833   0.422   0.121  14.716 -0.4018 -0.5290 -0.5221
  875MPD2    C212834   0.417   0.151  14.846 -0.0832 -0.0607  0.2871
  875MPD2    C312835   0.537   0.176  14.918  0.0949  0.7845 -0.1804
  875MPD2    C412836   0.654   0.189  14.844 -0.5864 -0.1074  0.6471
  875MPD2    C512837   0.652   0.156  14.710  0.8613 -0.0376 -0.2989
  875MPD2     H12838   0.321   0.150  14.897 -0.1061 -0.3332  0.2389
  875MPD2    H112839   0.743   0.238  14.879  1.4061 -3.4041  0.2373
  875MPD2    H212840   0.551   0.093  14.546  0.8941 -0.6349  0.5177
  875MPD2    H312841   0.738   0.187  14.652  0.2177  2.5301  0.1167
  875MPD2     N12842   0.531   0.215  15.058 -0.0135  0.8755  0.3441
  875MPD2    H512843   0.610   0.265  15.097 -0.6560  0.9892  1.5026
  875MPD2    N112844   0.297   0.084  14.658  0.2985 -0.3529 -0.0607
  875MPD2    H712845   0.215   0.085  14.718 -1.7101 -1.5163 -2.7842
  876MPD2     C12846   3.811   1.175  15.922 -0.5791  0.3233  0.3961
  876MPD2    C112847   3.938   1.133  15.888 -0.1809 -0.0028  0.1832
  876MPD2    C212848   3.996   1.020  15.945 -0.5599  0.5270  0.1888
  876MPD2    C312849   3.931   0.949  16.040 -0.1610 -0.3141  0.3126
  876MPD2    C412850   3.800   0.992  16.073  0.0716  0.4366 -0.0144
  876MPD2    C512851   3.747   1.106  16.018  0.3941  1.0255  0.6839
  876MPD2     H12852   4.097   0.995  15.914 -1.3542 -2.4055  0.0418
  876MPD2    H112853   3.731   0.946  16.143 -0.6366  0.1041 -0.9322
  876MPD2    H212854   3.765   1.258  15.869 -1.3246  0.9290  1.9808
  876MPD2    H312855   3.645   1.129  16.047 -0.2760 -1.1745  0.0821
  876MPD2     N12856   3.995   0.831  16.092  0.0204  0.5507  0.6207
  876MPD2    H512857   4.070   0.796  16.033  0.0404  2.0105 -0.2183
  876MPD2    N112858   4.002   1.204  15.789 -0.6014 -0.2446 -0.3314
  876MPD2    H712859   3.953   1.289  15.760  0.5399  0.4571 -0.2076
  877MPD2     C12860   4.374   1.852  15.527 -0.1064  0.0924 -0.2116
  877MPD2    C112861   4.288   1.793  15.435 -0.5301  0.1787 -0.0698
  877MPD2    C212862   4.273   1.857  15.311  0.6867  0.1139  0.1782
  877MPD2    C312863   4.355   1.961  15.280  0.6052 -0.5921 -0.3647
  877MPD2    C412864   4.441   2.017  15.373  0.7866 -0.4456 -0.0223
  877MPD2    C512865   4.454   1.962  15.499 -0.5682  0.0451  0.6837
  877MPD2     H12866   4.209   1.804  15.241 -1.1394  0.3614  1.6859
  877MPD2    H112867   4.499   2.107  15.355 -0.4957  0.3525 -0.1518
  877MPD2    H212868   4.375   1.827  15.632 -0.2672 -1.3698 -0.5587
  877MPD2    H312869   4.511   2.012  15.576  0.1457 -1.0899  0.9008
  877MPD2     N12870   4.362   2.016  15.147 -0.2307 -0.4311  0.5458
  877MPD2    H512871   4.439   2.081  15.137  0.4783 -1.4225 -0.5036
  877MPD2    N112872   4.209   1.678  15.460  0.3824  0.1961 -0.0653
  877MPD2    H712873   4.163   1.638  15.379 -1.7206 -1.2026  1.7961
  878MPD2     C12874   3.915   0.982  13.006  0.1323 -0.0142  0.1504
  878MPD2    C112875   3.921   1.112  12.981  0.2411  0.3230  0.4478
  878MPD2    C212876   3.863   1.192  13.078 -0.8391 -0.3123 -0.1312
  878MPD2    C312877   3.793   1.141  13.192  0.6291 -0.4709  0.0578
  878MPD2    C412878   3.768   1.002  13.197  0.4530 -0.1401 -0.4221
  878MPD2    C512879   3.843   0.929  13.106 -0.4316  0.7113 -0.6627
  878MPD2     H12880   3.854   1.299  13.065 -0.0615 -0.2092  0.1648
  878MPD2    H112881   3.720   0.945  13.276  0.9075 -0.2447 -0.2173
  878MPD2    H212882   3.956   0.909  12.937  0.1983 -0.7387  0.9520
  878MPD2    H312883   3.842   0.821  13.116  1.0860  0.6931 -0.8534
  878MPD2     N12884   3.738   1.236  13.282 -0.4457  0.5890 -0.1668
  878MPD2    H512885   3.748   1.335  13.265 -1.3223  0.2172 -2.8030
  878MPD2    N112886   3.962   1.156  12.855  0.1305  0.1566  0.2568
  878MPD2    H712887   3.968   1.090  12.778 -1.5839  0.5886 -0.2346
  879MPD2     C12888   4.253   1.743   0.062 -0.2913  0.6557 -0.2551
  879MPD2    C112889   4.154   1.645   0.077 -0.4438  0.8708 -0.1764
  879MPD2    C212890   4.088   1.596  17.656 -0.5323 -0.5849  0.0899
  879MPD2    C312891   4.112   1.642  17.525 -0.1902  0.0956  0.1699
  879MPD2    C412892   4.203   1.743  17.513  0.9792  0.3482  0.2435
  879MPD2    C512893   4.269   1.784  17.628 -0.6450 -0.8575 -0.3320
  879MPD2     H12894   4.006   1.528  17.674 -1.3179 -0.0908 -1.6548
  879MPD2    H112895   4.238   1.782  17.418  0.3953  0.1510 -0.0576
  879MPD2    H212896   4.309   1.784   0.145  1.1792  0.8951 -1.3521
  879MPD2    H312897   4.336   1.868  17.613 -0.2637 -1.0942  0.0814
  879MPD2     N12898   4.042   1.607  17.411 -1.0961  0.9591  0.3543
  879MPD2    H512899   4.055   1.676  17.338 -0.9437  1.0781  0.4934
  879MPD2    N112900   4.116   1.613   0.212 -0.6339 -0.0541  0.6223
  879MPD2    H712901   4.139   1.680   0.284  0.5403 -0.1328  0.3187
  880MPD2     C12902   1.187   4.024   0.255  0.9010 -0.3793 -0.3981
  880MPD2    C112903   1.176   4.035   0.385 -0.6435  0.4658  0.2650
  880MPD2    C212904   1.192   3.922   0.471 -0.3663 -0.3192  0.0743
  880MPD2    C312905   1.214   3.800   0.418 -0.0906 -0.6405  0.2983
  880MPD2    C412906   1.221   3.791   0.278 -0.5585 -0.5221  1.7672
  880MPD2    C512907   1.208   3.902   0.202 -0.2673 -0.2556 -0.2105
  880MPD2     H12908   1.197   3.926   0.579 -0.5420 -0.2091  0.0790
  880MPD2    H112909   1.235   3.700   0.221  0.1478  0.7735 -0.1156
  880MPD2    H212910   1.172   4.104   0.184  0.2781 -0.9817 -0.9562
  880MPD2    H312911   1.201   3.890   0.094  1.0036 -0.3035 -0.2910
  880MPD2     N12912   1.241   3.697   0.505 -0.4177  0.2101 -0.0928
  880MPD2    H512913   1.250   3.719   0.604  0.5130 -1.5464  0.2190
  880MPD2    N112914   1.132   4.157   0.435  0.0513  0.2678  0.1041
  880MPD2    H712915   1.092   4.218   0.364 -1.1360 -0.8578 -0.1925
  881MPD2     C12916   0.918   0.257   0.023  0.0557 -0.4195 -0.0128
  881MPD2    C112917   0.899   0.126  17.678 -0.2128  0.0213  0.6410
  881MPD2    C212918   0.895   0.026   0.086 -0.0349 -0.5176  0.2322
  881MPD2    C312919   0.874   0.058   0.218 -0.0047  0.2035 -0.1642
  881MPD2    C412920   0.872   0.193   0.253  0.5678  0.1014 -0.2060
  881MPD2    C512921   0.900   0.287   0.158 -0.0221 -0.2098  0.0129
  881MPD2     H12922   0.891   4.645   0.056  0.2942 -0.0058 -1.5548
  881MPD2    H112923   0.856   0.220   0.357  1.8615 -0.3398  0.1000
  881MPD2    H212924   0.941   0.329  17.637  0.2179 -0.2894  0.1543
  881MPD2    H312925   0.898   0.393   0.178 -1.3529 -0.0315 -1.0545
  881MPD2     N12926   0.873   4.684   0.326 -0.5450 -1.0958 -0.3428
  881MPD2    H512927   0.835   4.709   0.417  0.1877  1.4020 -0.7247
  881MPD2    N112928   0.937   0.092  17.545 -0.6554 -0.5351  0.0036
  881MPD2    H712929   0.981   0.164  17.488 -1.4187 -1.4403 -1.7228
  882MPD2     C12930   4.314   1.809  14.346 -0.2158 -0.3660 -0.1664
  882MPD2    C112931   4.246   1.919  14.398  0.1953  0.7498  0.0179
  882MPD2    C212932   4.115   1.936  14.359 -0.0715 -0.1058  0.2351
  882MPD2    C312933   4.053   1.848  14.270  0.2905 -0.2284 -0.5261
  882MPD2    C412934   4.120   1.734  14.226 -0.6900 -0.1924 -0.3150
  882MPD2    C512935   4.245   1.721  14.266 -0.4883 -0.4338  0.2602
  882MPD2     H12936   4.055   2.014  14.403 -0.0657  0.9891 -1.7282
  882MPD2    H112937   4.069   1.659  14.167 -0.8076 -1.0738  0.8999
  882MPD2    H212938   4.420   1.796  14.367 -0.1556 -2.3600 -1.7033
  882MPD2    H312939   4.308   1.640  14.231  0.0710  0.3104 -0.4521
  882MPD2     N12940   3.918   1.858  14.243  0.6476 -0.1254  0.0149
  882MPD2    H512941   3.881   1.771  14.204  0.3868  0.0971 -0.2399
  882MPD2    N112942   4.306   2.007  14.497  0.0386  0.0360 -0.2950
  882MPD2    H712943   4.399   1.974  14.520  1.5067  1.4983 -4.1612
  883MPD2     C12944   1.120   1.350  16.145 -0.2104 -0.0206 -0.3865
  883MPD2    C112945   1.198   1.370  16.029  0.2715  0.2568  0.6260
  883MPD2    C212946   1.326   1.412  16.041  0.0103 -0.4222  0.1148
  883MPD2    C312947   1.379   1.446  16.164 -0.1106  0.0323 -0.3916
  883MPD2    C412948   1.303   1.421  16.275 -0.2856 -0.6177 -0.6898
  883MPD2    C512949   1.175   1.375  16.265  0.1404  0.2498 -0.3120
  883MPD2     H12950   1.385   1.431  15.951  0.8067  1.2840  0.9925
  883MPD2    H112951   1.337   1.436  16.377  0.4468  0.3434 -1.0713
  883MPD2    H212952   1.019   1.312  16.145  0.1554 -1.0034  1.5703
  883MPD2    H312953   1.108   1.367  16.351  0.5125 -1.7014 -0.2080
  883MPD2     N12954   1.509   1.510  16.167 -0.9985 -0.0218 -0.8277
  883MPD2    H512955   1.548   1.524  16.075  3.1117 -1.8803  0.5928
  883MPD2    N112956   1.140   1.356  15.903 -0.1214  0.6968  0.3266
  883MPD2    H712957   1.196   1.350  15.818  0.0907 -1.2238  0.5983
  884MPD2     C12958   3.195   2.263  15.484 -0.4681 -0.1513  0.3865
  884MPD2    C112959   3.237   2.363  15.403 -0.0246  0.5596  0.4467
  884MPD2    C212960   3.133   2.439  15.350  0.2444 -0.1512 -0.0452
  884MPD2    C312961   3.002   2.423  15.372  0.5557 -0.4183  0.6143
  884MPD2    C412962   2.959   2.318  15.449  0.0409  0.3263 -0.0611
  884MPD2    C512963   3.059   2.245  15.510  0.1012  0.7866 -0.2179
  884MPD2     H12964   3.161   2.518  15.280 -0.9122  0.8059  0.5717
  884MPD2    H112965   2.854   2.304  15.473  0.0946 -0.2483 -0.1700
  884MPD2    H212966   3.269   2.204  15.536  0.2719  1.4125  1.1131
  884MPD2    H312967   3.023   2.160  15.568  2.4858 -0.1491 -0.1438
  884MPD2     N12968   2.914   2.523  15.320 -0.3519  0.1021 -0.1597
  884MPD2    H512969   2.959   2.602  15.275  0.7160 -0.9316 -0.8982
  884MPD2    N112970   3.379   2.396  15.384  0.0171  0.0940 -0.4465
  884MPD2    H712971   3.404   2.460  15.310 -0.0915  1.7911  0.9838
  885MPD2     C12972   1.359   2.992   0.390 -0.0556  0.4220  0.2509
  885MPD2    C112973   1.426   2.875   0.357  0.1858  0.1787  0.0770
  885MPD2    C212974   1.436   2.838   0.224  0.6999  0.2181  0.0459
  885MPD2    C312975   1.394   2.917   0.123  0.0578 -0.3703 -0.2328
  885MPD2    C412976   1.334   3.039   0.156  0.4516 -0.1060  0.1629
  885MPD2    C512977   1.322   3.073   0.286  0.5213  0.2877  1.0086
  885MPD2     H12978   1.484   2.747   0.191 -0.1337  0.1048 -0.8528
  885MPD2    H112979   1.299   3.101   0.074 -1.0321 -1.1768 -0.0120
  885MPD2    H212980   1.346   3.039   0.487 -1.0283 -0.3506  0.4920
  885MPD2    H312981   1.275   3.166   0.315  1.3678  0.4238  1.9387
  885MPD2     N12982   1.405   2.860  17.685  0.4299  0.2959  0.1019
  885MPD2    H512983   1.460   2.778  17.664  0.9811  0.5883  0.4071
  885MPD2    N112984   1.469   2.778   0.448 -0.1575 -0.5556  0.5989
  885MPD2    H712985   1.504   2.693   0.404  0.2183  0.2497 -0.6697
  886MPD2     C12986   2.490   1.130  15.095 -0.0999  0.3717 -0.6002
  886MPD2    C112987   2.605   1.150  15.165 -0.1554  0.0182  0.1592
  886MPD2    C212988   2.674   1.263  15.143 -0.1210 -0.8379 -0.6520
  886MPD2    C312989   2.627   1.361  15.058 -0.2860  0.2166 -0.5127
  886MPD2    C412990   2.508   1.341  14.991 -0.0846  0.4950 -0.0120
  886MPD2    C512991   2.447   1.221  15.005  0.1523 -0.7153  0.1379
  886MPD2     H12992   2.770   1.260  15.193 -2.2859 -0.4397  3.5072
  886MPD2    H112993   2.470   1.411  14.918 -0.7251  1.5930  1.3800
  886MPD2    H212994   2.441   1.034  15.082  0.6202 -0.2645  1.3472
  886MPD2    H312995   2.357   1.190  14.952 -0.5716  1.8628 -0.1409
  886MPD2     N12996   2.704   1.480  15.017  0.7754  0.1825 -0.0287
  886MPD2    H512997   2.654   1.555  14.970  1.1948 -0.2225 -1.1117
  886MPD2    N112998   2.658   1.066  15.262 -0.1257  0.4131 -0.1986
  886MPD2    H712999   2.736   1.107  15.313 -1.6088  1.6395  1.0928
  887MPD2     C13000   3.226   1.031  15.694 -0.3297 -0.2955  0.3239
  887MPD2    C113001   3.123   1.103  15.640 -0.0922 -0.5387  0.1081
  887MPD2    C213002   3.148   1.239  15.624  0.3168 -0.2974 -0.2648
  887MPD2    C313003   3.268   1.295  15.655 -0.9533 -0.1882 -0.4701
  887MPD2    C413004   3.368   1.214  15.703 -0.3259  0.3236  0.3786
  887MPD2    C513005   3.347   1.084  15.726 -0.7557 -0.6207 -0.2897
  887MPD2     H13006   3.064   1.297  15.587  0.0333 -0.5179  0.0240
  887MPD2    H113007   3.467   1.258  15.714  0.6188 -2.1619  1.7260
  887MPD2    H213008   3.215   0.925  15.712 -0.3128 -0.3702 -0.1116
  887MPD2    H313009   3.428   1.033  15.776 -1.3915 -1.5785 -0.2269
  887MPD2     N13010   3.287   1.432  15.617  0.5230  0.2420 -0.7116
  887MPD2    H513011   3.206   1.485  15.587  0.1976  0.3710  0.3751
  887MPD2    N113012   2.998   1.044  15.602  0.0707  0.2611  0.5219
  887MPD2    H713013   2.922   1.103  15.568  0.1132  1.5612  2.6834
  888MPD2     C13014   0.329   1.121  14.764 -0.3299 -0.3743 -0.4169
  888MPD2    C113015   0.356   1.140  14.898 -0.3287 -0.1656 -1.3819
  888MPD2    C213016   0.431   1.253  14.936  0.4164  0.6932  0.1554
  888MPD2    C313017   0.459   1.351  14.842  0.5952 -0.0484 -0.8337
  888MPD2    C413018   0.438   1.322  14.706 -0.1426  0.4111  0.1507
  888MPD2    C513019   0.383   1.203  14.676 -0.5076 -1.0836  0.6980
  888MPD2     H13020   0.454   1.269  15.041 -1.4097 -2.2849  1.0208
  888MPD2    H113021   0.455   1.384  14.619 -0.3875 -0.6999 -0.6791
  888MPD2    H213022   0.288   1.029  14.724 -0.5223 -0.7230  0.5976
  888MPD2    H313023   0.372   1.169  14.574 -0.9090 -0.7169  0.6181
  888MPD2     N13024   0.507   1.476  14.891  0.4357 -0.4143 -0.6046
  888MPD2    H513025   0.517   1.495  14.990  0.8704 -0.2417 -0.6845
  888MPD2    N113026   0.323   1.041  14.996 -0.0021 -0.2817  0.1873
  888MPD2    H713027   0.366   1.044  15.088 -0.9237 -2.2040  0.6886
  889MPD2     C13028   4.296   0.654  12.769 -0.6424  0.1178  1.0141
  889MPD2    C113029   4.300   0.661  12.904  0.1672  0.2178 -0.4033
  889MPD2    C213030   4.316   0.782  12.972 -0.0834  0.6628  0.6006
  889MPD2    C313031   4.327   0.903  12.911  0.6198  0.2068 -0.1372
  889MPD2    C413032   4.328   0.898  12.768  0.3787  0.3673 -0.7383
  889MPD2    C513033   4.317   0.774  12.703 -0.4212 -0.0240 -0.4794
  889MPD2     H13034   4.300   0.784  13.079  1.4107  0.9446  0.8188
  889MPD2    H113035   4.350   0.981  12.700 -2.6248  0.1881 -1.9062
  889MPD2    H213036   4.303   0.558  12.719  2.0093  1.1528 -0.5646
  889MPD2    H313037   4.316   0.776  12.595  0.5617 -0.2963 -0.4990
  889MPD2     N13038   4.328   1.017  12.987 -0.3683  0.2415 -0.2792
  889MPD2    H513039   4.328   1.000  13.087 -0.3757 -1.9871 -0.6659
  889MPD2    N113040   4.308   0.537  12.973  0.1973 -0.0659  0.1296
  889MPD2    H713041   4.303   0.455  12.913  0.7844  0.0673 -0.1015
  890MPD2     C13042   4.027   2.867  14.430  0.0728  0.9161 -0.2487
  890MPD2    C113043   4.049   2.937  14.546  0.4429 -0.5001  0.6923
  890MPD2    C213044   4.064   2.859  14.664  0.2347  0.3663  0.1713
  890MPD2    C313045   4.056   2.723  14.668  0.5675  0.2642  0.2422
  890MPD2    C413046   4.026   2.659  14.550  0.0745  0.3081  0.0816
  890MPD2    C513047   4.011   2.730  14.432  0.2805  0.0168  0.4333
  890MPD2     H13048   4.084   2.909  14.758  0.9156 -0.3003  0.3789
  890MPD2    H113049   4.012   2.553  14.533 -1.2044  0.6157 -0.8297
  890MPD2    H213050   4.019   2.923  14.338  0.8880  0.6481 -0.4807
  890MPD2    H313051   3.999   2.676  14.339  0.3553 -1.3407  1.2172
  890MPD2     N13052   4.073   2.650  14.789 -0.1681  0.2171  0.2776
  890MPD2    H513053   4.110   2.706  14.866 -1.3177 -0.7479  1.5190
  890MPD2    N113054   4.049   3.075  14.538  0.8725 -0.0787  0.2868
  890MPD2    H713055   4.049   3.114  14.444 -0.2154 -1.6399 -0.3551
  891MPD2     C13056   2.048   1.248  16.223  0.2445  0.4043  0.6475
  891MPD2    C113057   1.973   1.281  16.330  0.0940 -0.4158  0.2811
  891MPD2    C213058   2.033   1.296  16.455  0.1110 -0.5763  0.2072
  891MPD2    C313059   2.169   1.268  16.470 -0.6306  0.3474  0.5874
  891MPD2    C413060   2.245   1.236  16.358  0.2281  0.3863 -0.2665
  891MPD2    C513061   2.189   1.243  16.234 -0.2948 -0.8457 -0.0612
  891MPD2     H13062   1.971   1.310  16.542 -1.4139 -1.6714 -0.7075
  891MPD2    H113063   2.353   1.233  16.365  0.2410  2.3507  0.5352
  891MPD2    H213064   1.999   1.233  16.127 -1.1927  0.7984  1.3225
  891MPD2    H313065   2.245   1.226  16.143  0.7899 -3.0784  1.0396
  891MPD2     N13066   2.240   1.278  16.593  0.1134  0.0948  0.3271
  891MPD2    H513067   2.187   1.324  16.667  0.2514  2.0093 -0.7684
  891MPD2    N113068   1.833   1.278  16.314  0.4490  0.0256  0.1957
  891MPD2    H713069   1.809   1.235  16.225 -2.0097  0.9662  0.4011
  892MPD2     C13070   3.315   2.578  14.586  0.0415  0.5604  0.2973
  892MPD2    C113071   3.252   2.466  14.635 -0.2372  0.5819 -0.4144
  892MPD2    C213072   3.307   2.348  14.584 -0.8243  0.4969 -0.2645
  892MPD2    C313073   3.399   2.344  14.480  0.2278 -0.2867 -0.6557
  892MPD2    C413074   3.447   2.463  14.420 -0.0518  0.3215  0.7769
  892MPD2    C513075   3.401   2.579  14.480  0.5452  0.3453 -0.5138
  892MPD2     H13076   3.255   2.258  14.612  1.3636 -0.1040  1.9182
  892MPD2    H113077   3.528   2.480  14.351 -2.0823  1.2610 -1.3927
  892MPD2    H213078   3.274   2.676  14.607 -4.0267 -1.0253 -0.2424
  892MPD2    H313079   3.439   2.674  14.444 -1.4837  0.8458 -1.3665
  892MPD2     N13080   3.454   2.227  14.421  0.2410 -0.5506 -0.5006
  892MPD2    H513081   3.486   2.223  14.324 -0.5935 -0.7926 -0.7674
  892MPD2    N113082   3.140   2.469  14.719 -0.5940 -0.6783  0.2301
  892MPD2    H713083   3.091   2.382  14.739 -0.4284 -1.3319 -2.2054
  893MPD2     C13084   4.400   0.273   1.202 -0.7969  0.2780  0.0058
  893MPD2    C113085   4.419   0.299   1.333 -0.4186  0.7352 -0.0357
  893MPD2    C213086   4.302   0.306   1.418 -0.4351 -0.1448 -0.2120
  893MPD2    C313087   4.181   0.275   1.362 -0.0928  0.1572  0.7345
  893MPD2    C413088   4.168   0.251   1.224  0.8701 -0.6637  0.9013
  893MPD2    C513089   4.279   0.234   1.149 -0.6052 -0.4672  0.4364
  893MPD2     H13090   4.298   0.331   1.523  1.5165  0.1187 -0.1969
  893MPD2    H113091   4.072   0.238   1.174  0.1473 -0.7896  2.3169
  893MPD2    H213092   4.493   0.275   1.145 -0.9757 -1.4387 -0.3560
  893MPD2    H313093   4.268   0.210   1.044  1.5683 -0.0957  0.1272
  893MPD2     N13094   4.064   0.245   1.448 -0.2096 -0.0307 -0.6071
  893MPD2    H513095   3.974   0.227   1.405 -0.3752 -0.4578 -0.0874
  893MPD2    N113096   4.549   0.330   1.377 -0.2941 -0.1344  0.0818
  893MPD2    H713097   4.627   0.301   1.319 -1.2634 -4.7622  1.0785
  894MPD2     C13098   2.786   2.254   0.764 -0.0873 -0.4088 -0.1073
  894MPD2    C113099   2.788   2.356   0.848  0.4447 -0.3064  0.4905
  894MPD2    C213100   2.774   2.488   0.801 -0.4468 -0.1193  0.0719
  894MPD2    C313101   2.767   2.533   0.672 -0.1359  0.1080 -0.7663
  894MPD2    C413102   2.777   2.426   0.586 -0.5468  0.2535 -0.0284
  894MPD2    C513103   2.778   2.287   0.630 -0.3418 -0.6233  0.3850
  894MPD2     H13104   2.771   2.561   0.882 -1.8733 -1.4882  1.2531
  894MPD2    H113105   2.759   2.445   0.481  1.8777 -0.8427 -0.6570
  894MPD2    H213106   2.787   2.149   0.791  1.5334 -0.4063 -0.1372
  894MPD2    H313107   2.780   2.206   0.558 -1.5845 -0.0978 -0.2310
  894MPD2     N13108   2.755   2.670   0.639 -0.0288 -0.0855 -0.0959
  894MPD2    H513109   2.753   2.733   0.719 -0.9123 -1.3730  0.8960
  894MPD2    N113110   2.821   2.344   0.986  0.0400  0.7476  0.1128
  894MPD2    H713111   2.809   2.426   1.044 -1.3712  0.7641 -0.1983
  895MPD2     C13112   2.615   0.866  13.942 -0.6221  0.0629  0.0867
  895MPD2    C113113   2.558   0.808  13.831  0.0918  0.0268 -0.5134
  895MPD2    C213114   2.576   0.674  13.811  0.8258  0.2496 -0.0899
  895MPD2    C313115   2.655   0.592  13.892 -0.3123 -0.2020  0.3403
  895MPD2    C413116   2.717   0.652  14.002 -0.4240  0.2252 -0.2261
  895MPD2    C513117   2.694   0.785  14.024  0.3990 -0.1393  0.1216
  895MPD2     H13118   2.537   0.626  13.722 -0.0535 -0.4829  0.6911
  895MPD2    H113119   2.773   0.594  14.074 -0.0645 -0.6579 -1.2218
  895MPD2    H213120   2.594   0.967  13.974 -0.2672  0.2538 -0.2872
  895MPD2    H313121   2.726   0.827  14.119 -0.2935  1.4777 -0.3619
  895MPD2     N13122   2.661   0.460  13.854 -0.9155 -0.1009 -0.1014
  895MPD2    H513123   2.616   0.431  13.767 -0.9638 -1.9866  0.5517
  895MPD2    N113124   2.485   0.877  13.735 -0.0669  0.6803  0.0213
  895MPD2    H713125   2.425   0.828  13.669 -1.8832  0.5967  1.7569
  896MPD2     C13126   3.446   3.850   1.644 -0.0766  0.2043 -0.3678
  896MPD2    C113127   3.528   3.787   1.556  0.6955  1.0019  1.0662
  896MPD2    C213128   3.475   3.698   1.464 -0.6418  0.1448  0.0597
  896MPD2    C313129   3.345   3.672   1.457 -0.1864  0.1262 -0.9470
  896MPD2    C413130   3.262   3.743   1.540 -0.2991 -0.0019  0.7354
  896MPD2    C513131   3.312   3.826   1.636  0.2804  0.0391 -0.2545
  896MPD2     H13132   3.538   3.653   1.389 -0.1781 -0.7794  1.0035
  896MPD2    H113133   3.154   3.729   1.536 -0.1175 -0.6430 -1.8522
  896MPD2    H213134   3.480   3.927   1.712 -0.4992 -2.0640  2.3907
  896MPD2    H313135   3.239   3.891   1.683  0.5315  0.8405 -0.9792
  896MPD2     N13136   3.298   3.575   1.360  0.2017  0.6984  0.0664
  896MPD2    H513137   3.369   3.519   1.314 -0.4007  1.1980 -1.4960
  896MPD2    N113138   3.663   3.815   1.566  0.3915  0.1769 -0.3932
  896MPD2    H713139   3.691   3.877   1.641 -0.9011  0.1062  0.1494
  897MPD2     C13140   1.361   1.288  10.218 -0.1280  0.1451 -0.2984
  897MPD2    C113141   1.412   1.232  10.334 -0.9465 -0.9035 -0.5791
  897MPD2    C213142   1.327   1.233  10.446 -0.3534  0.1977 -0.1713
  897MPD2    C313143   1.196   1.276  10.441  0.1262  0.0602 -0.3877
  897MPD2    C413144   1.146   1.329  10.323  0.1613  0.3823  0.2768
  897MPD2    C513145   1.229   1.331  10.219 -1.2675  0.2653 -0.3905
  897MPD2     H13146   1.356   1.173  10.532 -2.8404  0.1893  0.6487
  897MPD2    H113147   1.044   1.358  10.303  0.8628  2.0146 -0.9497
  897MPD2    H213148   1.414   1.289  10.124  0.6490 -0.4381  0.1360
  897MPD2    H313149   1.187   1.361  10.123 -2.0847  0.1476 -0.0628
  897MPD2     N13150   1.099   1.255  10.545 -0.7790  0.4120  0.5657
  897MPD2    H513151   1.013   1.309  10.538  0.1083  1.6761 -0.7589
  897MPD2    N113152   1.550   1.204  10.337  0.0660 -0.1402  0.1470
  897MPD2    H713153   1.596   1.222  10.248 -0.4074 -1.9713 -0.4716
  898MPD2     C13154   2.501   0.652   0.466  0.2719 -0.4859  0.1710
  898MPD2    C113155   2.578   0.767   0.460 -0.1422  0.2709  0.6033
  898MPD2    C213156   2.551   0.867   0.367 -0.2376 -0.0166  0.4719
  898MPD2    C313157   2.440   0.863   0.285 -0.4413  0.1318  0.6063
  898MPD2    C413158   2.354   0.754   0.299  0.3782 -0.3614  0.5812
  898MPD2    C513159   2.390   0.648   0.385 -0.2399  0.4111  0.6423
  898MPD2     H13160   2.628   0.941   0.347 -0.2514 -0.5271 -1.4308
  898MPD2    H113161   2.259   0.737   0.248 -0.4159  1.1232  1.5658
  898MPD2    H213162   2.515   0.574   0.540 -1.2317  0.8485  1.8799
  898MPD2    H313163   2.322   0.563   0.386 -1.2218  1.2016  0.8847
  898MPD2     N13164   2.421   0.958   0.190  0.4528 -0.1024  0.4871
  898MPD2    H513165   2.499   1.022   0.176 -0.8206  1.9282  2.5980
  898MPD2    N113166   2.703   0.771   0.531 -0.0990  0.4498  0.1588
  898MPD2    H713167   2.769   0.844   0.503 -0.0107  0.7774  1.2360
  899MPD2     C13168   3.219   1.802  17.367  0.3324 -0.0064 -0.5460
  899MPD2    C113169   3.298   1.878  17.451  0.1275  0.0169 -0.3351
  899MPD2    C213170   3.301   1.841  17.588  0.0577  0.1559 -0.2218
  899MPD2    C313171   3.218   1.737  17.642  0.5009 -0.3723  0.2088
  899MPD2    C413172   3.142   1.664  17.552 -0.4872  0.3467 -0.2498
  899MPD2    C513173   3.147   1.692  17.415 -0.0748  0.6804 -0.4424
  899MPD2     H13174   3.365   1.903  17.649 -0.4459  1.2154 -0.7641
  899MPD2    H113175   3.075   1.588  17.589  1.0988 -0.4205  1.0282
  899MPD2    H213176   3.201   1.843  17.268  1.3144  0.9083 -0.3530
  899MPD2    H313177   3.081   1.633  17.353 -0.6872 -2.2811  3.0117
  899MPD2     N13178   3.202   1.709   0.086  0.1892  0.0740 -0.0387
  899MPD2    H513179   3.155   1.622   0.106 -2.3948  1.2016 -1.1147
  899MPD2    N113180   3.355   1.991  17.385  0.1651  0.4212 -0.3080
  899MPD2    H713181   3.339   1.997  17.285  2.2445 -1.9812 -0.7831
  900MPD2     C13182   3.645   4.160  12.733  0.5502 -0.1024 -0.0281
  900MPD2    C113183   3.598   4.034  12.714 -0.1998  0.5207 -0.1373
  900MPD2    C213184   3.474   4.017  12.655 -0.6755  0.4768 -0.6573
  900MPD2    C313185   3.407   4.125  12.605 -0.0572  0.1824  0.1823
  900MPD2    C413186   3.451   4.252  12.634  0.0685  0.2372  0.1637
  900MPD2    C513187   3.569   4.272  12.707 -0.5251 -0.3860 -0.1364
  900MPD2     H13188   3.431   3.918  12.640  2.2470 -0.6800 -1.4656
  900MPD2    H113189   3.403   4.345  12.607 -0.1910  0.0608  0.0114
  900MPD2    H213190   3.737   4.170  12.789 -0.2241 -3.0720  1.7652
  900MPD2    H313191   3.595   4.372  12.737 -1.5190  0.3527 -1.7374
  900MPD2     N13192   3.285   4.100  12.538 -0.1094 -0.1744 -0.1882
  900MPD2    H513193   3.259   4.002  12.539 -0.8821  0.0164 -1.1285
  900MPD2    N113194   3.673   3.925  12.756  0.0287  1.4104 -0.1942
  900MPD2    H713195   3.774   3.934  12.763  0.0751 -0.9777  2.4085
  901MPD2     C13196   3.514   2.861  12.803  0.0469  0.3879  0.3136
  901MPD2    C113197   3.645   2.868  12.821 -0.1136  0.6821 -0.7141
  901MPD2    C213198   3.709   2.990  12.803  0.2263 -0.0435  0.8232
  901MPD2    C313199   3.635   3.102  12.788  0.6506 -0.1218 -0.5670
  901MPD2    C413200   3.502   3.085  12.753 -0.4521 -0.4645 -0.4913
  901MPD2    C513201   3.439   2.967  12.773 -0.2881  0.4172  0.5576
  901MPD2     H13202   3.814   3.000  12.827 -0.1360  0.3411  2.2301
  901MPD2    H113203   3.431   3.165  12.733 -1.5719 -0.9685  1.4867
  901MPD2    H213204   3.467   2.764  12.811 -0.1316  0.3592 -1.1587
  901MPD2    H313205   3.333   2.965  12.747  0.1147  3.4437 -1.3347
  901MPD2     N13206   3.694   3.223  12.814 -0.3126  0.2382 -0.6351
  901MPD2    H513207   3.788   3.219  12.851 -0.3715  0.7052 -0.4428
  901MPD2    N113208   3.711   2.745  12.831  0.1184 -0.0857  0.3908
  901MPD2    H713209   3.665   2.655  12.840 -2.3067  1.1232  0.1433
  902MPD2     C13210   2.364   1.172  12.759 -0.2969  0.1855  0.3120
  902MPD2    C113211   2.472   1.195  12.848 -0.1377  0.2602  0.1734
  902MPD2    C213212   2.572   1.098  12.857 -0.0963  0.1453  0.4153
  902MPD2    C313213   2.555   0.975  12.781  0.7271 -0.1995 -0.2091
  902MPD2    C413214   2.446   0.960  12.701  0.1993 -0.7475  1.0813
  902MPD2    C513215   2.356   1.059  12.677  0.0541  0.4029  0.5200
  902MPD2     H13216   2.654   1.118  12.925  0.5008  0.5840 -0.4283
  902MPD2    H113217   2.441   0.873  12.636 -0.1919  0.4555 -0.4992
  902MPD2    H213218   2.289   1.249  12.744  1.7646  2.3650  1.3740
  902MPD2    H313219   2.272   1.040  12.611  2.1278 -1.1647 -1.6784
  902MPD2     N13220   2.649   0.867  12.790 -0.0604 -0.5702 -0.3642
  902MPD2    H513221   2.631   0.776  12.747 -0.7381 -0.9094  0.6435
  902MPD2    N113222   2.477   1.330  12.898 -0.1627 -0.3994 -1.0385
  902MPD2    H713223   2.403   1.392  12.866 -1.8199 -1.7273  0.2535
  903MPD2     C13224   2.819   1.124  12.290 -0.1938 -0.6225  0.5868
  903MPD2    C113225   2.751   1.026  12.357 -0.0063 -0.7832  0.6762
  903MPD2    C213226   2.619   1.011  12.337  0.8395 -0.6905  0.1893
  903MPD2    C313227   2.551   1.096  12.258  0.0570 -0.0655 -0.6287
  903MPD2    C413228   2.615   1.196  12.190  0.2227  0.0287 -0.5169
  903MPD2    C513229   2.753   1.207  12.205  0.0252 -0.0985  0.6392
  903MPD2     H13230   2.565   0.939  12.397 -1.1890  0.8872  0.2545
  903MPD2    H113231   2.575   1.252  12.106  1.1723  1.0761 -0.2664
  903MPD2    H213232   2.925   1.126  12.311 -0.2795 -1.5109  1.0625
  903MPD2    H313233   2.803   1.281  12.143 -0.9982 -0.6649 -0.8629
  903MPD2     N13234   2.416   1.067  12.248 -0.3440 -0.2765 -0.4580
  903MPD2    H513235   2.368   1.008  12.316 -0.5851 -0.1577 -0.5220
  903MPD2    N113236   2.807   0.929  12.439  0.0247 -0.3435  0.5590
  903MPD2    H713237   2.746   0.852  12.462  2.0843 -1.5825  1.9426
  904MPD2     C13238   2.471   0.375  14.245 -0.3687  0.1837  0.3533
  904MPD2    C113239   2.465   0.515  14.244 -0.5744 -0.3053  0.1906
  904MPD2    C213240   2.580   0.586  14.273 -0.4962  0.5058  0.3370
  904MPD2    C313241   2.694   0.525  14.314 -0.3092  0.4195 -0.4231
  904MPD2    C413242   2.699   0.387  14.314  0.4984 -0.3272  0.1287
  904MPD2    C513243   2.589   0.312  14.286 -0.2559 -0.0851  0.6354
  904MPD2     H13244   2.575   0.695  14.268 -1.4497  0.5296  1.8141
  904MPD2    H113245   2.785   0.330  14.346  0.0269 -0.2725  1.4600
  904MPD2    H213246   2.387   0.318  14.208 -0.7405  1.2860 -0.4676
  904MPD2    H313247   2.593   0.204  14.295  1.6589 -0.0326  0.3264
  904MPD2     N13248   2.810   0.603  14.347  0.5818  0.7987  1.0568
  904MPD2    H513249   2.793   0.700  14.370  1.3044  1.6565 -2.0124
  904MPD2    N113250   2.356   0.595  14.213  1.0279 -0.1313 -0.3360
  904MPD2    H713251   2.369   0.695  14.216  0.4704 -0.0070 -1.9424
  905MPD2     C13252   2.026   0.413  13.529  0.6456 -0.5587 -0.1059
  905MPD2    C113253   2.130   0.465  13.601  0.0023 -0.1346  0.6799
  905MPD2    C213254   2.256   0.422  13.585 -0.4705  0.1378  0.6040
  905MPD2    C313255   2.281   0.312  13.506 -0.1111  0.6208 -0.2407
  905MPD2    C413256   2.175   0.265  13.429 -0.1583 -0.3476 -0.1291
  905MPD2    C513257   2.053   0.317  13.436  0.1156  0.4938  0.6710
  905MPD2     H13258   2.333   0.474  13.641  0.7907  2.2678 -3.1265
  905MPD2    H113259   2.187   0.177  13.367 -0.6167 -0.5178  0.0310
  905MPD2    H213260   1.926   0.453  13.537  0.9937  0.3474 -0.3567
  905MPD2    H313261   1.985   0.276  13.362  0.7152  2.5317 -1.0044
  905MPD2     N13262   2.399   0.238  13.515 -0.5817 -0.3334 -0.2742
  905MPD2    H513263   2.393   0.145  13.475 -1.4884  0.1912 -1.3597
  905MPD2    N113264   2.095   0.558  13.699  0.1345  0.2088  0.5825
  905MPD2    H713265   2.006   0.543  13.745  0.6274 -0.0723  1.4509
  906MPD2     C13266   4.466   1.226  11.493 -0.1459 -0.4216  0.3680
  906MPD2    C113267   4.503   1.113  11.429  0.2689  0.1568  0.1386
  906MPD2    C213268   4.477   0.986  11.476  0.4710 -0.1856 -0.7176
  906MPD2    C313269   4.406   0.972  11.594 -0.2363  0.0525 -0.2376
  906MPD2    C413270   4.355   1.090  11.653 -0.0004 -0.5155  0.3709
  906MPD2    C513271   4.390   1.213  11.602  1.4394  0.1403  0.4820
  906MPD2     H13272   4.503   0.904  11.410 -1.1162 -1.1295 -0.1679
  906MPD2    H113273   4.294   1.093  11.742 -2.2280 -4.3803 -0.9985
  906MPD2    H213274   4.484   1.326  11.456  0.9168 -0.8437 -0.2683
  906MPD2    H313275   4.344   1.300  11.648 -0.7054 -0.3996 -0.6644
  906MPD2     N13276   4.363   0.845  11.652 -0.7171 -0.3213  0.1451
  906MPD2    H513277   4.282   0.844  11.712  0.1352  0.6108  1.3272
  906MPD2    N113278   4.569   1.123  11.304 -0.0912 -0.0185 -0.6383
  906MPD2    H713279   4.579   1.034  11.255 -0.5396 -0.7259  0.5473
  907MPD2     C13280   2.626   4.570  15.523 -0.8993  0.2528  0.1957
  907MPD2    C113281   2.712   4.461  15.537  0.6308 -0.2128 -0.8255
  907MPD2    C213282   2.773   4.439  15.659  0.0587  0.1519 -0.3185
  907MPD2    C313283   2.760   4.526  15.766  0.8664 -0.0204 -0.1237
  907MPD2    C413284   2.679   4.635  15.753 -0.2948  0.2722  0.1692
  907MPD2    C513285   2.615   4.657  15.630 -0.5051 -0.7260 -0.5475
  907MPD2     H13286   2.831   4.348  15.666 -1.1393 -0.6591 -0.8936
  907MPD2    H113287   2.670   4.715  15.826 -1.7518 -0.8223  1.1820
  907MPD2    H213288   2.591   4.593  15.423  1.4344 -1.1398 -0.9383
  907MPD2    H313289   2.574   0.033  15.609 -1.1415 -1.3126 -2.0429
  907MPD2     N13290   2.828   4.484  15.887 -0.1551  0.3544  0.0141
  907MPD2    H513291   2.871   4.393  15.874 -1.4027  0.2208 -2.9749
  907MPD2    N113292   2.738   4.363  15.436 -0.0620  0.1611  0.1846
  907MPD2    H713293   2.800   4.289  15.465  0.9652  1.0118  0.1637
  908MPD2     C13294   1.985   0.619   9.855 -0.1896  0.1405  0.7929
  908MPD2    C113295   1.862   0.653   9.888 -0.1828  0.1198  0.3120
  908MPD2    C213296   1.833   0.762   9.976  0.5011 -0.6320 -0.0286
  908MPD2    C313297   1.943   0.808  10.042  0.0722  0.7788  0.5588
  908MPD2    C413298   2.075   0.774  10.008 -0.2526  0.2199 -0.2532
  908MPD2    C513299   2.091   0.684   9.910 -0.3125 -0.5487 -0.0387
  908MPD2     H13300   1.729   0.787   9.993  0.2343 -1.2572 -0.7575
  908MPD2    H113301   2.163   0.812  10.057  0.7674 -1.2478 -0.9666
  908MPD2    H213302   2.009   0.551   9.774 -0.0739  0.6836  0.3662
  908MPD2    H313303   2.191   0.652   9.884 -0.2144 -0.7070  0.5289
  908MPD2     N13304   1.917   0.896  10.146 -0.0319 -1.2566 -0.3277
  908MPD2    H513305   1.820   0.905  10.174  0.8328  1.3717  1.8041
  908MPD2    N113306   1.752   0.573   9.839 -0.3940  0.1473 -0.1240
  908MPD2    H713307   1.661   0.599   9.876 -1.0715 -1.2416 -0.8059
  909MPD2     C13308   1.404   3.201  12.021  0.1093 -0.5922  0.4503
  909MPD2    C113309   1.410   3.301  11.922  0.2370 -0.0400 -0.1905
  909MPD2    C213310   1.320   3.407  11.929 -0.7197  0.6092  0.6682
  909MPD2    C313311   1.224   3.409  12.036  0.3668  0.0275  0.1959
  909MPD2    C413312   1.215   3.302  12.116  0.3439 -0.5699 -0.6706
  909MPD2    C513313   1.306   3.205  12.115  0.6401  0.0402  0.1093
  909MPD2     H13314   1.340   3.491  11.864 -1.3686  0.1145 -0.1746
  909MPD2    H113315   1.137   3.292  12.191 -1.2592  0.6636 -2.1870
  909MPD2    H213316   1.472   3.116  12.024 -0.9619 -1.4169  1.1853
  909MPD2    H313317   1.303   3.130  12.193  0.1143  0.7482  0.7696
  909MPD2     N13318   1.137   3.528  12.053  0.4933 -0.7199 -0.0992
  909MPD2    H513319   1.154   3.597  11.981 -1.6666  1.4625  1.4801
  909MPD2    N113320   1.512   3.308  11.826 -0.4174 -0.0873  0.4848
  909MPD2    H713321   1.509   3.394  11.774 -0.6488  0.3351  1.1997
  910MPD2     C13322   2.281   0.272  15.883 -0.1222 -0.1701 -0.3113
  910MPD2    C113323   2.409   0.233  15.875 -0.6658 -0.2908  0.4308
  910MPD2    C213324   2.490   0.250  15.759  0.1229 -0.0741 -0.5893
  910MPD2    C313325   2.422   0.296  15.644 -0.2556  0.0898  0.1329
  910MPD2    C413326   2.290   0.335  15.659  0.0671  0.2296 -0.3801
  910MPD2    C513327   2.226   0.336  15.776 -0.2502 -0.9299  0.3673
  910MPD2     H13328   2.597   0.235  15.760 -0.0342 -1.1789 -0.3108
  910MPD2    H113329   2.225   0.375  15.582 -0.9527  0.1258  0.4353
  910MPD2    H213330   2.233   0.267  15.980 -0.7954  0.7263 -0.5944
  910MPD2    H313331   2.136   0.396  15.784  0.3520 -0.1608  1.3208
  910MPD2     N13332   2.471   0.289  15.513  0.7727  0.1223 -0.1818
  910MPD2    H513333   2.406   0.296  15.436 -1.0862  0.1985  1.3755
  910MPD2    N113334   2.480   0.172  15.978 -0.0533  0.0717  0.0680
  910MPD2    H713335   2.579   0.153  15.973  0.4007  2.1160  1.1134
  911MPD2     C13336   0.272   0.857  15.915 -0.4494  0.4672  0.2829
  911MPD2    C113337   0.302   0.919  16.030  0.6301  0.2149 -0.0765
  911MPD2    C213338   0.201   0.996  16.089 -0.3219  0.1783 -0.0009
  911MPD2    C313339   0.075   1.000  16.040 -0.4661 -0.0521  0.4301
  911MPD2    C413340   0.048   0.929  15.919  0.5262 -0.2954 -0.5353
  911MPD2    C513341   0.150   0.858  15.860  0.4803 -0.5024  0.0643
  911MPD2     H13342   0.217   1.049  16.182  1.4462 -0.5388  0.1171
  911MPD2    H113343   4.673   0.925  15.871  0.5545  0.7991 -0.6854
  911MPD2    H213344   0.348   0.796  15.867 -1.9003 -1.3182  0.2480
  911MPD2    H313345   0.128   0.804  15.770 -1.1485 -2.6992  1.7871
  911MPD2     N13346   4.692   1.045  16.122 -0.0583  0.1212  0.3143
  911MPD2    H513347   4.601   1.007  16.101  1.9389 -2.7166 -3.1944
  911MPD2    N113348   0.423   0.891  16.091  0.0797 -0.2303 -1.1060
  911MPD2    H713349   0.484   0.833  16.035 -0.8754 -0.9249 -1.4280
  912MPD2     C13350   4.385   0.872  15.844  0.2507 -0.5921 -0.8094
  912MPD2    C113351   4.409   0.827  15.974  0.1626  0.0284 -0.3562
  912MPD2    C213352   4.495   0.719  15.996 -0.3012  0.1984 -0.3691
  912MPD2    C313353   4.561   0.669  15.889 -0.5092 -0.2480  0.2747
  912MPD2    C413354   4.537   0.718  15.764 -0.3856 -0.6624  0.1194
  912MPD2    C513355   4.447   0.817  15.745  0.0934  0.1374 -0.4285
  912MPD2     H13356   4.528   0.703  16.098  0.2631  1.2877 -0.3828
  912MPD2    H113357   4.592   0.687  15.677 -0.6252  0.9761 -0.6065
  912MPD2    H213358   4.318   0.956  15.829  2.4632  1.1697 -0.9512
  912MPD2    H313359   4.439   0.856  15.644 -2.2092  1.9948  0.4545
  912MPD2     N13360   4.661   0.584  15.926  0.3286 -1.1442 -0.3156
  912MPD2    H513361   4.668   0.553  16.022 -2.1449  0.3038  0.3231
  912MPD2    N113362   4.348   0.906  16.071 -0.0080 -0.1783  0.6069
  912MPD2    H713363   4.319   1.000  16.044 -0.4427  0.1513  2.1990
  913MPD2     C13364   0.616   2.776  10.087  0.5100  0.8511  0.6896
  913MPD2    C113365   0.720   2.734  10.169 -0.5682  0.1138 -0.4529
  913MPD2    C213366   0.835   2.811  10.175 -0.5267  0.0007  0.5149
  913MPD2    C313367   0.838   2.918  10.096  0.4508  0.5345 -0.0261
  913MPD2    C413368   0.733   2.960  10.021  0.2676 -0.2176 -0.2511
  913MPD2    C513369   0.617   2.891  10.020 -0.1497  0.0396  0.2162
  913MPD2     H13370   0.931   2.789  10.220  0.1566 -1.8839 -1.8718
  913MPD2    H113371   0.735   3.053   9.966  2.0075 -0.7798 -1.1426
  913MPD2    H213372   0.521   2.726  10.076  1.5369 -1.0627  0.5294
  913MPD2    H313373   0.527   2.917   9.965  0.5720  0.2555 -0.8485
  913MPD2     N13374   0.952   2.994  10.076 -0.0696  0.2935 -0.0395
  913MPD2    H513375   0.955   3.054   9.994  1.1464 -0.4697 -0.5600
  913MPD2    N113376   0.700   2.619  10.250  0.3498 -0.5279  0.5433
  913MPD2    H713377   0.603   2.591  10.259 -0.0954  0.8159 -0.1210
  914MPD2     C13378   3.337   2.508  12.207 -0.1080  0.2552  1.2344
  914MPD2    C113379   3.393   2.622  12.263  0.0019  0.0637 -0.6240
  914MPD2    C213380   3.496   2.610  12.360  0.5809 -0.3484 -0.3486
  914MPD2    C313381   3.554   2.491  12.384 -0.0399  0.1349 -0.0811
  914MPD2    C413382   3.509   2.382  12.313  0.4454  0.5578  0.0169
  914MPD2    C513383   3.404   2.389  12.227 -0.4451 -0.0700  0.2888
  914MPD2     H13384   3.528   2.693  12.423  2.5934 -0.2204 -1.5164
  914MPD2    H113385   3.549   2.282  12.326 -2.5512 -0.1746  3.7593
  914MPD2    H213386   3.252   2.505  12.140  1.3819 -0.6050 -0.6288
  914MPD2    H313387   3.369   2.298  12.179 -0.7447  0.0583  0.2646
  914MPD2     N13388   3.660   2.490  12.483 -0.8028 -0.0258  0.4145
  914MPD2    H513389   3.688   2.580  12.520 -0.1577 -0.3861  0.7978
  914MPD2    N113390   3.328   2.746  12.235 -0.0180  0.3389  0.1982
  914MPD2    H713391   3.238   2.742  12.188  0.0715  0.0263  0.0529
  915MPD2     C13392   1.709   2.310  15.417 -0.5225 -0.0064  0.3395
  915MPD2    C113393   1.604   2.230  15.462  0.0990 -0.3090 -0.5852
  915MPD2    C213394   1.545   2.244  15.587 -0.2494 -0.2306  0.1736
  915MPD2    C313395   1.601   2.334  15.677  0.1125  0.5490 -0.2392
  915MPD2    C413396   1.711   2.412  15.635  0.0538 -0.5243 -0.0479
  915MPD2    C513397   1.765   2.395  15.509  0.0056 -0.2707  0.1130
  915MPD2     H13398   1.459   2.187  15.622 -0.6511  1.9932  2.7882
  915MPD2    H113399   1.762   2.483  15.699  0.5078 -0.1903 -0.7841
  915MPD2    H213400   1.753   2.296  15.319 -1.2174 -0.8032  0.1382
  915MPD2    H313401   1.851   2.459  15.490  0.9814 -1.6103  0.0273
  915MPD2     N13402   1.537   2.332  15.804  0.3523  0.9183  0.6066
  915MPD2    H513403   1.461   2.265  15.811 -1.1645  2.4956 -0.8653
  915MPD2    N113404   1.560   2.129  15.374 -0.3973 -0.1514  0.0433
  915MPD2    H713405   1.613   2.118  15.288 -0.4577 -0.3118  0.0271
  916MPD2     C13406   4.268   0.500  15.728  0.0978  0.3986 -0.5234
  916MPD2    C113407   4.312   0.438  15.844 -0.1362  0.0460  0.4738
  916MPD2    C213408   4.421   0.354  15.832  0.1314 -0.3518 -0.6561
  916MPD2    C313409   4.473   0.317  15.708 -0.1992 -0.3881  0.2520
  916MPD2    C413410   4.421   0.382  15.599  1.1649 -0.8173  0.5387
  916MPD2    C513411   4.321   0.472  15.607  0.3409  0.5150 -0.3770
  916MPD2     H13412   4.460   0.301  15.918 -0.7280  1.6707  0.9975
  916MPD2    H113413   4.439   0.347  15.498 -2.4589 -0.0028 -0.3991
  916MPD2    H213414   4.185   0.570  15.730  0.4110  0.7260  1.2570
  916MPD2    H313415   4.272   0.503  15.515  1.7916  0.8987 -1.0220
  916MPD2     N13416   4.563   0.206  15.701 -0.0212  0.1160 -0.3527
  916MPD2    H513417   4.576   0.145  15.781 -2.8972 -0.0901 -0.0387
  916MPD2    N113418   4.240   0.462  15.962 -0.1988 -0.2947 -0.4038
  916MPD2    H713419   4.150   0.507  15.951 -0.6309 -0.9155  0.5815
  917MPD2     C13420   0.025   3.036  10.865  0.8381 -0.2340 -0.1765
  917MPD2    C113421   0.012   3.100  10.985  0.1166 -0.8792 -0.6347
  917MPD2    C213422   0.061   3.222  11.002  0.2686 -0.1795  0.0712
  917MPD2    C313423   0.113   3.293  10.895 -0.4039  0.1280  0.2317
  917MPD2    C413424   0.118   3.231  10.765  1.0741  0.3809  0.1294
  917MPD2    C513425   0.067   3.108  10.752  0.0179  0.0682 -0.8664
  917MPD2     H13426   0.055   3.266  11.101  1.1092 -0.6359  0.3246
  917MPD2    H113427   0.145   3.287  10.676 -2.2100  0.5137 -0.7732
  917MPD2    H213428   4.698   2.940  10.862 -1.9068  1.1454 -0.3766
  917MPD2    H313429   0.052   3.075  10.650 -0.6210  0.4450 -0.8932
  917MPD2     N13430   0.141   3.433  10.904  0.2455 -0.5823 -0.0363
  917MPD2    H513431   0.187   3.472  10.823 -2.8899  0.0724 -1.4970
  917MPD2    N113432   4.659   3.037  11.091 -0.3511  0.4454  0.6736
  917MPD2    H713433   4.578   2.979  11.074  1.1047 -1.2188 -0.5864
  918MPD2     C13434   4.678   3.295  12.095  0.4384  1.1391  0.3175
  918MPD2    C113435   0.066   3.248  12.026 -0.1095  0.6022  0.3844
  918MPD2    C213436   0.062   3.210  11.897  0.0311 -0.1504  0.9332
  918MPD2    C313437   4.659   3.198  11.838  0.2914 -0.1585  0.0512
  918MPD2    C413438   4.549   3.250  11.903  0.7529 -0.5614 -0.5248
  918MPD2    C513439   4.550   3.301  12.037  0.5350 -0.0129 -0.1748
  918MPD2     H13440   0.150   3.164  11.854 -2.1473 -2.1854 -1.3188
  918MPD2    H113441   4.454   3.240  11.851  0.7387 -1.0282 -0.4069
  918MPD2    H213442   4.676   3.329  12.198  0.7741  0.3107  0.5971
  918MPD2    H313443   4.466   3.347  12.088 -1.0822 -0.9129 -2.0122
  918MPD2     N13444   4.647   3.117  11.724 -0.3496  0.0519 -0.0038
  918MPD2    H513445   0.013   3.098  11.677  0.1844 -0.5608  1.2331
  918MPD2    N113446   0.192   3.238  12.081  0.4158 -0.3874  0.1087
  918MPD2    H713447   0.257   3.191  12.019  2.3891 -0.0459  1.9325
  919MPD2     C13448   0.899   2.298  11.826  0.0502  0.4513 -0.2038
  919MPD2    C113449   0.874   2.164  11.799 -0.7897  0.9345  0.5018
  919MPD2    C213450   0.847   2.123  11.670 -0.4497 -0.0061 -0.3691
  919MPD2    C313451   0.844   2.212  11.568  0.2740  0.4519 -0.2915
  919MPD2    C413452   0.884   2.346  11.597  0.1831  0.5552 -0.4264
  919MPD2    C513453   0.912   2.387  11.726  0.2020  0.4094  0.7646
  919MPD2     H13454   0.819   2.021  11.650  1.2118 -0.1880 -1.7934
  919MPD2    H113455   0.895   2.424  11.522  0.7238  1.2425  0.3769
  919MPD2    H213456   0.923   2.341  11.922 -1.9174 -0.3367  0.6369
  919MPD2    H313457   0.928   2.494  11.740  3.3971  0.1836 -1.1403
  919MPD2     N13458   0.815   2.178  11.433 -0.3090 -0.0726  0.0865
  919MPD2    H513459   0.820   2.249  11.361  0.2523 -1.4813 -1.2844
  919MPD2    N113460   0.868   2.071  11.900  0.2819  0.1738  0.0669
  919MPD2    H713461   0.849   1.974  11.877  1.5160  0.0948 -0.6665
  920MPD2     C13462   0.349   2.479  10.609  0.2899 -1.1688  0.7225
  920MPD2    C113463   0.270   2.373  10.635  0.4838  0.0069  0.8817
  920MPD2    C213464   0.315   2.289  10.735  0.4192 -0.3285  0.5114
  920MPD2    C313465   0.420   2.327  10.821  0.3880 -0.4159 -0.7843
  920MPD2    C413466   0.492   2.442  10.801 -0.5080 -0.1233  0.2878
  920MPD2    C513467   0.451   2.519  10.697  0.8087 -0.1884  0.3293
  920MPD2     H13468   0.262   2.197  10.756  0.8588 -0.9536 -1.1318
  920MPD2    H113469   0.578   2.472  10.859 -1.2828  1.3196  0.6923
  920MPD2    H213470   0.324   2.556  10.537  1.4600 -0.1947  1.3541
  920MPD2    H313471   0.498   2.613  10.671 -0.7235  0.3798 -0.4243
  920MPD2     N13472   0.445   2.244  10.931  0.1610  0.6489  0.0531
  920MPD2    H513473   0.397   2.155  10.931  1.1966  0.0836  0.0019
  920MPD2    N113474   0.164   2.325  10.548  0.7327  0.1406  0.0556
  920MPD2    H713475   0.114   2.243  10.581 -1.3944  0.9243 -1.2934
  921MPD2     C13476   1.099   1.367  16.644  0.1763 -0.5252  0.4603
  921MPD2    C113477   1.144   1.239  16.615 -0.1721  0.2290 -0.0894
  921MPD2    C213478   1.055   1.142  16.591  0.3955 -0.0122  0.3425
  921MPD2    C313479   0.920   1.160  16.600  0.2796  0.4532  0.2306
  921MPD2    C413480   0.876   1.286  16.635  0.0141 -0.4428 -0.8345
  921MPD2    C513481   0.964   1.385  16.659  0.4072  0.8209 -0.3601
  921MPD2     H13482   1.095   1.043  16.574 -2.6406 -1.0617 -0.5706
  921MPD2    H113483   0.774   1.322  16.625  0.7266  1.9229  0.5927
  921MPD2    H213484   1.168   1.449  16.660  0.8466 -0.8319 -0.8278
  921MPD2    H313485   0.922   1.484  16.652 -2.2858 -0.1347  2.5642
  921MPD2     N13486   0.823   1.064  16.565 -0.4117 -0.8488  0.4783
  921MPD2    H513487   0.727   1.095  16.567  0.0057  0.5367 -0.3767
  921MPD2    N113488   1.281   1.227  16.594  0.3604  0.0233 -0.6788
  921MPD2    H713489   1.331   1.314  16.582  1.6211 -0.5316  0.5704
  922MPD2     C13490   2.175   3.302  16.853  0.0458  0.6601  0.0250
  922MPD2    C113491   2.143   3.426  16.911  0.1710 -0.4430 -0.6101
  922MPD2    C213492   2.047   3.436  17.007  0.0652 -0.2482 -0.2463
  922MPD2    C313493   1.973   3.319  17.042 -0.2495  0.5788  0.5656
  922MPD2    C413494   2.003   3.203  16.981 -0.2712 -0.1794  0.4394
  922MPD2    C513495   2.104   3.192  16.885  1.2123  0.8272  1.2924
  922MPD2     H13496   2.035   3.528  17.063  1.8272  0.3867 -0.9243
  922MPD2    H113497   1.954   3.108  16.999 -1.2396 -0.2347 -2.3841
  922MPD2    H213498   2.247   3.296  16.772 -1.1259  0.6507 -1.0138
  922MPD2    H313499   2.137   3.096  16.847 -2.5115  0.2942 -0.5684
  922MPD2     N13500   1.880   3.328  17.146  0.1530 -0.5181 -0.0353
  922MPD2    H513501   1.859   3.412  17.199  0.1924 -3.5909  4.7563
  922MPD2    N113502   2.208   3.546  16.886  0.0316  0.4797 -0.4623
  922MPD2    H713503   2.207   3.620  16.955  1.0305  1.1298 -1.1427
  923MPD2     C13504   3.923   1.156   8.897  0.0364  0.6815 -0.1725
  923MPD2    C113505   3.884   1.259   8.981  0.5584  0.4603  0.1536
  923MPD2    C213506   3.942   1.262   9.102  0.2060  0.3805 -0.1428
  923MPD2    C313507   4.050   1.181   9.137 -0.1090  0.0265  0.0763
  923MPD2    C413508   4.078   1.074   9.054  0.6108 -0.7903  0.6689
  923MPD2    C513509   4.014   1.068   8.935  0.6212 -0.0328  1.0057
  923MPD2     H13510   3.905   1.343   9.164  0.9774 -0.2537  1.1628
  923MPD2    H113511   4.156   1.001   9.075 -0.5946 -2.3849 -0.3904
  923MPD2    H213512   3.881   1.128   8.801 -1.0294 -0.1734  0.5621
  923MPD2    H313513   4.039   0.987   8.867 -1.7023 -0.0740  0.2099
  923MPD2     N13514   4.129   1.187   9.256 -0.7752  0.4515  0.2993
  923MPD2    H513515   4.202   1.118   9.271 -0.2577  1.1564  1.0355
  923MPD2    N113516   3.788   1.357   8.942 -0.4657  0.4950  0.2283
  923MPD2    H713517   3.752   1.418   9.015  0.8983 -1.8861  2.9072
  924MPD2     C13518   3.156   3.783  16.384  0.5912 -0.4903  0.3567
  924MPD2    C113519   3.162   3.903  16.461  0.6914  0.2087 -0.0303
  924MPD2    C213520   3.139   4.022  16.392 -0.7713  0.1604 -0.8639
  924MPD2    C313521   3.108   4.021  16.256  0.1240  0.0406 -0.1936
  924MPD2    C413522   3.085   3.903  16.194 -0.5206 -0.2700 -0.6879
  924MPD2    C513523   3.111   3.785  16.258 -0.1820  0.5764  0.0569
  924MPD2     H13524   3.153   4.118  16.440  0.2496 -0.5217  0.2009
  924MPD2    H113525   3.065   3.901  16.088 -0.1217  2.3830 -0.8170
  924MPD2    H213526   3.186   3.689  16.430 -0.9827 -0.7642  0.7918
  924MPD2    H313527   3.119   3.693  16.200 -0.1439  1.4616 -1.3386
  924MPD2     N13528   3.100   4.136  16.178 -0.7640 -0.1347  0.0922
  924MPD2    H513529   3.053   4.123  16.089 -1.1780  1.4856  0.0621
  924MPD2    N113530   3.188   3.899  16.597  0.5383 -0.3407  0.2195
  924MPD2    H713531   3.178   3.807  16.639  1.1460 -0.3750  0.2880
  925MPD2     C13532   2.159   1.516  15.136  0.3587  0.4734 -0.1672
  925MPD2    C113533   2.055   1.523  15.040 -0.0524 -0.3931  0.2896
  925MPD2    C213534   1.927   1.518  15.088 -0.0551  1.0508  0.2269
  925MPD2    C313535   1.899   1.504  15.225  0.0722  0.9084  0.2702
  925MPD2    C413536   2.005   1.486  15.307 -0.4922  0.2710  0.4808
  925MPD2    C513537   2.128   1.495  15.265  0.0698 -0.4062 -0.4401
  925MPD2     H13538   1.843   1.517  15.020  1.0563  2.2785 -1.1678
  925MPD2    H113539   1.983   1.472  15.412  0.5979 -1.5094  0.4529
  925MPD2    H213540   2.264   1.513  15.108 -0.0114  2.3676 -1.7211
  925MPD2    H313541   2.212   1.478  15.331  0.6060 -0.0232 -1.0271
  925MPD2     N13542   1.773   1.474  15.274 -0.4145  0.5212  0.5867
  925MPD2    H513543   1.760   1.463  15.374  0.3942  0.5906  0.7000
  925MPD2    N113544   2.078   1.535  14.899 -0.5895 -0.4579 -0.0040
  925MPD2    H713545   1.991   1.544  14.848 -0.3663 -0.1180 -0.3335
  926MPD2     C13546   0.704   4.631  13.224  1.0715  0.1674  0.0888
  926MPD2    C113547   0.717   0.029  13.286 -0.3287  0.6098  0.0618
  926MPD2    C213548   0.798   0.123  13.236  0.4515 -0.6996 -0.4086
  926MPD2    C313549   0.864   0.092  13.117  0.3860  0.4475  0.4430
  926MPD2    C413550   0.852   4.689  13.056  0.3347  0.0551  0.0984
  926MPD2    C513551   0.771   4.602  13.109  0.7787  0.0615 -0.4315
  926MPD2     H13552   0.817   0.220  13.280  0.7548 -1.2612  0.6938
  926MPD2    H113553   0.890   4.655  12.961  0.7126  0.1119  0.2303
  926MPD2    H213554   0.637   4.552  13.256 -1.3062  2.4739  0.7965
  926MPD2    H313555   0.755   4.508  13.057  0.1468 -0.1596  0.1648
  926MPD2     N13556   0.951   0.188  13.048 -0.4780 -0.4189 -0.2148
  926MPD2    H513557   1.003   0.156  12.967 -1.5796 -1.5540 -0.4693
  926MPD2    N113558   0.641   0.059  13.398  0.2365  0.2909 -0.0727
  926MPD2    H713559   0.666   0.153  13.430  1.0322  0.2068 -0.4438
  927MPD2     C13560   0.954   2.849   0.423  0.1153 -0.5526  0.2419
  927MPD2    C113561   0.830   2.865   0.354 -0.3345 -0.3344 -0.2667
  927MPD2    C213562   0.797   2.762   0.271  0.4604  0.1653 -0.4050
  927MPD2    C313563   0.870   2.643   0.267 -0.2103 -0.0074  0.1814
  927MPD2    C413564   0.995   2.634   0.328  0.5421  0.5944  0.1826
  927MPD2    C513565   1.041   2.743   0.398 -0.5107  0.4776 -0.2914
  927MPD2     H13566   0.718   2.774   0.197  1.1734 -0.2190 -1.2302
  927MPD2    H113567   1.057   2.547   0.306 -0.8558 -1.0547  2.7722
  927MPD2    H213568   0.984   2.936   0.479 -0.4775  0.6346 -1.2715
  927MPD2    H313569   1.142   2.750   0.436 -0.0909 -0.8072 -1.1566
  927MPD2     N13570   0.809   2.536   0.192  0.1032  0.0382  0.6618
  927MPD2    H513571   0.727   2.557   0.137  1.3751 -1.3896 -1.8192
  927MPD2    N113572   0.751   2.981   0.372 -0.3146  0.1131  0.0209
  927MPD2    H713573   0.776   3.046   0.446  0.0402 -1.1871  1.0294
  928MPD2     C13574   3.074   0.220   0.763  0.4789  0.3850 -0.5745
  928MPD2    C113575   3.176   0.299   0.816  0.1596  0.0462 -0.0377
  928MPD2    C213576   3.270   0.357   0.731 -0.1118  0.1942  0.0236
  928MPD2    C313577   3.260   0.346   0.595 -0.6219  0.0331  0.1650
  928MPD2    C413578   3.161   0.266   0.540 -0.3340 -0.2142  0.3769
  928MPD2    C513579   3.071   0.206   0.629 -0.2273  0.4654 -0.1144
  928MPD2     H13580   3.353   0.414   0.771 -0.8511  0.6988  0.8322
  928MPD2    H113581   3.161   0.262   0.432 -0.7111  0.4073  0.3522
  928MPD2    H213582   3.004   0.167   0.826  0.2713 -0.3626 -1.4375
  928MPD2    H313583   2.987   0.160   0.579  1.0060  0.5013 -2.2070
  928MPD2     N13584   3.352   0.408   0.499 -0.0900  0.2160 -0.7191
  928MPD2    H513585   3.346   0.381   0.401 -0.0795 -3.8082  0.3888
  928MPD2    N113586   3.189   0.319   0.959 -0.3655 -0.5443  0.1112
  928MPD2    H713587   3.114   0.280   1.015  0.7820  0.7075  2.5041
  929MPD2     C13588   4.021   0.988  10.185  0.4581  0.1081  0.2004
  929MPD2    C113589   3.910   0.930  10.132 -0.4423 -0.2937 -0.1641
  929MPD2    C213590   3.833   1.003  10.047 -0.3360 -0.6549 -0.7570
  929MPD2    C313591   3.869   1.132  10.025 -0.1767 -0.1878  0.0641
  929MPD2    C413592   3.977   1.190  10.075  0.0672 -0.1680  0.8468
  929MPD2    C513593   4.054   1.120  10.160  0.7249  0.8149  0.1082
  929MPD2     H13594   3.745   0.961  10.000 -0.2328 -0.0818 -1.4629
  929MPD2    H113595   4.007   1.293  10.059 -0.0136 -0.1275  0.9531
  929MPD2    H213596   4.065   0.933  10.268  0.0883  1.7414  1.4622
  929MPD2    H313597   4.129   1.171  10.218  1.2741 -0.0033  0.1273
  929MPD2     N13598   3.780   1.215   9.946  0.0287 -0.4328 -0.0010
  929MPD2    H513599   3.694   1.175   9.909 -0.1737 -1.3308  1.4648
  929MPD2    N113600   3.886   0.793  10.164 -0.0620 -0.8645 -0.3835
  929MPD2    H713601   3.950   0.755  10.233  0.8463  1.2296 -0.0714
  930MPD2     C13602   0.617   2.741  14.172  0.0454 -0.1964  0.1647
  930MPD2    C113603   0.653   2.839  14.091 -0.0422  0.6102 -0.1358
  930MPD2    C213604   0.615   2.830  13.962 -0.1077 -0.6992 -0.1119
  930MPD2    C313605   0.539   2.730  13.909  0.0896  0.0328  0.0753
  930MPD2    C413606   0.499   2.632  14.001  0.2954  0.2466 -0.9922
  930MPD2    C513607   0.534   2.636  14.130 -0.0978  0.5922  0.4983
  930MPD2     H13608   0.658   2.900  13.892 -2.6420 -0.8117 -1.8122
  930MPD2    H113609   0.433   2.552  13.966 -0.3515  0.0244  0.7287
  930MPD2    H213610   0.649   2.747  14.275 -0.1561 -0.4603  0.2414
  930MPD2    H313611   0.499   2.552  14.190  1.0528  0.0162  0.3677
  930MPD2     N13612   0.482   2.738  13.781  0.0146  0.4163 -0.0917
  930MPD2    H513613   0.431   2.657  13.748 -0.9596  1.2447 -0.6063
  930MPD2    N113614   0.729   2.942  14.145  0.2393  0.0913 -0.7225
  930MPD2    H713615   0.755   2.930  14.242  0.7749 -1.0492 -1.0166
  931MPD2     C13616   0.062   3.198   0.804  0.0811  0.8526  0.1246
  931MPD2    C113617   0.114   3.120   0.699 -0.5871 -0.6941  0.1976
  931MPD2    C213618   0.109   2.977   0.721  0.2580 -0.0062  0.1130
  931MPD2    C313619   0.054   2.922   0.838  0.6279 -0.4459 -0.0460
  931MPD2    C413620   4.712   3.006   0.926  0.4069 -0.0472 -0.4014
  931MPD2    C513621   4.717   3.146   0.911 -0.3634  0.2267 -0.9562
  931MPD2     H13622   0.131   2.908   0.641  3.1150  0.0472  0.8619
  931MPD2    H113623   4.662   2.970   1.016  1.5734  1.8352  1.0024
  931MPD2    H213624   0.062   3.306   0.798 -1.6456  0.9092  1.0829
  931MPD2    H313625   4.663   3.214   0.977  0.3289  0.3255 -0.4849
  931MPD2     N13626   0.057   2.783   0.870  0.0491  0.1945 -0.3297
  931MPD2    H513627   0.005   2.746   0.949 -1.9276  0.9657 -1.2760
  931MPD2    N113628   0.182   3.186   0.595 -0.0172 -0.1992 -0.6364
  931MPD2    H713629   0.199   3.285   0.612  1.5840 -0.1715 -2.4279
  932MPD2     C13630   2.025   1.240  11.522 -0.2331 -0.0910  0.3313
  932MPD2    C113631   2.156   1.255  11.480  0.4737 -0.0124  0.7225
  932MPD2    C213632   2.248   1.149  11.494  0.1835 -0.0160 -0.0278
  932MPD2    C313633   2.209   1.041  11.564  1.1238  0.1521  0.5618
  932MPD2    C413634   2.089   1.038  11.626  0.2088  0.1509  0.0446
  932MPD2    C513635   1.998   1.134  11.598  0.5317  0.1441 -0.4124
  932MPD2     H13636   2.346   1.160  11.449  0.4547  2.4857  1.1759
  932MPD2    H113637   2.051   0.952  11.681  0.9640 -1.1029 -1.4215
  932MPD2    H213638   1.945   1.309  11.495 -0.2822 -0.6794 -1.0203
  932MPD2    H313639   1.899   1.118  11.639  0.6697 -0.3086 -0.2601
  932MPD2     N13640   2.295   0.925  11.588  0.1807  0.0135 -0.0313
  932MPD2    H513641   2.265   0.852  11.652 -2.8693  0.5051 -0.8903
  932MPD2    N113642   2.201   1.375  11.426 -0.7195 -0.5953  0.6556
  932MPD2    H713643   2.301   1.390  11.425 -0.7113 -0.5850  1.5481
  933MPD2     C13644   2.706   0.516   1.246  0.2067  0.5492  0.2701
  933MPD2    C113645   2.804   0.525   1.332 -0.1810  0.2069  0.1410
  933MPD2    C213646   2.782   0.614   1.434  0.2173 -0.1311  0.0926
  933MPD2    C313647   2.662   0.680   1.460  0.4529  0.4324  0.3097
  933MPD2    C413648   2.556   0.647   1.380  1.2386  0.4436  0.2287
  933MPD2    C513649   2.577   0.570   1.266  0.1653 -0.1338  0.4834
  933MPD2     H13650   2.858   0.636   1.508 -0.2239  0.8846  0.2335
  933MPD2    H113651   2.458   0.693   1.374  2.2955  2.7856  0.7102
  933MPD2    H213652   2.705   0.445   1.164 -1.0688  0.0383  0.7277
  933MPD2    H313653   2.500   0.542   1.195  0.1226 -0.1712  0.5436
  933MPD2     N13654   2.655   0.767   1.566  0.6292 -0.5912 -0.4397
  933MPD2    H513655   2.739   0.787   1.619  0.4588 -1.5632  0.1959
  933MPD2    N113656   2.928   0.451   1.326  0.3803  0.1549 -0.1842
  933MPD2    H713657   2.939   0.402   1.237  1.4709  0.0498  0.0003
  934MPD2     C13658   3.210   3.527   1.824  0.2914 -0.1535  0.0992
  934MPD2    C113659   3.315   3.433   1.811 -0.9786  0.0738  0.9422
  934MPD2    C213660   3.282   3.307   1.768 -1.0166 -0.3575  0.5673
  934MPD2    C313661   3.146   3.272   1.739 -1.0512  0.6455 -0.5883
  934MPD2    C413662   3.043   3.363   1.758  0.2349  0.0756  0.5744
  934MPD2    C513663   3.078   3.494   1.795 -0.5920  0.3831  0.5711
  934MPD2     H13664   3.351   3.223   1.765  0.4646  0.9526 -2.7718
  934MPD2    H113665   2.940   3.331   1.746 -0.0607  1.4663 -0.6641
  934MPD2    H213666   3.225   3.629   1.857 -3.0801  0.0685  0.9774
  934MPD2    H313667   3.003   3.572   1.804 -1.1315  0.0521 -1.0537
  934MPD2     N13668   3.104   3.141   1.718 -0.2785 -0.1946 -0.0054
  934MPD2    H513669   3.009   3.124   1.687  0.1714 -0.6385 -1.1385
  934MPD2    N113670   3.453   3.461   1.817 -0.4664  0.0807  0.1039
  934MPD2    H713671   3.518   3.386   1.796  0.0154  0.2522  0.9462
  935MPD2     C13672   3.490   2.220   1.709  0.0651  0.1720  0.0203
  935MPD2    C113673   3.467   2.271   1.583  0.0984 -0.5287 -0.3877
  935MPD2    C213674   3.375   2.365   1.561  0.0323 -0.0356 -0.1613
  935MPD2    C313675   3.307   2.426   1.668 -0.9783  0.4052  0.2348
  935MPD2    C413676   3.332   2.381   1.798 -0.7057 -1.8207  0.3552
  935MPD2    C513677   3.421   2.274   1.813  0.4795  0.0853  0.1693
  935MPD2     H13678   3.353   2.400   1.460 -0.8877 -0.7866 -0.2218
  935MPD2    H113679   3.292   2.437   1.882  0.9589  0.4496 -0.3638
  935MPD2    H213680   3.548   2.131   1.732  1.3423  1.3024  1.1520
  935MPD2    H313681   3.444   2.240   1.913  0.3767 -0.7745 -0.0934
  935MPD2     N13682   3.223   2.535   1.647 -0.3715  0.3625 -0.1979
  935MPD2    H513683   3.180   2.585   1.725 -1.0702 -2.0390  0.9717
  935MPD2    N113684   3.543   2.229   1.473  0.2561 -0.1132 -0.5906
  935MPD2    H713685   3.538   2.281   1.386 -0.7223  1.3360  0.3458
  936MPD2     C13686   2.730   0.341  12.305 -0.3898 -0.8711  0.8018
  936MPD2    C113687   2.794   0.303  12.421  0.9048 -0.4363  0.3224
  936MPD2    C213688   2.924   0.354  12.440  0.1410 -0.0110 -0.1975
  936MPD2    C313689   2.984   0.436  12.348 -0.3657  0.2205 -0.4206
  936MPD2    C413690   2.916   0.467  12.234 -0.1914  0.2498 -0.3746
  936MPD2    C513691   2.792   0.422  12.214  0.1571  0.1711  1.1911
  936MPD2     H13692   2.978   0.329  12.531 -1.3260  2.0596  1.2469
  936MPD2    H113693   2.966   0.521  12.155  2.0081 -0.5271  0.4714
  936MPD2    H213694   2.632   0.299  12.282 -1.0209  1.0763 -0.0573
  936MPD2    H313695   2.749   0.450  12.119  0.4751  2.4667  1.7243
  936MPD2     N13696   3.107   0.499  12.369  0.0971  0.1372 -0.3705
  936MPD2    H513697   3.151   0.546  12.291  0.2453  0.0216 -0.3561
  936MPD2    N113698   2.723   0.233  12.525  0.3304  0.0075 -0.2478
  936MPD2    H713699   2.769   0.188  12.603  1.4156  0.4938 -0.6096
  937MPD2     C13700   0.912   1.444  11.810  0.4089  0.6055  0.5016
  937MPD2    C113701   1.006   1.514  11.878  0.3639 -0.4480 -0.6903
  937MPD2    C213702   1.131   1.513  11.824  0.3324  0.0258  0.0677
  937MPD2    C313703   1.168   1.427  11.722  0.0286 -0.1886 -0.3355
  937MPD2    C413704   1.073   1.354  11.659 -0.2419  0.7274 -0.0748
  937MPD2    C513705   0.944   1.360  11.711 -0.0005 -0.0847 -0.2321
  937MPD2     H13706   1.213   1.571  11.866 -1.2092 -1.3352  5.0356
  937MPD2    H113707   1.082   1.287  11.574  2.0694 -0.8660  1.3994
  937MPD2    H213708   0.806   1.453  11.833  0.3387  1.5964 -0.2418
  937MPD2    H313709   0.866   1.303  11.662 -0.3106 -0.8898  1.2007
  937MPD2     N13710   1.301   1.408  11.695  0.1517 -0.3194  0.1342
  937MPD2    H513711   1.372   1.456  11.749  0.2408 -1.0032  0.6222
  937MPD2    N113712   0.978   1.617  11.973  0.0964  0.1931 -0.2152
  937MPD2    H713713   1.050   1.681  12.004  0.3037  0.1137 -0.5333
  938MPD2     C13714   3.294   1.835   0.825  0.1158  0.1386  0.0746
  938MPD2    C113715   3.190   1.912   0.875  0.4922  0.8060 -0.6462
  938MPD2    C213716   3.129   1.874   0.987 -0.1301 -0.4366 -0.3695
  938MPD2    C313717   3.164   1.756   1.060 -0.5586 -0.5597 -0.3058
  938MPD2    C413718   3.256   1.666   0.997  0.6722  0.1057 -0.5849
  938MPD2    C513719   3.314   1.709   0.882  0.7600  0.4600  0.0314
  938MPD2     H13720   3.049   1.937   1.023  1.1543  0.7740  0.3842
  938MPD2    H113721   3.270   1.572   1.049  1.2549  1.6258  2.0104
  938MPD2    H213722   3.356   1.863   0.741 -1.1959 -0.8174 -1.2114
  938MPD2    H313723   3.384   1.641   0.836  0.1782  1.2416 -1.9852
  938MPD2     N13724   3.103   1.712   1.182 -0.0246  0.6806 -0.0712
  938MPD2    H513725   3.131   1.620   1.214 -0.9588  0.4990  0.2288
  938MPD2    N113726   3.163   2.048   0.833 -0.1960 -0.8839 -0.5830
  938MPD2    H713727   3.098   2.105   0.887  0.2862 -1.3972  0.5345
  939MPD2     C13728   4.215   3.638   0.506  0.3234 -0.1097 -0.0257
  939MPD2    C113729   4.258   3.719   0.606 -0.2681  0.3174 -0.2404
  939MPD2    C213730   4.381   3.782   0.580  0.4103 -0.4374  0.1302
  939MPD2    C313731   4.456   3.758   0.469 -0.5418 -0.0967 -0.7597
  939MPD2    C413732   4.412   3.672   0.368 -0.6219  0.4128 -0.0002
  939MPD2    C513733   4.288   3.623   0.392  0.1300  0.1208  0.0690
  939MPD2     H13734   4.418   3.851   0.654  3.4237 -0.7626 -1.1029
  939MPD2    H113735   4.459   3.651   0.273  1.5344  0.5317  1.0183
  939MPD2    H213736   4.120   3.589   0.523  0.9317 -0.8936  1.1160
  939MPD2    H313737   4.241   3.561   0.316 -2.2379  0.3086  1.3703
  939MPD2     N13738   4.577   3.831   0.456 -0.0926  0.4039 -0.0706
  939MPD2    H513739   4.603   3.898   0.528  0.4157  0.6700 -0.5053
  939MPD2    N113740   4.176   3.748   0.718 -0.0845  0.1271 -0.2649
  939MPD2    H713741   4.092   3.690   0.724  0.8270 -1.2500 -0.6973
  940MPD2     C13742   3.252   4.424  13.228 -0.8043  1.3490  0.5970
  940MPD2    C113743   3.330   4.522  13.287 -0.3499  0.3376 -0.3251
  940MPD2    C213744   3.383   4.619  13.206  0.0024  0.4538 -0.1306
  940MPD2    C313745   3.367   4.619  13.073  0.1844 -0.7273 -0.2003
  940MPD2    C413746   3.290   4.516  13.017  0.6588  0.6810  0.0107
  940MPD2    C513747   3.233   4.424  13.093  0.4491  0.1445 -0.5928
  940MPD2     H13748   3.442   4.694  13.258  0.2888  1.3732 -1.7730
  940MPD2    H113749   3.269   4.520  12.911  0.5902  0.3830  0.0150
  940MPD2    H213750   3.196   4.351  13.287 -3.6401  2.0067 -1.2823
  940MPD2    H313751   3.162   4.350  13.058  0.4863  0.2930 -0.9808
  940MPD2     N13752   3.436   4.696  12.986 -0.3777  0.7656  0.0886
  940MPD2    H513753   3.417   4.679  12.888  0.6837 -0.1509  0.0311
  940MPD2    N113754   3.355   4.539  13.424  0.0665 -0.3267  0.4838
  940MPD2    H713755   3.424   4.607  13.454  0.5545 -1.4984  2.0271
  941MPD2     C13756   3.411   3.998   9.707 -0.0453 -0.8234 -0.0778
  941MPD2    C113757   3.481   3.954   9.817 -0.7390  0.0611 -0.0612
  941MPD2    C213758   3.406   3.865   9.895  0.2091  0.7414 -0.1666
  941MPD2    C313759   3.273   3.831   9.875  0.0129  0.1482  0.0148
  941MPD2    C413760   3.208   3.875   9.769  0.1980  0.0259  0.0559
  941MPD2    C513761   3.281   3.963   9.686  0.4897 -0.5484  0.8496
  941MPD2     H13762   3.471   3.824   9.971  1.4924  1.7159 -0.7356
  941MPD2    H113763   3.105   3.856   9.741  1.2981 -0.9438 -3.2444
  941MPD2    H213764   3.460   4.058   9.632 -0.2626 -0.3382  0.1680
  941MPD2    H313765   3.233   4.001   9.596  0.6869  0.2284  1.0698
  941MPD2     N13766   3.198   3.745   9.962 -0.2024  0.9297 -0.2613
  941MPD2    H513767   3.099   3.733   9.949  0.2488 -1.8388 -1.0306
  941MPD2    N113768   3.612   3.993   9.855 -0.0781  0.5856  0.5438
  941MPD2    H713769   3.648   3.953   9.940  0.5005 -1.7051 -0.7782
  942MPD2     C13770   3.479   0.266   9.648  0.2433  0.4027  0.7997
  942MPD2    C113771   3.464   0.290   9.514 -0.0525 -0.6677 -0.0314
  942MPD2    C213772   3.511   0.415   9.471  0.3220 -0.4455 -0.3502
  942MPD2    C313773   3.550   0.510   9.557  0.4777 -0.3257 -0.1276
  942MPD2    C413774   3.572   0.482   9.689  0.3853 -0.0273  0.7670
  942MPD2    C513775   3.537   0.360   9.734  0.5959  0.1142  0.1335
  942MPD2     H13776   3.473   0.440   9.373  0.0136  1.5738  0.2882
  942MPD2    H113777   3.613   0.550   9.762  1.5433  1.9402 -1.6783
  942MPD2    H213778   3.456   0.173   9.698 -1.4869  0.6364  0.4582
  942MPD2    H313779   3.553   0.336   9.839 -1.7721 -1.4346  0.1371
  942MPD2     N13780   3.571   0.647   9.525 -0.5312 -0.7479  0.2641
  942MPD2    H513781   3.599   0.695   9.609 -1.3406 -0.7969  0.5574
  942MPD2    N113782   3.390   0.207   9.421  0.3018 -0.5500  0.1630
  942MPD2    H713783   3.370   0.245   9.329 -0.6310  1.5857  1.2340
  943MPD2     C13784   2.050   4.260  10.510  0.4608  0.2354  0.2636
  943MPD2    C113785   2.012   4.158  10.594  0.3750 -0.7472  0.0217
  943MPD2    C213786   1.922   4.186  10.692 -0.0998 -0.0393 -0.3034
  943MPD2    C313787   1.868   4.317  10.702 -0.2854  0.1603  0.3400
  943MPD2    C413788   1.894   4.410  10.608  0.4062 -0.2488  0.5706
  943MPD2    C513789   1.986   4.380  10.515 -0.7748 -0.7446 -0.2834
  943MPD2     H13790   1.895   4.109  10.763  1.1084 -2.3919 -2.4014
  943MPD2    H113791   1.843   4.505  10.601  0.5249 -0.1550  0.9883
  943MPD2    H213792   2.123   4.244  10.433  0.7760  0.4844  0.5128
  943MPD2    H313793   1.993   4.445  10.429  1.0536 -0.0918  0.3507
  943MPD2     N13794   1.772   4.353  10.805  0.0189 -0.2035  0.0303
  943MPD2    H513795   1.747   4.450  10.822  0.7874  0.0414 -0.2484
  943MPD2    N113796   2.073   4.019  10.574  0.2234 -0.1421 -0.0581
  943MPD2    H713797   2.139   4.000  10.500 -0.1226  0.7196 -0.5893
  944MPD2     C13798   1.748   3.288  11.040 -0.1714 -0.2746 -0.7122
  944MPD2    C113799   1.693   3.160  11.031  0.0329  0.5448 -0.1118
  944MPD2    C213800   1.620   3.112  11.136 -0.0301  0.8380  0.2956
  944MPD2    C313801   1.584   3.193  11.244  0.5592  0.1970  0.5458
  944MPD2    C413802   1.627   3.326  11.246  0.5628  0.1086  0.2546
  944MPD2    C513803   1.716   3.364  11.152  0.3782  0.1320 -0.5296
  944MPD2     H13804   1.596   3.007  11.134 -2.7609  1.5027 -0.7691
  944MPD2    H113805   1.610   3.394  11.329  0.2688 -1.9432  1.8584
  944MPD2    H213806   1.816   3.335  10.970 -0.9990  0.5189 -0.9907
  944MPD2    H313807   1.748   3.467  11.150 -1.3456  0.6733  0.7505
  944MPD2     N13808   1.507   3.144  11.349 -0.3499  0.2550  0.3336
  944MPD2    H513809   1.502   3.043  11.355 -2.2064  0.2516 -1.4270
  944MPD2    N113810   1.726   3.084  10.915 -0.0131 -0.5004 -0.2771
  944MPD2    H713811   1.785   3.128  10.845 -0.7576 -1.6705 -1.6212
    1TCq1    O113812   0.338   3.841  14.455 -0.1599  0.3534  0.1231
    1TCq1    C113813   0.277   3.743  14.390 -0.2637  0.3592  0.0791
    1TCq1    O213814   0.309   3.694  14.284 -0.3798 -0.4878 -0.1170
    1TCq1    C213815   0.223   3.673  14.504 -0.2461 -0.0717  0.4799
    1TCq1    C313816   0.266   3.546  14.529  0.4281 -0.3700 -0.4087
    1TCq1    C413817   0.206   3.485  14.641  0.3765 -0.5599  0.1143
    1TCq1    C513818   0.153   3.562  14.742 -0.4994  0.4821 -0.4523
    1TCq1    C613819   0.115   3.690  14.715  0.8235  0.0229  0.1590
    1TCq1    C713820   0.152   3.749  14.601  0.4137 -0.3426 -0.3175
    1TCq1    C813821   0.072   3.775  14.823 -0.5100  0.1291 -0.4469
    1TCq1    O413822   0.127   3.753  14.930  0.1382 -0.0125  0.0216
    1TCq1    C913823   0.228   3.342  14.659  0.8079 -0.1587 -0.9916
    1TCq1    O513824   0.266   3.277  14.558  0.4969  0.3070 -0.2713
    1TCq1    O613825   0.189   3.286  14.767 -0.5585  0.0461 -0.0800
    1TCq1    H113826   0.342   3.828  14.552 -1.4126 -0.7877  0.0418
    1TCq1    H213827   0.318   3.490  14.452  1.4446 -1.4230  1.0558
    1TCq1    H313828   0.142   3.513  14.838  1.0991 -0.5543 -0.7958
    1TCq1    H413829   0.139   3.853  14.572  4.6445  0.3829  0.3778
    2MPD2     C13830   4.487   4.148  14.997  0.1422 -0.0104  0.0673
    2MPD2    C113831   4.441   4.118  14.874  0.0287  0.1438 -0.0261
    2MPD2    C213832   4.513   4.027  14.797  0.1466  0.5089 -0.3598
    2MPD2    C313833   4.619   3.956  14.853 -0.3827 -0.0490  0.5815
    2MPD2    C413834   4.653   3.984  14.983  0.3210  0.0785  0.5191
    2MPD2    C513835   4.579   4.076  15.057  0.0551  0.2700  0.0484
    2MPD2     H13836   4.486   4.008  14.694  0.7565 -1.6312 -0.1290
    2MPD2    H113837   0.023   3.943  15.024  0.1992 -1.2175 -0.5154
    2MPD2    H213838   4.450   4.232  15.054 -3.0984 -2.6005  1.7377
    2MPD2    H313839   4.597   4.110  15.158  0.9704 -2.1053  0.6889
    2MPD2     N13840   4.697   3.866  14.776 -0.8246  0.0148 -0.2960
    2MPD2    H513841   4.661   3.849  14.683 -0.2786 -0.4782 -0.4139
    2MPD2    N113842   4.342   4.204  14.819 -0.0773 -0.1427  0.1958
    2MPD2    H713843   4.288   4.272  14.873 -3.7293 -1.4719 -1.7546
    3TMC2    C113844   4.219   4.308  14.641  0.0824  0.3602 -0.4954
    3TMC2    C213845   4.129   4.362  14.727  0.3393  0.0214 -1.1609
    3TMC2    C313846   4.052   4.459  14.668  0.7610  0.2305  0.6155
    3TMC2    C413847   4.239   4.356  14.510  0.6758 -0.7401  0.5165
    3TMC2    C513848   4.155   4.457  14.459 -0.3605  0.2268 -0.1677
    3TMC2    C613849   4.056   4.506  14.540 -0.5897  0.3502 -0.2537
    3TMC2     C13850   4.309   4.204  14.683 -0.4701  0.1219 -0.0903
    3TMC2     O13851   4.369   4.151  14.588 -0.5694 -0.0840  0.0343
    3TMC2     H13852   4.123   4.328  14.830  1.1448  1.4177 -0.6436
    3TMC2    H113853   4.315   4.314  14.445  0.8305 -3.0270  2.1625
    3TMC2    H213854   4.015   4.605  14.520 -1.2272  0.2415  0.5346
    3TMC2    C713855   4.202   4.519  14.337 -0.6441 -0.2739 -0.4618
    3TMC2    C813856   3.956   4.530  14.748  0.2057  1.2940  0.3013
    3TMC2    O113857   4.317   4.489  14.308  0.1295 -0.3660  0.8025
    3TMC2    O213858   3.958   4.548  14.869  0.2517  0.3336 -0.3665
    3TMC2    O513859   3.844   4.497  14.677  0.1311 -0.2573 -0.0740
    3TMC2    H513860   3.842   4.455  14.589  1.2930  0.8284 -0.6394
    4MPD2     C13861   2.990   0.622  13.810  0.4113 -0.2717  0.3433
    4MPD2    C113862   3.061   0.663  13.702 -0.3313  0.1867  0.2307
    4MPD2    C213863   3.193   0.627  13.705  0.4684 -0.3855 -0.7673
    4MPD2    C313864   3.250   0.553  13.802  0.3212  0.1370 -0.2643
    4MPD2    C413865   3.181   0.508  13.911 -0.2736 -0.0504 -0.3984
    4MPD2    C513866   3.047   0.543  13.904  0.0871 -0.9587 -1.1351
    4MPD2     H13867   3.258   0.670  13.630  0.1433 -0.4063 -1.0629
    4MPD2    H113868   3.213   0.453  13.998 -1.9384 -1.2835 -0.5546
    4MPD2    H213869   2.886   0.648  13.823  0.3554 -0.8398  1.0425
    4MPD2    H313870   2.998   0.511  13.996 -1.1431  0.0735 -1.4385
    4MPD2     N13871   3.392   0.526  13.784  0.7721 -0.1906  0.5209
    4MPD2    H513872   3.440   0.574  13.709 -1.7881 -0.8102 -1.5265
    4MPD2    N113873   3.003   0.736  13.602 -0.0482 -0.9109 -0.3157
    4MPD2    H713874   2.908   0.767  13.619  0.5188  0.7029 -0.1247
    5TCq2    C113875   3.468   0.447  13.871 -0.8266  0.0338  0.8171
    5TCq2    O213876   3.428   0.377  13.967 -0.3519  0.4244  0.0072
    5TCq2    C213877   3.613   0.455  13.854  0.3408  0.1160 -0.4560
    5TCq2    C313878   3.668   0.499  13.736  0.1176 -0.7716  0.3063
    5TCq2    C413879   3.807   0.499  13.728  0.5332 -0.0511  0.2566
    5TCq2    C513880   3.877   0.446  13.828 -0.0623  0.2330 -0.1462
    5TCq2    C613881   3.817   0.384  13.939 -0.3704  0.0039  0.8306
    5TCq2    C713882   3.685   0.397  13.954 -0.3332  1.2043  0.1302
    5TCq2    C813883   3.896   0.302  14.030  0.3971  0.1288  0.2732
    5TCq2    O413884   3.828   0.251  14.117 -0.0343 -0.4857  0.7951
    5TCq2    C913885   3.874   0.543  13.609  0.8891  0.7358 -0.5964
    5TCq2    O513886   3.796   0.580  13.520  0.1532  0.5173  0.0704
    5TCq2    O613887   3.987   0.489  13.587 -0.0952  0.1214  1.0449
    5TCq2    H213888   3.612   0.537  13.651  1.1344 -1.5523 -0.7151
    5TCq2    H313889   3.984   0.451  13.814  0.0450 -0.5975  0.3753
    5TCq2    H413890   3.635   0.372  14.047 -1.1489 -0.6984 -0.8220
    6MPD1     C13891   2.372   2.487  13.188  0.0714 -1.1142 -0.0093
    6MPD1    C113892   2.286   2.391  13.128 -0.4648  0.0148  0.7563
    6MPD1    C213893   2.315   2.265  13.166 -0.8219 -0.4281 -0.3699
    6MPD1    C313894   2.398   2.233  13.273 -0.2884  0.2653 -0.0951
    6MPD1    C413895   2.474   2.329  13.328  0.2774  0.1343  0.7472
    6MPD1    C513896   2.454   2.456  13.288  0.2635  0.1400 -0.0804
    6MPD1     H13897   2.268   2.183  13.113 -0.3440 -1.5821  0.9956
    6MPD1    H113898   2.541   2.308  13.411  0.6911  1.1281  0.6639
    6MPD1    H213899   2.373   2.594  13.168 -0.3171 -0.5836  2.8142
    6MPD1    H313900   2.502   2.546  13.326  0.6127  0.7728 -1.9789
    6MPD1     N13901   2.418   2.103  13.326 -0.1394 -0.0879  0.4057
    6MPD1    H513902   2.496   2.094  13.390 -0.4922  0.7185  0.9415
    6MPD1    N113903   2.222   2.424  13.009 -0.0961  0.4868  0.8058
    6MPD1    H613904   2.167   2.354  12.960  0.1547 -0.1170  1.3905
    6MPD1    H713905   2.161   2.505  13.015  0.0396  0.8525 -3.0395
    7MPD2     C13906   2.264   1.280  13.183 -0.3165 -0.0116  0.4450
    7MPD2    C113907   2.362   1.306  13.279  0.1002 -1.0863 -0.6631
    7MPD2    C213908   2.460   1.204  13.299 -1.0129 -1.0352  0.5569
    7MPD2    C313909   2.453   1.079  13.233 -0.4429 -0.5420 -0.1045
    7MPD2    C413910   2.349   1.059  13.142  0.1273 -0.1866  0.3580
    7MPD2    C513911   2.249   1.155  13.124 -0.0262 -0.3811  0.4509
    7MPD2     H13912   2.541   1.229  13.367 -1.9957 -1.1168  1.7738
    7MPD2    H113913   2.342   0.965  13.089  0.1025 -0.0950  0.1987
    7MPD2    H213914   2.173   1.340  13.179 -0.3558 -0.3130 -2.7034
    7MPD2    H313915   2.160   1.138  13.066  0.7885  0.5888 -1.0857
    7MPD2     N13916   2.546   0.974  13.263  0.0440 -0.3729 -0.3141
    7MPD2    H513917   2.536   0.897  13.198 -0.0777 -1.5523  1.1181
    7MPD2    N113918   2.366   1.424  13.358 -0.2210  0.5642 -0.1733
    7MPD2    H713919   2.441   1.431  13.425  0.3357  0.4610 -0.7865
    8TMC3    C113920   2.753   0.895  13.309 -0.0670  0.0425  0.2527
    8TMC3    C213921   2.834   0.851  13.412 -0.2253 -0.2235 -0.5658
    8TMC3    C313922   2.970   0.853  13.393  0.0036 -0.4182 -0.3673
    8TMC3    C413923   2.810   0.947  13.198  0.4960  0.4433 -0.1183
    8TMC3    C513924   2.945   0.959  13.187  0.3964 -0.7064  0.6322
    8TMC3    C613925   3.028   0.907  13.285  1.3217 -0.3940  0.2493
    8TMC3     C13926   2.645   0.971  13.358  0.0011 -0.4397 -0.0135
    8TMC3     O13927   2.672   1.045  13.451  0.2052 -0.0587 -0.2244
    8TMC3     H13928   2.784   0.813  13.501  1.0136  0.3268  0.3536
    8TMC3    H113929   2.748   0.997  13.124  0.6774  1.9181  0.7277
    8TMC3    H213930   3.133   0.935  13.278  1.3762 -0.3879  1.1072
    8TMC3    C713931   2.976   1.099  13.170  0.6241  0.0992  0.2078
    8TMC3    C813932   3.051   0.757  13.470 -0.0415 -0.1531 -0.1556
    8TMC3    O113933   3.085   1.126  13.119 -0.9902 -0.4552  0.1508
    8TMC3    O213934   3.164   0.739  13.431  0.0260 -0.1611 -0.4500
    9TMC3    C113935   2.396   1.865  13.356 -0.1386 -0.2691  0.3681
    9TMC3    C213936   2.515   1.862  13.422 -0.5066 -0.1837 -0.7642
    9TMC3    C313937   2.548   1.741  13.480  0.0194 -0.1965 -0.6859
    9TMC3    C413938   2.302   1.762  13.356 -0.3894  0.1292 -0.3813
    9TMC3    C513939   2.332   1.646  13.422  0.3284 -0.0190  0.5105
    9TMC3    C613940   2.455   1.637  13.482 -0.6518 -0.7329  0.3694
    9TMC3     C13941   2.355   1.984  13.281  0.5709 -0.1196  0.6812
    9TMC3     O13942   2.260   1.970  13.210  0.3297  0.1970 -0.3919
    9TMC3     H13943   2.592   1.939  13.424 -1.4773  0.7114  1.3472
    9TMC3    H113944   2.203   1.775  13.316 -0.5035  1.6036  0.3815
    9TMC3    H213945   2.482   1.546  13.535  2.4309  0.3554  0.6683
    9TMC3    C713946   2.270   1.525  13.361  0.1855  0.7645  0.8704
    9TMC3    C813947   2.685   1.695  13.483  0.6526 -0.4429 -0.0791
    9TMC3    O113948   2.168   1.542  13.293  0.0690 -0.0193 -0.1154
    9TMC3    O213949   2.768   1.779  13.515  0.5212 -0.2144  0.8401
   10MPD2     C13950   3.027   1.382  13.247 -0.0066 -0.5630 -0.6367
   10MPD2    C113951   2.906   1.318  13.274  0.0307  0.1649  0.5444
   10MPD2    C213952   2.798   1.386  13.330 -0.8107  0.1388 -0.2213
   10MPD2    C313953   2.812   1.514  13.368  0.2557  0.6436  0.0214
   10MPD2    C413954   2.928   1.581  13.342  0.4583  0.0012 -0.1182
   10MPD2    C513955   3.036   1.521  13.278 -0.0732 -0.0415 -0.3350
   10MPD2     H13956   2.707   1.331  13.350  0.2589 -0.8889  1.8101
   10MPD2    H113957   2.935   1.685  13.372 -0.8902 -1.1963  4.1854
   10MPD2    H213958   3.112   1.332  13.201  1.1545 -0.3180  1.2467
   10MPD2    H313959   3.128   1.577  13.264 -0.7480  0.9799 -0.6601
   10MPD2     N13960   2.698   1.575  13.425 -0.1839 -0.3496 -0.7017
   10MPD2    H513961   2.611   1.523  13.426 -0.7779  0.6118 -1.8830
   10MPD2    N113962   2.889   1.183  13.242  0.0156 -0.4178 -0.5286
   10MPD2    H713963   2.801   1.156  13.287  0.0148  0.4717  0.0014
   11MPD2     C13964   4.291   4.708  14.131 -0.1827 -1.3481 -0.1039
   11MPD2    C113965   4.167   4.711  14.184 -0.8621  0.4300  0.3832
   11MPD2    C213966   4.074   0.081  14.146 -0.7231 -1.7525 -0.1279
   11MPD2    C313967   4.114   0.174  14.049  0.1767 -0.5810 -0.3758
   11MPD2    C413968   4.237   0.169  13.987 -0.3948 -0.1349  0.1444
   11MPD2    C513969   4.329   0.076  14.031  0.0195  0.2818 -0.0286
   11MPD2     H13970   3.973   0.073  14.184 -1.0452  0.2502 -0.5627
   11MPD2    H113971   4.270   0.243  13.915 -0.4978  0.5240  0.7687
   11MPD2    H213972   4.359   4.627  14.154 -1.2031 -1.6428  1.9092
   11MPD2    H313973   4.430   0.071  13.992  0.2867  0.5640  0.6319
   11MPD2     N13974   4.029   0.269  13.989 -0.0226  0.4274  0.4763
   11MPD2    H513975   4.066   0.328  13.915 -2.5730  2.1413  0.5952
   11MPD2    N113976   4.118   4.618  14.281  0.0081  0.7182  0.2446
   11MPD2    H713977   4.022   4.624  14.315 -0.3452  0.8819 -0.7895
    1MPD1     C13978   1.766   0.738  16.718 -0.5918 -0.6332 -0.4903
    1MPD1    C113979   1.654   0.805  16.745  0.2738  0.4693 -0.2392
    1MPD1    C213980   1.655   0.937  16.782  0.3755 -0.6408  0.1752
    1MPD1    C313981   1.775   1.006  16.768  0.1066 -0.6939 -1.1077
    1MPD1    C413982   1.890   0.938  16.730  0.3194  0.1456 -0.1112
    1MPD1    C513983   1.882   0.805  16.699 -1.0471 -0.2868  0.3533
    1MPD1     H13984   1.555   0.962  16.816  1.1813  0.8033  1.4862
    1MPD1    H113985   1.978   0.999  16.715  0.0243  0.1408 -1.9450
    1MPD1    H213986   1.768   0.633  16.695 -0.7540 -0.8643  0.5666
    1MPD1    H313987   1.960   0.739  16.662 -0.6235 -0.1770  1.0519
    1MPD1     N13988   1.786   1.138  16.814 -0.1683  0.0859  0.3856
    1MPD1    H513989   1.882   1.172  16.809  0.7849 -2.7224 -0.5468
    1MPD1    N113990   1.537   0.734  16.761  0.1852  0.3148  0.3950
    1MPD1    H613991   1.445   0.776  16.752  0.4152  0.4692 -1.2877
    1MPD1    H713992   1.538   0.644  16.714  1.6339 -1.1967  3.2956
    2MPD1     C13993   1.469   2.169  16.790  0.3883  0.3559 -0.3367
    2MPD1    C113994   1.522   2.145  16.917  0.4776  0.1122  0.2485
    2MPD1    C213995   1.572   2.020  16.946 -0.0087  0.0263 -0.0162
    2MPD1    C313996   1.572   1.918  16.858  0.5151 -0.1225 -0.3857
    2MPD1    C413997   1.516   1.938  16.734 -0.3178  0.5213 -0.1935
    2MPD1    C513998   1.463   2.057  16.711 -0.7046  0.2281 -0.0725
    2MPD1     H13999   1.606   2.006  17.048 -0.2967  2.7280  0.4742
    2MPD1    H114000   1.504   1.857  16.664  2.1636 -0.1651  0.1652
    2MPD1    H214001   1.422   2.261  16.757 -1.5292 -0.6347 -0.3447
    2MPD1    H314002   1.413   2.075  16.616 -0.0216  0.7283 -0.3416
    2MPD1     N14003   1.629   1.798  16.911  0.4631 -0.3310  0.0351
    2MPD1    H514004   1.657   1.810  17.008  0.4674  2.4660 -0.3213
    2MPD1    N114005   1.542   2.258  17.002  1.1690 -0.4422 -0.1107
    2MPD1    H614006   1.559   2.234  17.099  0.3299  0.7789  0.3382
    2MPD1    H714007   1.467   2.325  16.986  0.3290 -1.5518 -0.8650
    3TMC3    C114008   1.677   1.578  16.938 -0.3370  0.7137 -0.7210
    3TMC3    C214009   1.808   1.607  16.954 -0.2130  0.3487 -0.6079
    3TMC3    C314010   1.901   1.505  16.936  0.3005 -0.4258  0.8362
    3TMC3    C414011   1.639   1.443  16.913  0.4410  0.2868 -0.5456
    3TMC3    C514012   1.732   1.351  16.898  0.1420  0.4578 -0.5047
    3TMC3    C614013   1.870   1.378  16.895  0.5987  0.0638  0.3876
    3TMC3     C14014   1.608   1.670  16.858  0.1796  0.3099  0.0956
    3TMC3     O14015   1.565   1.632  16.750  0.1832 -1.1990  0.3055
    3TMC3     H14016   1.840   1.705  16.987  0.5413  0.3357 -1.2834
    3TMC3    H114017   1.539   1.430  16.875  0.3688 -1.7708  0.3718
    3TMC3    H214018   1.950   1.305  16.890 -0.7243 -1.1029 -4.0914
    3TMC3    C714019   1.682   1.220  16.845  1.0301 -0.4942  0.8554
    3TMC3    C814020   2.034   1.546  16.901  0.4891 -0.5309  0.7332
    3TMC3    O114021   1.560   1.209  16.840 -0.7383  0.5001  0.3456
    3TMC3    O214022   2.079   1.487  16.803  0.0618 -0.3241  0.7319
    4MPD1     C14023   2.506   1.693  17.033  0.2900  0.1317 -0.1000
    4MPD1    C114024   2.424   1.712  17.139 -0.9137  0.2760 -0.2385
    4MPD1    C214025   2.284   1.693  17.120 -1.0336  0.5803 -0.6887
    4MPD1    C314026   2.233   1.655  17.001 -0.0428 -0.5255 -0.5581
    4MPD1    C414027   2.318   1.639  16.889 -0.2048  0.1105 -0.1987
    4MPD1    C514028   2.454   1.654  16.914 -0.1917 -0.2536 -0.1087
    4MPD1     H14029   2.226   1.692  17.211 -1.1323 -0.2543 -0.7605
    4MPD1    H114030   2.283   1.612  16.790  4.3388  0.0601 -1.7581
    4MPD1    H214031   2.615   1.696  17.041  0.6532 -2.6034 -4.2256
    4MPD1    H314032   2.527   1.627  16.839 -1.4226 -1.1045 -1.0028
    4MPD1     N14033   2.096   1.628  16.989 -0.5405  0.3772 -0.2592
    4MPD1    H514034   2.043   1.658  17.070  3.0943 -0.0938  2.2576
    4MPD1    N114035   2.475   1.734  17.271 -0.2429 -0.0364  0.4448
    4MPD1    H614036   2.556   1.794  17.254  0.5555 -1.5438 -1.1270
    4MPD1    H714037   2.402   1.783  17.322  1.0867 -1.5156  3.7832
    1TCq1    O114038   3.354   0.171  11.553  0.1792  0.0182  0.3331
    1TCq1    C114039   3.418   0.157  11.431 -0.1478 -0.5327 -0.6262
    1TCq1    O214040   3.377   0.194  11.325 -0.5406 -0.0324  0.2159
    1TCq1    C214041   3.535   0.077  11.456 -0.0641 -0.1321  0.1256
    1TCq1    C314042   3.563   4.699  11.368  0.7882 -0.6928  0.4357
    1TCq1    C414043   3.665   4.611  11.398  0.5088  0.0276  0.6176
    1TCq1    C514044   3.742   4.633  11.508  0.0255 -0.3609 -0.5723
    1TCq1    C614045   3.719   0.016  11.580  0.4701 -0.2987  0.6706
    1TCq1    C714046   3.618   0.107  11.559  0.2228 -0.1180  0.0941
    1TCq1    C814047   3.808   0.043  11.700  0.6978 -0.1615  0.2637
    1TCq1    O414048   3.878   4.673  11.732 -0.1124 -0.4489 -0.0644
    1TCq1    C914049   3.639   4.475  11.362  0.1851  0.2269 -0.2493
    1TCq1    O514050   3.558   4.452  11.268 -0.2339  0.0037 -0.2838
    1TCq1    O614051   3.695   4.375  11.421 -0.2988  0.1885  0.2564
    1TCq1    H114052   3.397   0.132  11.632  0.7384  1.0533  0.5487
    1TCq1    H214053   3.483   4.665  11.302  1.1133  0.1581 -0.3970
    1TCq1    H314054   3.816   4.560  11.538 -1.8387 -1.1959  2.0660
    1TCq1    H414055   3.589   0.187  11.627  0.0473 -0.7213  0.7283
    2MPD1     C14056   4.008   0.359  12.051 -0.4149 -0.2010 -0.5865
    2MPD1    C114057   3.967   0.433  11.945 -1.0741  0.5469  0.6344
    2MPD1    C214058   3.912   0.367  11.835 -0.3104 -0.2728  0.7751
    2MPD1    C314059   3.885   0.232  11.843 -0.0888 -0.2457 -0.0109
    2MPD1    C414060   3.911   0.163  11.957 -0.5226  0.0307 -0.0288
    2MPD1    C514061   3.983   0.223  12.055 -0.1561 -0.1090 -0.3003
    2MPD1     H14062   3.869   0.425  11.754 -0.6555  1.5333  2.2400
    2MPD1    H114063   3.879   0.061  11.972  0.9386 -0.2274  1.4583
    2MPD1    H214064   4.072   0.397  12.130 -1.4512  0.9203 -0.3003
    2MPD1    H314065   4.006   0.171  12.148  0.1139 -0.8121 -0.7689
    2MPD1     N14066   3.816   0.173  11.731 -0.7355  0.1420 -0.7238
    2MPD1    H514067   3.769   0.233  11.664 -0.6635  1.5045  0.4400
    2MPD1    N114068   3.978   0.573  11.948 -0.6488  1.1423 -0.3079
    2MPD1    H614069   3.954   0.612  11.858  1.3603  0.3760 -1.1720
    2MPD1    H714070   4.057   0.613  11.999  0.0010 -2.6868  1.6933
    1TCq1    O114071   3.283   0.616   1.898  0.4088 -0.4823  0.9520
    1TCq1    C114072   3.307   0.666   2.022  0.4184  0.0207  0.3626
    1TCq1    O214073   3.319   0.787   2.043 -0.0966  0.4780  0.5017
    1TCq1    C214074   3.211   0.586   2.094  0.4469  1.0029  0.2350
    1TCq1    C314075   3.194   0.460   2.062  0.5391  0.2300 -0.1907
    1TCq1    C414076   3.100   0.379   2.116 -0.0233  0.2101 -0.0661
    1TCq1    C514077   2.996   0.442   2.181 -0.2337  0.0654 -0.2865
    1TCq1    C614078   3.008   0.576   2.205  0.0122  0.0200 -0.3433
    1TCq1    C714079   3.113   0.648   2.161 -0.2875 -1.0027 -0.1852
    1TCq1    C814080   2.908   0.649   2.287 -0.2258 -0.2512  0.5409
    1TCq1    O414081   2.928   0.768   2.303 -0.4519 -0.6196  0.5630
    1TCq1    C914082   3.074   0.248   2.060  0.8090  0.0946  0.4704
    1TCq1    O514083   3.143   0.211   1.965 -0.6439 -0.0664 -0.6528
    1TCq1    O614084   2.961   0.203   2.079 -0.3397 -0.9272  0.1699
    1TCq1    H114085   3.251   0.524   1.904  1.3136 -0.9063 -0.6263
    1TCq1    H214086   3.286   0.406   2.040 -0.0835 -0.5316 -0.9441
    1TCq1    H314087   2.906   0.390   2.210  0.6614  0.2531  2.8157
    1TCq1    H414088   3.124   0.754   2.180 -0.5152 -1.3123  1.6212
    2MPD1     C14089   2.523   0.687   2.621 -0.2882  0.2329 -0.7554
    2MPD1    C114090   2.539   0.553   2.600  0.4486 -0.7895 -0.0266
    2MPD1    C214091   2.640   0.516   2.507  0.5601  0.6197 -0.5247
    2MPD1    C314092   2.718   0.609   2.438 -0.0095 -0.4082  0.0464
    2MPD1    C414093   2.684   0.746   2.453 -0.1198  0.0433 -0.0064
    2MPD1    C514094   2.588   0.778   2.542  0.5449 -0.3165  0.2287
    2MPD1     H14095   2.670   0.412   2.500 -1.0029  0.1710 -0.5662
    2MPD1    H114096   2.737   0.833   2.414 -0.2438  0.4890  0.8269
    2MPD1    H214097   2.457   0.726   2.698  0.2045 -2.0694  0.8193
    2MPD1    H314098   2.563   0.882   2.560  0.7037 -0.4977  1.4984
    2MPD1     N14099   2.824   0.568   2.351 -0.2370 -0.1526 -0.0574
    2MPD1    H514100   2.844   0.469   2.360 -0.3356 -0.2714 -1.0544
    2MPD1    N114101   2.477   0.453   2.686 -0.7120  0.6496 -0.2831
    2MPD1    H614102   2.383   0.483   2.711  0.1611  1.5742  1.8717
    2MPD1    H714103   2.464   0.365   2.636  3.0322  0.3853 -0.7455
    1MPD1     C14104   4.103   1.127  12.356 -0.1660  0.9218  0.2746
    1MPD1    C114105   4.026   1.238  12.322  0.0134 -0.2233  0.3998
    1MPD1    C214106   4.093   1.357  12.320 -0.1324  1.4692 -0.0363
    1MPD1    C314107   4.233   1.369  12.344 -0.5134  0.0164 -0.3569
    1MPD1    C414108   4.301   1.257  12.392 -0.6070 -0.1381  0.6802
    1MPD1    C514109   4.238   1.133  12.390 -0.5169  0.3944  0.0361
    1MPD1     H14110   4.040   1.441  12.277 -0.4174  1.0149 -0.5732
    1MPD1    H114111   4.405   1.268  12.419 -0.0804 -0.3632 -1.2507
    1MPD1    H214112   4.050   1.033  12.348  0.9283  0.4419 -1.3084
    1MPD1    H314113   4.288   1.044  12.427 -1.0276 -0.7026 -1.9213
    1MPD1     N14114   4.294   1.498  12.332  0.5407 -0.1085  0.5477
    1MPD1    H514115   4.224   1.569  12.316  0.3655  0.2912  3.0372
    1MPD1    N114116   3.905   1.220  12.250 -0.4410  0.1726 -0.1059
    1MPD1    H614117   3.847   1.142  12.281  0.0563  0.1719  0.8108
    1MPD1    H714118   3.849   1.305  12.241 -2.0209 -0.6575  1.9881
    2MPD1     C14119   4.094   2.095  11.402 -0.4836 -0.3672  0.2275
    2MPD1    C114120   4.047   1.978  11.350 -0.3706 -0.7002  0.5595
    2MPD1    C214121   4.135   1.896  11.273 -0.0364 -0.4854 -0.4710
    2MPD1    C314122   4.256   1.953  11.243  0.1732 -0.4870 -0.2976
    2MPD1    C414123   4.298   2.084  11.286 -0.0115  0.2953 -0.1964
    2MPD1    C514124   4.215   2.147  11.375  0.7127  0.5082 -0.2885
    2MPD1     H14125   4.109   1.791  11.268 -2.3145 -0.0903  2.7904
    2MPD1    H114126   4.399   2.123  11.285 -0.1374  0.6366  0.3648
    2MPD1    H214127   4.032   2.145  11.475 -0.1970 -1.0183  0.9140
    2MPD1    H314128   4.251   2.240  11.416 -2.7912  1.5911  0.3691
    2MPD1     N14129   4.353   1.875  11.175  0.0727 -0.3610 -0.7926
    2MPD1    H514130   4.450   1.902  11.173  0.5938 -2.2076 -0.7899
    2MPD1    N114131   3.928   1.934  11.401 -0.3176  0.0950  0.1972
    2MPD1    H614132   3.878   1.877  11.333  1.1038  0.3123 -1.0256
    2MPD1    H714133   3.869   2.010  11.433  1.2270  1.7799 -0.9745
    3MPD1     C14134   4.379   1.109  10.498  0.2740 -0.9513 -0.7890
    3MPD1    C114135   4.299   1.129  10.606  0.1126 -0.3207  0.0619
    3MPD1    C214136   4.322   1.245  10.682  0.5164  1.0199  0.7128
    3MPD1    C314137   4.411   1.341  10.649 -0.1781 -0.1332 -0.5832
    3MPD1    C414138   4.487   1.321  10.538  0.3873  0.2281 -0.1423
    3MPD1    C514139   4.466   1.212  10.460 -0.3491 -0.1458 -0.4436
    3MPD1     H14140   4.278   1.238  10.780  1.5739  1.8361  1.2452
    3MPD1    H114141   4.571   1.387  10.523  0.5469  0.6756  2.8301
    3MPD1    H214142   4.370   1.025  10.430  3.4515 -1.5997 -0.4143
    3MPD1    H314143   4.521   1.208  10.366 -2.3057 -2.7721 -1.4936
    3MPD1     N14144   4.435   1.448  10.745 -0.2175  0.1890 -0.0618
    3MPD1    H514145   4.361   1.455  10.814  0.5596 -1.3985  0.9274
    3MPD1    N114146   4.245   1.013  10.663  0.5157  0.2249  0.2342
    3MPD1    H614147   4.222   0.944  10.591 -0.2958 -1.2119  1.8751
    3MPD1    H714148   4.318   0.972  10.721  0.7341  0.0163 -0.1900
    4MPD2     C14149   4.434   2.071  11.833  0.2512 -0.4482  0.1084
    4MPD2    C114150   4.531   2.049  11.923  0.2884 -0.1077 -0.3696
    4MPD2    C214151   4.664   2.078  11.900  0.8124 -0.5498  0.4283
    4MPD2    C314152   4.698   2.136  11.781 -0.0488  0.0865  0.2388
    4MPD2    C414153   4.597   2.174  11.690 -0.0439 -0.2013  0.3176
    4MPD2    C514154   4.469   2.149  11.729 -0.1442  0.2405 -0.1123
    4MPD2     H14155   0.016   2.042  11.969  0.8162 -2.8329 -0.7751
    4MPD2    H114156   4.626   2.226  11.599 -2.6771  1.0931  0.2285
    4MPD2    H214157   4.327   2.063  11.848  0.5293  1.9153  3.3925
    4MPD2    H314158   4.393   2.179  11.657  1.0866  1.6905 -0.8156
    4MPD2     N14159   0.104   2.162  11.750 -0.7290  0.0003  0.9223
    4MPD2    H514160   0.127   2.205  11.661 -4.4971  0.8798  0.3837
    4MPD2    N114161   4.510   1.989  12.046 -0.4294  0.5430 -0.5072
    4MPD2    H714162   4.594   1.985  12.102  0.7123  1.5665 -2.1824
    5TMC3    C114163   4.421   1.877  12.223 -0.2007 -0.2729  0.3446
    5TMC3    C214164   4.382   1.748  12.244 -0.2233  0.3188 -0.3538
    5TMC3    C314165   4.462   1.661  12.306 -0.3259 -0.1361  0.3781
    5TMC3    C414166   4.535   1.920  12.280 -0.1844 -0.0787  0.5013
    5TMC3    C514167   4.618   1.828  12.329  0.7675 -0.4295  0.3220
    5TMC3    C614168   4.580   1.697  12.355  0.3025  0.3103  0.1264
    5TMC3     C14169   4.395   1.937  12.097  0.4533 -0.0205  0.2729
    5TMC3     O14170   4.291   1.910  12.039 -0.7360 -0.0345 -0.2593
    5TMC3     H14171   4.307   1.705  12.179 -0.2703  0.2485 -0.2525
    5TMC3    H114172   4.568   2.024  12.281  2.2688 -0.8083 -2.5588
    5TMC3    H214173   4.631   1.630  12.424 -0.0037 -0.5173 -0.4486
    5TMC3    C714174   0.028   1.848  12.269  0.1576 -0.6184 -0.1273
    5TMC3    C814175   4.430   1.525  12.331  0.5262 -0.3169 -0.5555
    5TMC3    O114176   0.033   1.954  12.202  0.2696  0.0932  0.1773
    5TMC3    O214177   4.522   1.447  12.335 -0.4692 -0.5323  0.2948
    6TMC3    C114178   4.452   1.700  11.046 -0.2300  0.0613  0.3926
    6TMC3    C214179   4.438   1.644  10.921  0.3579  0.2410 -0.3227
    6TMC3    C314180   4.549   1.620  10.852 -0.2591 -0.0246  0.2335
    6TMC3    C414181   4.572   1.718  11.115  0.1006  0.6573 -0.2188
    6TMC3    C514182   4.682   1.689  11.037  0.4554  0.1207  0.4585
    6TMC3    C614183   4.673   1.640  10.910  0.6181 -0.7859  0.8144
    6TMC3     C14184   4.331   1.765  11.091 -0.0396  0.0158  1.0135
    6TMC3     O14185   4.215   1.732  11.055  0.6277  0.5054  0.2995
    6TMC3     H14186   4.341   1.641  10.873  0.7778  1.1792 -1.2169
    6TMC3    H114187   4.585   1.748  11.219 -1.8292 -0.0943  0.2216
    6TMC3    H214188   0.041   1.603  10.863  0.5907 -0.0056  0.1267
    6TMC3    C714189   0.079   1.748  11.088 -0.5411 -0.4253  0.0766
    6TMC3    C814190   4.548   1.528  10.733  0.3500  0.1292 -0.0140
    6TMC3    O114191   0.069   1.865  11.114  0.4159  0.0495  0.5486
    6TMC3    O214192   4.651   1.510  10.676  0.5691  0.0584 -0.4731
    7MPD2     C14193   0.441   1.667  12.039 -0.2061 -0.2296 -0.0390
    7MPD2    C114194   0.387   1.796  12.052  0.0708  0.1524  0.1223
    7MPD2    C214195   0.286   1.821  12.138  0.0382 -0.6440  0.3057
    7MPD2    C314196   0.217   1.716  12.192 -0.9054  0.3878 -0.0471
    7MPD2    C414197   0.274   1.597  12.192 -0.1952  0.2065  0.0734
    7MPD2    C514198   0.381   1.570  12.109  0.4950  0.8227 -0.0251
    7MPD2     H14199   0.259   1.925  12.152  0.0474 -0.6249  0.1824
    7MPD2    H114200   0.223   1.519  12.247  1.7988 -1.0443  0.1327
    7MPD2    H214201   0.525   1.641  11.976 -2.0976 -0.2322 -2.5769
    7MPD2    H314202   0.408   1.465  12.106 -0.9874  0.5305 -2.5968
    7MPD2     N14203   0.095   1.732  12.256  0.0347  0.3559 -0.4988
    7MPD2    H514204   0.048   1.656  12.305  2.1930 -1.6987 -1.6252
    7MPD2    N114205   0.436   1.905  11.975  0.0494  0.3440 -0.2284
    7MPD2    H714206   0.369   1.980  11.972 -0.0800  0.1173 -3.7688
    8TMC3    C114207   0.507   2.017  11.793  0.3238 -0.1630 -0.6145
    8TMC3    C214208   0.495   1.976  11.664  0.7502 -0.3255  0.2570
    8TMC3    C314209   0.405   2.045  11.586 -0.1996  0.4746 -0.5611
    8TMC3    C414210   0.426   2.112  11.842  0.5927  0.1797  0.3737
    8TMC3    C514211   0.331   2.178  11.765  0.3450 -0.3622 -0.4515
    8TMC3    C614212   0.319   2.145  11.633  0.3217 -0.1590 -0.0152
    8TMC3     C14213   0.544   1.914  11.893 -0.6566  0.2162  0.9493
    8TMC3     O14214   0.623   1.825  11.858  0.4820 -0.4985 -0.0687
    8TMC3     H14215   0.530   1.879  11.632 -1.3936 -0.8640 -0.4409
    8TMC3    H114216   0.438   2.136  11.947  0.4981  1.3506  0.1103
    8TMC3    H214217   0.253   2.201  11.568 -1.5133 -2.0222  0.2454
    8TMC3    C714218   0.212   2.155  11.842  0.0890  0.4215 -0.4619
    8TMC3    C814219   0.366   1.991  11.460 -0.4545 -0.6955  0.2759
    8TMC3    O114220   0.227   2.093  11.945 -0.3998 -0.2936  0.5092
    8TMC3    O214221   0.275   2.043  11.396  0.1723 -0.0017  0.5341
    9MPD2     C14222   0.560   1.741  11.261  0.2428  0.0324  0.2000
    9MPD2    C114223   0.449   1.816  11.298  1.0577 -0.6428  0.2801
    9MPD2    C214224   0.329   1.801  11.231  0.2050  0.2043 -0.1381
    9MPD2    C314225   0.317   1.719  11.119 -0.2945  0.4061  0.6575
    9MPD2    C414226   0.427   1.650  11.073 -0.0369 -0.2802 -0.5076
    9MPD2    C514227   0.542   1.660  11.151 -0.1600  0.2081 -0.7273
    9MPD2     H14228   0.240   1.839  11.280 -0.1071  0.5231 -0.9503
    9MPD2    H114229   0.421   1.576  10.994  0.6869 -2.1004  1.1457
    9MPD2    H214230   0.640   1.731  11.333  0.5775 -2.0021 -0.4523
    9MPD2    H314231   0.612   1.577  11.144 -1.2384 -0.8274  0.7756
    9MPD2     N14232   0.192   1.677  11.067  0.1136 -0.7531 -1.3561
    9MPD2    H514233   0.191   1.600  11.002 -1.2874 -1.6072 -0.3330
    9MPD2    N114234   0.460   1.899  11.412 -0.0236  0.1946  0.7759
    9MPD2    H714235   0.553   1.905  11.453  1.0332 -0.2484 -1.5236
    1MPD1     C14236   0.276   0.466  16.724 -0.0956  0.0158 -0.3989
    1MPD1    C114237   0.159   0.516  16.668 -0.3747 -0.1566  0.7129
    1MPD1    C214238   0.061   0.424  16.636  0.1160  0.6633  0.4917
    1MPD1    C314239   0.083   0.289  16.654 -0.1449  1.0283  0.2352
    1MPD1    C414240   0.199   0.244  16.699  0.0310 -0.7646 -0.1263
    1MPD1    C514241   0.298   0.332  16.733  0.0178  0.6580  1.0575
    1MPD1     H14242   4.686   0.457  16.603 -0.6750 -1.6001  0.5502
    1MPD1    H114243   0.213   0.137  16.709  0.3507 -0.6940  0.1851
    1MPD1    H214244   0.361   0.530  16.747 -0.0566 -1.0691  2.3850
    1MPD1    H314245   0.395   0.305  16.773 -0.4844 -0.9335  1.2261
    1MPD1     N14246   4.706   0.189  16.619  0.4384  0.2924 -0.1220
    1MPD1    H514247   0.001   0.090  16.634  0.9930 -0.0591 -3.1246
    1MPD1    N114248   0.127   0.655  16.686 -0.5196  0.0362 -0.0571
    1MPD1    H614249   0.207   0.717  16.674 -1.3973  0.9512 -1.1751
    1MPD1    H714250   0.066   0.686  16.611 -0.2228 -2.2517 -1.2449
    2MPD1     C14251   4.066   4.697  15.855 -0.2297 -0.1521  0.6112
    2MPD1    C114252   4.191   0.037  15.862 -0.5275  0.8239  0.3250
    2MPD1    C214253   4.260   0.044  15.980  0.3236  0.7170  0.0738
    2MPD1    C314254   4.194   0.011  16.103 -0.3620  0.3353  0.4757
    2MPD1    C414255   4.071   4.677  16.094 -0.9180 -0.3810  0.2662
    2MPD1    C514256   4.007   4.656  15.974  0.0119 -0.0801 -0.5276
    2MPD1     H14257   4.362   0.081  15.975  0.9635 -1.1501 -0.7858
    2MPD1    H114258   4.005   4.657  16.177  0.2973  0.2327  1.3648
    2MPD1    H214259   4.018   4.685  15.759  2.0706 -2.2908 -0.2476
    2MPD1    H314260   3.909   4.609  15.973 -1.0279  2.0829 -1.8227
    2MPD1     N14261   4.261   0.029  16.226  0.2443 -0.2560 -0.7390
    2MPD1    H514262   4.353   0.072  16.219 -0.6214  1.4468 -1.5442
    2MPD1    N114263   4.261   0.062  15.740  0.2813 -0.1765  0.2362
    2MPD1    H614264   4.206   0.076  15.655  2.4992  3.9524 -0.5022
    2MPD1    H714265   4.325   0.140  15.736 -0.2514  0.1255 -2.5150
    3TCq2    C114266   4.203   4.718  16.348  0.0112  0.0752 -0.7620
    3TCq2    O214267   4.096   4.668  16.376  0.0924  0.9381 -0.0996
    3TCq2    C214268   4.300   0.013  16.459 -0.4866  0.1309 -0.3583
    3TCq2    C314269   4.274   4.669  16.576 -0.1109  0.8069  0.1140
    3TCq2    C414270   4.366   4.681  16.675 -0.6494 -0.1499 -0.2166
    3TCq2    C514271   4.488   0.013  16.658  0.1023 -0.1585  0.4881
    3TCq2    C614272   4.500   0.091  16.549 -0.7361  0.0015 -0.5367
    3TCq2    C714273   4.409   0.094  16.442 -0.6734  0.1839 -0.0889
    3TCq2    C814274   4.586   0.207  16.553 -0.3876 -0.4824  0.5503
    3TCq2    O414275   4.563   0.289  16.459 -0.2132 -0.4957 -0.2489
    3TCq2    C914276   4.351   4.617  16.801  0.0866  0.4440 -0.2739
    3TCq2    O514277   4.231   4.607  16.833  0.6903  0.5143  0.4858
    3TCq2    O614278   4.449   4.591  16.871  0.5015  0.1530  0.3647
    3TCq2    H214279   4.182   4.614  16.593  0.3015 -0.0299 -0.4048
    3TCq2    H314280   4.553   0.019  16.745 -0.0141  1.2530  0.4726
    3TCq2    H414281   4.418   0.160  16.356 -1.4555  1.6146  0.9206
    1TCq1    O114282   1.929   3.750  12.629  0.2531 -0.5156 -0.2508
    1TCq1    C114283   2.030   3.717  12.551  0.0887 -0.2958  0.4566
    1TCq1    O214284   2.033   3.745  12.428  0.0257  0.3596 -0.6495
    1TCq1    C214285   2.141   3.713  12.640 -0.0270 -0.4752  0.1548
    1TCq1    C314286   2.147   3.595  12.714 -0.8358 -0.0830 -0.4799
    1TCq1    C414287   2.205   3.617  12.838  0.2728 -0.3169 -0.5458
    1TCq1    C514288   2.274   3.729  12.872  0.0497  0.4978  0.7075
    1TCq1    C614289   2.275   3.841  12.791 -0.0138 -0.0337  0.8302
    1TCq1    C714290   2.197   3.834  12.679  0.2559 -0.2026  0.0983
    1TCq1    C814291   2.345   3.966  12.825 -0.2115 -0.4451 -0.0420
    1TCq1    O414292   2.292   4.061  12.770 -0.3743 -0.1284  0.1253
    1TCq1    C914293   2.199   3.508  12.936 -0.9614 -0.2212 -0.3882
    1TCq1    O514294   2.257   3.536  13.050 -0.8868 -0.0500 -0.1218
    1TCq1    O614295   2.165   3.391  12.895 -0.1832  0.1478  0.3930
    1TCq1    H114296   1.944   3.723  12.722  1.1228 -1.9020 -0.8031
    1TCq1    H214297   2.085   3.512  12.680 -0.3815  0.5078 -2.7142
    1TCq1    H314298   2.337   3.721  12.959 -1.8313 -2.7764  1.7614
    1TCq1    H414299   2.185   3.922  12.617 -0.9885 -1.4167 -1.3725
    2MPD2     C14300   2.541   4.179  12.886 -0.3976 -0.7051  0.1139
    2MPD2    C114301   2.533   4.064  12.956  0.2533  0.7246 -0.1781
    2MPD2    C214302   2.631   4.029  13.047  0.6496 -0.2962  0.5652
    2MPD2    C314303   2.734   4.115  13.073 -0.1565 -0.0347 -0.6971
    2MPD2    C414304   2.750   4.229  12.996 -0.3166 -0.4233 -0.2341
    2MPD2    C514305   2.649   4.259  12.902  0.1641  0.5655 -0.1767
    2MPD2     H14306   2.628   3.933  13.099 -2.3211  0.4203  1.7562
    2MPD2    H114307   2.839   4.291  12.996  0.0290 -0.9259 -2.5128
    2MPD2    H214308   2.485   4.195  12.795 -0.2826 -0.3356  0.1066
    2MPD2    H314309   2.662   4.350  12.844 -1.4356  0.3665 -0.8504
    2MPD2     N14310   2.830   4.072  13.163 -0.0049  0.3677 -0.1615
    2MPD2    H514311   2.811   3.981  13.202  1.6163  1.2053  2.5681
    2MPD2    N114312   2.450   3.961  12.912 -0.1610 -0.0361 -0.2871
    2MPD2    H714313   2.451   3.878  12.971 -0.0236  0.6901  0.7381
    3TCq1    O114314   3.149   4.140  13.641  0.0085  0.0567  0.0666
    3TCq1    C114315   3.161   4.008  13.619 -0.4235  0.1795 -0.6609
    3TCq1    O214316   3.122   3.917  13.693  0.0494  0.3842  0.8007
    3TCq1    C214317   3.151   3.994  13.474  0.1299  0.1394 -0.2547
    3TCq1    C314318   3.180   3.869  13.426 -0.0157 -0.0178 -0.3174
    3TCq1    C414319   3.140   3.843  13.297  0.2171 -0.6206 -0.1553
    3TCq1    C514320   3.062   3.923  13.217  0.2706  0.1809  0.0164
    3TCq1    C614321   3.037   4.051  13.269 -0.2201  0.3491 -0.5473
    3TCq1    C714322   3.091   4.089  13.392 -0.1920 -0.2610 -0.2908
    3TCq1    C814323   2.941   4.139  13.206 -0.3144  0.5408 -0.3026
    3TCq1    O414324   2.972   4.258  13.206  0.7668 -0.6576  0.1872
    3TCq1    C914325   3.181   3.715  13.242 -0.1677 -0.1322  0.3466
    3TCq1    O514326   3.224   3.631  13.328 -0.4529 -0.0576 -0.4320
    3TCq1    O614327   3.148   3.683  13.122  0.2086 -0.8215 -0.1426
    3TCq1    H114328   3.194   4.196  13.574  0.5738 -2.4951 -1.7234
    3TCq1    H214329   3.226   3.787  13.480  0.0490  1.0053  1.1610
    3TCq1    H314330   3.021   3.889  13.122 -2.2163  2.8575  0.1641
    3TCq1    H414331   3.079   4.190  13.429 -2.1763  0.1674 -2.1560
    1MPD2     C14332   1.095   0.051  14.830  0.0307 -0.3462 -0.5657
    1MPD2    C114333   1.193   0.088  14.738 -0.3821  0.2795 -0.3293
    1MPD2    C214334   1.312   0.017  14.732  0.1834  0.7016  0.4636
    1MPD2    C314335   1.331   4.636  14.824  0.0334  0.0593  0.6213
    1MPD2    C414336   1.239   4.616  14.928  0.5090 -0.2424  0.5166
    1MPD2    C514337   1.116   4.673  14.923  0.1965 -0.2375 -0.1840
    1MPD2     H14338   1.382   0.039  14.652 -0.6064  0.6418 -0.2464
    1MPD2    H114339   1.259   4.549  15.010 -0.3443 -0.2923  0.6894
    1MPD2    H214340   0.998   0.099  14.833  0.9277  1.4879 -1.4290
    1MPD2    H314341   1.045   4.637  14.997 -0.1047  1.1023  0.1848
    1MPD2     N14342   1.453   4.562  14.825 -0.1657  0.2241  0.3614
    1MPD2    H514343   1.455   4.484  14.891  0.3315 -0.1354 -0.0825
    1MPD2    N114344   1.154   0.188  14.640 -0.0269  1.0601 -0.5126
    1MPD2    H714345   1.055   0.205  14.631 -0.0560 -0.4235 -2.8508
    2TMC3    C114346   1.176   0.299  14.434  0.0916  0.0939  0.2605
    2TMC3    C214347   1.113   0.188  14.376  0.3850 -0.5785 -0.0061
    2TMC3    C314348   1.101   0.183  14.242 -0.0363 -0.1974  0.0615
    2TMC3    C414349   1.252   0.377  14.348 -1.0311  0.1727 -0.0143
    2TMC3    C514350   1.248   0.367  14.210  0.6838 -0.7591  0.1607
    2TMC3    C614351   1.165   0.268  14.155  0.3294 -0.3305 -0.0790
    2TMC3     C14352   1.241   0.248  14.551  0.1862  0.4922  0.5630
    2TMC3     O14353   1.363   0.258  14.557 -0.5769  0.0260  0.1359
    2TMC3     H14354   1.070   0.105  14.430  1.1358 -1.8852 -1.3929
    2TMC3    H114355   1.305   0.461  14.392 -2.1149  0.3887  0.8622
    2TMC3    H214356   1.166   0.240  14.050  1.1664 -0.0993 -0.1364
    2TMC3    C714357   1.362   0.414  14.139 -0.0986  0.3306 -0.3863
    2TMC3    C814358   1.113   0.052  14.184  0.4234 -0.6239  0.2546
    2TMC3    O114359   1.359   0.411  14.015 -0.0801 -0.3374 -0.0052
    2TMC3    O214360   1.091   0.034  14.064 -0.5094  0.4580  0.3647
    3TCq1    O114361   2.240   1.104  14.575 -0.0444  0.3354 -0.1442
    3TCq1    C114362   2.257   1.000  14.663 -0.0606  0.0192  0.0382
    3TCq1    O214363   2.340   0.998  14.751  0.3554  0.2677 -0.2496
    3TCq1    C214364   2.167   0.888  14.635 -0.1811 -0.9838 -0.0683
    3TCq1    C314365   2.188   0.781  14.712  0.4982 -0.3125 -0.1160
    3TCq1    C414366   2.117   0.669  14.694 -0.4485  0.6779  0.1687
    3TCq1    C514367   2.016   0.657  14.598 -0.2199 -0.2897 -0.2917
    3TCq1    C614368   2.007   0.769  14.520  1.2722 -0.1435  0.5494
    3TCq1    C714369   2.090   0.881  14.525  0.2131  0.1436 -0.4290
    3TCq1    C814370   1.955   0.748  14.390 -0.3759 -0.5413 -0.7680
    3TCq1    O414371   1.991   0.822  14.298  0.7764  0.2423 -0.1488
    3TCq1    C914372   2.131   0.563  14.796 -0.1651  0.3621 -0.2934
    3TCq1    O514373   2.052   0.466  14.804 -0.1507 -0.5885 -0.2707
    3TCq1    O614374   2.199   0.610  14.889 -0.3760 -0.3034  0.9963
    3TCq1    H114375   2.155   1.097  14.527  0.5653 -0.1063 -1.1522
    3TCq1    H214376   2.255   0.788  14.796 -0.5333 -1.0955  0.7725
    3TCq1    H314377   1.971   0.560  14.583  0.5345 -1.0727  2.5706
    3TCq1    H414378   2.076   0.963  14.456  1.6460 -0.7937 -1.8227
    4MPD2     C14379   1.814   0.658  14.142  0.4094  0.2263 -0.4334
    4MPD2    C114380   1.782   0.616  14.274 -0.0688  0.1363  0.3329
    4MPD2    C214381   1.658   0.546  14.296  0.1909 -0.1275 -0.3320
    4MPD2    C314382   1.577   0.521  14.192  0.2243  0.1604  0.5604
    4MPD2    C414383   1.607   0.568  14.064  0.3995 -0.1167  0.6941
    4MPD2    C514384   1.728   0.626  14.038  0.5759  0.1027 -0.0090
    4MPD2     H14385   1.641   0.515  14.398  1.3585  0.5315  0.0593
    4MPD2    H114386   1.547   0.541  13.978  0.7958 -2.3385  1.1133
    4MPD2    H214387   1.902   0.714  14.112  1.3095 -1.5914 -1.2119
    4MPD2    H314388   1.748   0.657  13.936  0.3165  1.7099  0.4345
    4MPD2     N14389   1.462   0.441  14.224  0.1100 -0.1983 -0.6977
    4MPD2    H514390   1.446   0.423  14.322  1.6883 -0.1393 -0.4168
    4MPD2    N114391   1.861   0.650  14.386 -0.1440  0.2268 -0.1590
    4MPD2    H714392   1.843   0.588  14.465  1.3873  1.1321  0.8979
    5TMC2    C114393   1.614   4.251  14.582  0.1875 -0.7895 -0.3599
    5TMC2    C214394   1.752   4.251  14.565 -0.2059  0.3006 -0.6031
    5TMC2    C314395   1.822   4.353  14.627  0.0097  0.1315  0.0925
    5TMC2    C414396   1.552   4.333  14.672 -0.2390  0.6016 -0.1721
    5TMC2    C514397   1.623   4.444  14.720  0.3683 -0.0335 -0.9590
    5TMC2    C614398   1.757   4.453  14.691 -0.1762 -0.2167 -0.4625
    5TMC2     C14399   1.536   4.251  14.463 -0.4862  0.0150 -0.6013
    5TMC2     O14400   1.590   4.190  14.371  0.3726 -0.1909 -0.1049
    5TMC2     H14401   1.803   4.178  14.504 -0.2544 -1.1554  1.0844
    5TMC2    H114402   1.449   4.320  14.703  0.1240 -1.0399  0.3420
    5TMC2    H214403   1.818   4.539  14.717  1.5019 -1.3477 -0.6690
    5TMC2    C714404   1.557   4.573  14.740  0.3254 -1.4874 -0.1809
    5TMC2    C814405   1.971   4.345  14.637 -0.0124  0.5173  0.4945
    5TMC2    O114406   1.605   4.672  14.684 -0.3412  0.1609  0.7090
    5TMC2    O214407   2.036   4.273  14.560  0.1774  0.4566  0.4601
    5TMC2    O514408   2.020   4.377  14.758  0.2328 -0.1206  0.5301
    5TMC2    H514409   1.967   4.435  14.817 -1.7730 -0.4011 -0.9891
    6MPD2     C14410   1.230   4.509  14.139 -0.2489 -0.4551  0.4560
    6MPD2    C114411   1.249   4.581  14.253 -0.4365  0.4993 -0.0377
    6MPD2    C214412   1.327   4.528  14.351 -0.0447  0.3413  0.3800
    6MPD2    C314413   1.390   4.402  14.331  0.1757 -0.1011 -0.6200
    6MPD2    C414414   1.372   4.331  14.212  0.3695 -0.1291 -0.1265
    6MPD2    C514415   1.294   4.392  14.117  0.7769  0.0293  0.1412
    6MPD2     H14416   1.317   4.581  14.445 -2.6971  0.1346  0.2133
    6MPD2    H114417   1.411   4.233  14.186 -0.6364 -1.0437  1.7838
    6MPD2    H214418   1.166   4.543  14.059  0.3780  1.2405  0.6785
    6MPD2    H314419   1.281   4.344  14.021  1.5492  1.1491 -0.5309
    6MPD2     N14420   1.453   4.361  14.451 -1.0157 -0.6345  0.3898
    6MPD2    H514421   1.428   4.401  14.540  3.2525 -0.7838  1.6843
    6MPD2    N114422   1.180   4.701  14.271  0.1251  0.2480  0.5998
    6MPD2    H714423   1.189   0.022  14.362  0.0928 -1.1236  1.2615
  945NH3     N114424   0.905   2.906  10.500 -0.4069  0.1895  0.5306
  945NH3     H214425   0.972   2.830  10.503 -1.4073 -0.7929 -1.8202
  945NH3     H314426   0.928   2.943  10.409  1.8511  0.6556  1.2886
  945NH3     H414427   0.816   2.862  10.479  1.5167 -2.0226 -2.9709
  946SOD     NA14428   2.423   0.584  14.871  0.1608  0.4442 -0.1890
  947SOD     NA14429   3.405   3.602  13.422  0.2474 -0.0759 -0.1704
  948SOD     NA14430   0.479   2.655   9.672  0.0134  0.1638  0.3901
  949SOD     NA14431   3.240   3.652  12.077 -0.1009 -0.1241 -0.0499
  950SOD     NA14432   3.822   3.233   0.351  0.4712  0.0248  0.2636
  951SOD     NA14433   3.094   0.575   3.539  0.4384  0.6317  0.0464
  952SOD     NA14434   2.584   3.566  10.484 -0.4507 -0.3883  0.0473
  953SOD     NA14435   1.179   3.937  10.918  0.6426 -0.4338  0.5423
  954SOD     NA14436   0.467   3.121  13.887 -0.3040 -0.3465 -0.2627
  955SOD     NA14437   2.470   0.268  14.767 -0.1654  0.6211  0.0676
  956SOD     NA14438   4.662   4.538  15.057 -0.3652 -0.1759 -0.2051
  957SOD     NA14439   1.366   0.061  11.381 -0.6097  0.5241  0.2243
  958SOD     NA14440   1.997   0.712   1.954  0.0749  0.1068  0.2489
  959SOD     NA14441   0.049   3.217  14.920 -0.1383 -0.1989 -0.1139
  960SOD     NA14442   1.812   1.550  13.183 -0.1587 -0.3960 -0.2315
  961SOD     NA14443   1.124   4.470  11.754 -0.2155  0.2583 -0.3517
  962SOD     NA14444   3.274   3.723  12.850 -0.2073 -0.3019 -0.2883
  963SOD     NA14445   2.883   4.027  11.846  0.3479 -0.4138  0.0272
  964SOD     NA14446   0.250   3.137  12.768  0.0183  0.0017 -0.5912
  965SOD     NA14447   3.060   3.268  10.899 -0.0580 -0.1896  0.1401
  966SOD     NA14448   1.677   0.142  14.640  0.3706  0.3448  0.0678
  967SOD     NA14449   3.251   1.159   0.934  0.3529  0.1219 -0.1139
  968SOD     NA14450   2.544   1.261   9.169  0.0293  0.0962 -0.4007
  969SOD     NA14451   0.039   3.703   2.042  0.3473  0.7044 -0.0593
  970SOD     NA14452   3.848   4.002  10.805 -0.0281  0.3003  0.3419
  971SOD     NA14453   1.103   1.273   1.900 -0.1766 -0.3196 -0.4032
  972SOD     NA14454   4.205   0.159   3.351 -0.1828 -0.4692  1.0335
  973SOD     NA14455   2.226   3.066  10.439 -0.1966 -0.1787  0.1574
  974SOD     NA14456   2.803   4.348  11.381  0.2593  0.0656  0.3400
  975SOD     NA14457   0.983   0.118  11.080  0.1728 -0.5138 -0.0816
  976SOD     NA14458   2.625   4.335  10.567  0.5264 -0.5809  0.1226
  977SOD     NA14459   2.896   4.345  11.867 -0.2486 -0.1897 -0.1181
  978SOD     NA14460   2.685   0.013   1.948  0.7593  0.5979 -0.7133
  979SOD     NA14461   1.266   2.339  12.032 -0.5668  0.2951  0.3072
  980SOD     NA14462   0.200   3.706  14.079  0.3559  0.4449 -0.1283
  981SOD     NA14463   2.241   2.518  16.334 -0.0088  0.4413 -0.1657
  982SOD     NA14464   4.024   4.626  16.814  0.2395  0.4965 -0.5771
  983SOD     NA14465   0.447   3.322  16.936 -0.1033  0.0613 -0.2296
  984SOD     NA14466   2.300   2.716   8.420  0.0370  0.3332 -0.1398
  985SOD     NA14467   1.041   3.353   9.021  0.0794 -0.9083 -0.1950
  986SOD     NA14468   4.709   2.042   1.867  0.4525  0.5007 -0.2355
  987SOD     NA14469   1.213   1.080  17.078  0.2107  0.4939 -0.1615
  988SOD     NA14470   0.829   3.622   8.611 -0.2549  0.1880  0.3687
  989SOD     NA14471   2.947   2.636   0.257 -0.0558 -0.5066  0.2844
  990SOD     NA14472   2.534   0.629   8.774  0.2000  0.0603  0.1206
  991SOD     NA14473   3.746   0.553  13.306 -0.1684 -0.2269  0.0198
  992SOD     NA14474   3.406   0.121  14.342 -0.0585 -0.2021  0.3805
  993SOD     NA14475   0.751   2.658   9.559  0.1697 -0.0339 -0.3309
  994SOD     NA14476   2.503   3.002  11.275  0.1293 -0.6557  0.2726
  995SOD     NA14477   3.794   4.432  15.287  0.5884 -0.1801  0.4422
  996SOD     NA14478   3.905   2.842   2.608 -0.6866 -0.1122 -0.1407
  997SOD     NA14479   2.660   3.218  10.400  0.0476  0.4208  0.4299
  998SOD     NA14480   2.587   2.723   6.388  0.3002 -0.2008 -0.0197
  999SOD     NA14481   1.412   4.330  11.665 -0.2170 -0.3092  0.0495
 1000SOD     NA14482   2.547   1.528  17.322  0.1053  0.0199 -0.5140
 1001SOD     NA14483   0.193   3.578  11.539 -0.5676  0.4826 -0.2953
 1002SOD     NA14484   4.238   0.669  13.364 -0.5391 -0.1808  0.3480
 1003SOD     NA14485   2.457   3.492  13.106  0.1963  0.2570  0.4566
 1004SOD     NA14486   1.747   4.284  13.169 -0.0387 -0.2860 -0.2582
 1005SOD     NA14487   3.271   3.202  17.016  0.5318 -0.4365  0.3054
 1006SOD     NA14488   2.337   3.331  10.257  0.1076  0.2272 -0.3748
 1007SOD     NA14489   2.915   0.929  10.092 -0.0595  0.7818 -0.2615
 1008SOD     NA14490   3.001   3.037  14.508 -0.2855 -0.1113 -0.1155
 1009SOD     NA14491   2.126   0.355  14.980  0.0870  0.0962  0.2780
 1010SOD     NA14492   4.666   4.114   0.783  0.0414  0.2115  0.6962
 1011SOD     NA14493   2.976   4.413   2.711 -0.2236  0.0647 -0.1472
 1012SOL     OW14494   0.106   1.082   6.492  0.0712 -0.6078  0.1696
 1012SOL    HW114495   0.093   1.145   6.563  0.5186 -0.1941 -0.1128
 1012SOL    HW214496   0.025   1.033   6.505 -0.2881 -0.1919 -0.4809
 1013SOL     OW14497   4.410   0.451   4.981  0.3241 -0.2296  0.2699
 1013SOL    HW114498   4.474   0.520   5.000  1.5087 -1.7241  1.6214
 1013SOL    HW214499   4.371   0.486   4.900 -0.0094 -0.1601  0.4602
 1014SOL     OW14500   4.026   3.402   9.222 -0.6385 -0.3932 -0.0891
 1014SOL    HW114501   4.078   3.413   9.142  1.0728  0.5882  1.1482
 1014SOL    HW214502   3.974   3.324   9.204 -0.4267 -0.3127 -1.0774
 1015SOL     OW14503   1.563   1.661   7.307  0.2419 -0.3990 -0.6194
 1015SOL    HW114504   1.612   1.616   7.376  0.6019 -1.1971 -1.4131
 1015SOL    HW214505   1.607   1.745   7.297 -0.2817 -0.1265 -0.6691
 1016SOL     OW14506   2.630   3.005  13.562 -0.0378 -0.3563 -0.0901
 1016SOL    HW114507   2.612   2.936  13.626 -0.0770  0.2104  0.5082
 1016SOL    HW214508   2.660   2.946  13.492  0.4708 -0.0685 -0.1152
 1017SOL     OW14509   1.568   1.843   2.299 -0.2915 -0.4054  0.2587
 1017SOL    HW114510   1.634   1.859   2.366 -0.8529 -1.7654  1.1278
 1017SOL    HW214511   1.491   1.895   2.324  0.8094  0.6903  1.3705
 1018SOL     OW14512   0.601   1.013   1.782 -0.1643  0.6709  0.5271
 1018SOL    HW114513   0.628   0.979   1.868  0.2809  0.0672  0.1450
 1018SOL    HW214514   0.644   1.097   1.770 -1.1141  1.1161  0.2936
 1019SOL     OW14515   1.580   4.646   3.393 -0.1744 -0.2982  0.2300
 1019SOL    HW114516   1.499   4.621   3.437 -0.6380  0.6307 -0.0769
 1019SOL    HW214517   1.548   4.653   3.303 -2.7088  1.3714  1.2583
 1020SOL     OW14518   3.014   2.916   6.990  0.0831  0.1553 -0.5638
 1020SOL    HW114519   3.045   2.989   6.936 -2.7519  0.1817 -2.1549
 1020SOL    HW214520   3.051   2.941   7.075 -2.5430 -0.7671  0.8362
 1021SOL     OW14521   2.922   0.164  17.210  0.2171 -0.0940 -0.5301
 1021SOL    HW114522   2.898   0.148  17.302 -4.1422  1.2565 -1.4250
 1021SOL    HW214523   2.894   0.256  17.208  3.5316  0.8615 -3.6044
 1022SOL     OW14524   0.062   3.568  12.606 -0.0095 -0.3859 -0.3814
 1022SOL    HW114525   4.717   3.516  12.561  0.3929  0.2160 -1.6691
 1022SOL    HW214526   0.131   3.502  12.607  1.7728  1.5132  0.1720
 1023SOL     OW14527   1.206   2.637  11.659  0.6810 -0.3908 -0.2283
 1023SOL    HW114528   1.280   2.623  11.600 -0.1603 -0.3327 -1.2907
 1023SOL    HW214529   1.132   2.660  11.604  1.2335 -0.2907 -0.9219
 1024SOL     OW14530   2.337   3.292   8.904 -0.9927  0.8146  0.1235
 1024SOL    HW114531   2.382   3.355   8.960 -0.3386 -0.2861  0.8321
 1024SOL    HW214532   2.365   3.327   8.820  0.3253 -0.1565  0.1604
 1025SOL     OW14533   0.301   1.668   6.558  0.1653 -0.1902  0.0050
 1025SOL    HW114534   0.336   1.694   6.643  1.3416  0.0473 -0.5517
 1025SOL    HW214535   0.215   1.711   6.549  1.7278  3.3218  1.8409
 1026SOL     OW14536   3.342   4.466   3.990  0.2515 -0.0319 -0.0925
 1026SOL    HW114537   3.307   4.453   3.902  0.4108 -0.3946 -0.1016
 1026SOL    HW214538   3.436   4.484   3.986 -0.4299  2.9972 -2.5684
 1027SOL     OW14539   1.321   4.180   8.447  0.1330  0.1248 -0.3001
 1027SOL    HW114540   1.399   4.223   8.482 -0.5428  0.8825  0.2986
 1027SOL    HW214541   1.278   4.261   8.418  1.7831  0.4346 -1.8501
 1028SOL     OW14542   0.119   4.410   4.703  0.7772 -0.3869 -0.2827
 1028SOL    HW114543   0.147   4.330   4.658  2.2369  0.2607 -0.5294
 1028SOL    HW214544   0.151   4.391   4.792  1.0213  3.1576  0.4008
 1029SOL     OW14545   1.207   2.791   4.366 -0.1869 -0.0553 -0.3589
 1029SOL    HW114546   1.271   2.830   4.307  1.3619  0.1363  1.4395
 1029SOL    HW214547   1.218   2.700   4.338  0.7021 -0.1559  0.3119
 1030SOL     OW14548   2.175   2.216  11.890  0.2810  0.4083  0.0301
 1030SOL    HW114549   2.219   2.139  11.855  0.2752  0.5389 -0.2651
 1030SOL    HW214550   2.223   2.287  11.847  1.9979 -2.3551 -2.5631
 1031SOL     OW14551   0.977   4.710   4.296 -0.5782  0.0906  0.0184
 1031SOL    HW114552   0.973   0.051   4.225  2.2842 -0.4725 -0.6170
 1031SOL    HW214553   1.025   4.634   4.264  0.9199  0.7257  0.7559
 1032SOL     OW14554   4.227   0.297  14.573 -0.2530  0.0568  0.5098
 1032SOL    HW114555   4.136   0.324  14.559 -0.2359  0.5677  1.4154
 1032SOL    HW214556   4.239   0.223  14.513 -0.6961  0.6381 -0.2942
 1033SOL     OW14557   0.937   3.119   8.111 -0.5767 -0.1903  0.3585
 1033SOL    HW114558   0.952   3.073   8.029  0.2234  1.3476 -0.3525
 1033SOL    HW214559   0.843   3.135   8.112 -0.2241  1.8282  1.0185
 1034SOL     OW14560   0.582   0.185  13.801 -0.1012  0.1331  0.4111
 1034SOL    HW114561   0.499   0.167  13.844  0.0944  2.0018  1.5460
 1034SOL    HW214562   0.566   0.276  13.776  1.0761 -0.0209 -0.9599
 1035SOL     OW14563   0.756   2.191   6.373 -0.3113 -0.2108  0.6629
 1035SOL    HW114564   0.693   2.139   6.325 -1.2249 -0.6927  2.3794
 1035SOL    HW214565   0.776   2.148   6.456  2.8781  0.7209  0.3753
 1036SOL     OW14566   2.510   0.920   8.220  0.2462  0.7669 -0.6382
 1036SOL    HW114567   2.522   0.864   8.143  1.0579  0.0719 -0.0081
 1036SOL    HW214568   2.442   0.982   8.193  0.1106  1.7384  1.9351
 1037SOL     OW14569   0.557   2.161  16.854 -0.0264 -0.3563  0.3779
 1037SOL    HW114570   0.576   2.248  16.890 -2.4024  0.7997 -1.2463
 1037SOL    HW214571   0.543   2.119  16.939 -3.3639  1.6723  0.8310
 1038SOL     OW14572   0.985   2.261   1.237 -0.2727  0.8452 -0.3628
 1038SOL    HW114573   1.066   2.287   1.282 -0.3535  0.5059 -0.0156
 1038SOL    HW214574   0.988   2.165   1.247 -1.3375  0.7586 -0.8650
 1039SOL     OW14575   2.304   2.344   4.106 -0.4924 -0.0566 -0.3388
 1039SOL    HW114576   2.360   2.421   4.106  0.5653 -0.8333  0.8770
 1039SOL    HW214577   2.283   2.347   4.199 -0.3410 -0.0529 -0.3048
 1040SOL     OW14578   2.352   3.935  11.881 -0.0030  0.2155 -0.3337
 1040SOL    HW114579   2.388   3.859  11.927 -3.3330  0.0531  2.0578
 1040SOL    HW214580   2.398   3.937  11.797  0.4786  2.4858 -0.0158
 1041SOL     OW14581   1.933   4.582   2.443  0.2094 -0.0026  0.3921
 1041SOL    HW114582   1.955   4.525   2.369  1.3512 -0.5301  1.1508
 1041SOL    HW214583   1.845   4.544   2.450 -0.4090  1.0847 -1.4507
 1042SOL     OW14584   2.407   2.246   6.271  0.6486  0.0438 -0.1237
 1042SOL    HW114585   2.445   2.282   6.191  0.1163 -0.2317 -0.4996
 1042SOL    HW214586   2.439   2.156   6.276 -0.4687 -0.2778  1.1308
 1043SOL     OW14587   4.192   4.609  15.314  0.0653 -0.4800 -0.1102
 1043SOL    HW114588   4.173   4.651  15.230 -3.0770 -1.0622  0.3145
 1043SOL    HW214589   4.171   4.677  15.379 -0.7308 -0.3155 -0.5357
 1044SOL     OW14590   0.843   1.939  13.015  0.2936  0.1070  0.2406
 1044SOL    HW114591   0.896   1.860  13.019  1.9807  1.2268  0.2150
 1044SOL    HW214592   0.903   1.978  12.950  2.0782  0.4201  2.0933
 1045SOL     OW14593   3.648   2.146   8.935  0.1611 -0.4756  0.3808
 1045SOL    HW114594   3.633   2.241   8.930  2.1334 -0.1392  0.8818
 1045SOL    HW214595   3.732   2.135   8.891  0.6706 -1.6111  1.6314
 1046SOL     OW14596   1.209   3.301  17.577  0.2667  0.1269  0.6291
 1046SOL    HW114597   1.218   3.206  17.570 -1.2026  0.1098 -0.7837
 1046SOL    HW214598   1.199   3.303  17.673  1.8770  0.0288  0.8031
 1047SOL     OW14599   2.392   2.097   3.251  0.1541  0.0110 -0.0549
 1047SOL    HW114600   2.304   2.061   3.240  0.5455 -1.0137  0.1680
 1047SOL    HW214601   2.372   2.189   3.239  0.0438  0.0465  0.3862
 1048SOL     OW14602   0.794   2.839  11.912 -0.0494  0.0514  0.0722
 1048SOL    HW114603   0.835   2.755  11.934 -0.7910 -0.1786  0.6064
 1048SOL    HW214604   0.821   2.901  11.980 -1.0539  0.4604  0.0984
 1049SOL     OW14605   3.536   2.780  10.750  0.3367 -0.0238  0.4247
 1049SOL    HW114606   3.540   2.686  10.731  1.2532 -0.3661  2.3334
 1049SOL    HW214607   3.629   2.799  10.761 -0.2314  2.4950  0.7080
 1050SOL     OW14608   3.932   1.681   8.444  0.6075 -0.3450  0.2846
 1050SOL    HW114609   3.977   1.721   8.519  1.5260  1.3378 -1.1783
 1050SOL    HW214610   3.841   1.702   8.465  0.0128 -1.3637 -1.3452
 1051SOL     OW14611   1.534   0.141   7.220 -0.1361 -0.3502 -0.6034
 1051SOL    HW114612   1.542   0.159   7.313  2.7253 -0.8476 -0.7579
 1051SOL    HW214613   1.574   0.214   7.174 -0.3052  0.1006 -0.0342
 1052SOL     OW14614   3.654   3.761  15.049 -0.2159  0.2811 -0.1905
 1052SOL    HW114615   3.743   3.795  15.041 -0.9135  2.1922 -0.0236
 1052SOL    HW214616   3.653   3.727  15.139  0.5828 -1.5217 -0.8860
 1053SOL     OW14617   2.530   3.593   1.790 -0.1331  0.4687  1.1738
 1053SOL    HW114618   2.516   3.676   1.836  0.3232  0.6459  0.9918
 1053SOL    HW214619   2.448   3.575   1.745 -0.3574  1.0358  1.3584
 1054SOL     OW14620   0.627   2.934   7.397  0.5857  0.0168  0.6676
 1054SOL    HW114621   0.601   3.020   7.367  3.3512  0.8499  0.6318
 1054SOL    HW214622   0.666   2.892   7.320  1.3616 -1.3540  1.8009
 1055SOL     OW14623   3.406   2.779  14.835  0.1402 -0.3706  0.1427
 1055SOL    HW114624   3.343   2.725  14.883  1.0492 -1.3888  0.1852
 1055SOL    HW214625   3.493   2.757  14.867  0.0473 -0.4479  0.3436
 1056SOL     OW14626   3.577   0.856   8.430 -0.5405  0.1501  0.5192
 1056SOL    HW114627   3.534   0.920   8.486  3.0550  1.6032  1.6643
 1056SOL    HW214628   3.611   0.795   8.495  1.4349 -0.6372 -1.2442
 1057SOL     OW14629   1.459   3.366   9.324 -0.4183  0.1478 -0.2069
 1057SOL    HW114630   1.400   3.439   9.342 -0.6274 -0.7304  2.5823
 1057SOL    HW214631   1.503   3.343   9.405  1.9988 -0.9102 -1.8045
 1058SOL     OW14632   4.275   3.274   9.972 -0.0483  0.0939  0.5609
 1058SOL    HW114633   4.207   3.292  10.038 -0.6819 -1.8016  0.4167
 1058SOL    HW214634   4.304   3.192  10.010  0.3181  0.0715  0.2311
 1059SOL     OW14635   4.532   3.950  11.875  0.7623  0.0452 -0.0983
 1059SOL    HW114636   4.557   4.031  11.919 -0.8756  0.7266 -0.4377
 1059SOL    HW214637   4.439   3.962  11.856  0.9795 -0.2876 -1.3492
 1060SOL     OW14638   2.100   1.107  16.907 -0.2879 -0.0360  0.0997
 1060SOL    HW114639   2.052   1.058  16.973  0.1966 -2.7173 -1.5385
 1060SOL    HW214640   2.165   1.038  16.893 -0.8101 -0.1719 -1.7249
 1061SOL     OW14641   2.821   3.461   2.605 -0.1678 -0.5061  0.0394
 1061SOL    HW114642   2.735   3.496   2.628 -1.7184 -2.6227 -2.5209
 1061SOL    HW214643   2.847   3.426   2.690  0.7414 -1.1360 -0.4921
 1062SOL     OW14644   1.554   3.075   4.868  0.5504 -0.4834 -0.3813
 1062SOL    HW114645   1.579   3.104   4.780  0.1897 -1.0670 -0.6725
 1062SOL    HW214646   1.483   3.012   4.855  1.5076 -1.2958 -1.7521
 1063SOL     OW14647   1.518   4.462   5.994  0.0728  0.0443 -0.0479
 1063SOL    HW114648   1.517   4.369   6.017 -2.2542 -0.1402 -0.8839
 1063SOL    HW214649   1.505   4.462   5.899 -1.4465 -0.5009  0.1668
 1064SOL     OW14650   1.671   2.835   6.460  0.3358  0.2305 -0.1469
 1064SOL    HW114651   1.694   2.927   6.479  0.9265  0.3037 -1.1734
 1064SOL    HW214652   1.678   2.835   6.364  0.5551 -1.9155 -0.1216
 1065SOL     OW14653   0.479   1.601  14.385 -0.3780 -0.3075 -0.1885
 1065SOL    HW114654   0.431   1.518  14.378 -2.1711  0.7445 -0.2340
 1065SOL    HW214655   0.437   1.638  14.308 -1.0243 -2.3495 -0.8124
 1066SOL     OW14656   2.085   1.510   4.979 -0.4556 -0.2127 -0.6023
 1066SOL    HW114657   2.081   1.495   4.885 -2.3553  2.3887 -0.9266
 1066SOL    HW214658   2.119   1.600   4.974  0.8311 -0.7278 -1.1339
 1067SOL     OW14659   0.604   0.376   1.435 -0.3542  0.4318  0.3783
 1067SOL    HW114660   0.678   0.323   1.465  1.5270  2.4723 -0.6835
 1067SOL    HW214661   0.632   0.408   1.349 -1.3669 -0.8959 -0.4478
 1068SOL     OW14662   3.748   4.355   2.488  0.2178  0.1003 -0.2787
 1068SOL    HW114663   3.817   4.382   2.428 -0.1689  1.1080 -0.2569
 1068SOL    HW214664   3.723   4.438   2.528 -0.4781 -0.2508  0.0333
 1069SOL     OW14665   3.321   2.380   5.890 -0.4530 -0.3772 -0.2195
 1069SOL    HW114666   3.342   2.447   5.955 -0.2366 -0.7744  0.1244
 1069SOL    HW214667   3.308   2.448   5.825  0.1111  1.7254  1.8887
 1070SOL     OW14668   2.377   2.629   2.426  0.2431 -0.4445 -0.0757
 1070SOL    HW114669   2.305   2.685   2.397  0.5425 -0.1123 -0.1764
 1070SOL    HW214670   2.338   2.566   2.486  1.5522  0.2101  1.4604
 1071SOL     OW14671   4.297   3.860   7.524  0.2814  0.2828  0.0219
 1071SOL    HW114672   4.283   3.850   7.618  3.4824  0.1563  0.5114
 1071SOL    HW214673   4.327   3.951   7.519 -0.0815  0.4513  0.9317
 1072SOL     OW14674   3.715   3.701  14.183 -0.2993 -0.4617 -0.0683
 1072SOL    HW114675   3.802   3.670  14.210 -0.3128 -1.2081 -0.8818
 1072SOL    HW214676   3.701   3.777  14.239  0.4635 -0.2912 -0.1079
 1073SOL     OW14677   3.569   0.088  10.979  0.2388 -0.0234 -0.3407
 1073SOL    HW114678   3.563   4.719  10.953 -1.6719 -0.4702  1.6573
 1073SOL    HW214679   3.642   0.107  10.921  0.4426 -0.6902 -0.2957
 1074SOL     OW14680   2.356   3.752   0.169  0.3519  0.0980  1.0337
 1074SOL    HW114681   2.402   3.818   0.221  1.3256 -0.4823  0.9133
 1074SOL    HW214682   2.322   3.800   0.093 -2.6448 -1.8952  1.1101
 1075SOL     OW14683   1.165   0.920  12.708  0.2774  0.1207 -0.6676
 1075SOL    HW114684   1.160   0.989  12.774 -0.6451  1.6193 -2.2913
 1075SOL    HW214685   1.075   0.917  12.675 -0.3034  0.7225  0.8621
 1076SOL     OW14686   0.261   3.081  17.410 -0.1187  0.5806  0.0770
 1076SOL    HW114687   0.267   3.103  17.317 -0.3150 -1.2240 -0.3658
 1076SOL    HW214688   0.168   3.064  17.421  0.4526 -2.1768  0.8265
 1077SOL     OW14689   1.772   1.864   2.473 -0.0342  0.3521  0.0104
 1077SOL    HW114690   1.824   1.933   2.512  0.7609  1.1793 -2.4998
 1077SOL    HW214691   1.842   1.804   2.448  0.8018  1.8751 -1.2830
 1078SOL     OW14692   4.014   4.224   9.010 -0.5176  0.1446  0.3781
 1078SOL    HW114693   3.919   4.223   9.010 -0.5188  0.1299 -2.1843
 1078SOL    HW214694   4.046   4.186   8.929  0.2131  0.8845  0.3175
 1079SOL     OW14695   2.799   1.028   7.186 -0.5405  0.0028  0.2419
 1079SOL    HW114696   2.780   1.068   7.271 -2.3910  0.4980 -0.4046
 1079SOL    HW214697   2.834   1.105   7.141  0.8267 -1.1677 -0.6699
 1080SOL     OW14698   4.390   2.735  10.509 -0.2049  0.6559  0.2339
 1080SOL    HW114699   4.416   2.661  10.454 -0.4675 -0.3289  1.4265
 1080SOL    HW214700   4.454   2.716  10.578 -0.6911  1.2892  0.8599
 1081SOL     OW14701   0.958   3.072   6.427  0.2095  0.7082 -0.8350
 1081SOL    HW114702   0.896   3.106   6.363 -1.6425 -0.3071  0.4355
 1081SOL    HW214703   0.942   2.978   6.418 -1.3684  1.3464 -4.2610
 1082SOL     OW14704   0.204   4.275   8.765  0.0154 -0.6665  0.3838
 1082SOL    HW114705   0.166   4.222   8.835 -1.2128  0.6613  0.7064
 1082SOL    HW214706   0.220   4.209   8.697 -0.8382  0.0948 -0.5686
 1083SOL     OW14707   1.616   3.314  14.439  0.1809  0.0616 -0.1600
 1083SOL    HW114708   1.562   3.390  14.458  0.2657  0.2238 -0.5759
 1083SOL    HW214709   1.556   3.242  14.417 -0.2929  0.8250 -1.3488
 1084SOL     OW14710   3.313   0.735   7.560  0.0197  0.0499  0.2974
 1084SOL    HW114711   3.338   0.742   7.652  0.4671  0.8544  0.1183
 1084SOL    HW214712   3.361   0.662   7.521  2.1228  1.4892  0.1983
 1085SOL     OW14713   1.987   3.019   4.211 -0.2600  0.3198 -0.5762
 1085SOL    HW114714   1.962   2.928   4.221  1.8447  0.1165  2.8029
 1085SOL    HW214715   2.042   3.011   4.133  0.3435 -0.0183 -0.1184
 1086SOL     OW14716   1.247   3.048   6.978  0.3674  0.1199 -0.2190
 1086SOL    HW114717   1.306   3.012   6.912  0.3782  0.5971 -0.4670
 1086SOL    HW214718   1.313   3.101   7.022  1.1070 -1.8972  1.1019
 1087SOL     OW14719   2.058   2.963   7.621 -0.1096 -0.3247 -0.5529
 1087SOL    HW114720   2.111   2.952   7.699 -1.0799 -1.6094 -0.0805
 1087SOL    HW214721   1.997   3.032   7.649  2.6280  1.5560  0.7569
 1088SOL     OW14722   2.765   4.463   4.375 -1.0305  0.0271 -0.0103
 1088SOL    HW114723   2.797   4.552   4.361  0.1197 -0.1760  1.3207
 1088SOL    HW214724   2.844   4.410   4.370  0.2373  1.8528  0.8300
 1089SOL     OW14725   1.150   3.425   7.514 -0.3212  0.2793 -0.1771
 1089SOL    HW114726   1.100   3.447   7.436 -1.4989  0.9408  0.7554
 1089SOL    HW214727   1.089   3.457   7.581  0.0421  2.3044 -0.7964
 1090SOL     OW14728   3.909   2.691   2.438 -0.2245  0.8175 -0.0351
 1090SOL    HW114729   3.967   2.675   2.364 -0.3084  0.3133  0.0103
 1090SOL    HW214730   3.835   2.638   2.409 -0.2439  1.6625 -1.4926
 1091SOL     OW14731   0.343   2.977   4.549 -0.6520  0.0692  0.5112
 1091SOL    HW114732   0.272   3.040   4.542 -1.6896 -1.4190 -2.0746
 1091SOL    HW214733   0.306   2.899   4.591  1.4990 -1.4899 -0.4966
 1092SOL     OW14734   1.399   2.740   5.134  0.7360  0.0470 -0.4379
 1092SOL    HW114735   1.389   2.827   5.173  0.5776  0.6889 -1.9063
 1092SOL    HW214736   1.315   2.744   5.089 -0.8845 -0.0350  2.6123
 1093SOL     OW14737   0.225   4.664   7.828 -0.3570 -0.0541 -0.2306
 1093SOL    HW114738   0.246   0.034   7.815  0.4307 -0.2003 -0.0265
 1093SOL    HW214739   0.229   4.630   7.739 -2.2267  0.1832 -0.4060
 1094SOL     OW14740   4.670   4.295   2.485  0.2721 -0.0463  0.3229
 1094SOL    HW114741   4.702   4.208   2.510 -0.0546 -0.6161 -1.2668
 1094SOL    HW214742   0.022   4.327   2.435 -0.5728  1.7815  0.2519
 1095SOL     OW14743   3.496   0.324   8.570 -0.5463  0.1935 -0.3384
 1095SOL    HW114744   3.514   0.240   8.612 -0.6103  0.9684  1.2503
 1095SOL    HW214745   3.436   0.371   8.628 -2.3774 -1.8359 -0.5853
 1096SOL     OW14746   4.325   3.026   7.140 -0.1239 -0.3356 -0.0605
 1096SOL    HW114747   4.325   3.056   7.231 -1.3195 -2.8535  0.7514
 1096SOL    HW214748   4.269   2.951   7.159 -0.8105 -0.1370 -1.2808
 1097SOL     OW14749   3.045   3.318  12.853  0.4239 -0.2289 -0.3563
 1097SOL    HW114750   3.041   3.408  12.887 -1.9590  0.2807 -1.9868
 1097SOL    HW214751   3.096   3.277  12.923 -0.8374  1.7231  1.7405
 1098SOL     OW14752   2.435   1.989  14.469 -0.0626 -0.0884 -0.3353
 1098SOL    HW114753   2.449   1.913  14.412  0.8298  0.0366 -0.2705
 1098SOL    HW214754   2.357   1.968  14.520 -0.1619 -1.4251 -1.0358
 1099SOL     OW14755   0.387   3.170   5.034 -0.1081 -0.1405 -0.1143
 1099SOL    HW114756   0.438   3.223   5.095  1.7954 -2.1680  0.0640
 1099SOL    HW214757   0.418   3.206   4.951 -0.6948  0.7724  0.0684
 1100SOL     OW14758   3.017   4.517  10.318  0.0079 -0.6851  0.3021
 1100SOL    HW114759   3.024   4.557  10.231  1.4607  2.5000  1.9137
 1100SOL    HW214760   3.094   4.461  10.311  0.0113 -0.3417 -2.4572
 1101SOL     OW14761   3.670   2.731  14.332 -0.3090 -0.1874 -0.5546
 1101SOL    HW114762   3.733   2.799  14.354  0.4537 -1.1656  0.2443
 1101SOL    HW214763   3.722   2.661  14.293  0.3965 -0.9036  1.7142
 1102SOL     OW14764   3.743   0.929   7.240  0.0552 -0.0946  0.7772
 1102SOL    HW114765   3.815   0.991   7.227 -1.0803  1.0837  0.1568
 1102SOL    HW214766   3.724   0.907   7.149 -0.4244  0.6838  0.6913
 1103SOL     OW14767   3.513   0.467   3.466 -0.4910  0.1419 -0.4571
 1103SOL    HW114768   3.452   0.479   3.539  0.5900  0.8892  0.3233
 1103SOL    HW214769   3.464   0.405   3.412 -1.6254  2.3394 -1.9719
 1104SOL     OW14770   3.335   0.035   4.811  0.1840  0.2201 -0.0875
 1104SOL    HW114771   3.365   0.045   4.901  2.6180 -1.4344 -0.7064
 1104SOL    HW214772   3.244   0.065   4.810 -0.0928 -0.6543 -1.2102
 1105SOL     OW14773   2.898   1.275   3.476 -0.3250 -0.8619 -0.3974
 1105SOL    HW114774   2.877   1.244   3.388  1.4975  1.2412 -1.5726
 1105SOL    HW214775   2.891   1.190   3.521  1.3553  0.0307  1.5100
 1106SOL     OW14776   2.371   2.382   3.183  0.1161 -0.0870 -0.0553
 1106SOL    HW114777   2.455   2.406   3.145 -0.7227 -0.4927 -2.1512
 1106SOL    HW214778   2.315   2.448   3.142  0.3010 -0.8307 -1.4908
 1107SOL     OW14779   3.062   3.110   4.654  0.2469  0.3577  0.2565
 1107SOL    HW114780   3.010   3.033   4.629  0.5551  0.0331  0.6196
 1107SOL    HW214781   3.048   3.156   4.571  0.1224  0.0706  0.1140
 1108SOL     OW14782   2.926   0.600   9.069 -0.0117 -0.1216 -0.2945
 1108SOL    HW114783   2.868   0.529   9.096 -1.0244  0.7597 -0.1523
 1108SOL    HW214784   3.004   0.556   9.037  0.3827 -0.3950  1.0523
 1109SOL     OW14785   0.921   2.235   3.494 -0.4454 -0.1703  0.3417
 1109SOL    HW114786   0.870   2.306   3.454  1.9741  0.0316 -2.3570
 1109SOL    HW214787   0.918   2.270   3.583 -1.6137  0.0346  0.2321
 1110SOL     OW14788   3.204   2.589   4.424  0.1344  0.4427  0.0483
 1110SOL    HW114789   3.112   2.561   4.421  1.1683 -2.9961  0.9817
 1110SOL    HW214790   3.256   2.519   4.386  0.6980  0.6915  0.3762
 1111SOL     OW14791   4.306   2.758   6.846  0.0880  0.0937  0.0115
 1111SOL    HW114792   4.344   2.677   6.812  2.4063  1.2997 -0.2643
 1111SOL    HW214793   4.387   2.797   6.878  0.8515 -1.1101 -0.4334
 1112SOL     OW14794   3.524   2.333  16.265 -0.0019 -0.1329  0.2050
 1112SOL    HW114795   3.519   2.269  16.336  2.2142 -1.4197 -0.7836
 1112SOL    HW214796   3.493   2.271  16.199 -0.3734  0.4073 -0.1274
 1113SOL     OW14797   2.260   1.596   2.651  1.0739 -0.3172  0.0092
 1113SOL    HW114798   2.264   1.522   2.591  0.6187 -1.0069  0.8340
 1113SOL    HW214799   2.166   1.605   2.667  1.2403 -2.6521  2.4074
 1114SOL     OW14800   1.861   2.129  14.747  0.3058 -0.0262  0.2436
 1114SOL    HW114801   1.921   2.075  14.799 -2.2057 -1.8008  1.2831
 1114SOL    HW214802   1.810   2.071  14.690  0.2994 -0.2332  0.4569
 1115SOL     OW14803   1.626   4.379   8.096  0.2230 -0.3575 -0.3929
 1115SOL    HW114804   1.575   4.317   8.044  0.5470 -0.3011 -0.7743
 1115SOL    HW214805   1.562   4.446   8.117 -0.2367 -0.1790 -2.4674
 1116SOL     OW14806   4.273   1.967   6.785 -0.3009 -0.3727  0.9134
 1116SOL    HW114807   4.262   1.921   6.868  2.3314 -2.3047  0.2112
 1116SOL    HW214808   4.361   1.947   6.752 -0.3543 -1.3348  1.3539
 1117SOL     OW14809   2.139   0.819   4.382 -0.4786  0.0394 -0.4300
 1117SOL    HW114810   2.185   0.815   4.298 -0.2990 -0.1604 -0.3220
 1117SOL    HW214811   2.215   0.831   4.439 -0.7955  1.3052 -0.2678
 1118SOL     OW14812   3.730   1.024  12.347 -0.3320  0.1920 -0.0691
 1118SOL    HW114813   3.654   0.968  12.361  0.9991 -1.7455 -0.6484
 1118SOL    HW214814   3.792   0.954  12.325  0.6678  0.8657  0.6103
 1119SOL     OW14815   2.811   3.166  13.718 -0.1466  0.1145  0.4735
 1119SOL    HW114816   2.733   3.112  13.705  1.1551 -1.7263  0.3646
 1119SOL    HW214817   2.860   3.086  13.731  1.0266  0.3813 -2.3677
 1120SOL     OW14818   3.759   2.613  17.021  0.1547 -0.5940 -0.0629
 1120SOL    HW114819   3.669   2.644  17.016  0.3833  0.2403  0.9426
 1120SOL    HW214820   3.775   2.603  17.115 -1.1499  1.5981  0.3998
 1121SOL     OW14821   2.403   0.603   2.007 -0.1942  0.1915 -0.5183
 1121SOL    HW114822   2.455   0.673   2.047 -1.1510 -0.2199  1.4370
 1121SOL    HW214823   2.457   0.570   1.935  0.4298 -3.2437  1.5527
 1122SOL     OW14824   4.425   1.977  17.368 -0.4000  0.8224 -0.1708
 1122SOL    HW114825   4.478   2.000  17.444  0.5829  0.3116 -0.6982
 1122SOL    HW214826   4.472   1.904  17.327 -0.0845  0.6239  0.5456
 1123SOL     OW14827   2.522   3.826   9.493 -0.0668  0.2680  0.0040
 1123SOL    HW114828   2.497   3.785   9.410 -0.0319 -0.8293  0.5510
 1123SOL    HW214829   2.452   3.892   9.494 -0.8013 -0.5245  0.1300
 1124SOL     OW14830   0.061   3.872   6.372 -0.3215 -0.4456  0.4464
 1124SOL    HW114831   0.079   3.900   6.462 -0.5449  0.5150  0.1894
 1124SOL    HW214832   0.150   3.854   6.340 -0.8560 -0.8789 -0.7680
 1125SOL     OW14833   0.008   4.168  12.037 -0.4384 -0.5432  0.5241
 1125SOL    HW114834   4.638   4.191  12.024 -0.2612 -1.1626 -1.7379
 1125SOL    HW214835   0.012   4.216  12.120 -0.0574 -1.9893  1.3443
 1126SOL     OW14836   1.875   1.234   1.170 -0.9001  0.1370  0.4777
 1126SOL    HW114837   1.809   1.185   1.218 -0.5758 -1.3750 -0.6040
 1126SOL    HW214838   1.851   1.247   1.078 -1.6331  1.6596  0.8932
 1127SOL     OW14839   0.775   3.703   9.318  0.3057  0.1571  0.1772
 1127SOL    HW114840   0.809   3.729   9.403  2.1691  1.9815 -1.1280
 1127SOL    HW214841   0.753   3.612   9.334  1.1271  0.0237  0.5222
 1128SOL     OW14842   4.283   2.447  13.751  0.1852 -0.2051 -0.2025
 1128SOL    HW114843   4.221   2.458  13.822  0.8589 -0.3895  0.4213
 1128SOL    HW214844   4.236   2.432  13.669  0.5082 -0.4293 -0.3476
 1129SOL     OW14845   4.051   4.119  13.775  0.3252  0.2887  0.2940
 1129SOL    HW114846   4.057   4.153  13.686  0.0189  2.2970  1.0257
 1129SOL    HW214847   3.977   4.059  13.765  0.7856 -0.0387 -1.1575
 1130SOL     OW14848   0.839   1.558  10.036 -0.2451  0.0892 -0.2684
 1130SOL    HW114849   0.788   1.526   9.961 -2.7612  1.5873  0.8118
 1130SOL    HW214850   0.768   1.579  10.096 -0.1339  3.8456 -1.4736
 1131SOL     OW14851   1.578   3.919   1.120 -0.1508 -0.3252 -0.0750
 1131SOL    HW114852   1.484   3.901   1.112  0.1912 -1.6566 -0.9989
 1131SOL    HW214853   1.599   3.988   1.058  1.3941  0.2095  1.0441
 1132SOL     OW14854   4.693   1.404  15.482  0.4019  0.5274  0.3456
 1132SOL    HW114855   4.693   1.316  15.519  0.3782  0.6112  0.5410
 1132SOL    HW214856   0.018   1.407  15.398  0.9647  0.9460  0.6801
 1133SOL     OW14857   0.253   0.610  13.086  0.2054 -0.1864 -0.1058
 1133SOL    HW114858   0.270   0.590  12.994 -0.0401  2.3960 -0.7232
 1133SOL    HW214859   0.158   0.602  13.081  0.3626 -2.0543 -0.1302
 1134SOL     OW14860   3.891   2.557   3.912  0.1145  0.0332  0.5238
 1134SOL    HW114861   3.860   2.467   3.917  1.0113 -0.3334 -0.6235
 1134SOL    HW214862   3.986   2.549   3.908  0.3454  3.4995 -0.9028
 1135SOL     OW14863   3.266   1.665   4.170 -0.5687 -0.6926  0.0500
 1135SOL    HW114864   3.186   1.636   4.127 -0.4333 -2.0921  0.7258
 1135SOL    HW214865   3.265   1.616   4.252 -0.1984 -1.7071 -0.5477
 1136SOL     OW14866   1.215   3.720  11.819 -0.6027  0.0749  0.1434
 1136SOL    HW114867   1.211   3.811  11.788 -3.8654  0.8210  2.7047
 1136SOL    HW214868   1.305   3.727  11.853 -1.5473 -0.2571  2.7259
 1137SOL     OW14869   0.965   2.064   8.931 -0.1203 -0.8156  0.0322
 1137SOL    HW114870   1.013   2.136   8.973 -3.1197  0.4342  1.3142
 1137SOL    HW214871   1.028   2.027   8.869  1.3919  2.1376 -0.2295
 1138SOL     OW14872   2.701   0.276   3.156  0.5412  0.9408 -0.1595
 1138SOL    HW114873   2.710   0.279   3.252 -0.8559 -0.4650  0.0180
 1138SOL    HW214874   2.641   0.204   3.136  2.9825 -0.5370 -2.1914
 1139SOL     OW14875   2.909   4.352   1.890 -0.3256 -0.0515 -0.2649
 1139SOL    HW114876   2.824   4.324   1.857 -0.7575  0.6944  0.2032
 1139SOL    HW214877   2.897   4.447   1.898  0.6450  0.1602 -1.3205
 1140SOL     OW14878   1.701   4.644   5.958 -0.0804  0.3793 -0.3289
 1140SOL    HW114879   1.652   4.564   5.978 -1.6998  1.8637  1.6304
 1140SOL    HW214880   1.636   4.704   5.992 -2.2310 -2.1457  0.0092
 1141SOL     OW14881   4.251   1.651   2.235 -0.1735 -0.5289 -0.1641
 1141SOL    HW114882   4.216   1.703   2.162 -1.0905 -0.4465  0.3344
 1141SOL    HW214883   4.265   1.569   2.188  0.3147 -0.5643  0.0456
 1142SOL     OW14884   4.522   1.200   0.120 -0.2065 -0.6291 -0.2809
 1142SOL    HW114885   4.482   1.262   0.060  0.2691 -1.3788 -1.3887
 1142SOL    HW214886   4.584   1.154   0.063  1.9229  0.4303  1.1512
 1143SOL     OW14887   2.742   2.983   2.158 -0.3664  0.4709 -0.0666
 1143SOL    HW114888   2.808   3.033   2.206 -1.6460  2.2042 -0.1063
 1143SOL    HW214889   2.694   2.949   2.233 -0.2939 -0.1410 -0.2941
 1144SOL     OW14890   2.146   0.991   5.609  0.1619  0.2640 -0.2740
 1144SOL    HW114891   2.191   1.076   5.608  2.5148 -0.9863 -0.8637
 1144SOL    HW214892   2.061   1.006   5.568 -0.7031 -0.5301  1.2157
 1145SOL     OW14893   4.341   2.469  14.571  0.1882 -0.0934  0.5538
 1145SOL    HW114894   4.271   2.417  14.531  1.0168  0.2948 -1.3522
 1145SOL    HW214895   4.423   2.425  14.548 -0.5226 -1.6828  1.0243
 1146SOL     OW14896   3.661   0.559   5.440  0.1915 -0.8573 -0.3007
 1146SOL    HW114897   3.708   0.641   5.457 -1.1441 -0.4309  1.3289
 1146SOL    HW214898   3.727   0.521   5.381  1.4024  0.5453  0.1486
 1147SOL     OW14899   2.763   2.172   4.840  0.0621 -0.2535  0.1150
 1147SOL    HW114900   2.782   2.260   4.873 -0.1372 -0.9885  2.1708
 1147SOL    HW214901   2.757   2.127   4.924  0.1422  3.2445  1.9997
 1148SOL     OW14902   3.674   2.165  13.105 -0.9610  0.4423  0.2905
 1148SOL    HW114903   3.636   2.194  13.188 -2.2005 -0.9251  0.2190
 1148SOL    HW214904   3.756   2.213  13.112 -0.3145 -0.7163  0.6514
 1149SOL     OW14905   0.127   1.065   3.311  0.0409  0.4516  0.2909
 1149SOL    HW114906   0.161   1.060   3.222 -0.4344  1.3649  0.0623
 1149SOL    HW214907   0.204   1.050   3.365 -1.0337 -0.1048  1.6785
 1150SOL     OW14908   1.243   0.591   2.752 -0.2111  0.3961 -0.3255
 1150SOL    HW114909   1.268   0.631   2.835 -2.5746  1.1324  0.0252
 1150SOL    HW214910   1.161   0.549   2.781 -0.2879  1.2712  0.7059
 1151SOL     OW14911   4.682   4.134   9.460  0.4445 -0.0203 -0.0282
 1151SOL    HW114912   4.636   4.217   9.475 -0.3743 -0.4907  0.0408
 1151SOL    HW214913   0.025   4.153   9.527  1.3895 -1.1704 -0.6418
 1152SOL     OW14914   4.482   3.051   0.004 -0.5438  0.2863 -0.6807
 1152SOL    HW114915   4.404   2.997   0.013 -1.4047  1.3819 -1.5755
 1152SOL    HW214916   4.538   3.031   0.079 -1.7768  0.0201  0.1529
 1153SOL     OW14917   4.492   0.703   7.312 -0.1624 -0.7078  0.2032
 1153SOL    HW114918   4.561   0.661   7.262 -0.0472  1.4668 -1.4539
 1153SOL    HW214919   4.485   0.644   7.387 -0.9424  1.0256  1.4907
 1154SOL     OW14920   2.414   4.100   4.384 -0.1989  0.2895 -0.1155
 1154SOL    HW114921   2.368   4.184   4.377  0.1875  0.2536 -3.2207
 1154SOL    HW214922   2.450   4.105   4.295  1.6507 -1.8618  0.5203
 1155SOL     OW14923   2.930   2.862   3.545  0.3468 -0.5707 -0.0103
 1155SOL    HW114924   3.019   2.849   3.513  0.1222 -0.0748 -0.8525
 1155SOL    HW214925   2.951   2.929   3.610  0.1848  0.2794 -0.8164
 1156SOL     OW14926   2.734   3.401   4.732 -0.1627 -0.4277 -0.4836
 1156SOL    HW114927   2.709   3.332   4.792 -1.6415  1.7879  1.4303
 1156SOL    HW214928   2.824   3.427   4.754 -0.5252  0.8511 -0.4756
 1157SOL     OW14929   3.482   1.099  15.225 -0.5088 -0.0357 -0.3374
 1157SOL    HW114930   3.532   1.138  15.297 -1.2784  1.4703 -0.6237
 1157SOL    HW214931   3.479   1.014  15.269 -2.3029  1.8247  3.1407
 1158SOL     OW14932   3.230   3.429   8.378 -0.4325  0.1779  0.7931
 1158SOL    HW114933   3.286   3.352   8.369  1.2904  1.5372 -0.1150
 1158SOL    HW214934   3.164   3.396   8.440 -0.3570 -1.4251  0.0075
 1159SOL     OW14935   3.465   4.626  14.379 -0.6379 -0.3464 -0.4233
 1159SOL    HW114936   3.435   4.571  14.452 -1.4716 -1.6928 -1.7849
 1159SOL    HW214937   3.529   4.567  14.338 -1.0186 -0.1985 -1.2345
 1160SOL     OW14938   4.655   1.781   8.999 -0.0788 -0.1205 -0.1142
 1160SOL    HW114939   0.006   1.767   8.940 -0.7413 -0.9062 -0.7550
 1160SOL    HW214940   4.582   1.798   8.940 -0.0102  0.5809  0.0024
 1161SOL     OW14941   0.708   3.420   2.277  0.0157  0.0013 -0.2477
 1161SOL    HW114942   0.793   3.439   2.239  0.1555 -0.0726  0.0228
 1161SOL    HW214943   0.672   3.350   2.223 -0.9522  1.3140 -1.2958
 1162SOL     OW14944   3.861   4.423   5.459  0.0519  0.3021  0.3337
 1162SOL    HW114945   3.920   4.479   5.409  0.9231  0.0990  1.1425
 1162SOL    HW214946   3.798   4.490   5.483 -0.7650  0.3339 -1.9225
 1163SOL     OW14947   0.852   2.682   1.090 -0.4223 -0.4476 -0.1102
 1163SOL    HW114948   0.772   2.682   1.038  1.0505 -0.7694 -2.3652
 1163SOL    HW214949   0.824   2.727   1.170  0.4946 -1.9073  1.0280
 1164SOL     OW14950   1.743   1.697   3.487  0.2515 -0.6387  0.5262
 1164SOL    HW114951   1.673   1.646   3.447 -0.0004 -0.5378  0.8373
 1164SOL    HW214952   1.818   1.638   3.482  1.5775  0.9798  0.9315
 1165SOL     OW14953   0.474   1.286  14.205 -0.5693  0.4058  0.1054
 1165SOL    HW114954   0.557   1.262  14.248 -1.7971 -2.2917  0.9887
 1165SOL    HW214955   0.438   1.200  14.182 -1.0284  0.7012 -0.2716
 1166SOL     OW14956   3.738   3.819   8.557 -0.3291  0.2591 -0.0051
 1166SOL    HW114957   3.796   3.895   8.558 -1.6087  1.2653 -1.5943
 1166SOL    HW214958   3.725   3.794   8.648 -2.3266 -1.8576 -0.8753
 1167SOL     OW14959   4.420   1.349   7.033 -0.4723 -0.1216 -0.2654
 1167SOL    HW114960   4.484   1.296   7.080  0.8599  3.7054  2.2860
 1167SOL    HW214961   4.339   1.299   7.034 -0.2164 -0.5892 -1.7042
 1168SOL     OW14962   2.393   1.768   7.075 -0.3559 -0.0986 -0.3525
 1168SOL    HW114963   2.481   1.732   7.075  0.0197  0.7975  0.8538
 1168SOL    HW214964   2.350   1.718   7.144  3.0499  0.9989  2.5563
 1169SOL     OW14965   0.672   0.604   7.021  0.8210  0.0429  0.0597
 1169SOL    HW114966   0.595   0.586   6.967  2.4585 -1.1192 -1.9028
 1169SOL    HW214967   0.643   0.671   7.084  0.8049 -1.0298  1.1889
 1170SOL     OW14968   3.039   4.353  15.516 -0.3931  0.3727 -0.0254
 1170SOL    HW114969   3.036   4.442  15.550 -0.8615  1.2718 -2.4235
 1170SOL    HW214970   3.112   4.351  15.454 -0.0059  0.7914  0.4186
 1171SOL     OW14971   2.955   3.356   5.909 -0.0238 -0.6609  0.7427
 1171SOL    HW114972   2.922   3.321   5.992 -0.6627  0.0143  0.7702
 1171SOL    HW214973   3.035   3.395   5.946  0.0362 -0.4567  0.4010
 1172SOL     OW14974   1.195   4.171   2.716  0.1986 -0.1990  0.3197
 1172SOL    HW114975   1.242   4.208   2.790  0.8375 -0.9933  0.3194
 1172SOL    HW214976   1.115   4.221   2.726 -0.8720 -1.7882 -0.3168
 1173SOL     OW14977   1.377   3.964   5.145  0.3470  0.0950  0.0638
 1173SOL    HW114978   1.417   3.960   5.232  1.7496 -0.5924 -0.5987
 1173SOL    HW214979   1.452   3.926   5.098  0.5105  0.9684 -0.3894
 1174SOL     OW14980   2.784   2.613   9.116 -0.1880 -0.8170  0.4613
 1174SOL    HW114981   2.695   2.632   9.144 -0.7812  0.7018 -2.4577
 1174SOL    HW214982   2.808   2.551   9.186  0.4366 -0.2495  0.7502
 1175SOL     OW14983   0.812   2.695  13.681  0.4809 -0.2629  0.2303
 1175SOL    HW114984   0.893   2.725  13.723  0.8621 -0.4536 -0.3678
 1175SOL    HW214985   0.797   2.618  13.737  0.5631 -0.5721 -0.1760
 1176SOL     OW14986   2.540   3.725  14.358 -0.4489  0.0876 -0.2867
 1176SOL    HW114987   2.525   3.778  14.437 -0.1373  0.0059 -0.1763
 1176SOL    HW214988   2.460   3.674  14.370  0.2431 -0.5785  1.4093
 1177SOL     OW14989   2.279   2.452   6.410 -0.0580  0.0194 -0.2743
 1177SOL    HW114990   2.298   2.362   6.384 -0.8766 -0.6279  1.3468
 1177SOL    HW214991   2.277   2.442   6.506 -0.5604 -3.2198 -0.6334
 1178SOL     OW14992   2.790   3.000   8.439  0.0528  0.3141  0.4064
 1178SOL    HW114993   2.730   2.999   8.365  0.4362  0.0940  0.0979
 1178SOL    HW214994   2.861   2.942   8.410 -1.2660 -1.4299  0.6812
 1179SOL     OW14995   0.531   1.308  12.623  0.3488 -0.5906 -0.4345
 1179SOL    HW114996   0.480   1.328  12.702  1.7658  0.0081  0.3243
 1179SOL    HW214997   0.466   1.308  12.553 -0.0730  0.1064 -0.0375
 1180SOL     OW14998   2.588   0.528   5.984 -0.0668  0.1309 -0.4796
 1180SOL    HW114999   2.652   0.525   6.055  0.7534 -0.5899 -1.2490
 1180SOL    HW215000   2.643   0.491   5.914  1.9327  0.9812  0.6475
 1181SOL     OW15001   1.185   2.399   6.217  0.0339 -0.6461  0.0866
 1181SOL    HW115002   1.191   2.337   6.289 -1.4761 -1.2508 -0.3158
 1181SOL    HW215003   1.091   2.406   6.200  0.0079  0.4638  0.7129
 1182SOL     OW15004   3.674   2.073   6.077 -0.3481  0.3646  0.0794
 1182SOL    HW115005   3.673   2.013   6.152  1.1258  0.5371  0.2384
 1182SOL    HW215006   3.583   2.085   6.052 -0.7024 -0.4428  0.9905
 1183SOL     OW15007   0.590   4.558   0.469  0.0896 -0.1368  0.9205
 1183SOL    HW115008   0.572   4.630   0.409 -1.2880 -1.1565  0.1027
 1183SOL    HW215009   0.604   4.482   0.412 -0.3166 -0.5306  1.3430
 1184SOL     OW15010   1.437   0.449  17.588  0.0047  0.4969 -0.0630
 1184SOL    HW115011   1.510   0.390  17.574  0.4467  1.1195 -0.3795
 1184SOL    HW215012   1.476   0.505  17.656 -1.8859 -0.1477  1.5429
 1185SOL     OW15013   0.144   2.484   6.923  0.3551  0.2789  0.1518
 1185SOL    HW115014   0.229   2.454   6.892 -0.2932 -1.5545  0.0960
 1185SOL    HW215015   0.108   2.523   6.844 -3.3573  1.4807  2.4322
 1186SOL     OW15016   2.918   0.239   3.008  0.0362 -0.6413 -0.1313
 1186SOL    HW115017   2.862   0.251   2.931  0.8845  0.2849 -0.6131
 1186SOL    HW215018   2.854   0.260   3.076 -0.2459 -2.0153  0.0113
 1187SOL     OW15019   1.475   2.027   3.618  0.4990  0.3785  0.0678
 1187SOL    HW115020   1.566   2.020   3.649  1.1266 -0.3661 -1.9111
 1187SOL    HW215021   1.428   2.081   3.681 -3.5654 -0.9763 -1.8271
 1188SOL     OW15022   2.284   3.335   5.255  0.6123 -0.2195 -0.1794
 1188SOL    HW115023   2.239   3.252   5.269 -1.6942  0.8999 -1.0435
 1188SOL    HW215024   2.272   3.375   5.342  0.2452 -0.1677 -0.2565
 1189SOL     OW15025   4.542   0.063   4.894 -0.2298 -0.2436  0.2456
 1189SOL    HW115026   4.491   0.094   4.969 -2.3058 -0.3030 -1.1323
 1189SOL    HW215027   4.569   4.696   4.913 -0.5032 -0.4413 -0.2830
 1190SOL     OW15028   0.544   2.206   7.784  0.0045 -0.3043  0.6195
 1190SOL    HW115029   0.482   2.242   7.720 -0.7492 -0.5790  1.2026
 1190SOL    HW215030   0.489   2.153   7.842 -1.3797 -0.5371 -0.8947
 1191SOL     OW15031   4.175   0.770   3.704 -0.6987 -0.4576 -0.0546
 1191SOL    HW115032   4.165   0.865   3.709  0.2354 -0.3604 -0.1352
 1191SOL    HW215033   4.101   0.754   3.645 -1.9891 -0.7716  1.6573
 1192SOL     OW15034   3.987   1.636   6.518 -0.5743 -0.3585  0.0314
 1192SOL    HW115035   3.955   1.549   6.543 -0.2184 -0.9345 -1.5010
 1192SOL    HW215036   4.002   1.687   6.597 -0.8211 -0.7500  0.3320
 1193SOL     OW15037   1.241   2.594   8.796 -0.2460  0.4736 -0.3920
 1193SOL    HW115038   1.320   2.549   8.827 -0.2590  1.7692  1.5346
 1193SOL    HW215039   1.251   2.557   8.709 -0.3177 -0.1461 -0.1390
 1194SOL     OW15040   3.218   4.480   7.811 -0.1681  0.4521 -0.0166
 1194SOL    HW115041   3.128   4.483   7.845 -0.3317  0.7604 -0.4733
 1194SOL    HW215042   3.218   4.385   7.798 -1.4658  0.3555  0.7039
 1195SOL     OW15043   1.251   3.310  13.770  0.4135 -0.0202 -0.3333
 1195SOL    HW115044   1.254   3.215  13.780  2.4808  0.1901  0.9716
 1195SOL    HW215045   1.188   3.298  13.699 -0.8439 -0.5084  0.8689
 1196SOL     OW15046   2.462   3.954   2.401 -0.0604  0.6411 -0.1220
 1196SOL    HW115047   2.506   3.872   2.376 -1.1905 -0.8097  2.6716
 1196SOL    HW215048   2.400   3.965   2.329  1.0988 -0.2151 -1.2549
 1197SOL     OW15049   2.522   0.437   4.834 -0.1131  0.2141 -0.7780
 1197SOL    HW115050   2.573   0.407   4.759  0.8531 -0.6973  0.2437
 1197SOL    HW215051   2.479   0.355   4.859  0.1776 -0.0056 -1.0008
 1198SOL     OW15052   3.016   3.018   3.771  0.2497  0.1617 -0.2595
 1198SOL    HW115053   3.067   3.088   3.812 -0.1497  0.5937 -0.4985
 1198SOL    HW215054   2.938   3.028   3.825  1.6414  0.8343  1.6122
 1199SOL     OW15055   0.174   2.192  11.154  0.2100 -0.4677 -0.2891
 1199SOL    HW115056   0.221   2.120  11.196  0.4953 -0.6614 -0.9480
 1199SOL    HW215057   0.211   2.269  11.199  2.0092 -1.7591  0.4494
 1200SOL     OW15058   3.604   1.888  10.044  0.1281  0.4970 -0.5666
 1200SOL    HW115059   3.578   1.827  10.112 -2.1711 -0.3348 -2.1946
 1200SOL    HW215060   3.640   1.958  10.098 -1.0690 -1.3426  2.5726
 1201SOL     OW15061   2.673   3.118   7.369 -0.9383 -0.4379 -0.2156
 1201SOL    HW115062   2.607   3.160   7.314 -0.2097  0.1926 -0.6057
 1201SOL    HW215063   2.616   3.065   7.424  0.1751 -0.7927  0.6084
 1202SOL     OW15064   0.901   3.874   5.572 -0.1139  0.1880 -0.2261
 1202SOL    HW115065   0.805   3.876   5.570 -0.1293 -0.9404 -0.3754
 1202SOL    HW215066   0.915   3.782   5.595 -1.0463 -0.2313 -1.3437
 1203SOL     OW15067   1.879   1.012   7.161 -0.2056  0.1441 -0.0160
 1203SOL    HW115068   1.934   1.082   7.194 -2.1325  1.2865  0.8001
 1203SOL    HW215069   1.833   0.992   7.243 -0.6876  0.9904 -0.0809
 1204SOL     OW15070   2.917   3.492   8.737  0.0560 -0.0015 -0.2649
 1204SOL    HW115071   2.887   3.567   8.787 -2.0298 -0.6109 -0.6155
 1204SOL    HW215072   2.960   3.531   8.661 -1.1101 -2.4116 -2.1554
 1205SOL     OW15073   4.085   2.898  13.984 -0.3242 -0.3728  0.7430
 1205SOL    HW115074   4.068   2.811  14.022 -0.1992 -1.4139 -1.6142
 1205SOL    HW215075   4.158   2.920  14.041  1.9035 -2.4589 -1.2918
 1206SOL     OW15076   1.724   4.531   8.402 -0.2882  0.0284  0.3354
 1206SOL    HW115077   1.685   4.599   8.457 -0.1194  0.3769  0.0272
 1206SOL    HW215078   1.745   4.588   8.328 -0.1911 -3.2248 -2.1493
 1207SOL     OW15079   2.794   4.708  10.341 -0.1136 -0.0329 -0.4334
 1207SOL    HW115080   2.851   0.060  10.323  0.4030 -0.0172  1.2536
 1207SOL    HW215081   2.726   4.721  10.274 -1.9687  2.1293  1.8945
 1208SOL     OW15082   1.952   2.566  11.346 -0.1760 -0.7093 -0.3641
 1208SOL    HW115083   1.979   2.577  11.438 -5.0058  0.9701  0.8467
 1208SOL    HW215084   1.864   2.602  11.345 -0.6031 -1.8279 -1.8721
 1209SOL     OW15085   3.000   2.528   1.852 -0.1468  0.6204 -0.0211
 1209SOL    HW115086   2.971   2.511   1.763  1.2006 -0.9273 -0.1621
 1209SOL    HW215087   2.932   2.580   1.896 -0.7301  0.3105 -0.5561
 1210SOL     OW15088   3.457   3.257   8.374  0.1039  0.0795  0.4435
 1210SOL    HW115089   3.512   3.248   8.452 -0.9568 -0.7565  1.1006
 1210SOL    HW215090   3.449   3.166   8.343 -1.4915  1.0209 -1.9151
 1211SOL     OW15091   1.114   2.673  12.459 -0.7418  1.0036  0.1896
 1211SOL    HW115092   1.069   2.727  12.393  0.0278 -1.2151 -2.1173
 1211SOL    HW215093   1.059   2.596  12.455  1.9758 -0.9163 -0.1088
 1212SOL     OW15094   3.330   4.465  11.145 -0.1903  0.4380  0.5375
 1212SOL    HW115095   3.319   4.370  11.141  0.4991  0.4441 -1.6206
 1212SOL    HW215096   3.418   4.480  11.178 -0.5927  0.8897  1.4081
 1213SOL     OW15097   2.356   1.344   1.173 -0.0620  0.0986 -1.0281
 1213SOL    HW115098   2.379   1.330   1.081  0.6928  0.5090 -0.9016
 1213SOL    HW215099   2.284   1.281   1.182  0.1493 -0.0211 -0.1893
 1214SOL     OW15100   4.661   2.578   5.081  0.4675  0.0794 -0.4217
 1214SOL    HW115101   4.606   2.615   5.012  0.2560  1.6299  0.5831
 1214SOL    HW215102   4.611   2.507   5.123 -1.3556 -0.1346 -2.9621
 1215SOL     OW15103   4.341   4.012   8.295 -0.1712 -0.1397 -0.3175
 1215SOL    HW115104   4.402   3.991   8.224 -1.3689 -0.9512 -1.1055
 1215SOL    HW215105   4.373   3.948   8.358 -2.4732  1.2858  2.2930
 1216SOL     OW15106   0.919   3.063   2.386 -0.2534  0.0832 -0.3244
 1216SOL    HW115107   0.832   3.087   2.419  0.1598  0.5548  0.4055
 1216SOL    HW215108   0.976   3.127   2.428  0.1635 -0.1498 -0.5416
 1217SOL     OW15109   3.764   4.030  15.307  0.2036  0.1534 -0.1914
 1217SOL    HW115110   3.675   3.995  15.303  1.0188 -1.6922 -2.5231
 1217SOL    HW215111   3.741   4.122  15.293 -2.2375 -0.3156  0.7549
 1218SOL     OW15112   4.030   2.900  13.386 -0.1297 -0.4935 -0.2852
 1218SOL    HW115113   4.078   2.982  13.379  0.2470 -0.6045  0.9013
 1218SOL    HW215114   3.939   2.926  13.400  0.4299  0.5393  1.4459
 1219SOL     OW15115   3.794   3.791   7.954  0.1201  0.2014  0.3270
 1219SOL    HW115116   3.784   3.698   7.973 -0.0265  0.0717 -0.3684
 1219SOL    HW215117   3.848   3.785   7.875  0.2464  1.5780  0.3036
 1220SOL     OW15118   4.197   1.805  11.798  0.0128  0.1077  0.0366
 1220SOL    HW115119   4.249   1.836  11.873  1.3062 -0.4251 -0.6406
 1220SOL    HW215120   4.167   1.721  11.832 -0.3717  0.3155  0.2048
 1221SOL     OW15121   3.888   3.988   9.473  0.6889 -0.4298 -0.0778
 1221SOL    HW115122   3.946   4.062   9.491 -0.0224  0.2650 -0.6485
 1221SOL    HW215123   3.810   4.017   9.519  1.3260  0.1759  0.6127
 1222SOL     OW15124   4.549   0.749  14.943 -0.3666 -0.3911 -0.8626
 1222SOL    HW115125   4.499   0.693  15.002  1.3014 -0.1741  0.7537
 1222SOL    HW215126   4.477   0.785  14.891 -1.0314 -1.0153 -0.3559
 1223SOL     OW15127   2.334   3.845  11.395  0.2819 -0.1657  0.0635
 1223SOL    HW115128   2.261   3.843  11.334 -0.0658  2.0411  0.3946
 1223SOL    HW215129   2.355   3.752  11.403 -2.4267 -0.7602  0.1567
 1224SOL     OW15130   1.509   3.936   7.995  0.2635 -0.0738 -0.0781
 1224SOL    HW115131   1.444   3.916   7.928  0.5452  0.2167 -0.4446
 1224SOL    HW215132   1.468   3.905   8.075  1.4460 -1.7672 -0.1217
 1225SOL     OW15133   0.381   1.026   0.633 -0.6244  0.1577 -0.5328
 1225SOL    HW115134   0.423   0.956   0.683  1.7818  2.3874  0.6279
 1225SOL    HW215135   0.302   0.984   0.599 -0.4531  0.3779 -1.2079
 1226SOL     OW15136   2.107   0.728   6.226  0.4058 -0.1782 -0.0993
 1226SOL    HW115137   2.119   0.653   6.168 -2.4955  0.4387 -1.4871
 1226SOL    HW215138   2.012   0.720   6.234  0.6170 -1.6613  0.9395
 1227SOL     OW15139   0.083   3.139  14.118 -0.0434 -0.8777 -0.1309
 1227SOL    HW115140   0.063   3.050  14.146  1.4245 -0.8971  0.8205
 1227SOL    HW215141   0.104   3.188  14.197 -1.9425  1.1844 -0.8856
 1228SOL     OW15142   4.376   2.308   6.082  0.5610 -0.4747  0.3472
 1228SOL    HW115143   4.348   2.217   6.087 -0.0570 -0.3319 -0.5097
 1228SOL    HW215144   4.317   2.345   6.016 -0.4971 -1.3362  0.8246
 1229SOL     OW15145   1.219   3.007   2.374 -0.2509  0.1269  0.3400
 1229SOL    HW115146   1.141   2.952   2.385 -1.1418  1.5540  1.2048
 1229SOL    HW215147   1.184   3.091   2.404 -0.9267 -1.0328  2.7992
 1230SOL     OW15148   3.813   3.506   8.979 -0.1767  0.1587  0.1674
 1230SOL    HW115149   3.877   3.476   9.043 -1.1981 -1.3452  0.4650
 1230SOL    HW215150   3.811   3.602   8.987  0.8482  0.3176 -1.4880
 1231SOL     OW15151   4.122   2.768  16.988 -0.0861 -1.1897  0.2624
 1231SOL    HW115152   4.209   2.784  16.951 -1.8211  1.6140 -2.6227
 1231SOL    HW215153   4.075   2.831  16.933  1.3912  1.3675  1.9224
 1232SOL     OW15154   1.470   3.178   8.796 -0.3567 -0.1547 -0.2441
 1232SOL    HW115155   1.441   3.267   8.816  1.9377  0.0372  2.1948
 1232SOL    HW215156   1.517   3.208   8.718  0.1340  2.6063  1.1085
 1233SOL     OW15157   2.157   2.463   5.959 -0.0042  0.3486 -0.2563
 1233SOL    HW115158   2.225   2.519   5.996  1.4589 -1.0785 -0.7529
 1233SOL    HW215159   2.191   2.439   5.873  1.5534 -1.5434  0.8713
 1234SOL     OW15160   1.985   3.238   3.770  0.0205 -0.4100  0.0979
 1234SOL    HW115161   1.923   3.310   3.783  0.9272  0.5701 -1.1033
 1234SOL    HW215162   1.975   3.224   3.676 -1.2471  1.1874  0.0035
 1235SOL     OW15163   2.189   4.710  17.664 -0.3257 -0.5435 -0.3566
 1235SOL    HW115164   2.281   0.015  17.660 -1.2267  2.4545 -0.5484
 1235SOL    HW215165   2.199   4.616  17.672 -1.6400 -0.5957  0.6996
 1236SOL     OW15166   2.177   3.541   1.715 -0.1072  0.4604 -0.7763
 1236SOL    HW115167   2.098   3.510   1.670 -1.4715  2.7474  0.0280
 1236SOL    HW215168   2.200   3.462   1.765 -0.5705 -0.1969 -1.6058
 1237SOL     OW15169   2.017   0.581   2.460  0.2031  0.1101 -0.0506
 1237SOL    HW115170   2.106   0.570   2.428 -0.2995 -0.4975 -1.2353
 1237SOL    HW215171   2.027   0.611   2.550 -0.6108 -0.2286  0.1562
 1238SOL     OW15172   3.912   2.368   7.600  0.4091  0.2424 -0.2732
 1238SOL    HW115173   3.976   2.404   7.538  0.5987 -0.1990 -0.3400
 1238SOL    HW215174   3.835   2.396   7.551  0.9378 -0.6763 -1.6369
 1239SOL     OW15175   4.672   3.729   4.476 -0.0071 -0.1217  0.4165
 1239SOL    HW115176   4.596   3.758   4.426  0.8218 -0.6751 -1.1740
 1239SOL    HW215177   4.703   3.663   4.414 -3.3242  0.6517 -2.0247
 1240SOL     OW15178   2.600   0.476  11.130 -0.0735 -0.3347 -0.9704
 1240SOL    HW115179   2.593   0.386  11.161 -0.5337  0.2016  0.5080
 1240SOL    HW215180   2.647   0.519  11.202 -0.9890 -0.4885 -0.2846
 1241SOL     OW15181   1.418   0.234   1.888 -0.3911 -0.5641 -0.2381
 1241SOL    HW115182   1.463   0.150   1.900  2.4529  1.0777  0.4746
 1241SOL    HW215183   1.338   0.211   1.935 -0.3909 -0.0807  0.0009
 1242SOL     OW15184   2.872   1.239  17.664  0.3183 -0.2709 -0.3386
 1242SOL    HW115185   2.894   1.200  17.579 -1.3527 -0.2229 -0.7961
 1242SOL    HW215186   2.859   1.330  17.639 -1.1747 -0.2546  0.5270
 1243SOL     OW15187   0.179   1.708   8.460  0.7731  0.6617  0.0298
 1243SOL    HW115188   0.185   1.797   8.494  0.2960  0.8716 -0.4430
 1243SOL    HW215189   0.232   1.659   8.523 -1.4483 -2.0161 -0.2059
 1244SOL     OW15190   4.143   3.751   2.618  0.2019 -0.3652 -0.1878
 1244SOL    HW115191   4.236   3.768   2.605  0.1739 -1.9415 -2.3730
 1244SOL    HW215192   4.124   3.721   2.529 -1.3810 -0.8882  0.3259
 1245SOL     OW15193   2.362   3.086   2.252 -0.3028 -0.5105 -0.3033
 1245SOL    HW115194   2.400   3.051   2.171  0.9198 -0.4646  0.2368
 1245SOL    HW215195   2.445   3.118   2.289 -1.6613  1.4951  0.9843
 1246SOL     OW15196   4.415   0.344  12.536 -0.0292  0.7306 -0.0383
 1246SOL    HW115197   4.496   0.395  12.539 -0.1907  1.1688 -2.9459
 1246SOL    HW215198   4.392   0.337  12.629  0.2522 -2.1541 -0.1783
 1247SOL     OW15199   3.941   3.792   9.625 -0.3491  0.1780  0.4986
 1247SOL    HW115200   3.933   3.735   9.549  1.8265  0.6928 -0.0990
 1247SOL    HW215201   3.932   3.876   9.579  1.9835 -0.8920 -1.9215
 1248SOL     OW15202   1.986   2.285   0.593  0.2302  0.2278  0.5372
 1248SOL    HW115203   1.917   2.275   0.659 -0.0321 -3.6071 -0.3418
 1248SOL    HW215204   2.059   2.283   0.656  1.3648  2.3652 -0.6976
 1249SOL     OW15205   4.664   2.354   7.937  0.1665  0.7449 -0.0391
 1249SOL    HW115206   0.006   2.419   7.965  1.6130 -0.7635  0.1255
 1249SOL    HW215207   4.709   2.270   7.948  0.0716  0.5939 -0.8533
 1250SOL     OW15208   4.644   3.734   6.586 -0.2671 -0.4107 -0.8231
 1250SOL    HW115209   4.693   3.811   6.615 -0.5993 -0.8505  0.9023
 1250SOL    HW215210   4.629   3.762   6.496  0.8402  0.0711 -0.8576
 1251SOL     OW15211   3.578   2.303   4.974  0.1996  0.3921  0.3599
 1251SOL    HW115212   3.548   2.310   5.064 -2.1983  1.0284 -0.4917
 1251SOL    HW215213   3.628   2.385   4.974 -0.7238  0.9518 -3.3187
 1252SOL     OW15214   3.221   2.964   6.687  0.1330 -0.0453 -0.1138
 1252SOL    HW115215   3.250   3.000   6.771 -0.2052  0.1335 -0.0757
 1252SOL    HW215216   3.284   3.007   6.629 -0.7109 -1.5656 -2.1656
 1253SOL     OW15217   4.657   4.142   4.963 -0.5793 -0.2556  0.0178
 1253SOL    HW115218   4.624   4.202   5.030 -0.4945  0.1462 -0.2992
 1253SOL    HW215219   4.647   4.063   5.016  1.6258 -1.2371 -1.0127
 1254SOL     OW15220   3.499   4.153  11.773  0.2681  0.0039 -0.2387
 1254SOL    HW115221   3.455   4.116  11.850  1.5532  0.0271  0.5064
 1254SOL    HW215222   3.456   4.108  11.700 -0.1704 -1.9011  1.1944
 1255SOL     OW15223   4.070   1.346   7.591 -0.2511  0.4355  0.0065
 1255SOL    HW115224   3.989   1.351   7.642 -0.6608  3.3254 -0.9208
 1255SOL    HW215225   4.118   1.417   7.633 -1.8519  2.5388 -1.6842
 1256SOL     OW15226   3.009   3.121   4.939 -0.4369  0.1717 -0.4941
 1256SOL    HW115227   2.915   3.118   4.921 -0.7875 -0.2824  1.4108
 1256SOL    HW215228   3.043   3.116   4.850  2.3630 -0.1378  0.5904
 1257SOL     OW15229   2.920   0.343   2.492  0.3038  0.8667 -0.1877
 1257SOL    HW115230   2.987   0.295   2.540  0.3170  1.2491  0.1807
 1257SOL    HW215231   2.917   0.426   2.541  1.3417 -0.3849  1.9730
 1258SOL     OW15232   2.812   1.301   8.786  0.4957  0.5280  0.1577
 1258SOL    HW115233   2.859   1.380   8.760  0.4856 -0.3175 -2.4702
 1258SOL    HW215234   2.723   1.322   8.758  1.1201  0.4545 -1.9251
 1259SOL     OW15235   3.721   4.306   8.289 -0.0957 -0.1052  0.1539
 1259SOL    HW115236   3.665   4.228   8.294 -0.1914 -0.1121 -0.9868
 1259SOL    HW215237   3.690   4.332   8.202  0.3497 -1.2175 -0.3387
 1260SOL     OW15238   1.000   2.795   3.688  0.2021  0.1257  0.4538
 1260SOL    HW115239   0.913   2.776   3.722 -0.4812  3.8364  0.8179
 1260SOL    HW215240   0.985   2.773   3.596  0.1910  1.2415  0.1870
 1261SOL     OW15241   2.444   4.084  11.341  0.1346 -0.0069 -0.0813
 1261SOL    HW115242   2.524   4.063  11.389  0.1786  2.0171  0.7264
 1261SOL    HW215243   2.408   3.995  11.349 -0.9101  0.2920 -1.5128
 1262SOL     OW15244   0.959   2.314   1.882  0.4433  0.2357  0.0093
 1262SOL    HW115245   1.044   2.276   1.859  0.5329 -0.7922  2.0220
 1262SOL    HW215246   0.998   2.382   1.937  1.0074  0.7910 -1.0786
 1263SOL     OW15247   0.978   2.973   4.869  0.2560  0.8979  0.2933
 1263SOL    HW115248   0.930   2.913   4.813  1.1432  1.7782 -1.3964
 1263SOL    HW215249   1.035   2.905   4.903  0.0907  0.8430  0.4628
 1264SOL     OW15250   1.658   0.252   5.797  0.0713  0.1870 -0.7255
 1264SOL    HW115251   1.689   0.342   5.791 -1.3601  0.6755 -0.7821
 1264SOL    HW215252   1.739   0.200   5.802  0.3236  0.9666  3.4927
 1265SOL     OW15253   2.494   2.531   8.525  0.1246  0.3295  0.7181
 1265SOL    HW115254   2.467   2.505   8.613 -0.5643 -1.7742 -0.1256
 1265SOL    HW215255   2.564   2.590   8.553 -0.0941  0.7501  0.3795
 1266SOL     OW15256   3.565   0.652   5.856 -0.0715 -0.2471 -0.7404
 1266SOL    HW115257   3.646   0.633   5.810 -1.1670  1.9342 -3.6047
 1266SOL    HW215258   3.501   0.637   5.786 -0.8042 -1.7758  0.2540
 1267SOL     OW15259   0.206   4.623  13.910 -0.1268  0.3639 -0.4563
 1267SOL    HW115260   0.112   4.635  13.925 -0.0233  0.8376 -0.1791
 1267SOL    HW215261   0.209   4.557  13.841 -2.9332  0.4454 -0.6721
 1268SOL     OW15262   4.412   2.523  17.112  0.2592 -0.3852 -0.2285
 1268SOL    HW115263   4.473   2.511  17.185 -2.0731 -1.8301  1.4917
 1268SOL    HW215264   4.385   2.433  17.096 -2.1777  0.2677  0.1954
 1269SOL     OW15265   0.619   3.100  11.500 -0.5951  0.1099 -0.0632
 1269SOL    HW115266   0.597   3.067  11.413 -0.0728  0.1765 -0.2232
 1269SOL    HW215267   0.545   3.156  11.524 -0.3425  0.5167 -0.2235
 1270SOL     OW15268   2.691   2.856   7.146 -0.0709 -0.4830 -0.0587
 1270SOL    HW115269   2.737   2.936   7.123 -0.4814 -0.6594 -1.4792
 1270SOL    HW215270   2.724   2.783   7.094 -1.8219  0.5847 -2.6521
 1271SOL     OW15271   3.826   3.782  15.449  0.9512 -0.5776 -0.5999
 1271SOL    HW115272   3.863   3.867  15.425  2.5291 -1.6720 -2.0433
 1271SOL    HW215273   3.847   3.773  15.542  1.3363 -0.6221 -0.6901
 1272SOL     OW15274   0.119   1.229  12.159 -0.1216 -0.3577 -0.0640
 1272SOL    HW115275   0.025   1.215  12.150  0.0760 -1.1773 -0.7713
 1272SOL    HW215276   0.112   1.236  12.255 -1.7369  0.2788 -0.2206
 1273SOL     OW15277   2.941   4.084   0.971 -0.0048  0.4962  0.1011
 1273SOL    HW115278   2.964   4.133   1.050 -3.5613  1.1144  0.7362
 1273SOL    HW215279   2.996   4.136   0.912  1.2421 -1.7794 -0.7743
 1274SOL     OW15280   0.431   2.803   1.840  0.5353 -0.5468 -0.0690
 1274SOL    HW115281   0.425   2.884   1.789  0.7278 -0.6429 -0.2467
 1274SOL    HW215282   0.421   2.833   1.930 -0.8862 -0.4905 -0.2591
 1275SOL     OW15283   1.580   2.722   6.889 -0.4605 -0.0708  0.4887
 1275SOL    HW115284   1.663   2.681   6.915  0.0019  0.0999 -0.7392
 1275SOL    HW215285   1.539   2.659   6.830 -0.6792 -0.6519  1.2576
 1276SOL     OW15286   0.423   2.955   3.235  0.1254  0.0660 -0.0040
 1276SOL    HW115287   0.391   3.030   3.185  0.1774  0.0577 -0.0484
 1276SOL    HW215288   0.369   2.881   3.209 -1.1278 -0.0627  2.9467
 1277SOL     OW15289   2.568   3.027   8.586 -0.6032  0.3438  0.2620
 1277SOL    HW115290   2.542   3.118   8.602  1.2428  0.8367  0.4648
 1277SOL    HW215291   2.662   3.044   8.579 -0.1097 -3.1573 -1.4422
 1278SOL     OW15292   4.638   4.324   5.192  0.5573 -0.2587 -0.1949
 1278SOL    HW115293   4.676   4.392   5.248  2.2588 -2.8181  1.7901
 1278SOL    HW215294   4.631   4.258   5.261 -0.0381  1.3124  1.2604
 1279SOL     OW15295   4.392   2.319   2.078  0.4718 -0.3260  0.3452
 1279SOL    HW115296   4.394   2.413   2.062  1.4115 -0.3303  0.4578
 1279SOL    HW215297   4.380   2.310   2.173  0.8887 -0.5741  0.3732
 1280SOL     OW15298   3.797   2.521  14.225  0.0975 -0.3379 -0.3303
 1280SOL    HW115299   3.804   2.455  14.294  0.3336 -1.6850 -1.6240
 1280SOL    HW215300   3.767   2.463  14.154  0.9715  0.2635 -1.1849
 1281SOL     OW15301   1.544   0.191   3.156 -0.1785 -0.0111  0.0472
 1281SOL    HW115302   1.532   0.285   3.163  0.6135  0.2318 -1.9805
 1281SOL    HW215303   1.639   0.189   3.148 -0.1574 -1.7100  0.5810
 1282SOL     OW15304   1.317   1.045   3.714  0.4728  0.1222 -0.1597
 1282SOL    HW115305   1.253   1.085   3.773  1.4851 -0.6611  1.4518
 1282SOL    HW215306   1.369   1.110   3.666  0.1262  1.2067  0.9474
 1283SOL     OW15307   2.278   3.039   2.504 -0.0213 -0.0269  0.0083
 1283SOL    HW115308   2.366   3.037   2.542  0.5097 -1.7443 -1.3052
 1283SOL    HW215309   2.303   3.032   2.412  3.3330  0.3848  0.9045
 1284SOL     OW15310   4.316   1.025   4.652 -0.3853  0.0018 -0.0622
 1284SOL    HW115311   4.349   0.942   4.620  1.7308  0.4488  0.9536
 1284SOL    HW215312   4.299   1.018   4.746  3.5398 -0.0817  0.6391
 1285SOL     OW15313   4.671   0.960   1.218 -0.0730 -0.1002 -0.5643
 1285SOL    HW115314   4.637   1.029   1.275 -0.6779 -1.1539  0.3551
 1285SOL    HW215315   4.597   0.958   1.158  0.4706 -1.9424 -1.1738
 1286SOL     OW15316   2.867   3.276   9.972  0.1171  0.3005 -0.2076
 1286SOL    HW115317   2.932   3.345   9.958 -0.8267  1.2768  0.1943
 1286SOL    HW215318   2.811   3.288   9.896 -4.3752 -1.2583  2.8339
 1287SOL     OW15319   2.902   0.146   5.716 -0.1373 -0.2117  0.3065
 1287SOL    HW115320   2.912   0.206   5.790  1.3555 -2.4709  1.9683
 1287SOL    HW215321   2.994   0.124   5.701 -0.5624  0.2158 -2.7747
 1288SOL     OW15322   1.831   2.531   4.987  0.1316  0.0928 -0.3717
 1288SOL    HW115323   1.810   2.456   5.041  1.4457 -0.4057 -0.5514
 1288SOL    HW215324   1.802   2.493   4.904  0.8891  0.8898 -1.0004
 1289SOL     OW15325   3.399   0.815   6.612  0.0314 -0.6535  0.1958
 1289SOL    HW115326   3.320   0.782   6.569 -1.1846  1.6496  0.6391
 1289SOL    HW215327   3.375   0.900   6.650 -3.6799 -0.3966 -2.6997
 1290SOL     OW15328   1.652   2.971   2.753  0.9668  0.5698  0.0086
 1290SOL    HW115329   1.583   2.916   2.717  0.4422  1.3777 -0.2252
 1290SOL    HW215330   1.693   2.927   2.827  0.6981 -0.7479 -0.6290
 1291SOL     OW15331   1.755   2.341   6.886  0.5430 -0.7386 -0.1455
 1291SOL    HW115332   1.659   2.343   6.889  0.5971  1.1431  0.0946
 1291SOL    HW215333   1.783   2.431   6.898  0.3190 -0.4514 -1.7541
 1292SOL     OW15334   1.252   0.166   6.840  0.3853 -1.1845  0.3696
 1292SOL    HW115335   1.227   0.079   6.810 -1.9077 -0.3372 -0.1970
 1292SOL    HW215336   1.163   0.200   6.853  0.7783  0.0776 -0.3235
 1293SOL     OW15337   2.127   2.174   4.456 -0.3445  0.0038 -0.8135
 1293SOL    HW115338   2.171   2.254   4.428  0.4351 -1.0722 -2.7193
 1293SOL    HW215339   2.057   2.176   4.391 -1.2649  0.3822  0.2090
 1294SOL     OW15340   1.412   2.437   3.110 -0.3880 -0.3511 -0.4805
 1294SOL    HW115341   1.445   2.431   3.200  0.5135 -1.7298 -0.8996
 1294SOL    HW215342   1.450   2.357   3.073  0.2835 -0.8011  1.1630
 1295SOL     OW15343   1.389   1.298  15.755  0.1809 -0.3026 -0.2842
 1295SOL    HW115344   1.402   1.238  15.829 -1.3974 -1.3990 -0.8986
 1295SOL    HW215345   1.477   1.335  15.749  0.8150 -1.6175  1.1115
 1296SOL     OW15346   0.080   2.346   8.239  0.6405  0.3647  0.3655
 1296SOL    HW115347   0.063   2.429   8.282  0.5332 -1.9212  4.7246
 1296SOL    HW215348   0.100   2.379   8.152  2.4435  3.7769  2.0904
 1297SOL     OW15349   2.140   2.084   0.729 -0.1175 -0.1832  0.3018
 1297SOL    HW115350   2.208   2.024   0.700 -0.3155  0.3018 -1.1694
 1297SOL    HW215351   2.055   2.056   0.695  0.5060 -1.5968 -0.0555
 1298SOL     OW15352   1.076   0.478   7.647 -0.2414 -0.0105  0.2752
 1298SOL    HW115353   0.994   0.516   7.678  0.6658  2.2191 -0.0876
 1298SOL    HW215354   1.052   0.385   7.653  0.2602 -0.0714  1.2633
 1299SOL     OW15355   4.622   0.043   6.321  0.1867  0.0620  0.2481
 1299SOL    HW115356   4.657   0.058   6.233 -1.7698  0.6293 -0.4269
 1299SOL    HW215357   4.592   0.131   6.345 -1.1266 -0.0489 -0.9416
 1300SOL     OW15358   0.451   3.898   7.209  0.2255  0.1820  0.2204
 1300SOL    HW115359   0.482   3.831   7.270 -0.2396 -0.4577 -0.2530
 1300SOL    HW215360   0.356   3.899   7.220  0.0967  0.8305 -0.9237
 1301SOL     OW15361   3.457   0.278  13.487  0.0706 -0.0539 -0.4534
 1301SOL    HW115362   3.503   0.227  13.553 -1.8567  0.7375  1.4892
 1301SOL    HW215363   3.363   0.264  13.492  0.3208 -1.2816  0.6724
 1302SOL     OW15364   1.582   4.539   7.048 -0.2508  0.0995  0.1002
 1302SOL    HW115365   1.563   4.473   6.981 -3.7256  0.0716  1.1065
 1302SOL    HW215366   1.630   4.487   7.112 -1.4574  1.0796  1.8233
 1303SOL     OW15367   3.253   0.868   7.335 -0.4459 -0.1071  0.2815
 1303SOL    HW115368   3.191   0.939   7.351 -0.3599  0.2939 -1.0990
 1303SOL    HW215369   3.246   0.817   7.415 -1.4589 -0.4538 -0.0290
 1304SOL     OW15370   2.362   3.648   6.330 -0.5043  0.5164 -0.1405
 1304SOL    HW115371   2.282   3.641   6.277  0.0139 -1.3696 -0.6645
 1304SOL    HW215372   2.348   3.572   6.387  1.1399 -0.2930 -0.8285
 1305SOL     OW15373   0.201   2.489   8.035  0.1934  0.4967  0.3782
 1305SOL    HW115374   0.208   2.574   7.993 -0.0933  0.1381 -0.3919
 1305SOL    HW215375   0.287   2.483   8.077 -1.3622 -1.3742  3.3051
 1306SOL     OW15376   3.192   1.250  17.101  0.1433 -0.0651 -0.2078
 1306SOL    HW115377   3.271   1.213  17.063 -0.0519 -2.7212  1.9764
 1306SOL    HW215378   3.150   1.167  17.123 -1.4574  0.4024 -1.4934
 1307SOL     OW15379   0.609   0.330   8.625 -0.2884 -0.5750 -0.2433
 1307SOL    HW115380   0.649   0.244   8.635 -0.1300 -0.4733 -0.0129
 1307SOL    HW215381   0.537   0.313   8.563 -0.6292 -2.5658  0.6766
 1308SOL     OW15382   3.056   4.259   3.851 -0.2068  0.2832  0.3305
 1308SOL    HW115383   2.992   4.204   3.806  0.1570 -0.6817  0.9971
 1308SOL    HW215384   3.106   4.302   3.782 -0.7618 -0.4153 -0.4923
 1309SOL     OW15385   0.420   1.525   9.208  0.3030  0.0396 -0.8975
 1309SOL    HW115386   0.493   1.581   9.234  0.4726 -0.5691 -0.0720
 1309SOL    HW215387   0.465   1.468   9.146 -2.8305 -1.9629 -1.2900
 1310SOL     OW15388   1.794   1.461   3.844  0.3600 -0.1955 -0.2067
 1310SOL    HW115389   1.808   1.414   3.926 -0.3999  0.6314  0.4000
 1310SOL    HW215390   1.740   1.394   3.801 -2.6514  1.1341  1.4884
 1311SOL     OW15391   4.076   0.721   4.753 -0.4740  0.2137  0.4513
 1311SOL    HW115392   4.165   0.685   4.757 -0.6313  0.0004  2.2072
 1311SOL    HW215393   4.079   0.761   4.666  0.3819  4.3405  2.3439
 1312SOL     OW15394   3.639   4.257   0.582  0.6804 -0.2208  0.4548
 1312SOL    HW115395   3.679   4.230   0.665 -0.3212  1.4235  1.4930
 1312SOL    HW215396   3.547   4.237   0.604  0.3117  0.3564 -0.5617
 1313SOL     OW15397   3.050   2.990   2.420 -0.1726  1.1245 -0.3178
 1313SOL    HW115398   3.020   2.906   2.454 -1.9193  1.3396 -1.2753
 1313SOL    HW215399   3.140   2.977   2.391  0.2705  2.4575  0.4282
 1314SOL     OW15400   2.204   0.371   1.691 -0.1146  0.0565  0.1075
 1314SOL    HW115401   2.154   0.290   1.689  1.0885 -0.7103  0.8126
 1314SOL    HW215402   2.254   0.362   1.609  0.8082  1.4627  0.5061
 1315SOL     OW15403   2.557   1.301   4.782 -0.3627  0.4830  0.7649
 1315SOL    HW115404   2.524   1.281   4.695 -0.9696 -0.0857  1.1240
 1315SOL    HW215405   2.480   1.269   4.830 -0.5389 -0.0636  0.1236
 1316SOL     OW15406   0.949   2.428   4.800  0.4684 -0.2436  0.1265
 1316SOL    HW115407   0.877   2.489   4.783 -0.1999 -0.8879  0.6078
 1316SOL    HW215408   0.910   2.340   4.798 -0.9146  0.3464  1.0941
 1317SOL     OW15409   3.723   4.721   9.294  0.7107 -0.4570 -0.2167
 1317SOL    HW115410   3.661   4.666   9.341  1.5733 -1.7559 -0.5615
 1317SOL    HW215411   3.664   0.038   9.231  1.0163 -0.8777 -0.7659
 1318SOL     OW15412   2.245   4.353   3.529  0.3047 -0.4937  0.0386
 1318SOL    HW115413   2.229   4.277   3.584  1.3525 -0.2657  0.6374
 1318SOL    HW215414   2.239   4.327   3.437  1.7212 -3.1409  0.7099
 1319SOL     OW15415   1.371   4.606   2.425 -0.4861 -0.5227 -0.0279
 1319SOL    HW115416   1.352   4.692   2.462  1.9351 -0.7620  1.7389
 1319SOL    HW215417   1.420   4.629   2.346 -0.9187  1.5174  0.2981
 1320SOL     OW15418   0.419   1.865   6.120 -0.0385 -0.5791 -0.0045
 1320SOL    HW115419   0.424   1.828   6.208 -2.4137  2.1905  1.2951
 1320SOL    HW215420   0.396   1.787   6.070  0.4412 -1.8969  1.8616
 1321SOL     OW15421   0.797   3.967   6.244  0.3396 -0.4389 -0.5816
 1321SOL    HW115422   0.804   3.907   6.170 -1.0371 -1.4079  0.0872
 1321SOL    HW215423   0.862   3.925   6.301 -1.1939 -1.2750  0.5428
 1322SOL     OW15424   2.896   4.555  10.871 -0.6505  0.1454 -0.0136
 1322SOL    HW115425   2.959   4.619  10.839 -1.8941  1.1002 -0.5554
 1322SOL    HW215426   2.944   4.528  10.950 -2.1682  0.7169  1.1070
 1323SOL     OW15427   0.710   3.778   6.643 -0.2304  0.0808  0.0360
 1323SOL    HW115428   0.720   3.729   6.561 -1.2477  0.5619 -0.3740
 1323SOL    HW215429   0.747   3.707   6.696 -1.0053 -1.1521 -1.0509
 1324SOL     OW15430   3.846   1.397   3.018  0.1315  0.6419  0.4701
 1324SOL    HW115431   3.885   1.310   3.030 -0.4958  0.3422  0.3424
 1324SOL    HW215432   3.752   1.383   3.029  0.2998 -1.2453 -0.5294
 1325SOL     OW15433   0.235   2.591   5.709  0.2710  0.1963 -0.5641
 1325SOL    HW115434   0.143   2.563   5.706  0.5113 -0.5592 -0.7542
 1325SOL    HW215435   0.231   2.642   5.790  0.7436  0.2744 -0.5916
 1326SOL     OW15436   3.344   2.879   3.619  0.3282 -0.6885 -0.7680
 1326SOL    HW115437   3.435   2.851   3.610  0.7962 -0.3297  3.1642
 1326SOL    HW215438   3.353   2.956   3.562 -1.3342 -0.4178 -0.6608
 1327SOL     OW15439   0.554   1.461   8.380 -0.6139  0.6725 -0.5286
 1327SOL    HW115440   0.587   1.407   8.452 -1.4274 -1.8415 -2.0401
 1327SOL    HW215441   0.462   1.475   8.403  0.3068  1.1849  2.8810
 1328SOL     OW15442   0.590   0.608   7.873  0.3620  0.4004  0.2763
 1328SOL    HW115443   0.567   0.683   7.818 -2.1809  0.3207  1.2147
 1328SOL    HW215444   0.525   0.613   7.943  0.9467 -1.3750  0.9555
 1329SOL     OW15445   2.975   1.791   6.518 -0.2234  0.4069 -0.1252
 1329SOL    HW115446   3.024   1.758   6.442  0.8464  1.1940  0.2286
 1329SOL    HW215447   2.893   1.790   6.469 -0.2737  3.0541 -0.0822
 1330SOL     OW15448   4.179   0.173   2.479  0.4783  0.0507 -0.0691
 1330SOL    HW115449   4.269   0.178   2.445  0.2366 -0.8911 -0.8355
 1330SOL    HW215450   4.179   0.260   2.520  0.4256 -0.4285  0.9476
 1331SOL     OW15451   3.493   3.889   2.040 -0.0403 -0.2556 -0.2505
 1331SOL    HW115452   3.580   3.907   2.003  0.0727  0.2710  0.2775
 1331SOL    HW215453   3.468   3.805   2.001 -0.9294  0.3977 -1.0671
 1332SOL     OW15454   1.184   2.389   2.839  0.1380 -0.2927  0.2758
 1332SOL    HW115455   1.192   2.463   2.899  1.5071 -0.8864  0.8363
 1332SOL    HW215456   1.208   2.426   2.753 -2.0895  2.2862  0.7511
 1333SOL     OW15457   1.657   4.144   7.404  0.0084  0.6102  0.1418
 1333SOL    HW115458   1.651   4.166   7.497  0.4580  2.6468 -0.3188
 1333SOL    HW215459   1.750   4.156   7.386  0.4894 -1.6313  1.2124
 1334SOL     OW15460   1.097   1.966  16.471 -0.3213 -0.3325  0.4051
 1334SOL    HW115461   1.019   1.911  16.485 -0.0976 -0.4803  1.0723
 1334SOL    HW215462   1.159   1.901  16.438 -0.8144 -0.8761  0.5555
 1335SOL     OW15463   1.040   2.496   2.056  0.0207  0.0472 -0.7099
 1335SOL    HW115464   1.014   2.512   2.147  1.7344  1.1490 -0.4311
 1335SOL    HW215465   1.039   2.586   2.024 -0.0142  0.2732 -0.0724
 1336SOL     OW15466   1.416   1.410   2.737 -0.9262 -1.0040  0.4066
 1336SOL    HW115467   1.399   1.426   2.644  0.5344 -1.6677  0.0295
 1336SOL    HW215468   1.346   1.346   2.750 -1.7335 -0.1611  0.2892
 1337SOL     OW15469   4.462   2.068  16.021 -0.7497 -0.3709  0.2444
 1337SOL    HW115470   4.402   2.125  15.974 -2.0042 -0.9619  1.1128
 1337SOL    HW215471   4.539   2.125  16.028 -0.3018 -0.7541 -1.5983
 1338SOL     OW15472   2.899   4.671   6.493  0.5968 -0.2762  0.1000
 1338SOL    HW115473   2.852   0.027   6.523 -2.2618 -1.3092 -1.6707
 1338SOL    HW215474   2.914   4.633   6.579  1.7859  0.5456  0.2525
 1339SOL     OW15475   0.201   3.100   3.753  0.6030 -0.3457 -0.2698
 1339SOL    HW115476   0.200   3.114   3.658 -0.9474  0.2820 -0.1596
 1339SOL    HW215477   0.222   3.189   3.783  1.1203 -0.4532 -0.3100
 1340SOL     OW15478   4.486   1.781   0.827  0.2542  0.8102  0.3058
 1340SOL    HW115479   4.443   1.846   0.772 -0.9797 -0.5943 -0.3931
 1340SOL    HW215480   4.578   1.786   0.802  0.2305  0.8780  0.2344
 1341SOL     OW15481   1.056   2.311   9.014 -0.2386 -0.7079 -0.2073
 1341SOL    HW115482   1.071   2.358   9.096 -0.3208 -1.1984  0.0898
 1341SOL    HW215483   0.994   2.375   8.980 -0.4271 -1.1714 -0.7515
 1342SOL     OW15484   3.926   0.540  11.178  0.3863  0.2590  0.0376
 1342SOL    HW115485   3.996   0.549  11.113 -0.5829 -0.5203 -1.1223
 1342SOL    HW215486   3.974   0.538  11.260 -2.6133 -1.5451  1.7621
 1343SOL     OW15487   3.914   2.510   6.202 -0.4958 -0.0321 -0.2227
 1343SOL    HW115488   3.989   2.489   6.258  0.7539  2.4314 -0.9942
 1343SOL    HW215489   3.957   2.574   6.146 -0.6479  1.0847  0.9166
 1344SOL     OW15490   0.249   1.205   2.392  0.0136 -0.2094 -0.3119
 1344SOL    HW115491   0.236   1.290   2.434 -0.7489  0.0893 -1.1504
 1344SOL    HW215492   0.300   1.229   2.315 -1.2983  1.3792 -0.6696
 1345SOL     OW15493   4.330   4.023   7.821  0.1885  0.4050  0.0924
 1345SOL    HW115494   4.273   3.947   7.815 -1.4248  1.6929 -0.7955
 1345SOL    HW215495   4.291   4.068   7.896  0.7283 -2.1851  1.9523
 1346SOL     OW15496   1.362   2.662   7.384  0.5110  0.4693  0.0310
 1346SOL    HW115497   1.434   2.610   7.421 -1.4934 -0.9403  1.9485
 1346SOL    HW215498   1.396   2.705   7.306  2.8322 -1.8402 -0.2334
 1347SOL     OW15499   1.444   1.426   5.822  0.1661  0.2737  0.6251
 1347SOL    HW115500   1.466   1.448   5.731 -1.1014 -0.1032  0.2364
 1347SOL    HW215501   1.470   1.334   5.820 -0.6759  0.0597  0.0328
 1348SOL     OW15502   0.673   0.282   6.575 -0.6115  0.6077 -0.5908
 1348SOL    HW115503   0.679   0.339   6.499 -0.1793  0.3688 -0.7380
 1348SOL    HW215504   0.662   0.349   6.643  0.6111 -0.3398  0.5446
 1349SOL     OW15505   0.149   1.451   4.658 -0.1512 -0.2003  0.2722
 1349SOL    HW115506   0.204   1.374   4.643  1.4154  0.9896 -0.0863
 1349SOL    HW215507   0.128   1.475   4.568 -0.1233  1.2026  0.6392
 1350SOL     OW15508   4.449   4.659   7.911 -0.4938 -0.2533  0.7440
 1350SOL    HW115509   4.413   4.680   7.825 -0.3562 -0.3980  0.6526
 1350SOL    HW215510   4.536   4.698   7.905 -0.6906  0.0377 -0.1787
 1351SOL     OW15511   3.966   2.715   8.221  0.0451 -0.2988 -0.0498
 1351SOL    HW115512   3.911   2.767   8.163  1.3058  1.2158  0.1205
 1351SOL    HW215513   3.977   2.631   8.175 -0.9759  0.9864 -2.6231
 1352SOL     OW15514   1.168   2.631  10.339 -0.1246 -0.1610 -0.3169
 1352SOL    HW115515   1.073   2.631  10.353  0.0291 -0.4070  0.7474
 1352SOL    HW215516   1.198   2.626  10.430 -2.5174  0.2884  0.5054
 1353SOL     OW15517   0.539   2.404  11.483 -0.7715  0.0512  0.2487
 1353SOL    HW115518   0.537   2.436  11.573  0.1436  0.8610 -0.0168
 1353SOL    HW215519   0.633   2.410  11.464 -0.8691  0.7185 -0.0338
 1354SOL     OW15520   4.376   0.645  15.118  0.1746  0.8053  0.1866
 1354SOL    HW115521   4.300   0.626  15.172  0.5897 -0.4711  0.3103
 1354SOL    HW215522   4.344   0.729  15.084 -1.1851 -0.4565 -1.6495
 1355SOL     OW15523   3.284   0.471   2.882  0.0626  0.6531 -0.0631
 1355SOL    HW115524   3.380   0.464   2.883  0.0588  0.9230  1.6853
 1355SOL    HW215525   3.273   0.478   2.787 -0.2996 -1.7174 -0.1867
 1356SOL     OW15526   3.933   3.965  12.486 -0.3277  0.0901  0.1190
 1356SOL    HW115527   4.025   3.961  12.458 -0.2764 -2.2067  0.6106
 1356SOL    HW215528   3.954   3.974  12.579 -0.5124 -1.8811  0.3455
 1357SOL     OW15529   2.235   1.436   2.416  0.0776 -0.4108 -0.2338
 1357SOL    HW115530   2.252   1.481   2.334 -2.0710 -1.1126 -1.0750
 1357SOL    HW215531   2.202   1.358   2.372 -0.7902 -1.0310  1.4861
 1358SOL     OW15532   4.400   2.582   4.611  0.0695  0.3642 -0.3442
 1358SOL    HW115533   4.471   2.551   4.555 -0.0818 -0.6090  0.0111
 1358SOL    HW215534   4.371   2.660   4.564 -0.8518 -1.2903 -2.4813
 1359SOL     OW15535   0.083   2.518  13.840 -0.0831  0.2529  0.5438
 1359SOL    HW115536   0.142   2.556  13.775  1.4402  0.5910  2.1225
 1359SOL    HW215537   0.024   2.473  13.780  0.1730 -0.4589  0.8300
 1360SOL     OW15538   2.132   1.124   9.378 -0.1063  0.0306  0.5949
 1360SOL    HW115539   2.046   1.081   9.377 -0.5310  0.8940 -2.2243
 1360SOL    HW215540   2.145   1.144   9.470 -0.0253 -0.3690  0.6697
 1361SOL     OW15541   1.730   4.414  14.260  0.5399  0.8858 -0.0349
 1361SOL    HW115542   1.791   4.363  14.206  1.3092 -0.3835  1.9964
 1361SOL    HW215543   1.701   4.336  14.308  2.2055 -0.0773 -0.5944
 1362SOL     OW15544   0.748   2.173   6.052  0.2114  0.0643  0.4031
 1362SOL    HW115545   0.653   2.176   6.042  0.5263  3.0452 -1.6423
 1362SOL    HW215546   0.772   2.128   5.972  0.8880 -1.7023  1.6053
 1363SOL     OW15547   3.878   2.179  16.417 -0.1493 -0.2131 -0.0280
 1363SOL    HW115548   3.835   2.255  16.455 -3.6647 -0.8030 -2.8246
 1363SOL    HW215549   3.965   2.218  16.426  0.2419 -0.6843 -1.7320
 1364SOL     OW15550   1.157   4.125  15.089 -0.3083  0.1742  0.4489
 1364SOL    HW115551   1.170   4.216  15.115  0.1650  0.4483 -0.7411
 1364SOL    HW215552   1.102   4.087  15.158 -0.2770 -0.5014  0.0986
 1365SOL     OW15553   2.643   3.387  10.244 -0.2145 -0.0876 -0.7080
 1365SOL    HW115554   2.711   3.455  10.253  2.0962 -1.9248 -4.0421
 1365SOL    HW215555   2.658   3.355  10.155  2.5675 -0.8861  0.0507
 1366SOL     OW15556   3.360   3.731   7.883  0.7014  0.3813 -0.3032
 1366SOL    HW115557   3.306   3.654   7.862  0.5861  0.5366 -0.5787
 1366SOL    HW215558   3.426   3.694   7.941  0.4006  2.1260  1.1599
 1367SOL     OW15559   2.644   2.004   4.321 -0.0072  0.1269 -0.5458
 1367SOL    HW115560   2.604   1.974   4.239 -0.7157 -0.2729 -0.0521
 1367SOL    HW215561   2.561   2.032   4.360 -0.3579 -1.6438 -0.0103
 1368SOL     OW15562   1.867   2.596   7.943  0.7803  0.1377  0.7160
 1368SOL    HW115563   1.795   2.607   7.881  1.4546 -0.0218 -0.1059
 1368SOL    HW215564   1.900   2.685   7.950  0.1458  0.5680 -1.6421
 1369SOL     OW15565   1.734   1.574   1.761 -0.2412  0.3552 -0.2637
 1369SOL    HW115566   1.679   1.499   1.783 -0.2202  0.6846  0.8909
 1369SOL    HW215567   1.748   1.557   1.667  0.2954 -2.8163  0.3841
 1370SOL     OW15568   0.882   2.014   9.965  0.0510 -0.0409 -0.0319
 1370SOL    HW115569   0.801   2.052   9.933 -0.1559 -1.2438 -0.9640
 1370SOL    HW215570   0.895   2.057  10.049 -2.1887 -0.4471  0.5059
 1371SOL     OW15571   1.006   2.311   5.324  0.1634 -0.4061 -0.4074
 1371SOL    HW115572   1.062   2.335   5.399 -0.3804  1.5153 -0.6182
 1371SOL    HW215573   1.040   2.227   5.294  1.2168 -0.4813  0.9981
 1372SOL     OW15574   4.009   2.521   4.394  0.3515  0.4408 -0.3540
 1372SOL    HW115575   3.941   2.507   4.328  1.8629 -0.2787 -1.7825
 1372SOL    HW215576   3.978   2.599   4.439  0.8175 -0.2896  1.2532
 1373SOL     OW15577   1.196   1.999   7.928  0.4941  0.2459  0.1766
 1373SOL    HW115578   1.249   1.937   7.979  0.7060 -0.0700 -0.4328
 1373SOL    HW215579   1.135   2.028   7.995  0.3363  2.1790 -0.8066
 1374SOL     OW15580   0.177   0.639   8.779 -0.1677  0.2394  0.1370
 1374SOL    HW115581   0.179   0.548   8.748  2.0177  0.5736 -0.7519
 1374SOL    HW215582   0.093   0.672   8.747  0.1058  0.2130 -0.6270
 1375SOL     OW15583   2.173   3.049   4.847  0.2064 -0.0383 -0.1525
 1375SOL    HW115584   2.140   3.104   4.918  0.7631  1.0659 -0.7421
 1375SOL    HW215585   2.268   3.054   4.858  0.1654  0.8754 -0.1940
 1376SOL     OW15586   1.253   0.872   0.868  0.3926  0.0146  0.3013
 1376SOL    HW115587   1.253   0.968   0.873  2.1755  0.0632 -0.7220
 1376SOL    HW215588   1.345   0.846   0.872  0.5654  0.9622  2.0833
 1377SOL     OW15589   3.639   1.066   2.044 -0.7848 -0.4631  0.3367
 1377SOL    HW115590   3.665   1.158   2.037 -2.3018  0.0419  1.4471
 1377SOL    HW215591   3.718   1.034   2.000 -2.3255 -1.3846 -1.7901
 1378SOL     OW15592   0.868   1.477   0.439 -0.5022 -0.0331  0.3710
 1378SOL    HW115593   0.877   1.569   0.464  0.7554 -0.6392  2.0764
 1378SOL    HW215594   0.803   1.447   0.502  0.1258  0.3098  1.1799
 1379SOL     OW15595   1.457   3.356  12.438 -0.1709 -0.2154  0.6993
 1379SOL    HW115596   1.381   3.412  12.426 -0.0086 -0.6729 -2.4371
 1379SOL    HW215597   1.460   3.357  12.533 -0.3688 -1.0751  0.7140
 1380SOL     OW15598   0.486   3.424   6.252 -0.1416 -0.0256 -0.1755
 1380SOL    HW115599   0.550   3.420   6.181 -1.0253  1.0188 -1.0442
 1380SOL    HW215600   0.533   3.395   6.330 -0.9118  2.5715  1.2628
 1381SOL     OW15601   2.123   3.636   5.704  0.0661 -0.0769  0.6611
 1381SOL    HW115602   2.209   3.595   5.703 -0.5615 -1.3667 -1.3844
 1381SOL    HW215603   2.089   3.597   5.784 -1.8172  0.9617  0.3577
 1382SOL     OW15604   2.690   4.074  10.892  0.6115  0.1933 -0.2623
 1382SOL    HW115605   2.759   4.067  10.957 -2.1016 -3.6296  2.2280
 1382SOL    HW215606   2.616   4.122  10.929  0.4147  1.5854 -2.4731
 1383SOL     OW15607   3.649   2.838   4.450 -0.0494  0.2342  0.0439
 1383SOL    HW115608   3.621   2.889   4.375  0.6897 -0.5377 -0.7538
 1383SOL    HW215609   3.616   2.896   4.519 -1.3795 -0.7262  0.2006
 1384SOL     OW15610   3.425   1.241   4.402 -0.1077  0.0048  0.1453
 1384SOL    HW115611   3.426   1.171   4.337 -1.4239 -1.1317  1.3561
 1384SOL    HW215612   3.331   1.242   4.420 -0.2809  2.1250 -0.8225
 1385SOL     OW15613   0.660   2.520  14.693 -0.7241 -0.5979  0.3539
 1385SOL    HW115614   0.689   2.430  14.711 -0.3458 -0.0151  2.6303
 1385SOL    HW215615   0.589   2.534  14.756 -0.7125 -1.8153  0.6467
 1386SOL     OW15616   4.097   4.675   7.993 -0.3340 -0.0665  0.1674
 1386SOL    HW115617   4.149   4.720   7.927 -1.0294 -0.2810 -0.5184
 1386SOL    HW215618   4.039   0.022   8.025  0.1982 -0.0414  1.0923
 1387SOL     OW15619   4.028   0.812   6.750  0.1085 -0.0708  0.6697
 1387SOL    HW115620   4.029   0.748   6.821 -0.2307 -3.9202 -2.8117
 1387SOL    HW215621   3.973   0.773   6.682  2.8910  1.4562 -2.4604
 1388SOL     OW15622   0.718   2.319   1.430  0.6217 -0.1352  0.9511
 1388SOL    HW115623   0.659   2.245   1.410 -0.6573  0.6549  1.7875
 1388SOL    HW215624   0.669   2.392   1.392  0.4220 -0.5342  0.4320
 1389SOL     OW15625   4.588   1.263  12.168 -0.3657  0.1667 -0.5837
 1389SOL    HW115626   4.566   1.313  12.090 -0.7280  0.8473 -0.0472
 1389SOL    HW215627   4.598   1.327  12.239 -1.3621 -1.3936  0.9631
 1390SOL     OW15628   4.189   3.133  12.421 -0.1097 -0.0031 -0.9524
 1390SOL    HW115629   4.135   3.157  12.497  0.3702  1.6130 -1.1232
 1390SOL    HW215630   4.142   3.056  12.391 -1.9670  0.6591  0.2171
 1391SOL     OW15631   1.385   0.646   7.990  0.0696 -0.0562 -0.8629
 1391SOL    HW115632   1.436   0.585   8.043 -1.4920  0.6767  1.4785
 1391SOL    HW215633   1.303   0.640   8.040  0.2049 -0.4121 -0.6754
 1392SOL     OW15634   4.120   2.244   8.088  0.2921 -0.1372 -0.3111
 1392SOL    HW115635   4.083   2.178   8.147  0.7330 -0.9166 -0.9027
 1392SOL    HW215636   4.139   2.198   8.006  3.0336 -0.8547  0.7404
 1393SOL     OW15637   1.440   0.544   1.581  0.8033  0.7592  0.0870
 1393SOL    HW115638   1.345   0.556   1.570  0.8491 -1.4127 -2.7727
 1393SOL    HW215639   1.454   0.551   1.675 -1.9830  0.8033  0.5154
 1394SOL     OW15640   3.165   3.736   6.982 -0.3500 -0.4559 -0.2285
 1394SOL    HW115641   3.080   3.739   7.025 -0.7635 -0.4515 -1.0470
 1394SOL    HW215642   3.214   3.774   7.054  1.1980 -1.9476 -0.4978
 1395SOL     OW15643   3.994   1.792   3.093 -0.1179  0.2980  0.0897
 1395SOL    HW115644   3.983   1.886   3.080  1.8418  0.2703 -1.6860
 1395SOL    HW215645   3.916   1.757   3.048 -0.4214 -0.2841  1.0681
 1396SOL     OW15646   3.833   4.359   0.049 -0.2829  0.3407  0.2752
 1396SOL    HW115647   3.854   4.439   0.097 -1.1850  0.0375  1.1771
 1396SOL    HW215648   3.796   4.308   0.122 -1.9035  0.8875 -0.1813
 1397SOL     OW15649   1.212   1.438   8.540  0.1289  0.5906 -0.1023
 1397SOL    HW115650   1.302   1.413   8.516 -0.5648 -2.1925  0.1471
 1397SOL    HW215651   1.176   1.385   8.468 -1.3130  2.2408 -0.5834
 1398SOL     OW15652   2.582   1.355  13.611  0.5778  0.4743 -0.4937
 1398SOL    HW115653   2.673   1.352  13.639  0.6250 -0.5297 -0.7753
 1398SOL    HW215654   2.542   1.377  13.695  0.2259  1.6591 -0.9716
 1399SOL     OW15655   1.702   1.836   5.737 -0.1365 -0.2191 -0.3176
 1399SOL    HW115656   1.626   1.819   5.792  0.3323  0.2069  0.4512
 1399SOL    HW215657   1.756   1.757   5.741  1.2979  0.6634 -2.1194
 1400SOL     OW15658   1.369   1.204   2.997  0.0199  0.4257 -0.2967
 1400SOL    HW115659   1.319   1.196   2.916 -2.5744 -0.8826  1.4234
 1400SOL    HW215660   1.361   1.296   3.022  0.5721 -0.1073  1.8528
 1401SOL     OW15661   1.375   2.679  13.076 -0.1611  0.3375 -0.1284
 1401SOL    HW115662   1.350   2.768  13.051  1.3210  1.3183  1.8610
 1401SOL    HW215663   1.352   2.674  13.169 -0.8793 -0.8816 -0.3796
 1402SOL     OW15664   0.383   2.131   9.609  0.1224  0.3025 -0.2258
 1402SOL    HW115665   0.447   2.094   9.548  1.3080 -0.2520  1.3569
 1402SOL    HW215666   0.361   2.052   9.659 -0.8192  1.6065  1.4128
 1403SOL     OW15667   4.289   3.991   3.256 -0.1832 -0.0684 -0.0652
 1403SOL    HW115668   4.203   3.965   3.222 -1.0771  0.0725  2.0506
 1403SOL    HW215669   4.352   3.975   3.186  0.0623  1.0640 -0.0963
 1404SOL     OW15670   2.548   0.798  17.542  0.2560  0.2679 -1.1610
 1404SOL    HW115671   2.533   0.736  17.613 -2.0557  0.4836 -1.4649
 1404SOL    HW215672   2.531   0.736  17.471 -0.5548 -0.3991 -0.3801
 1405SOL     OW15673   2.482   3.098   5.746 -0.1312  0.5055  0.2445
 1405SOL    HW115674   2.400   3.122   5.789 -0.3562 -0.0944  0.1521
 1405SOL    HW215675   2.548   3.118   5.813  0.5314 -0.8877  0.0177
 1406SOL     OW15676   1.814   1.436   3.174  0.3419  0.5485  0.1019
 1406SOL    HW115677   1.775   1.355   3.142  0.8315 -0.1241  1.2132
 1406SOL    HW215678   1.743   1.469   3.228  1.9552 -0.3432  2.7676
 1407SOL     OW15679   0.750   3.831   2.258 -0.5645 -0.0062 -0.0819
 1407SOL    HW115680   0.801   3.753   2.279 -0.0287  0.2610 -0.3782
 1407SOL    HW215681   0.675   3.827   2.317 -0.9201  3.5726 -0.3003
 1408SOL     OW15682   2.505   0.269   7.026  0.2203  0.0003  0.5321
 1408SOL    HW115683   2.564   0.193   7.030 -1.1378 -1.0613  0.4092
 1408SOL    HW215684   2.482   0.271   6.933 -0.3014  3.8875  0.7532
 1409SOL     OW15685   2.660   3.874   7.491  0.1351 -0.0675 -0.2558
 1409SOL    HW115686   2.753   3.896   7.497  0.2259 -0.4630 -0.2454
 1409SOL    HW215687   2.630   3.957   7.454 -0.9981 -0.7336 -0.8154
 1410SOL     OW15688   2.423   3.192  11.603 -0.2045 -0.7648 -0.1737
 1410SOL    HW115689   2.482   3.202  11.529 -2.6043 -1.2978 -2.1750
 1410SOL    HW215690   2.384   3.105  11.596 -0.2591 -0.6058 -1.8984
 1411SOL     OW15691   2.414   2.106  16.069  0.1617  0.2028  0.4672
 1411SOL    HW115692   2.413   2.021  16.025  0.9727  0.1552  0.5316
 1411SOL    HW215693   2.474   2.092  16.142 -1.7981 -1.6750  1.7100
 1412SOL     OW15694   1.769   2.721   2.116  0.3003  0.3712 -0.0178
 1412SOL    HW115695   1.679   2.687   2.117  0.4343 -0.0117 -0.9044
 1412SOL    HW215696   1.767   2.771   2.034 -2.0703  0.9345  0.3788
 1413SOL     OW15697   2.786   2.306   8.352  0.1185 -0.0852  0.0298
 1413SOL    HW115698   2.694   2.283   8.352  0.4904 -1.5941  0.1215
 1413SOL    HW215699   2.796   2.371   8.422 -2.7841 -1.3535  1.6332
 1414SOL     OW15700   3.321   2.579   5.684 -0.4999 -0.0246 -0.0315
 1414SOL    HW115701   3.276   2.663   5.680  0.9903  0.8444  1.3588
 1414SOL    HW215702   3.296   2.541   5.600  1.7285 -1.7686  0.1092
 1415SOL     OW15703   2.979   3.213  17.322  0.2876  0.5646 -0.1017
 1415SOL    HW115704   2.917   3.141  17.313 -2.3067  2.9127 -1.0728
 1415SOL    HW215705   3.051   3.176  17.373 -0.2356 -0.4441 -0.1014
 1416SOL     OW15706   0.067   2.975  10.406  0.9015 -0.2512 -0.2593
 1416SOL    HW115707   0.046   2.901  10.349  0.8741  0.3540 -1.0290
 1416SOL    HW215708   0.150   2.938  10.436  0.5836  0.9034  2.0769
 1417SOL     OW15709   4.396   1.594   9.091  0.3714 -0.0679  0.9837
 1417SOL    HW115710   4.489   1.584   9.112  0.2204 -1.5283  0.9638
 1417SOL    HW215711   4.358   1.582   9.178 -1.0410 -1.9078  0.1159
 1418SOL     OW15712   4.194   2.741   9.323  0.1849  0.1597 -0.2004
 1418SOL    HW115713   4.215   2.649   9.305 -1.1690 -0.1670 -0.0973
 1418SOL    HW215714   4.099   2.732   9.327  0.5173 -2.5368  1.9298
 1419SOL     OW15715   1.925   3.655   1.896 -0.0077 -0.4063  0.0767
 1419SOL    HW115716   1.932   3.750   1.895  0.8167 -0.4685 -0.0449
 1419SOL    HW215717   1.968   3.631   1.978 -1.5099 -2.1426  0.3569
 1420SOL     OW15718   0.219   1.165   6.245 -0.0359  0.3359  0.3584
 1420SOL    HW115719   0.294   1.222   6.258 -1.0144  1.5147  0.8885
 1420SOL    HW215720   0.177   1.162   6.331 -1.2028 -0.2102 -0.2151
 1421SOL     OW15721   4.548   2.118   7.815 -0.5702  0.1175  0.0477
 1421SOL    HW115722   4.588   2.139   7.731 -0.5005 -1.2733 -0.2692
 1421SOL    HW215723   4.526   2.201   7.858  0.8971 -0.0236  1.0637
 1422SOL     OW15724   2.969   1.950  12.610  0.2547  0.5760 -0.5343
 1422SOL    HW115725   3.031   1.945  12.683 -1.5215  1.2545  1.0292
 1422SOL    HW215726   2.996   1.874  12.558  0.1856  0.6227 -0.6388
 1423SOL     OW15727   1.892   2.521  13.432 -0.6324  0.0955 -0.0924
 1423SOL    HW115728   1.935   2.605  13.445  0.3801 -0.5377  0.6240
 1423SOL    HW215729   1.801   2.537  13.458 -1.0998  0.5924 -2.0115
 1424SOL     OW15730   3.857   0.695  11.696 -0.0483 -0.2265  0.2084
 1424SOL    HW115731   3.792   0.744  11.746  1.8379  1.4523  1.0315
 1424SOL    HW215732   3.802   0.648  11.633  0.7067  1.5947 -1.8232
 1425SOL     OW15733   2.158   1.071   7.381  0.4501 -0.2737 -0.3424
 1425SOL    HW115734   2.133   1.023   7.459 -2.9808  0.7754 -0.8049
 1425SOL    HW215735   2.243   1.101   7.414 -0.0065  0.1462  0.4268
 1426SOL     OW15736   3.149   0.841   6.432  0.5212  0.0970  0.6423
 1426SOL    HW115737   3.187   0.915   6.386 -1.9760 -0.3294 -2.1157
 1426SOL    HW215738   3.076   0.866   6.490  1.3563  2.0012  0.8557
 1427SOL     OW15739   4.688   1.764  13.479 -0.0281  0.4279 -0.0181
 1427SOL    HW115740   4.638   1.843  13.495 -2.0717 -1.2771  1.9324
 1427SOL    HW215741   4.660   1.741  13.390 -0.6663  2.6726 -0.3904
 1428SOL     OW15742   4.539   2.417  11.358 -0.2849  0.0052 -0.0812
 1428SOL    HW115743   4.610   2.412  11.422 -0.9652  0.0061  0.6752
 1428SOL    HW215744   4.460   2.405  11.410 -0.8356 -2.2483 -1.4785
 1429SOL     OW15745   0.843   2.643   2.576  0.2696  0.2473 -0.1262
 1429SOL    HW115746   0.750   2.656   2.593  0.5627  0.8691  1.0301
 1429SOL    HW215747   0.842   2.550   2.557  0.9858  0.2275 -0.0874
 1430SOL     OW15748   0.813   3.042   0.691 -0.2924  0.1952 -0.1237
 1430SOL    HW115749   0.768   3.051   0.775  0.5348  1.5132  0.1828
 1430SOL    HW215750   0.887   3.102   0.702  0.5121 -0.6335 -1.0719
 1431SOL     OW15751   2.401   0.114  13.228  0.3510  0.3902 -0.0465
 1431SOL    HW115752   2.376   0.042  13.286  0.5634  0.2046 -0.1854
 1431SOL    HW215753   2.342   0.187  13.243  0.9530  1.4534 -2.8617
 1432SOL     OW15754   1.378   4.214   7.269 -0.1989  0.6834  0.8464
 1432SOL    HW115755   1.407   4.197   7.180 -0.5343 -1.6475  1.1752
 1432SOL    HW215756   1.460   4.225   7.317  0.1051  0.8624  0.2811
 1433SOL     OW15757   1.758   2.667   2.393  0.5925  0.3660 -0.3488
 1433SOL    HW115758   1.703   2.588   2.388  1.1070  0.0785 -1.4396
 1433SOL    HW215759   1.775   2.686   2.301  1.1120  1.6123 -0.0035
 1434SOL     OW15760   3.853   3.660   5.482 -0.4071  0.2523 -0.3180
 1434SOL    HW115761   3.799   3.712   5.422 -1.4577  0.0229  0.4306
 1434SOL    HW215762   3.856   3.716   5.560 -3.5988 -0.3792  0.2398
 1435SOL     OW15763   1.177   1.193   3.904  0.2289  0.4954 -0.2537
 1435SOL    HW115764   1.262   1.233   3.924  0.2673 -0.2271  0.9992
 1435SOL    HW215765   1.147   1.149   3.983  0.3427  1.7006  0.4690
 1436SOL     OW15766   0.346   2.245   7.540 -0.5373 -0.0666 -0.0732
 1436SOL    HW115767   0.315   2.295   7.465  0.4941 -0.6280 -0.8681
 1436SOL    HW215768   0.343   2.312   7.608 -0.8601  1.2363 -1.3668
 1437SOL     OW15769   2.094   0.813   9.601 -0.4194  0.0428 -0.9533
 1437SOL    HW115770   2.087   0.723   9.570  1.7530 -0.5232  0.1935
 1437SOL    HW215771   2.004   0.836   9.621 -1.0744 -2.3818 -1.0883
 1438SOL     OW15772   0.954   0.214   2.466  0.2793 -0.4626 -0.2269
 1438SOL    HW115773   1.009   0.290   2.446 -1.1795  1.0507  1.5016
 1438SOL    HW215774   0.887   0.243   2.528  0.5848  2.1025 -1.0821
 1439SOL     OW15775   3.675   0.829   6.318 -0.2158  0.2310 -0.2181
 1439SOL    HW115776   3.697   0.769   6.246  1.5175  2.0612 -1.1919
 1439SOL    HW215777   3.644   0.763   6.380 -0.3280  0.5567  0.0731
 1440SOL     OW15778   2.844   2.754   6.830  0.3886  0.4493  0.5098
 1440SOL    HW115779   2.873   2.797   6.750 -0.3257 -1.6478 -0.8908
 1440SOL    HW215780   2.909   2.794   6.889  1.8024  0.7391 -1.2367
 1441SOL     OW15781   3.771   4.676   8.745  0.2023  0.1342 -0.4953
 1441SOL    HW115782   3.864   4.666   8.767  0.1716  4.0512  1.4752
 1441SOL    HW215783   3.725   4.604   8.788  0.1025  0.7638  0.4611
 1442SOL     OW15784   1.927   2.510   1.599 -0.0531 -0.1192  0.4572
 1442SOL    HW115785   1.963   2.599   1.592  1.2992 -0.5928  1.4165
 1442SOL    HW215786   1.856   2.506   1.535  1.2704  1.1106 -1.0707
 1443SOL     OW15787   3.643   0.822   3.143  0.1953 -0.1507  0.4807
 1443SOL    HW115788   3.573   0.804   3.081 -1.4154 -1.3780  2.6544
 1443SOL    HW215789   3.602   0.867   3.217 -1.3938 -1.5148  0.4311
 1444SOL     OW15790   3.162   1.109   4.084  0.7874 -0.2923  0.0945
 1444SOL    HW115791   3.067   1.104   4.091  0.5915  0.1466 -2.3487
 1444SOL    HW215792   3.189   1.191   4.043  2.5143 -0.7878  0.2241
 1445SOL     OW15793   3.197   0.133   4.336  0.0376  0.0793  0.1276
 1445SOL    HW115794   3.275   0.185   4.353 -1.0433  1.4093  0.9433
 1445SOL    HW215795   3.156   0.199   4.280 -0.3434 -0.3196 -0.0686
 1446SOL     OW15796   1.335   2.064   4.382 -0.5149 -0.1263  0.0730
 1446SOL    HW115797   1.308   2.078   4.472  0.5114 -1.8319  0.6448
 1446SOL    HW215798   1.427   2.089   4.375 -0.0625 -1.6639  0.4766
 1447SOL     OW15799   1.250   3.796  15.522  0.3776 -0.2671 -0.4594
 1447SOL    HW115800   1.325   3.737  15.516 -0.9107 -1.8337 -1.4530
 1447SOL    HW215801   1.271   3.843  15.603  0.7943 -2.5255  0.7442
 1448SOL     OW15802   1.246   2.630  11.064 -0.7170 -0.5901  0.5205
 1448SOL    HW115803   1.334   2.618  11.101 -0.0564 -0.6076 -1.0708
 1448SOL    HW215804   1.255   2.671  10.978  0.7815 -1.4674  0.2601
 1449SOL     OW15805   0.567   2.610  17.221 -0.6715  0.2859 -0.2999
 1449SOL    HW115806   0.491   2.619  17.279 -0.6247  1.5837 -0.4441
 1449SOL    HW215807   0.621   2.551  17.273  1.5458  0.2493 -2.6612
 1450SOL     OW15808   3.642   4.501   4.716  0.1647  0.3041  0.3044
 1450SOL    HW115809   3.563   4.476   4.765  0.3567  1.7530  1.3476
 1450SOL    HW215810   3.665   4.583   4.760  0.6685  0.2415  0.1559
 1451SOL     OW15811   2.284   4.036  14.347  0.1701 -0.2346  0.6210
 1451SOL    HW115812   2.215   3.975  14.373  2.3819 -1.7327  2.8771
 1451SOL    HW215813   2.279   4.087  14.427 -1.3702  0.2124  0.2397
 1452SOL     OW15814   0.192   3.155  15.489 -0.1165  0.2295 -0.1532
 1452SOL    HW115815   0.222   3.246  15.485 -1.6873  0.7993  1.4390
 1452SOL    HW215816   0.270   3.113  15.452 -0.1320  0.5687 -0.5836
 1453SOL     OW15817   3.338   1.967  17.093  0.0772 -0.5854  0.8463
 1453SOL    HW115818   3.406   1.905  17.068 -1.4544 -2.8517  2.2362
 1453SOL    HW215819   3.316   2.006  17.008 -0.0184 -0.9951  0.6824
 1454SOL     OW15820   1.003   2.637   6.332 -0.1014 -0.3285 -0.2439
 1454SOL    HW115821   0.948   2.703   6.374 -0.6334 -2.7138  2.8134
 1454SOL    HW215822   0.936   2.569   6.321  1.6834 -2.1801  0.3516
 1455SOL     OW15823   3.227   1.854   8.328 -0.4275  0.2829 -0.0549
 1455SOL    HW115824   3.251   1.941   8.297 -2.7451  0.7629 -0.4591
 1455SOL    HW215825   3.238   1.870   8.422  2.3755 -1.4058 -0.0694
 1456SOL     OW15826   1.074   0.138   8.490  0.0538 -0.2918  0.0240
 1456SOL    HW115827   1.098   0.136   8.398 -1.7632 -0.4887 -0.4445
 1456SOL    HW215828   1.150   0.180   8.530 -0.6661 -1.2827  2.4577
 1457SOL     OW15829   1.619   1.879  10.899 -0.1127 -0.1077 -0.1714
 1457SOL    HW115830   1.565   1.955  10.919  1.4178  0.5844  1.3865
 1457SOL    HW215831   1.559   1.809  10.925 -0.9347 -0.0756 -2.0065
 1458SOL     OW15832   3.855   1.625   6.214 -0.3400  0.1407  0.4597
 1458SOL    HW115833   3.841   1.533   6.192 -4.2182  0.6212  0.9141
 1458SOL    HW215834   3.862   1.624   6.310 -1.5811  2.2973  0.5699
 1459SOL     OW15835   0.259   0.253   9.853  0.3292  0.2258 -0.3865
 1459SOL    HW115836   0.200   0.276   9.781 -0.1194  3.3619  0.9795
 1459SOL    HW215837   0.233   0.317   9.918  0.7079 -0.7318  0.7058
 1460SOL     OW15838   4.367   1.425  12.716 -0.0473  0.3767  0.1884
 1460SOL    HW115839   4.395   1.428  12.624  0.2603 -0.2428  0.2609
 1460SOL    HW215840   4.360   1.334  12.743 -0.6197 -0.0873 -1.5118
 1461SOL     OW15841   2.652   1.028   4.999  0.4860 -0.1580 -0.2799
 1461SOL    HW115842   2.611   0.943   5.013 -0.3851 -0.0088 -1.8490
 1461SOL    HW215843   2.734   1.018   5.047  1.0904  0.7677 -1.1271
 1462SOL     OW15844   0.289   3.612   6.325  0.6942  0.2545 -0.3054
 1462SOL    HW115845   0.259   3.624   6.234 -0.5809  1.1040  0.2218
 1462SOL    HW215846   0.372   3.565   6.317  1.0236  0.7709  0.1321
 1463SOL     OW15847   1.167   3.594  11.586  0.1097  0.4639 -0.8090
 1463SOL    HW115848   1.121   3.661  11.536  0.1455  2.5894  2.0480
 1463SOL    HW215849   1.192   3.645  11.663 -2.9173 -1.2753  1.2868
 1464SOL     OW15850   1.042   4.546   6.935  0.3792 -0.2057  0.2600
 1464SOL    HW115851   0.957   4.562   6.893 -0.3413 -1.6951  1.1452
 1464SOL    HW215852   1.039   4.616   7.001  0.0408 -0.8719  0.9554
 1465SOL     OW15853   2.216   3.702  10.127 -0.2108  0.3422 -0.3873
 1465SOL    HW115854   2.268   3.631  10.165  1.3521  0.2905 -2.5835
 1465SOL    HW215855   2.160   3.646  10.073  0.1249  0.4815 -0.8857
 1466SOL     OW15856   2.070   1.985   3.234  0.2213  0.4546  0.5203
 1466SOL    HW115857   2.095   1.898   3.264  0.7941 -0.1113 -1.5935
 1466SOL    HW215858   2.019   1.968   3.154 -0.3837  0.7094  0.8501
 1467SOL     OW15859   2.018   0.359  17.648 -0.4571 -0.0127  0.4293
 1467SOL    HW115860   2.057   0.351  17.561  1.4742  3.0337  1.0442
 1467SOL    HW215861   2.048   0.447  17.669 -0.7646 -0.1561  1.4387
 1468SOL     OW15862   2.768   2.354  17.238 -0.3890 -0.4361  0.2408
 1468SOL    HW115863   2.823   2.412  17.186  0.0804 -1.3608 -0.3028
 1468SOL    HW215864   2.838   2.305  17.282  0.7900  1.7525  0.7617
 1469SOL     OW15865   0.082   1.564   4.895  0.4623  0.1220 -0.4535
 1469SOL    HW115866   0.102   1.542   4.805 -1.2085 -2.4728 -0.1890
 1469SOL    HW215867   0.113   1.484   4.937 -2.0950 -0.2661  0.7237
 1470SOL     OW15868   3.917   1.797   7.062  0.1162 -0.1310 -0.5344
 1470SOL    HW115869   3.825   1.778   7.080 -0.1231  2.7346  1.3023
 1470SOL    HW215870   3.919   1.889   7.088 -2.2804  0.6530 -3.1071
 1471SOL     OW15871   0.902   0.776   0.948 -0.5870 -0.1713 -0.2367
 1471SOL    HW115872   0.981   0.787   0.894 -1.1452 -0.3196 -1.0892
 1471SOL    HW215873   0.927   0.722   1.023  0.2666  0.7434  0.1323
 1472SOL     OW15874   2.807   3.626   2.997 -0.4522 -0.0635 -0.4828
 1472SOL    HW115875   2.807   3.566   3.072 -2.0719  0.2055 -0.2576
 1472SOL    HW215876   2.864   3.575   2.940 -1.2115  0.5857 -1.8193
 1473SOL     OW15877   4.105   0.795  15.580  0.1764 -0.0320 -0.5974
 1473SOL    HW115878   4.182   0.772  15.528  0.5036  0.3567 -0.2805
 1473SOL    HW215879   4.137   0.880  15.610  0.3710  0.3785 -1.9393
 1474SOL     OW15880   2.496   4.591   8.325 -0.0281  0.6870 -0.5082
 1474SOL    HW115881   2.458   4.639   8.252  0.2479  1.7015  0.0111
 1474SOL    HW215882   2.538   4.663   8.373  0.6487 -0.5140  0.6937
 1475SOL     OW15883   2.322   1.508  12.702 -0.4265  0.0512 -0.2291
 1475SOL    HW115884   2.281   1.582  12.657  0.5897  0.3780 -0.6193
 1475SOL    HW215885   2.367   1.460  12.633  0.3136  0.8007 -0.2613
 1476SOL     OW15886   3.661   3.778   2.586  0.2300 -0.7049  0.0539
 1476SOL    HW115887   3.656   3.837   2.661 -1.0219 -1.3762  0.4855
 1476SOL    HW215888   3.688   3.835   2.514 -0.6880  0.6870  0.8276
 1477SOL     OW15889   2.908   3.123  12.435 -0.3342 -0.2786 -0.8105
 1477SOL    HW115890   2.993   3.131  12.479 -1.4260  1.7788  0.9428
 1477SOL    HW215891   2.844   3.130  12.506 -1.7535  0.4634 -2.1774
 1478SOL     OW15892   1.029   4.187   5.036 -0.2947 -0.4614 -0.1763
 1478SOL    HW115893   1.050   4.191   4.942 -0.9519  1.3380 -0.2374
 1478SOL    HW215894   0.968   4.261   5.031 -1.4059 -1.2472  1.9352
 1479SOL     OW15895   2.607   4.387   2.432 -0.1304  0.2732  0.0972
 1479SOL    HW115896   2.530   4.380   2.376  0.1773  3.3341 -0.7232
 1479SOL    HW215897   2.675   4.415   2.370 -0.7219 -1.5954 -1.3814
 1480SOL     OW15898   2.575   3.504   6.499  0.3450  0.0504  0.3907
 1480SOL    HW115899   2.519   3.440   6.541  1.5777  0.0457  2.0148
 1480SOL    HW215900   2.547   3.586   6.541 -0.3154  0.7024 -1.3107
 1481SOL     OW15901   3.954   0.661   3.575 -0.5762 -0.0555  0.1248
 1481SOL    HW115902   3.960   0.606   3.497 -0.8149  1.1765 -0.7565
 1481SOL    HW215903   3.860   0.664   3.593 -0.9999 -3.5209 -1.4563
 1482SOL     OW15904   2.343   0.467   4.573  0.5950 -0.4661  0.1771
 1482SOL    HW115905   2.334   0.492   4.665  0.0126  2.2310 -0.5913
 1482SOL    HW215906   2.249   0.461   4.555  0.8304  1.5051 -1.7564
 1483SOL     OW15907   0.596   4.680   4.114 -0.1690 -0.0026  0.3243
 1483SOL    HW115908   0.682   4.699   4.077  0.1924 -0.6781  0.8174
 1483SOL    HW215909   0.612   4.718   4.201 -0.5495 -0.5067  0.6171
 1484SOL     OW15910   1.579   4.250   5.003 -0.1097  0.0844 -0.1160
 1484SOL    HW115911   1.490   4.253   4.967 -0.2913 -1.2165  0.2301
 1484SOL    HW215912   1.621   4.212   4.925  1.1502  1.8564 -0.3012
 1485SOL     OW15913   0.712   1.673   3.302  0.4162 -0.4122 -0.1060
 1485SOL    HW115914   0.774   1.668   3.229 -0.1333 -3.3368 -0.3888
 1485SOL    HW215915   0.662   1.592   3.295  0.3153 -0.3656  0.0693
 1486SOL     OW15916   2.801   0.031   6.067  0.4214  0.3607 -0.4297
 1486SOL    HW115917   2.851   0.029   6.149  0.3820  0.1518 -0.4102
 1486SOL    HW215918   2.773   4.662   6.054  1.6433 -0.1278  0.3437
 1487SOL     OW15919   3.569   0.210   6.197 -0.0198  0.4677 -0.1560
 1487SOL    HW115920   3.547   0.149   6.268 -0.0686  1.0814  0.3536
 1487SOL    HW215921   3.539   0.153   6.127  1.0162  1.7286 -1.6163
 1488SOL     OW15922   3.267   1.627   3.241  0.0068  0.1731  0.4091
 1488SOL    HW115923   3.230   1.556   3.294 -0.6677 -0.6211 -1.1088
 1488SOL    HW215924   3.213   1.651   3.166  0.7530  1.8324  0.4068
 1489SOL     OW15925   0.002   3.680   1.808 -0.8602 -0.1980  0.0299
 1489SOL    HW115926   4.680   3.601   1.779 -0.3015  0.3104 -2.2203
 1489SOL    HW215927   0.001   3.729   1.726 -0.3131 -0.5709 -0.2002
 1490SOL     OW15928   3.031   4.061   8.331 -0.3306 -0.2311  0.0067
 1490SOL    HW115929   2.983   4.144   8.331  1.7366  0.9691  0.0040
 1490SOL    HW215930   3.110   4.086   8.283 -1.4595  0.0637 -1.6608
 1491SOL     OW15931   3.804   0.883   6.954 -0.3496  0.1827 -0.1634
 1491SOL    HW115932   3.746   0.837   6.894  0.3141  0.3062 -0.8955
 1491SOL    HW215933   3.883   0.829   6.962  1.4638  2.6330 -1.6740
 1492SOL     OW15934   4.336   1.755   7.747 -0.4437 -0.1471  0.3073
 1492SOL    HW115935   4.371   1.798   7.825 -1.1935 -0.0479  0.5829
 1492SOL    HW215936   4.411   1.768   7.689 -2.1868 -0.5097 -2.0246
 1493SOL     OW15937   2.627   4.284  11.238  0.0795  0.1818 -0.2978
 1493SOL    HW115938   2.555   4.231  11.272  0.0576 -1.6441 -3.1338
 1493SOL    HW215939   2.618   4.271  11.143  0.7510  0.4602 -0.3983
 1494SOL     OW15940   1.446   0.595  17.378  0.3450  0.6395  0.1653
 1494SOL    HW115941   1.424   0.554  17.462  0.8912 -2.8924 -1.4469
 1494SOL    HW215942   1.538   0.571  17.364 -0.2852 -0.7913 -1.4172
 1495SOL     OW15943   3.893   0.148  14.808 -0.6127 -0.2210 -0.1241
 1495SOL    HW115944   3.983   0.132  14.782 -0.6071  2.7839 -1.9774
 1495SOL    HW215945   3.903   0.233  14.851 -1.3192 -1.0068  1.5613
 1496SOL     OW15946   1.016   4.210   4.760 -0.0033 -0.5964  0.1024
 1496SOL    HW115947   0.922   4.194   4.767 -0.3997  1.3174 -0.7879
 1496SOL    HW215948   1.038   4.172   4.675  0.0317  1.3664 -0.7827
 1497SOL     OW15949   4.423   2.239  17.165 -0.0462 -0.0836 -0.1139
 1497SOL    HW115950   4.491   2.176  17.141  1.4753  0.8840  1.6726
 1497SOL    HW215951   4.434   2.264  17.257  2.9384 -0.0529 -0.4612
 1498SOL     OW15952   0.375   2.010   6.983 -0.2692 -0.3112  0.4462
 1498SOL    HW115953   0.304   1.992   7.045 -0.5877  1.0163  0.4785
 1498SOL    HW215954   0.453   2.012   7.039 -0.1103 -1.0210  0.2459
 1499SOL     OW15955   2.814   0.793   4.361  1.3607  0.5644 -0.3283
 1499SOL    HW115956   2.871   0.867   4.381 -0.7414  1.3562  2.6428
 1499SOL    HW215957   2.822   0.742   4.442 -0.4926 -1.1635 -1.2121
 1500SOL     OW15958   4.167   4.610   4.823 -0.5253  0.1178  0.3687
 1500SOL    HW115959   4.225   4.589   4.750 -0.2917  0.2912  0.5076
 1500SOL    HW215960   4.099   4.639   4.761 -0.9166 -0.8204  0.3520
 1501SOL     OW15961   2.224   0.165   0.350 -0.8021  0.1788 -0.1441
 1501SOL    HW115962   2.233   0.216   0.430 -0.3441  1.3787 -0.9514
 1501SOL    HW215963   2.214   0.076   0.382  1.8849  0.3208  1.0556
 1502SOL     OW15964   1.078   4.358   6.390 -0.1512 -0.5586 -0.2772
 1502SOL    HW115965   1.150   4.318   6.341  1.8475  1.4024  1.1189
 1502SOL    HW215966   1.008   4.359   6.324 -0.4052 -2.3703 -0.0371
 1503SOL     OW15967   0.392   2.445  14.501  0.0248 -0.2633 -0.3965
 1503SOL    HW115968   0.325   2.416  14.438 -1.1304  2.1806 -0.3152
 1503SOL    HW215969   0.343   2.443  14.583 -1.1168  0.0041 -1.0729
 1504SOL     OW15970   2.375   3.033  16.162 -0.2725  0.1029  0.6204
 1504SOL    HW115971   2.348   2.989  16.243  0.1935  1.7995  1.6955
 1504SOL    HW215972   2.322   3.113  16.161 -0.0396  0.2412 -1.7289
 1505SOL     OW15973   2.378   3.871  17.593  0.1727 -0.0269  0.4569
 1505SOL    HW115974   2.428   3.791  17.610 -0.7838 -0.3559  1.6772
 1505SOL    HW215975   2.436   3.918  17.533 -0.8335  1.4680  0.6401
 1506SOL     OW15976   3.614   2.797   2.286  0.1457  0.7696 -0.0586
 1506SOL    HW115977   3.685   2.736   2.263 -1.3620 -0.7330 -0.6911
 1506SOL    HW215978   3.542   2.761   2.234  0.3931 -2.5795  1.9249
 1507SOL     OW15979   2.721   3.935   0.605  0.1682  0.8107 -0.3132
 1507SOL    HW115980   2.681   3.864   0.555  1.7820 -1.1307  1.1226
 1507SOL    HW215981   2.649   3.996   0.591 -2.3660 -2.2194 -0.4358
 1508SOL     OW15982   2.834   1.055   2.565 -0.2187 -0.0500 -0.1168
 1508SOL    HW115983   2.850   0.964   2.593 -0.4966  0.7080  2.5480
 1508SOL    HW215984   2.905   1.077   2.506  0.1698  0.6681  0.6184
 1509SOL     OW15985   4.548   3.944  11.172 -0.4228  0.3836 -0.4919
 1509SOL    HW115986   4.602   3.993  11.110 -1.5925 -0.1922 -1.9492
 1509SOL    HW215987   4.556   3.998  11.251 -0.4678 -0.2278 -0.0755
 1510SOL     OW15988   2.408   0.863   4.489 -0.0421 -0.3116  0.3103
 1510SOL    HW115989   2.488   0.833   4.532  0.2019 -0.6960 -0.4111
 1510SOL    HW215990   2.444   0.902   4.409 -3.1524 -1.4742 -1.6502
 1511SOL     OW15991   2.807   1.286   5.200 -0.1794 -0.1969 -0.2526
 1511SOL    HW115992   2.822   1.191   5.204 -0.9041 -0.3775 -2.0941
 1511SOL    HW215993   2.896   1.312   5.227 -0.9677  3.8190 -1.5568
 1512SOL     OW15994   1.199   1.500   3.538 -0.2777 -0.4654  0.1645
 1512SOL    HW115995   1.200   1.578   3.483 -2.7333 -1.0150 -0.6547
 1512SOL    HW215996   1.120   1.506   3.592 -0.2684  1.0559  0.0096
 1513SOL     OW15997   2.815   2.840  12.602 -0.2257  0.1108 -0.0877
 1513SOL    HW115998   2.819   2.835  12.506 -4.8766  1.6894 -0.3551
 1513SOL    HW215999   2.823   2.745  12.612  0.2263  0.1738  0.1116
 1514SOL     OW16000   0.966   1.740   0.792  0.2543  0.2271 -0.1765
 1514SOL    HW116001   0.976   1.780   0.878  1.8508  0.1586 -0.3365
 1514SOL    HW216002   0.889   1.793   0.769  0.9527  2.3807  2.4106
 1515SOL     OW16003   4.692   2.438   3.205 -0.6862 -0.0274  0.0432
 1515SOL    HW116004   4.609   2.391   3.198 -1.7520  1.9037 -0.2760
 1515SOL    HW216005   0.034   2.376   3.240 -1.9316 -0.5048  1.4813
 1516SOL     OW16006   2.813   1.746   5.539  0.5177 -0.0274 -0.1836
 1516SOL    HW116007   2.787   1.676   5.598 -2.5185  2.7559  1.8103
 1516SOL    HW216008   2.735   1.770   5.489  0.7340  1.8574  0.3925
 1517SOL     OW16009   1.214   0.321  16.376 -0.4216 -0.8585  0.3617
 1517SOL    HW116010   1.192   0.372  16.454 -0.1114  0.8715 -0.6727
 1517SOL    HW216011   1.176   0.367  16.301  2.3666  1.1148  0.1541
 1518SOL     OW16012   3.887   3.132  11.933  0.1988 -0.1298 -0.5316
 1518SOL    HW116013   3.842   3.205  11.976  1.2774 -0.3068  0.8955
 1518SOL    HW216014   3.977   3.164  11.939  0.8380 -1.9145 -0.5986
 1519SOL     OW16015   3.633   2.578   5.694  0.0066  0.7236  0.0597
 1519SOL    HW116016   3.538   2.574   5.697  0.0862  0.3731  2.2348
 1519SOL    HW216017   3.655   2.484   5.699  5.1973  2.0051  1.8031
 1520SOL     OW16018   0.284   3.337   5.648  0.1244  0.6322 -0.0476
 1520SOL    HW116019   0.287   3.284   5.727 -1.1337  0.8825  0.1737
 1520SOL    HW216020   0.224   3.407   5.675  0.4737  1.4057 -1.2372
 1521SOL     OW16021   2.107   2.169  10.068  0.1876  0.0697 -0.7278
 1521SOL    HW116022   2.020   2.189  10.035  0.6733  0.7310 -1.6011
 1521SOL    HW216023   2.076   2.138  10.153  1.8927  0.6399  0.1063
 1522SOL     OW16024   2.288   1.047   8.245  0.0306  0.1588 -0.6123
 1522SOL    HW116025   2.280   1.126   8.297 -3.7484 -0.7051  0.1452
 1522SOL    HW216026   2.243   1.081   8.168  1.3661  0.2209 -1.3695
 1523SOL     OW16027   1.745   1.790   8.987  0.0713  0.0343  0.2461
 1523SOL    HW116028   1.834   1.793   8.952  0.2494 -2.1652  0.4976
 1523SOL    HW216029   1.751   1.868   9.042 -1.5977 -1.3290  2.3679
 1524SOL     OW16030   1.750   3.060   1.366  0.2345 -0.1311  0.0999
 1524SOL    HW116031   1.806   3.137   1.356  0.1555  0.0776  1.2004
 1524SOL    HW216032   1.740   3.025   1.278 -1.4516  0.0607  0.2114
 1525SOL     OW16033   0.791   3.207  17.103  0.0383  0.0015  0.1169
 1525SOL    HW116034   0.831   3.287  17.137  2.9708 -1.7646  0.8579
 1525SOL    HW216035   0.864   3.145  17.096  0.8696  0.8860  0.9467
 1526SOL     OW16036   0.997   4.442  10.531  0.0649 -0.3408  0.2524
 1526SOL    HW116037   0.912   4.466  10.495  1.0046 -1.7040 -2.8700
 1526SOL    HW216038   1.010   4.512  10.596 -0.1976  0.3218 -0.4057
 1527SOL     OW16039   3.989   2.279   8.532 -0.2856  0.4356 -0.0237
 1527SOL    HW116040   3.978   2.317   8.445  1.1673 -1.2503 -0.9465
 1527SOL    HW216041   3.955   2.191   8.516  1.7393 -0.0613 -1.5285
 1528SOL     OW16042   2.056   1.047   4.924 -0.0977  0.2112  0.1209
 1528SOL    HW116043   2.054   0.990   4.848  0.1438  0.5409 -0.1323
 1528SOL    HW216044   1.963   1.061   4.940 -0.0276 -1.1203  1.6639
 1529SOL     OW16045   0.592   0.322   9.306 -0.3635  0.3888  0.0050
 1529SOL    HW116046   0.510   0.275   9.323  1.4127 -2.0703  1.7198
 1529SOL    HW216047   0.571   0.410   9.335 -1.2352 -0.1705  1.0861
 1530SOL     OW16048   2.071   3.277  10.236  0.0305 -0.1235 -0.0971
 1530SOL    HW116049   2.041   3.203  10.183 -0.4822  0.2804 -0.3762
 1530SOL    HW216050   1.985   3.308  10.264  0.6496  0.8360  0.7482
 1531SOL     OW16051   2.992   3.841  11.677 -0.6230 -0.0345 -0.2181
 1531SOL    HW116052   3.059   3.873  11.737 -2.0522  2.3107  0.1230
 1531SOL    HW216053   2.960   3.763  11.721 -0.7740  0.9182  1.3428
 1532SOL     OW16054   0.022   4.015   1.707  0.7900  0.4554  0.1278
 1532SOL    HW116055   4.717   3.929   1.674  2.1350  0.6109 -1.3769
 1532SOL    HW216056   0.005   4.074   1.633 -0.7856 -0.2212 -0.0590
 1533SOL     OW16057   0.934   0.376  14.942 -0.5248 -0.5640  0.1893
 1533SOL    HW116058   1.000   0.400  15.007  1.6216 -0.2493 -2.0942
 1533SOL    HW216059   0.879   0.454  14.949  2.2606  1.3220  1.2640
 1534SOL     OW16060   3.119   2.370   4.922 -0.1863  0.2859 -0.0481
 1534SOL    HW116061   3.186   2.324   4.871 -0.0716 -1.4379  1.6316
 1534SOL    HW216062   3.150   2.371   5.013 -1.5620 -0.7374  0.4330
 1535SOL     OW16063   1.566   1.869   1.066 -0.4503 -0.0692 -0.3975
 1535SOL    HW116064   1.599   1.799   1.010 -3.1755 -0.3787 -1.6063
 1535SOL    HW216065   1.619   1.875   1.146 -1.0598  0.8435 -0.0637
 1536SOL     OW16066   2.168   3.590   4.900  0.2678 -0.0385  0.1251
 1536SOL    HW116067   2.227   3.577   4.974  0.9908  1.0289 -0.2674
 1536SOL    HW216068   2.183   3.680   4.872  0.8916 -0.4407 -0.8455
 1537SOL     OW16069   4.395   2.470  11.610 -0.3464  0.6320 -0.0746
 1537SOL    HW116070   4.435   2.490  11.695 -1.3671 -0.0823  0.5739
 1537SOL    HW216071   4.375   2.558  11.578 -0.0892  0.5825 -0.3708
 1538SOL     OW16072   2.906   3.401   8.159 -0.2039 -0.2736 -0.1043
 1538SOL    HW116073   2.829   3.390   8.103 -0.5301 -0.3669  0.3690
 1538SOL    HW216074   2.865   3.368   8.239 -0.2591  1.8373  0.7377
 1539SOL     OW16075   2.218   1.494   4.400  0.6598 -0.2802  0.1523
 1539SOL    HW116076   2.166   1.450   4.467 -0.2542  0.4992 -0.0518
 1539SOL    HW216077   2.202   1.587   4.417  0.8574 -0.4503  1.2767
 1540SOL     OW16078   4.679   1.034   1.767  0.0927  0.7902  0.1593
 1540SOL    HW116079   0.010   0.968   1.811  0.2606  0.8735  0.0813
 1540SOL    HW216080   4.620   0.980   1.715  1.3188 -0.7336  0.3843
 1541SOL     OW16081   4.628   3.164   3.118  0.5466 -0.1500 -0.0388
 1541SOL    HW116082   4.675   3.106   3.178  0.6048  2.2054  2.1842
 1541SOL    HW216083   4.703   3.199   3.070  0.2318 -0.0610 -0.4664
 1542SOL     OW16084   1.864   4.301  11.747  0.1958 -1.0527  0.0384
 1542SOL    HW116085   1.936   4.267  11.694  0.2767 -1.5517  0.4677
 1542SOL    HW216086   1.907   4.313  11.831 -0.0435  2.3709 -0.3285
 1543SOL     OW16087   2.899   0.828  14.724 -0.0188 -0.0583  0.4386
 1543SOL    HW116088   2.938   0.740  14.727  1.5506  0.7120  2.6390
 1543SOL    HW216089   2.839   0.824  14.798 -0.4180 -1.2161  0.0570
 1544SOL     OW16090   2.410   3.091  10.239  0.5528 -0.0585 -0.2509
 1544SOL    HW116091   2.471   3.026  10.273 -0.3976 -0.2906  1.0250
 1544SOL    HW216092   2.400   3.066  10.148 -0.3720  0.1501 -0.2044
 1545SOL     OW16093   1.374   1.212   4.848  0.1139 -0.6463  0.7160
 1545SOL    HW116094   1.316   1.283   4.878  0.9254 -0.1520  1.1074
 1545SOL    HW216095   1.399   1.161   4.925  1.1059 -0.5438  0.4546
 1546SOL     OW16096   1.214   4.443   8.017  0.0349  0.2390 -0.1628
 1546SOL    HW116097   1.289   4.498   8.042  0.4414 -0.8430  1.0545
 1546SOL    HW216098   1.245   4.356   8.041  0.3149  1.1086  2.6555
 1547SOL     OW16099   2.263   3.362   7.627 -0.0495  0.4341 -0.1042
 1547SOL    HW116100   2.265   3.295   7.559 -0.9157  2.3443 -2.0275
 1547SOL    HW216101   2.172   3.390   7.637  0.1123  0.2635  1.7246
 1548SOL     OW16102   3.603   2.969   4.926  0.3011  0.1387  0.2060
 1548SOL    HW116103   3.545   3.041   4.951  0.0961 -0.5354  1.6553
 1548SOL    HW216104   3.558   2.893   4.962  1.1984  0.1380  1.3197
 1549SOL     OW16105   1.568   4.150   0.944  0.6360  0.0627  0.4494
 1549SOL    HW116106   1.493   4.194   0.904  1.4118  0.5898 -0.4329
 1549SOL    HW216107   1.606   4.226   0.989 -0.7153  1.3070 -0.5010
 1550SOL     OW16108   0.507   4.238   8.838  0.0168  0.4846 -0.0063
 1550SOL    HW116109   0.560   4.218   8.761  2.1994  1.2731  1.2976
 1550SOL    HW216110   0.421   4.260   8.803  0.2643  2.3291  0.5746
 1551SOL     OW16111   3.721   0.101   3.936 -1.5255  0.1114  0.1403
 1551SOL    HW116112   3.752   0.183   3.897 -0.5795 -0.3067  0.0140
 1551SOL    HW216113   3.717   0.098   4.031  0.2409 -1.5640  0.1811
 1552SOL     OW16114   2.356   0.327   2.232  0.0060  0.4498 -0.1960
 1552SOL    HW116115   2.432   0.348   2.178  2.0327 -0.1503  2.4111
 1552SOL    HW216116   2.292   0.319   2.162 -2.6221 -0.5780  2.3172
 1553SOL     OW16117   2.808   3.782   4.978  0.7940  0.6573  0.0844
 1553SOL    HW116118   2.762   3.789   4.894  1.7814 -1.3935 -0.6252
 1553SOL    HW216119   2.899   3.754   4.968  0.0014 -1.5601 -0.9758
 1554SOL     OW16120   2.440   3.562   9.913  0.4702  0.3267 -0.1721
 1554SOL    HW116121   2.466   3.614   9.989 -1.0388 -0.4654  0.8967
 1554SOL    HW216122   2.388   3.629   9.868  0.1164  0.0364 -0.1958
 1555SOL     OW16123   2.833   2.002   2.253  0.7489  0.3023  0.0479
 1555SOL    HW116124   2.825   2.026   2.160  1.2567  1.5734  0.3216
 1555SOL    HW216125   2.906   1.940   2.252  0.0435 -0.5269  1.2036
 1556SOL     OW16126   4.301   3.529   6.053 -0.5683 -0.4737  0.0561
 1556SOL    HW116127   4.329   3.514   6.144 -0.8862 -0.4533  0.1553
 1556SOL    HW216128   4.231   3.465   6.043  0.9446 -2.3203  1.3106
 1557SOL     OW16129   2.099   1.323   3.220  0.6229  0.5919 -0.2170
 1557SOL    HW116130   2.012   1.362   3.214  0.8615  0.8519 -1.9594
 1557SOL    HW216131   2.143   1.365   3.146  0.3045  2.9017  0.9078
 1558SOL     OW16132   2.364   1.205  11.015 -0.0612 -0.7091  0.0650
 1558SOL    HW116133   2.397   1.128  11.061  2.3019  0.3530  0.1042
 1558SOL    HW216134   2.354   1.173  10.925  1.2592  0.1034 -0.3627
 1559SOL     OW16135   1.848   0.966   6.896 -0.3656  0.6098 -0.4245
 1559SOL    HW116136   1.863   0.967   6.991  0.0696 -0.9911 -0.4632
 1559SOL    HW216137   1.921   1.020   6.868 -0.5452  1.7183  1.2171
 1560SOL     OW16138   3.135   2.470   6.094  0.3572 -0.3131  0.4247
 1560SOL    HW116139   3.198   2.430   6.154  0.7215  2.2340  1.7257
 1560SOL    HW216140   3.088   2.394   6.059 -0.5301  0.6614 -0.4615
 1561SOL     OW16141   4.440   4.016  17.420  0.4395 -0.1477  0.2880
 1561SOL    HW116142   4.414   4.100  17.458  1.9131 -0.0170  0.9770
 1561SOL    HW216143   4.479   4.045  17.338 -0.2250  0.1244  0.0648
 1562SOL     OW16144   0.099   3.408   5.225 -0.0711  0.4689  0.0551
 1562SOL    HW116145   0.168   3.471   5.206 -1.5592  2.6336  1.8515
 1562SOL    HW216146   0.096   3.408   5.321 -2.9118  0.3326 -0.0318
 1563SOL     OW16147   3.139   2.778   3.795 -0.0297 -0.3020  0.4994
 1563SOL    HW116148   3.110   2.869   3.793  1.7517  0.2283 -1.7179
 1563SOL    HW216149   3.228   2.789   3.760  0.7714 -1.3960  2.2084
 1564SOL     OW16150   4.663   2.107   8.971  0.6877  0.1762 -0.3437
 1564SOL    HW116151   0.010   2.136   8.912  0.5066  1.9627  0.3155
 1564SOL    HW216152   4.614   2.067   8.899 -0.6186  0.0839  0.5916
 1565SOL     OW16153   3.437   3.102   7.577  0.8631 -0.4121 -0.1498
 1565SOL    HW116154   3.454   3.182   7.627 -1.2977 -0.8951  1.3430
 1565SOL    HW216155   3.387   3.149   7.510 -1.5442 -1.8467  0.6298
 1566SOL     OW16156   4.135   0.031  11.662  0.3952 -0.3496  0.1434
 1566SOL    HW116157   4.070   4.699  11.708  3.2584 -2.0299  2.1709
 1566SOL    HW216158   4.201   4.688  11.642  1.3935  0.2315  1.5543
 1567SOL     OW16159   1.526   3.637   6.146  0.4908  0.3629 -0.6307
 1567SOL    HW116160   1.483   3.625   6.230 -0.0935 -1.7160 -1.2378
 1567SOL    HW216161   1.454   3.687   6.107 -1.7644 -2.8514 -0.5029
 1568SOL     OW16162   2.749   3.719  15.160 -0.0464 -0.1922 -0.3587
 1568SOL    HW116163   2.682   3.660  15.126  0.3181 -0.1786 -1.0841
 1568SOL    HW216164   2.791   3.667  15.229  0.2971 -0.2907 -0.6498
 1569SOL     OW16165   1.221   2.365   0.595  0.1909 -0.1551 -0.3332
 1569SOL    HW116166   1.187   2.444   0.636  2.2636 -0.5741  2.1021
 1569SOL    HW216167   1.236   2.315   0.675  0.5527 -0.5885 -0.6720
 1570SOL     OW16168   3.928   3.326   2.997  0.6917 -0.1374 -0.0710
 1570SOL    HW116169   4.018   3.355   3.013  0.0261  1.4306  0.8503
 1570SOL    HW216170   3.925   3.336   2.902  1.9866  2.8625  0.2043
 1571SOL     OW16171   2.245   3.131   7.484 -0.1735 -0.0627 -0.7195
 1571SOL    HW116172   2.318   3.071   7.501  0.9261  0.8423 -2.2471
 1571SOL    HW216173   2.169   3.077   7.506  1.0430 -1.9942 -1.2404
 1572SOL     OW16174   4.555   1.042   6.535  0.0786  0.3047 -0.2035
 1572SOL    HW116175   4.466   1.076   6.531 -0.1685 -0.0435  2.1888
 1572SOL    HW216176   4.575   1.062   6.626  3.1879  3.4890 -1.5816
 1573SOL     OW16177   0.265   1.442   5.062 -0.3566  0.1508 -0.2178
 1573SOL    HW116178   0.272   1.413   5.153  2.2969  0.7669 -0.2137
 1573SOL    HW216179   0.330   1.512   5.057 -0.6148  0.3389 -0.9609
 1574SOL     OW16180   0.316   2.038  16.697 -0.7248  0.1852  0.3510
 1574SOL    HW116181   0.399   2.082  16.718 -1.4470  0.9993  1.5392
 1574SOL    HW216182   0.349   1.992  16.620 -0.6635  0.5737  0.1451
 1575SOL     OW16183   3.318   1.238   5.648  0.1113 -0.3105 -1.3157
 1575SOL    HW116184   3.309   1.224   5.553 -0.5983 -2.4840 -0.9408
 1575SOL    HW216185   3.279   1.325   5.654 -0.9935 -0.9839  1.2280
 1576SOL     OW16186   2.960   3.461  17.260 -0.1376 -0.1579  0.4837
 1576SOL    HW116187   2.972   3.369  17.285 -1.1629 -0.2976  0.4689
 1576SOL    HW216188   2.867   3.455  17.236 -0.4639  1.2830  1.3856
 1577SOL     OW16189   2.731   0.077   6.982  0.2854 -0.1103  0.2661
 1577SOL    HW116190   2.708   0.050   7.070  0.9632  0.5337  0.6399
 1577SOL    HW216191   2.827   0.077   6.981  0.2758  2.4312 -0.3390
 1578SOL     OW16192   2.265   0.569   2.866 -0.2224  0.7406  0.6913
 1578SOL    HW116193   2.336   0.551   2.928  1.4977 -0.3243 -1.5809
 1578SOL    HW216194   2.254   0.479   2.834 -1.7921  1.2501 -0.1974
 1579SOL     OW16195   2.115   0.101  16.851  0.0042  0.3748 -0.3433
 1579SOL    HW116196   2.186   0.142  16.902  0.2208 -1.0677  0.5149
 1579SOL    HW216197   2.159   0.026  16.812  0.1053 -1.3935  3.1580
 1580SOL     OW16198   2.303   1.137   4.827  0.1905 -0.3261  0.3916
 1580SOL    HW116199   2.367   1.075   4.860  0.4697 -0.8591 -1.1407
 1580SOL    HW216200   2.223   1.110   4.871 -1.1300  0.9351 -1.2076
 1581SOL     OW16201   3.338   1.727   2.861 -0.3813  0.5333 -0.0820
 1581SOL    HW116202   3.260   1.686   2.898  0.2187 -2.2776 -1.9796
 1581SOL    HW216203   3.387   1.751   2.940  1.2643  0.0270 -0.9592
 1582SOL     OW16204   2.221   2.103   4.020 -0.4240  0.1481 -0.3004
 1582SOL    HW116205   2.263   2.060   3.946 -1.3573  0.0663 -0.7769
 1582SOL    HW216206   2.267   2.184   4.045 -3.2474  1.5793  0.2630
 1583SOL     OW16207   3.083   2.987   2.020  0.3616  0.4674  0.0445
 1583SOL    HW116208   3.139   3.051   2.065 -0.3408  1.0152  0.1538
 1583SOL    HW216209   3.141   2.925   1.977  0.1778  0.7629 -0.6195
 1584SOL     OW16210   1.023   4.166  10.405  0.0311  0.0284 -0.8044
 1584SOL    HW116211   1.024   4.253  10.445 -1.0228 -0.2519 -0.1652
 1584SOL    HW216212   1.087   4.114  10.453 -0.7890 -1.5228 -1.3954
 1585SOL     OW16213   3.592   3.412   3.505  0.2323  0.1583 -0.7993
 1585SOL    HW116214   3.559   3.431   3.593  0.5833  1.1061 -0.8728
 1585SOL    HW216215   3.534   3.469   3.454  0.5002  0.3516 -0.8890
 1586SOL     OW16216   1.328   2.738  15.357 -0.8061 -0.2936  0.2098
 1586SOL    HW116217   1.257   2.678  15.378  1.0530 -2.5682 -0.0216
 1586SOL    HW216218   1.302   2.783  15.277  3.5649  0.0776 -1.0189
 1587SOL     OW16219   2.213   4.542   4.190 -0.2579 -0.5500  0.1137
 1587SOL    HW116220   2.266   4.556   4.111 -1.9256 -1.9988 -1.2495
 1587SOL    HW216221   2.269   4.580   4.258 -2.2366  0.8444  0.9460
 1588SOL     OW16222   1.247   2.265   8.063 -0.0542 -0.0497  0.5529
 1588SOL    HW116223   1.218   2.221   7.982 -0.8194  2.6374 -0.6357
 1588SOL    HW216224   1.207   2.350   8.050 -0.1421  0.0835  1.7088
 1589SOL     OW16225   4.421   3.932   7.217  0.1783 -0.1018 -0.3922
 1589SOL    HW116226   4.349   3.956   7.276 -0.3942 -1.0894 -0.6932
 1589SOL    HW216227   4.390   3.935   7.126 -0.2861  1.3231 -0.1962
 1590SOL     OW16228   4.427   1.831   2.872  0.4117 -0.0352  0.1771
 1590SOL    HW116229   4.383   1.777   2.938 -2.6007  0.0586 -1.7489
 1590SOL    HW216230   4.516   1.842   2.906 -0.3958 -0.9777  2.6045
 1591SOL     OW16231   2.761   3.661   7.728  0.0886 -0.3987 -0.1826
 1591SOL    HW116232   2.815   3.689   7.654  1.9342 -1.9400  0.5758
 1591SOL    HW216233   2.678   3.677   7.683  0.9182  1.2580 -1.1522
 1592SOL     OW16234   4.689   0.339   3.021  0.6045 -0.0038 -0.4227
 1592SOL    HW116235   0.005   0.394   2.953  0.6801  1.7093  1.0007
 1592SOL    HW216236   4.623   0.297   2.966 -2.7103  1.5675  2.2957
 1593SOL     OW16237   2.116   2.037  12.136 -0.5174  0.2965 -0.0281
 1593SOL    HW116238   2.038   1.991  12.105  0.3634 -1.7011  0.7290
 1593SOL    HW216239   2.100   2.122  12.095 -2.3846 -0.2887 -0.5369
 1594SOL     OW16240   3.495   1.122  11.797  0.3822  0.2040  0.2148
 1594SOL    HW116241   3.456   1.209  11.802  0.4798  0.2794 -0.3057
 1594SOL    HW216242   3.462   1.095  11.883 -1.8825  0.0976 -0.6793
 1595SOL     OW16243   1.879   0.552   1.490 -0.2811  0.4545  0.8172
 1595SOL    HW116244   1.810   0.491   1.463  0.1281 -0.0993  1.0209
 1595SOL    HW216245   1.852   0.635   1.450 -2.0794 -1.4130 -1.8136
 1596SOL     OW16246   4.213   2.138   9.165  0.2053 -0.4173  0.1800
 1596SOL    HW116247   4.277   2.067   9.157  0.4742 -0.1455 -0.0810
 1596SOL    HW216248   4.238   2.169   9.078  1.0894 -0.4250  0.4314
 1597SOL     OW16249   4.597   4.679   0.067  0.7078  0.2571  0.0381
 1597SOL    HW116250   4.681   4.717   0.041  0.9966  0.6539  1.5837
 1597SOL    HW216251   4.620   4.610   0.129 -0.5840  1.2341  1.6098
 1598SOL     OW16252   2.513   3.620  17.612 -0.2986 -0.4690 -0.0481
 1598SOL    HW116253   2.443   3.587  17.668 -0.1913  1.1969  1.0610
 1598SOL    HW216254   2.590   3.581  17.652 -0.6418  0.3225  1.3777
 1599SOL     OW16255   0.344   2.155  16.027  0.5318 -0.5504  0.2469
 1599SOL    HW116256   0.337   2.158  15.932 -1.0388  0.3802  0.3842
 1599SOL    HW216257   0.438   2.145  16.040  0.6534  2.6914  1.8257
 1600SOL     OW16258   0.239   0.200   5.541 -0.4273  0.3973  0.0287
 1600SOL    HW116259   0.252   0.105   5.542 -0.3120  0.4286  1.4839
 1600SOL    HW216260   0.204   0.209   5.452  1.1873 -1.3579 -0.7792
 1601SOL     OW16261   1.193   0.756  17.659 -0.4181  0.0572 -0.1529
 1601SOL    HW116262   1.268   0.816  17.653  1.4102 -2.2871 -0.8126
 1601SOL    HW216263   1.132   0.818   0.007 -1.9506 -2.2334  1.0633
 1602SOL     OW16264   1.288   0.778   1.431  0.1570  0.1521  0.2438
 1602SOL    HW116265   1.264   0.718   1.359  0.5946  1.0695 -0.6644
 1602SOL    HW216266   1.348   0.837   1.386  0.1775 -1.1569 -1.4906
 1603SOL     OW16267   1.082   2.112   5.812 -0.0779 -0.2631 -0.0093
 1603SOL    HW116268   1.114   2.109   5.902  0.0487 -0.3517 -0.0561
 1603SOL    HW216269   0.987   2.110   5.815 -0.0740 -1.6867 -0.8540
 1604SOL     OW16270   2.402   0.805   6.224 -0.2292  0.0033  0.1578
 1604SOL    HW116271   2.413   0.866   6.297 -0.9577  1.8956 -1.3293
 1604SOL    HW216272   2.315   0.764   6.229 -0.8968  1.2258 -1.2531
 1605SOL     OW16273   1.257   0.374   7.797  0.0201  0.1391  0.1383
 1605SOL    HW116274   1.218   0.381   7.885 -0.1433  0.5723  0.0259
 1605SOL    HW216275   1.202   0.431   7.744  0.0362  0.0622  0.0392
 1606SOL     OW16276   2.597   4.396  17.555  0.1704 -0.1613  0.3972
 1606SOL    HW116277   2.559   4.418  17.470 -1.0313  0.2529  1.0406
 1606SOL    HW216278   2.681   4.438  17.536  0.1888  0.2875  1.4921
 1607SOL     OW16279   0.389   0.773   8.622  0.2875  0.3704  0.2176
 1607SOL    HW116280   0.462   0.723   8.658  1.3027  1.5217 -0.2607
 1607SOL    HW216281   0.322   0.704   8.622  0.6421  0.0228  1.5831
 1608SOL     OW16282   4.270   0.155   6.403  0.0729  0.8791 -0.0523
 1608SOL    HW116283   4.198   0.174   6.463  1.2506  1.1466  1.2827
 1608SOL    HW216284   4.330   0.220   6.438  1.6032 -1.0891  0.9137
 1609SOL     OW16285   2.277   2.504  15.322  0.0062 -0.4112 -0.1702
 1609SOL    HW116286   2.283   2.410  15.337 -0.6850 -0.0254  2.6107
 1609SOL    HW216287   2.187   2.525  15.348 -0.1344 -1.2227 -0.0197
 1610SOL     OW16288   0.829   0.258   2.183  0.0237 -0.2106  0.1267
 1610SOL    HW116289   0.875   0.336   2.153  0.1268  0.0938  1.0711
 1610SOL    HW216290   0.899   0.194   2.196  0.4734 -0.1704 -2.0830
 1611SOL     OW16291   3.983   2.656   7.057 -0.3979 -0.8008  0.9002
 1611SOL    HW116292   3.906   2.628   7.106 -1.1472 -0.8208 -0.2929
 1611SOL    HW216293   3.975   2.598   6.981  2.9537  0.3509 -0.3250
 1612SOL     OW16294   1.023   2.359   6.601  0.0348  0.1293  0.0222
 1612SOL    HW116295   1.013   2.268   6.629  0.0427 -0.0513 -0.5516
 1612SOL    HW216296   0.983   2.354   6.514 -1.2278 -2.3261  0.7578
 1613SOL     OW16297   3.792   2.513   9.924 -0.0621  0.1522 -0.5564
 1613SOL    HW116298   3.814   2.545   9.837  2.5783 -1.8339 -0.6438
 1613SOL    HW216299   3.868   2.456   9.937 -1.6692 -1.4336  1.9458
 1614SOL     OW16300   3.724   0.316  14.466 -0.1479  0.1228  0.0881
 1614SOL    HW116301   3.645   0.263  14.477 -1.2757  1.6895 -0.3562
 1614SOL    HW216302   3.691   0.388  14.412 -1.5096 -0.4790  0.1044
 1615SOL     OW16303   3.799   0.071   7.983 -0.2542  0.3709  0.1174
 1615SOL    HW116304   3.773   4.722   7.925 -0.1656 -0.5640  1.2403
 1615SOL    HW216305   3.797   0.141   7.918 -1.5586 -0.6390 -0.9308
 1616SOL     OW16306   3.506   3.809  13.456 -0.8359 -0.4677 -0.0111
 1616SOL    HW116307   3.485   3.867  13.530  0.1306  0.5066 -0.4965
 1616SOL    HW216308   3.600   3.795  13.464 -0.3972  2.1747 -0.4256
 1617SOL     OW16309   2.128   3.586   0.215  0.0672  0.3696  0.2895
 1617SOL    HW116310   2.059   3.604   0.151  1.0947  2.0370 -0.3309
 1617SOL    HW216311   2.187   3.661   0.208 -0.3784  0.5695 -1.3237
 1618SOL     OW16312   4.223   1.247   7.407  0.4571 -0.4544 -0.0004
 1618SOL    HW116313   4.163   1.285   7.471  1.7465  1.4918  0.0444
 1618SOL    HW216314   4.308   1.280   7.434 -0.5559  2.3613 -0.1934
 1619SOL     OW16315   1.625   3.007  13.371  0.5356  0.2608 -1.3607
 1619SOL    HW116316   1.649   3.100  13.364  2.4099 -0.0011  1.7088
 1619SOL    HW216317   1.535   3.012  13.336 -0.4738  0.3305  1.2615
 1620SOL     OW16318   3.322   1.712   2.499 -0.2987 -0.2831 -0.2619
 1620SOL    HW116319   3.290   1.693   2.411 -3.6849 -0.6024  1.0587
 1620SOL    HW216320   3.256   1.676   2.558  0.6664 -1.3837  0.1422
 1621SOL     OW16321   4.632   2.039   7.267  0.7670  0.1973  0.2410
 1621SOL    HW116322   4.624   2.105   7.199 -2.4066 -1.9794 -1.5061
 1621SOL    HW216323   4.582   1.967   7.229 -0.8785  0.4738  1.9119
 1622SOL     OW16324   0.663   0.835   4.633 -0.3648 -0.3276  0.1972
 1622SOL    HW116325   0.589   0.823   4.693 -0.7359 -0.6201 -0.3221
 1622SOL    HW216326   0.702   0.747   4.630  0.5535  0.0900 -0.0854
 1623SOL     OW16327   4.352   1.388   8.089  0.1760  0.0071 -0.0186
 1623SOL    HW116328   4.375   1.477   8.062  0.5499 -0.5636 -1.6043
 1623SOL    HW216329   4.274   1.396   8.144  1.6866 -0.7427  2.2002
 1624SOL     OW16330   0.054   3.005   7.868 -0.2391 -0.4119  0.5315
 1624SOL    HW116331   0.149   3.003   7.865 -0.3511 -2.4769 -1.3171
 1624SOL    HW216332   0.038   3.043   7.955  1.2819  0.0314  0.6129
 1625SOL     OW16333   3.951   4.367   3.200  0.5551 -0.0953 -0.7197
 1625SOL    HW116334   4.017   4.312   3.241 -0.7112  0.4795  2.0999
 1625SOL    HW216335   3.969   4.351   3.108  0.9801 -1.8505 -0.3387
 1626SOL     OW16336   0.714   1.476  14.277 -0.2518  0.4679  0.5603
 1626SOL    HW116337   0.639   1.508  14.327 -0.3870 -1.0852  1.3728
 1626SOL    HW216338   0.668   1.456  14.196 -1.0827 -3.4381  1.9861
 1627SOL     OW16339   0.799   1.886   7.252  0.1929 -0.3213 -0.5049
 1627SOL    HW116340   0.717   1.929   7.230  0.0612 -0.7156 -0.7889
 1627SOL    HW216341   0.803   1.893   7.347  0.0029  0.4608 -0.5555
 1628SOL     OW16342   4.061   3.620  11.605 -0.0978 -0.0004  0.1416
 1628SOL    HW116343   4.111   3.690  11.564 -1.6663  0.1018 -1.5988
 1628SOL    HW216344   4.080   3.542  11.553 -0.6635 -0.0680  0.0405
 1629SOL     OW16345   3.413   3.412  15.758 -0.2944 -0.6328  0.0089
 1629SOL    HW116346   3.482   3.422  15.692  0.1135 -0.4381  0.4631
 1629SOL    HW216347   3.377   3.501  15.752 -1.6379 -1.3175 -2.1301
 1630SOL     OW16348   2.451   3.344   8.247  0.3453  0.3157  0.4765
 1630SOL    HW116349   2.524   3.327   8.188  0.2738  2.2323 -0.1835
 1630SOL    HW216350   2.414   3.256   8.247 -0.3115  0.5793 -1.1168
 1631SOL     OW16351   0.007   4.571   3.360 -0.0545  0.1437  0.6112
 1631SOL    HW116352   4.678   4.618   3.425  0.2060  2.5930 -0.9538
 1631SOL    HW216353   0.060   4.512   3.413  0.6588 -0.0247 -0.2768
 1632SOL     OW16354   3.110   0.435   6.122 -0.3712  0.4372 -0.7652
 1632SOL    HW116355   3.124   0.354   6.171 -1.4143  0.3574 -0.5909
 1632SOL    HW216356   3.172   0.499   6.156  0.2834 -0.8547  0.4205
 1633SOL     OW16357   2.706   1.083   3.605 -0.1160 -0.6618  0.3370
 1633SOL    HW116358   2.676   1.159   3.554 -0.6525 -0.9112  0.2791
 1633SOL    HW216359   2.627   1.029   3.597  0.1694 -1.0645  0.2532
 1634SOL     OW16360   4.691   0.604  13.072 -0.0983 -0.2547  0.2887
 1634SOL    HW116361   4.680   0.540  13.143  1.3819  1.4397  2.0539
 1634SOL    HW216362   4.648   0.562  12.997  0.4020  0.2742 -0.2929
 1635SOL     OW16363   2.576   1.212   3.410  0.2358  0.0438  0.1615
 1635SOL    HW116364   2.506   1.270   3.440  1.5136  1.4597  0.4206
 1635SOL    HW216365   2.570   1.220   3.315 -0.9322  0.6938  0.2911
 1636SOL     OW16366   0.660   0.626   7.452 -0.0093 -0.1696  0.2462
 1636SOL    HW116367   0.571   0.637   7.418 -1.6120  1.0032  4.7276
 1636SOL    HW216368   0.706   0.602   7.372 -1.9749  0.5314 -1.1136
 1637SOL     OW16369   3.341   4.312  15.195 -0.0091  0.1683  0.0897
 1637SOL    HW116370   3.249   4.338  15.193 -0.2955 -0.7937  0.4351
 1637SOL    HW216371   3.375   4.362  15.121 -2.1118  1.1197 -0.2258
 1638SOL     OW16372   3.342   3.638  13.651  0.3555  0.5735 -0.1412
 1638SOL    HW116373   3.383   3.720  13.680 -2.1185  0.9235  2.3589
 1638SOL    HW216374   3.316   3.599  13.734 -1.1406  2.1969  0.1585
 1639SOL     OW16375   3.448   2.052  11.976 -0.2521 -0.3004  0.7454
 1639SOL    HW116376   3.503   1.975  11.967  0.1627  0.0423  0.2956
 1639SOL    HW216377   3.507   2.127  11.982 -0.4927 -0.0954  0.5736
 1640SOL     OW16378   1.984   1.808  10.248  0.1763 -1.2786 -0.3770
 1640SOL    HW116379   1.973   1.725  10.294  0.2095  0.2252  2.3251
 1640SOL    HW216380   1.908   1.801  10.190 -0.7484  3.1664  0.3181
 1641SOL     OW16381   2.284   0.021  15.138  0.1409  0.3964  0.4217
 1641SOL    HW116382   2.279   0.116  15.126  1.1695  0.2938 -0.8224
 1641SOL    HW216383   2.232   4.716  15.062  0.5480 -2.8545  1.2867
 1642SOL     OW16384   0.465   0.598   1.189  0.4587  0.2699 -0.1057
 1642SOL    HW116385   0.514   0.668   1.147  0.2248 -1.4075 -3.1270
 1642SOL    HW216386   0.418   0.636   1.264 -2.3068  0.9670 -2.1995
 1643SOL     OW16387   3.923   1.879   1.462 -0.0198  0.0103  0.1689
 1643SOL    HW116388   3.866   1.957   1.461 -0.6912 -0.4914 -0.6804
 1643SOL    HW216389   3.895   1.824   1.536 -2.1193  0.9370  0.0817
 1644SOL     OW16390   2.406   2.045   3.823  0.1468 -0.8352  0.2580
 1644SOL    HW116391   2.466   1.979   3.788  0.0270 -0.9419  0.2550
 1644SOL    HW216392   2.457   2.109   3.873  0.7665 -0.1556 -1.2588
 1645SOL     OW16393   0.162   0.296  12.536  0.1326 -0.2674  0.4830
 1645SOL    HW116394   0.236   0.277  12.594 -0.4876 -1.4923  0.8790
 1645SOL    HW216395   0.162   0.215  12.485  1.1714 -0.1373  0.2666
 1646SOL     OW16396   4.644   4.074   8.494 -0.4476  0.0416  0.3680
 1646SOL    HW116397   4.665   4.074   8.401 -1.2608 -0.1605  0.1871
 1646SOL    HW216398   4.562   4.026   8.492 -0.5425  0.1472  1.4505
 1647SOL     OW16399   4.032   3.172  14.004 -0.2150  0.4567  0.3637
 1647SOL    HW116400   3.949   3.215  13.982 -0.6398 -0.3812  0.3620
 1647SOL    HW216401   4.019   3.077  14.002  0.3079  0.4054 -1.0512
 1648SOL     OW16402   4.366   1.946   5.946  0.2294  0.2842  0.2492
 1648SOL    HW116403   4.413   1.864   5.930  1.1674  0.8394  0.1879
 1648SOL    HW216404   4.372   1.953   6.042 -1.5222  1.8191  0.2576
 1649SOL     OW16405   0.864   1.203  17.366  0.1352 -0.6042  0.2671
 1649SOL    HW116406   0.857   1.174  17.275 -0.0670  1.3021 -0.3219
 1649SOL    HW216407   0.932   1.141  17.392  0.5230  0.9279  2.8242
 1650SOL     OW16408   3.028   3.950  17.180  0.1386 -0.4353 -0.6398
 1650SOL    HW116409   3.032   3.910  17.267 -2.0987 -1.5757 -1.0706
 1650SOL    HW216410   3.013   3.869  17.131  1.0970 -0.5512 -0.7445
 1651SOL     OW16411   1.619   3.171  12.289  0.1132  0.2962  0.1891
 1651SOL    HW116412   1.692   3.229  12.267  1.3818 -1.0935  0.6731
 1651SOL    HW216413   1.560   3.230  12.336 -0.2306 -0.9068  1.2820
 1652SOL     OW16414   2.989   3.456   7.556  0.2506 -0.0870  0.2757
 1652SOL    HW116415   3.072   3.449   7.508  0.0718 -0.7940  0.0747
 1652SOL    HW216416   2.945   3.532   7.518 -1.1932 -1.1568 -0.1567
 1653SOL     OW16417   4.678   3.821   8.162  0.0971  0.3250 -0.5375
 1653SOL    HW116418   4.697   3.910   8.132  0.4049 -0.2488 -2.0133
 1653SOL    HW216419   4.691   3.832   8.257 -0.0315  1.5197 -0.6520
 1654SOL     OW16420   3.058   1.496   3.419 -0.2564  0.3920  0.0686
 1654SOL    HW116421   3.003   1.573   3.426 -0.4846  0.2159  0.2054
 1654SOL    HW216422   2.995   1.427   3.439 -0.0436 -0.5514 -2.5033
 1655SOL     OW16423   3.177   4.645   5.105  0.0293 -0.1428  0.0518
 1655SOL    HW116424   3.138   4.571   5.059 -1.3836 -1.6189  3.5747
 1655SOL    HW216425   3.105   4.707   5.116 -0.7277 -0.6884 -1.8613
 1656SOL     OW16426   3.413   3.587   3.973 -0.2412  0.5387 -0.3932
 1656SOL    HW116427   3.442   3.645   4.042 -1.0054  1.3374 -0.7449
 1656SOL    HW216428   3.325   3.624   3.969  0.1391  1.6791  1.9823
 1657SOL     OW16429   1.621   2.609  13.580 -0.4763 -0.0021 -0.7527
 1657SOL    HW116430   1.619   2.655  13.496  2.0027 -0.4707 -1.0483
 1657SOL    HW216431   1.533   2.630  13.613 -0.2087  2.6761 -1.8066
 1658SOL     OW16432   3.182   4.134   7.156 -0.1268  0.4958 -0.4812
 1658SOL    HW116433   3.112   4.179   7.204  1.4442  1.3784  0.9787
 1658SOL    HW216434   3.255   4.190   7.182  0.7286 -1.3657  1.1198
 1659SOL     OW16435   3.247   0.859   5.670 -0.6281 -0.3997  0.5142
 1659SOL    HW116436   3.214   0.839   5.583 -1.3827 -0.5307  0.8342
 1659SOL    HW216437   3.197   0.936   5.695  0.9967  0.6261  0.6329
 1660SOL     OW16438   1.782   3.425  13.108  0.3464  0.3107 -0.2033
 1660SOL    HW116439   1.689   3.407  13.102  0.4535 -0.0792 -0.6404
 1660SOL    HW216440   1.792   3.478  13.029  1.3279 -0.3355 -0.5155
 1661SOL     OW16441   0.031   2.060   5.515  0.0880  0.5914  0.2048
 1661SOL    HW116442   4.703   2.023   5.588 -1.3662  0.4769 -0.8632
 1661SOL    HW216443   0.003   2.001   5.445 -0.5895 -0.4660  1.3620
 1662SOL     OW16444   3.770   0.147   6.771 -0.5607 -0.3323 -0.8440
 1662SOL    HW116445   3.788   0.220   6.711  3.0622 -1.0767 -0.6765
 1662SOL    HW216446   3.799   0.183   6.855  0.8471 -0.3012 -1.3468
 1663SOL     OW16447   4.421   1.150   3.368 -0.2363  0.1041 -0.5005
 1663SOL    HW116448   4.417   1.086   3.296  1.9155  0.1168 -0.6540
 1663SOL    HW216449   4.478   1.214   3.325  0.2045 -0.8619 -1.3589
 1664SOL     OW16450   4.561   2.083   2.274 -0.2151  0.3608  0.7375
 1664SOL    HW116451   4.472   2.116   2.288 -0.3399  0.2152  0.2663
 1664SOL    HW216452   4.618   2.131   2.335 -0.3126  0.1036  1.0334
 1665SOL     OW16453   1.766   1.682  13.354  0.0896 -0.1409  0.2665
 1665SOL    HW116454   1.721   1.756  13.395 -0.8638  0.2925 -1.5868
 1665SOL    HW216455   1.832   1.670  13.422 -0.8235 -3.3089  0.5903
 1666SOL     OW16456   1.897   2.270   3.631  0.7549  0.6540  0.4023
 1666SOL    HW116457   1.814   2.245   3.671  1.1860  0.4362  1.1771
 1666SOL    HW216458   1.953   2.201   3.667  1.9563  0.2788 -2.1460
 1667SOL     OW16459   0.250   0.883   5.266  1.2445  0.3589  0.5710
 1667SOL    HW116460   0.238   0.876   5.171  1.6100  0.6462  0.5026
 1667SOL    HW216461   0.156   0.876   5.282  1.3384  0.8155  1.3175
 1668SOL     OW16462   1.890   0.528   2.029  0.0010  0.0692 -0.1245
 1668SOL    HW116463   1.899   0.517   2.124  2.2166  0.5910 -0.2880
 1668SOL    HW216464   1.814   0.472   2.011  0.4887 -1.3302  2.1401
 1669SOL     OW16465   1.555   1.201   5.772 -0.0589 -0.0480 -0.3210
 1669SOL    HW116466   1.517   1.125   5.816 -1.5682  1.3898  0.8265
 1669SOL    HW216467   1.631   1.166   5.724  1.4732  2.8985 -0.0500
 1670SOL     OW16468   1.358   4.156   7.712  0.1230 -0.6964  0.1054
 1670SOL    HW116469   1.403   4.086   7.664 -0.7079 -0.7772 -0.5607
 1670SOL    HW216470   1.275   4.166   7.665 -0.8322 -1.6531  1.5914
 1671SOL     OW16471   0.186   1.588   3.370 -0.2585  0.2037 -0.7068
 1671SOL    HW116472   0.121   1.558   3.307  1.2754 -2.7542 -0.8688
 1671SOL    HW216473   0.260   1.570   3.311  0.0424  1.7762 -0.8174
 1672SOL     OW16474   2.420   3.974   9.778 -0.0875  0.4114 -0.5841
 1672SOL    HW116475   2.334   4.010   9.796 -0.1884 -0.7085  1.2336
 1672SOL    HW216476   2.431   4.000   9.687  0.9068  0.7918 -0.3618
 1673SOL     OW16477   3.670   4.274   5.005  0.2678 -0.1828  0.0315
 1673SOL    HW116478   3.664   4.299   5.097  1.2882 -1.3643  0.4166
 1673SOL    HW216479   3.760   4.293   4.982 -0.1301 -0.7915 -2.0779
 1674SOL     OW16480   3.252   3.664  15.649  0.0361  0.3931  0.2063
 1674SOL    HW116481   3.294   3.730  15.704 -0.5774  1.1838 -0.2524
 1674SOL    HW216482   3.177   3.716  15.619 -2.1116 -2.6214  0.3743
 1675SOL     OW16483   2.577   1.764  15.843 -0.2402 -0.5818 -0.0021
 1675SOL    HW116484   2.558   1.760  15.749  0.1826  0.0700 -0.1160
 1675SOL    HW216485   2.657   1.712  15.845  0.7888  0.9763 -0.3741
 1676SOL     OW16486   2.207   3.529   3.953  0.0479 -0.7202  0.0064
 1676SOL    HW116487   2.239   3.519   3.863 -0.4182 -1.1083 -0.1175
 1676SOL    HW216488   2.129   3.578   3.926 -0.5850 -2.1260 -0.7200
 1677SOL     OW16489   0.426   0.428   4.866 -0.3092  0.2904  0.0656
 1677SOL    HW116490   0.413   0.334   4.853  1.0767  0.3182 -1.5557
 1677SOL    HW216491   0.407   0.457   4.777 -1.7664  1.2256  0.6846
 1678SOL     OW16492   0.142   4.594   6.931  0.3901 -0.0228  0.0719
 1678SOL    HW116493   0.171   4.600   7.022  0.0271  2.0125  0.0515
 1678SOL    HW216494   0.120   4.682   6.903  1.7058  0.5647  0.9216
 1679SOL     OW16495   0.633   4.596   2.799 -0.0204  0.1998  0.9175
 1679SOL    HW116496   0.625   4.595   2.703 -0.4358 -0.2345  0.9579
 1679SOL    HW216497   0.590   4.513   2.817 -0.1932 -0.0590 -0.6345
 1680SOL     OW16498   0.426   4.687   7.539  0.0223  0.2412 -0.0920
 1680SOL    HW116499   0.342   4.643   7.548 -0.4305  0.7612 -1.8157
 1680SOL    HW216500   0.413   0.024   7.613 -1.1917  0.6748 -0.6674
 1681SOL     OW16501   0.527   1.440   3.978 -0.5728 -0.0767  0.0535
 1681SOL    HW116502   0.586   1.453   4.052  2.5455 -1.5963 -2.1160
 1681SOL    HW216503   0.441   1.458   4.014 -1.0758 -1.3354 -0.5008
 1682SOL     OW16504   0.238   4.373  11.113  0.1856  0.1176  0.3252
 1682SOL    HW116505   0.291   4.305  11.071  0.2825 -0.2204  0.9994
 1682SOL    HW216506   0.224   4.434  11.040  1.1253  1.5140  1.3125
 1683SOL     OW16507   2.335   3.524   0.576 -0.1912 -0.1172 -0.0630
 1683SOL    HW116508   2.355   3.616   0.556  0.6296  0.1602  2.0438
 1683SOL    HW216509   2.244   3.520   0.546  0.7075 -1.4070 -2.6167
 1684SOL     OW16510   2.670   4.245  15.979  0.0479  0.6304  0.2832
 1684SOL    HW116511   2.590   4.214  15.938 -0.6323  0.9075  1.3930
 1684SOL    HW216512   2.629   4.314  16.031  1.3741  1.7335 -0.1436
 1685SOL     OW16513   3.282   2.787   7.524  0.3178  0.7692 -0.1631
 1685SOL    HW116514   3.233   2.714   7.485 -0.8576  1.3474  0.2186
 1685SOL    HW216515   3.253   2.863   7.474  1.9988 -0.3406 -2.8088
 1686SOL     OW16516   2.705   0.261   3.823 -0.2930  0.4281  0.1054
 1686SOL    HW116517   2.632   0.223   3.871  0.5570  2.0722  2.6925
 1686SOL    HW216518   2.694   0.354   3.840  0.4273  0.4770  0.3109
 1687SOL     OW16519   4.360   3.322   7.268  0.2797 -0.2683 -0.4483
 1687SOL    HW116520   4.363   3.341   7.174  1.1852  1.4585 -0.0822
 1687SOL    HW216521   4.454   3.306   7.277  0.2346  0.0044  0.4927
 1688SOL     OW16522   2.568   2.331   6.669 -0.1204  0.4676 -0.3234
 1688SOL    HW116523   2.592   2.259   6.610 -0.0338 -0.9324  1.4020
 1688SOL    HW216524   2.631   2.320   6.740  1.0082  1.9386 -1.1060
 1689SOL     OW16525   1.773   4.003  11.947 -0.4447 -0.2416  0.4879
 1689SOL    HW116526   1.831   4.007  12.024 -1.6876  1.6389  1.3201
 1689SOL    HW216527   1.833   4.030  11.878 -2.7030 -1.8664 -2.0815
 1690SOL     OW16528   2.656   4.621   1.447  0.3960 -0.4357  0.4265
 1690SOL    HW116529   2.670   4.549   1.508 -1.9686 -1.7098 -0.5133
 1690SOL    HW216530   2.739   4.668   1.456 -1.0979  2.6351 -1.4526
 1691SOL     OW16531   4.059   0.511   4.408  0.0445 -0.4912  0.2559
 1691SOL    HW116532   4.128   0.504   4.341  1.2398  0.7047  1.3464
 1691SOL    HW216533   4.062   0.598   4.449 -2.5594 -0.3215  0.0392
 1692SOL     OW16534   1.207   2.611   9.629  0.6330 -0.0504  0.2017
 1692SOL    HW116535   1.254   2.675   9.575  0.2697 -2.2407 -2.7110
 1692SOL    HW216536   1.216   2.650   9.716 -0.0780 -0.2698  0.3765
 1693SOL     OW16537   1.956   4.494   5.984 -0.0098 -0.0620 -0.1873
 1693SOL    HW116538   1.961   4.555   5.910  0.2848 -1.7067 -1.5242
 1693SOL    HW216539   1.899   4.549   6.037  0.2332 -0.3450  0.3640
 1694SOL     OW16540   4.424   2.261   6.816 -0.5409 -0.1503  0.0532
 1694SOL    HW116541   4.395   2.198   6.882  1.7755 -0.0753  1.1330
 1694SOL    HW216542   4.507   2.227   6.785 -0.8635 -0.1066 -0.8596
 1695SOL     OW16543   0.561   0.675  13.533  0.1035  0.1151  0.1711
 1695SOL    HW116544   0.504   0.620  13.480 -0.5574 -0.5102  1.5197
 1695SOL    HW216545   0.549   0.635  13.619  1.6293 -2.6715 -0.9276
 1696SOL     OW16546   2.709   3.730  14.136 -0.1774 -0.0106  0.4588
 1696SOL    HW116547   2.661   3.761  14.213 -1.0336 -0.0665 -0.0490
 1696SOL    HW216548   2.690   3.637  14.147  2.2168 -0.4567  0.7981
 1697SOL     OW16549   1.354   2.580  11.376  0.0092  0.1808 -0.1290
 1697SOL    HW116550   1.268   2.540  11.389 -0.9397  2.9411  2.0220
 1697SOL    HW216551   1.407   2.543  11.447 -0.0348  1.6764  0.6915
 1698SOL     OW16552   3.003   0.072   7.825 -0.3069 -0.1402 -0.0952
 1698SOL    HW116553   3.005   0.067   7.920  1.3814  0.0041 -0.1299
 1698SOL    HW216554   3.086   0.115   7.805  0.4866 -1.9747 -0.7890
 1699SOL     OW16555   4.089   0.769   8.539  0.5004  0.4254 -0.7783
 1699SOL    HW116556   4.144   0.843   8.514  0.5102  0.7667  0.2710
 1699SOL    HW216557   4.001   0.806   8.545 -0.2089 -1.3492 -0.4817
 1700SOL     OW16558   1.205   1.243   2.756 -0.2854  0.1395  0.4351
 1700SOL    HW116559   1.150   1.262   2.832 -0.3005  1.5388  0.0788
 1700SOL    HW216560   1.139   1.266   2.692  1.4103  0.6724 -1.1281
 1701SOL     OW16561   2.919   2.778   2.023 -0.3946 -0.0629 -1.0325
 1701SOL    HW116562   2.997   2.832   2.032 -1.5379  1.4307 -0.0216
 1701SOL    HW216563   2.855   2.846   2.044  0.5773  1.2512 -2.3718
 1702SOL     OW16564   2.184   1.268  10.156  0.4809  0.8502 -0.7882
 1702SOL    HW116565   2.241   1.191  10.147 -0.8558  0.1076 -2.8096
 1702SOL    HW216566   2.197   1.304  10.068  1.2941  0.1088 -0.9726
 1703SOL     OW16567   1.413   3.919   2.798 -0.3720 -0.3578 -0.1765
 1703SOL    HW116568   1.343   3.966   2.752 -0.4499  0.0756  0.3858
 1703SOL    HW216569   1.441   3.987   2.860  0.6358 -1.1229  0.2054
 1704SOL     OW16570   2.838   2.974   7.558 -0.0629  0.5705  0.6378
 1704SOL    HW116571   2.831   2.888   7.515 -0.8107 -0.1086  2.1087
 1704SOL    HW216572   2.804   3.025   7.484 -0.4603  1.5784  1.5313
 1705SOL     OW16573   0.334   2.154   4.904  0.6652  0.4467 -0.1400
 1705SOL    HW116574   0.295   2.239   4.923  0.0252 -0.0391  0.7160
 1705SOL    HW216575   0.260   2.092   4.898  2.0252 -1.3959  2.3127
 1706SOL     OW16576   2.831   1.217   2.945 -0.1721 -0.0035  0.0950
 1706SOL    HW116577   2.781   1.138   2.924 -0.8284 -0.2670  2.6711
 1706SOL    HW216578   2.900   1.219   2.879  0.1525 -0.2478  0.4334
 1707SOL     OW16579   4.218   3.854  16.015  0.0323 -0.0865  0.1452
 1707SOL    HW116580   4.236   3.877  15.924  1.7407 -1.1064  0.2334
 1707SOL    HW216581   4.194   3.762  16.013 -0.0013 -0.0938  0.7863
 1708SOL     OW16582   0.835   3.076   6.045  0.7804  0.3811  0.7098
 1708SOL    HW116583   0.810   2.985   6.024  3.0645  0.2777 -1.5127
 1708SOL    HW216584   0.817   3.119   5.961  1.1053  0.2044  0.5476
 1709SOL     OW16585   3.912   4.061   8.563 -0.4415  0.4912 -0.1406
 1709SOL    HW116586   3.896   4.155   8.572  0.6468  0.7632 -0.9831
 1709SOL    HW216587   3.989   4.061   8.506 -0.5039  2.5786 -0.2525
 1710SOL     OW16588   4.368   1.076   8.631  0.1654  0.4663  0.1019
 1710SOL    HW116589   4.452   1.050   8.668  0.2037  0.5381  0.0649
 1710SOL    HW216590   4.347   1.164   8.664  0.4062  0.1248  1.1730
 1711SOL     OW16591   0.903   0.752   3.954  0.0254  0.6431 -0.4088
 1711SOL    HW116592   0.888   0.660   3.975  2.6679  0.3193  0.0922
 1711SOL    HW216593   0.889   0.787   4.042 -0.6046 -0.6820  0.0184
 1712SOL     OW16594   0.838   2.387   2.535  0.2434  0.1672 -0.2391
 1712SOL    HW116595   0.864   2.355   2.621 -0.4652  1.3747  0.4364
 1712SOL    HW216596   0.770   2.320   2.525 -0.9865  1.2478  0.9125
 1713SOL     OW16597   1.841   3.662   3.544 -0.5361  0.4406 -0.2141
 1713SOL    HW116598   1.757   3.616   3.541  0.1365 -0.8301  0.2826
 1713SOL    HW216599   1.882   3.634   3.462  0.6330  1.0362  0.1737
 1714SOL     OW16600   3.187   1.330   6.342 -0.0223  0.3633  0.2375
 1714SOL    HW116601   3.245   1.406   6.339 -4.0582  3.4757  1.4143
 1714SOL    HW216602   3.168   1.321   6.248 -0.5250  0.1708  0.3599
 1715SOL     OW16603   2.318   1.785   8.457 -0.1841 -0.3586 -0.1641
 1715SOL    HW116604   2.395   1.731   8.442  0.9960  0.6187  2.3116
 1715SOL    HW216605   2.358   1.870   8.442 -0.6063 -0.1255  0.0347
 1716SOL     OW16606   1.445   3.123   6.387  0.1230  0.5462 -0.1073
 1716SOL    HW116607   1.500   3.144   6.311  0.2070 -0.3477 -0.2865
 1716SOL    HW216608   1.516   3.106   6.449 -1.6118 -1.3297  1.3596
 1717SOL     OW16609   0.422   1.610   2.092 -0.0544 -0.3416 -0.0065
 1717SOL    HW116610   0.384   1.662   2.021 -0.6946  0.5427  0.9735
 1717SOL    HW216611   0.480   1.552   2.042 -0.4275  0.0936 -0.9350
 1718SOL     OW16612   0.133   4.681  15.108 -0.5307  0.1785  1.0972
 1718SOL    HW116613   0.192   0.035  15.104 -1.5319  0.8556 -0.5080
 1718SOL    HW216614   0.165   4.652  15.194 -1.4137  0.9932  1.6971
 1719SOL     OW16615   3.775   4.650  10.210 -0.4029 -0.2644  0.4290
 1719SOL    HW116616   3.756   4.695  10.293  0.6918  3.8877 -1.5497
 1719SOL    HW216617   3.751   4.561  10.235  0.4474 -0.3714  0.8395
 1720SOL     OW16618   4.000   0.968   8.071  0.6943  0.3221  0.5124
 1720SOL    HW116619   4.055   0.890   8.073 -1.0470 -0.9511 -1.7434
 1720SOL    HW216620   3.925   0.950   8.128  0.0374  2.6474  0.3780
 1721SOL     OW16621   0.437   1.152   4.853 -0.4494  0.1580  0.3819
 1721SOL    HW116622   0.462   1.061   4.867 -1.2356 -0.6860 -3.8041
 1721SOL    HW216623   0.421   1.155   4.759 -2.3485  0.6491  0.7295
 1722SOL     OW16624   3.017   1.852   5.064 -0.1913  0.0501 -0.3536
 1722SOL    HW116625   2.932   1.846   5.020  0.3037 -1.4656 -1.0966
 1722SOL    HW216626   3.061   1.778   5.023 -0.1266 -0.1501  0.0757
 1723SOL     OW16627   0.258   2.575   4.716  0.3467  0.2960 -0.1376
 1723SOL    HW116628   0.238   2.668   4.728 -0.4867 -0.1186  1.6765
 1723SOL    HW216629   0.353   2.571   4.716  0.2537 -1.9925 -1.3324
 1724SOL     OW16630   2.522   1.206   1.326  0.7847  0.0129 -0.4452
 1724SOL    HW116631   2.450   1.143   1.330  0.8112  0.0409  0.5419
 1724SOL    HW216632   2.475   1.274   1.279  0.0397 -1.1827 -1.4354
 1725SOL     OW16633   2.640   3.515  16.729  0.0854  0.4829 -0.5273
 1725SOL    HW116634   2.721   3.465  16.738 -0.9558 -1.0663  0.2720
 1725SOL    HW216635   2.659   3.592  16.782 -1.6459  0.6538 -0.1487
 1726SOL     OW16636   1.462   0.569   8.614 -0.2201 -0.0791  0.1179
 1726SOL    HW116637   1.389   0.626   8.640  1.6422  1.6837  1.5104
 1726SOL    HW216638   1.419   0.516   8.548 -3.5936  1.6745  0.8806
 1727SOL     OW16639   1.083   2.257   7.854  0.2414  0.4851 -0.7397
 1727SOL    HW116640   0.998   2.237   7.817  0.9898 -1.6311 -1.3275
 1727SOL    HW216641   1.073   2.344   7.892 -1.7956 -0.8660  1.8420
 1728SOL     OW16642   2.304   2.356   7.797 -0.2449  0.0248 -0.4576
 1728SOL    HW116643   2.271   2.272   7.828 -1.2383  0.3128 -0.7574
 1728SOL    HW216644   2.300   2.329   7.706 -1.4172 -0.4813 -0.2501
 1729SOL     OW16645   0.988   1.142   9.197 -0.5670 -0.1458  0.2561
 1729SOL    HW116646   1.031   1.061   9.168 -0.1274  1.2517 -2.9654
 1729SOL    HW216647   1.020   1.195   9.124 -0.7896 -0.7827 -0.3108
 1730SOL     OW16648   1.370   2.148   4.927  0.2313 -0.4747  0.4285
 1730SOL    HW116649   1.390   2.201   4.849 -1.0015 -0.3963  0.1525
 1730SOL    HW216650   1.276   2.165   4.932  0.4342  0.7664 -0.0436
 1731SOL     OW16651   1.686   2.956   8.422  0.2273 -0.0717 -0.1171
 1731SOL    HW116652   1.600   2.926   8.454  0.4883 -0.4574  0.2189
 1731SOL    HW216653   1.671   2.943   8.328 -0.0633 -0.2651 -0.0433
 1732SOL     OW16654   1.540   3.088   2.030  0.5231  0.6271  0.0814
 1732SOL    HW116655   1.476   3.143   1.986  0.8874 -0.0541 -1.2723
 1732SOL    HW216656   1.619   3.112   1.982  2.7359 -1.1040  2.8326
 1733SOL     OW16657   4.112   2.241   2.167  0.0900  0.1066 -0.1015
 1733SOL    HW116658   4.061   2.303   2.115  2.5690  0.8272 -1.6863
 1733SOL    HW216659   4.132   2.179   2.096 -0.3138  1.1312 -1.1119
 1734SOL     OW16660   1.584   1.554   5.563 -0.0818  0.4834 -0.0774
 1734SOL    HW116661   1.609   1.583   5.476 -0.0555  3.0203  0.7923
 1734SOL    HW216662   1.669   1.548   5.607  0.9853  1.9195 -1.9460
 1735SOL     OW16663   0.224   4.129   1.889  0.5606  0.1193  0.3710
 1735SOL    HW116664   0.190   4.059   1.834  1.1079 -0.5180  0.8363
 1735SOL    HW216665   0.242   4.202   1.829 -0.1608 -0.8258 -0.9883
 1736SOL     OW16666   3.730   2.277   6.929  0.3804  0.1698  0.1044
 1736SOL    HW116667   3.701   2.255   6.840 -1.2158 -0.6349  0.8294
 1736SOL    HW216668   3.794   2.347   6.913  2.3660 -1.6011  0.3878
 1737SOL     OW16669   1.267   4.147  10.878 -0.4068  0.5121 -0.5143
 1737SOL    HW116670   1.206   4.193  10.819 -0.8837 -0.9144 -1.1397
 1737SOL    HW216671   1.350   4.165  10.834 -0.3622  1.7993  0.0960
 1738SOL     OW16672   3.685   2.834   0.352 -0.0454  0.4100 -0.0057
 1738SOL    HW116673   3.648   2.749   0.326  0.8242  0.1603 -0.4238
 1738SOL    HW216674   3.623   2.862   0.420 -0.4279 -0.4611  0.0044
 1739SOL     OW16675   3.868   4.274   1.099  0.0977  0.1451 -0.4607
 1739SOL    HW116676   3.884   4.361   1.133 -2.2257  0.1436  0.6513
 1739SOL    HW216677   3.875   4.219   1.177 -0.3153 -0.5552 -0.9073
 1740SOL     OW16678   3.952   0.234   8.153  0.2177 -0.2522 -0.2548
 1740SOL    HW116679   3.879   0.188   8.111  1.0285 -2.7083  1.0102
 1740SOL    HW216680   3.957   0.196   8.240  2.1375 -0.2663 -0.3618
 1741SOL     OW16681   4.184   0.895  13.889  0.5044 -0.4731 -0.1899
 1741SOL    HW116682   4.108   0.867  13.941 -0.5862  1.5894 -0.6555
 1741SOL    HW216683   4.257   0.854  13.935  1.5131  0.0981 -1.3043
 1742SOL     OW16684   1.582   4.062   2.092 -0.3403  0.3683 -0.0844
 1742SOL    HW116685   1.610   4.103   2.010 -1.6345  0.0732 -0.6752
 1742SOL    HW216686   1.594   4.132   2.157  0.0475  0.5877 -0.3955
 1743SOL     OW16687   1.209   3.177   6.511  0.3736 -0.2660  0.0326
 1743SOL    HW116688   1.276   3.175   6.443  0.2281 -0.6690 -0.0982
 1743SOL    HW216689   1.133   3.157   6.457  1.6169  0.3746 -1.9643
 1744SOL     OW16690   2.555   1.821   4.599 -0.1131 -0.0670 -0.2416
 1744SOL    HW116691   2.516   1.735   4.582 -0.2209 -0.2423  0.8960
 1744SOL    HW216692   2.497   1.881   4.553 -0.8396 -1.5645 -1.2881
 1745SOL     OW16693   1.811   4.332   8.676 -0.1392  0.4188  0.0976
 1745SOL    HW116694   1.864   4.331   8.596 -1.4290  0.2939 -0.7522
 1745SOL    HW216695   1.801   4.421   8.709  0.9514 -0.4025  2.7058
 1746SOL     OW16696   0.573   1.839   5.090  0.2246  0.2109 -0.0063
 1746SOL    HW116697   0.654   1.798   5.121  1.1497  2.0681  0.0380
 1746SOL    HW216698   0.536   1.874   5.171 -0.7587 -1.0835  0.1045
 1747SOL     OW16699   4.147   0.190   2.871 -0.3963  0.1013 -0.3223
 1747SOL    HW116700   4.226   0.146   2.839  0.3840  1.4575 -0.2469
 1747SOL    HW216701   4.168   0.194   2.964 -0.2187 -0.6457 -0.3261
 1748SOL     OW16702   4.522   3.987   4.040 -0.1571 -0.4802  0.0258
 1748SOL    HW116703   4.574   3.955   4.113 -0.5983 -1.6795 -0.1860
 1748SOL    HW216704   4.487   4.071   4.070  2.6746  0.4770  0.6513
 1749SOL     OW16705   3.918   0.980  16.887  0.3391  0.1104 -0.2160
 1749SOL    HW116706   3.862   0.937  16.952 -0.4400  0.9976 -0.3092
 1749SOL    HW216707   3.988   0.914  16.881 -1.5497 -1.7258 -2.3895
 1750SOL     OW16708   1.275   4.150  11.691 -0.0922 -0.2269 -0.5661
 1750SOL    HW116709   1.262   4.056  11.675  3.2882 -0.8094 -0.0551
 1750SOL    HW216710   1.185   4.181  11.683  0.0516  0.3423 -0.0349
 1751SOL     OW16711   2.495   0.130   3.946 -0.6033  0.4680 -0.0420
 1751SOL    HW116712   2.484   0.035   3.937  0.3941  0.4338 -0.9533
 1751SOL    HW216713   2.410   0.163   3.916 -0.8427 -0.3918 -0.3289
 1752SOL     OW16714   0.022   3.705  11.462  0.1198 -0.2901  0.0268
 1752SOL    HW116715   4.664   3.697  11.409 -0.1554 -0.1492  0.4218
 1752SOL    HW216716   0.067   3.772  11.411 -0.4795 -1.8986 -2.6116
 1753SOL     OW16717   1.949   1.738   7.493 -0.0532  0.0293 -0.0124
 1753SOL    HW116718   2.001   1.677   7.442 -0.5973  0.0637 -0.6087
 1753SOL    HW216719   2.009   1.761   7.565  1.0554  1.5726 -1.4243
 1754SOL     OW16720   3.385   1.392   0.675  0.1919 -0.1282  0.1347
 1754SOL    HW116721   3.367   1.470   0.623  0.9248  0.4915  0.8238
 1754SOL    HW216722   3.451   1.417   0.739 -0.0799 -2.5964  1.3923
 1755SOL     OW16723   1.247   1.043   5.847 -0.2429 -0.4045  0.1487
 1755SOL    HW116724   1.229   1.033   5.940 -0.5918 -1.2025 -0.0017
 1755SOL    HW216725   1.336   1.009   5.844 -0.3496 -0.5610 -1.4536
 1756SOL     OW16726   0.145   1.876   1.027  0.4441  0.5918 -0.3994
 1756SOL    HW116727   0.150   1.783   1.052 -4.1961  0.0681 -1.4096
 1756SOL    HW216728   0.130   1.909   1.116  1.6759  1.3323 -0.4541
 1757SOL     OW16729   0.604   2.485   1.252 -0.6811  0.1982  0.0413
 1757SOL    HW116730   0.571   2.518   1.336 -1.1946  1.3927 -0.6235
 1757SOL    HW216731   0.552   2.537   1.190  0.0408  1.5196  0.5416
 1758SOL     OW16732   1.087   4.535  12.180 -0.2629 -0.5154  0.4454
 1758SOL    HW116733   1.149   4.567  12.246  0.9221 -1.8975 -0.0019
 1758SOL    HW216734   1.114   4.443  12.170 -2.2265 -0.8568 -1.4174
 1759SOL     OW16735   0.059   0.754   1.361 -0.0396  0.2758 -0.2739
 1759SOL    HW116736   4.721   0.754   1.435  1.0444 -1.8987  0.6201
 1759SOL    HW216737   0.036   0.831   1.310 -1.5110 -0.6038 -0.9216
 1760SOL     OW16738   2.964   0.125  15.753  0.1515 -0.2548 -0.0449
 1760SOL    HW116739   3.022   0.199  15.775  1.8110 -2.7120  3.8599
 1760SOL    HW216740   2.911   0.104  15.830 -2.0041  0.5564 -1.3027
 1761SOL     OW16741   1.005   0.804   7.938 -0.0137  0.5786  0.2173
 1761SOL    HW116742   0.930   0.812   7.997  0.1765  1.0362  0.4002
 1761SOL    HW216743   1.016   0.899   7.938  1.9376  0.3618  3.7682
 1762SOL     OW16744   2.309   0.874   2.830  0.5513  0.0770 -0.1106
 1762SOL    HW116745   2.322   0.780   2.847 -1.5979 -0.2569 -0.2877
 1762SOL    HW216746   2.268   0.860   2.745  4.3952 -2.1178 -1.6030
 1763SOL     OW16747   0.382   1.396   8.818  0.3259 -0.1449 -0.1564
 1763SOL    HW116748   0.376   1.335   8.745  2.0752 -0.5802  0.0670
 1763SOL    HW216749   0.316   1.363   8.879 -0.3856  2.9532  0.7470
 1764SOL     OW16750   0.782   0.099  11.151  0.0709 -0.2423 -0.5340
 1764SOL    HW116751   0.722   0.167  11.182  0.8878 -0.5611  1.7075
 1764SOL    HW216752   0.780   0.036  11.222 -2.2501 -1.6736 -1.8522
 1765SOL     OW16753   2.932   3.656   3.675 -0.0621 -0.8720  0.1126
 1765SOL    HW116754   2.875   3.616   3.609  2.3411 -0.8326 -1.9664
 1765SOL    HW216755   2.865   3.693   3.732  0.3111  0.3558 -0.2570
 1766SOL     OW16756   1.740   2.955   6.193 -0.4303 -0.1739  0.2682
 1766SOL    HW116757   1.788   2.879   6.225  0.0806  0.2025  0.3935
 1766SOL    HW216758   1.730   2.930   6.101 -2.0880 -0.3279  0.4739
 1767SOL     OW16759   3.654   0.634   6.976  0.2586 -0.4207 -0.0417
 1767SOL    HW116760   3.647   0.627   7.071 -0.2180 -1.5159 -0.1622
 1767SOL    HW216761   3.703   0.558   6.944  1.2364  0.5467 -0.8412
 1768SOL     OW16762   3.869   2.673   9.721  0.7914  0.3307 -0.1670
 1768SOL    HW116763   3.905   2.760   9.736  3.8724 -0.8666 -0.6425
 1768SOL    HW216764   3.792   2.693   9.667  0.0900  0.3490  0.8443
 1769SOL     OW16765   1.759   0.730   4.532 -0.4105 -0.1000 -0.3575
 1769SOL    HW116766   1.797   0.647   4.504  0.0996 -0.4192  1.2876
 1769SOL    HW216767   1.781   0.795   4.465  3.2119  0.6261  1.5502
 1770SOL     OW16768   2.281   1.806   6.604 -0.2123  0.3017  0.0057
 1770SOL    HW116769   2.352   1.792   6.542  1.2309  2.6997  1.1380
 1770SOL    HW216770   2.240   1.720   6.594  0.9411  0.0896 -2.8320
 1771SOL     OW16771   3.115   3.208   7.301  0.4301 -0.0778  0.1974
 1771SOL    HW116772   3.161   3.269   7.359  0.2125  0.1916  0.0827
 1771SOL    HW216773   3.056   3.274   7.265  0.0927 -1.4623 -1.7905
 1772SOL     OW16774   0.570   4.451  10.390  0.0546 -0.9106  0.8000
 1772SOL    HW116775   0.662   4.468  10.368  0.1696 -0.7285  1.4257
 1772SOL    HW216776   0.544   4.542  10.404 -0.9486 -0.9450 -0.9368
 1773SOL     OW16777   4.166   0.721  12.114  0.3016  0.8080  0.2924
 1773SOL    HW116778   4.130   0.797  12.069 -2.8548  0.1949  1.7368
 1773SOL    HW216779   4.260   0.732  12.106  0.3308  1.0274  0.9544
 1774SOL     OW16780   3.550   1.988   7.619  0.4175 -0.1306 -0.1765
 1774SOL    HW116781   3.514   2.072   7.651 -1.0904 -0.7259 -0.2804
 1774SOL    HW216782   3.596   2.008   7.538 -0.5403  1.8755 -0.2295
 1775SOL     OW16783   1.185   3.070  12.822  0.3243 -0.1452 -0.0281
 1775SOL    HW116784   1.106   3.062  12.875  1.3287 -2.5953  1.1540
 1775SOL    HW216785   1.178   2.997  12.760 -1.0264 -0.2415  0.2432
 1776SOL     OW16786   4.574   1.537  16.152  0.1958 -0.3340  0.0867
 1776SOL    HW116787   4.515   1.602  16.114 -0.8574 -0.1358  2.0225
 1776SOL    HW216788   4.648   1.592  16.180  1.1333 -0.7336 -1.6167
 1777SOL     OW16789   0.715   3.685  16.504  0.0270  0.3130  0.3665
 1777SOL    HW116790   0.761   3.622  16.448 -0.7162 -0.9526  1.1786
 1777SOL    HW216791   0.761   3.763  16.473 -0.3911  0.4137  0.0036
 1778SOL     OW16792   0.312   3.005   8.541 -0.0695 -0.5895  0.3603
 1778SOL    HW116793   0.326   3.088   8.496 -0.4369 -0.9478 -0.4103
 1778SOL    HW216794   0.257   3.030   8.615 -0.3928 -0.8024  0.1941
 1779SOL     OW16795   0.933   0.739  11.551  0.1243 -0.1145 -0.3575
 1779SOL    HW116796   0.988   0.685  11.607 -1.0756 -1.0126 -0.0445
 1779SOL    HW216797   0.997   0.768  11.486  0.8026 -0.5330  0.1240
 1780SOL     OW16798   2.147   1.053   2.997 -0.4787 -0.1765 -0.4953
 1780SOL    HW116799   2.174   1.136   2.958  1.7546 -0.6710 -0.0025
 1780SOL    HW216800   2.198   0.988   2.948 -1.4372 -0.7429 -0.7538
 1781SOL     OW16801   4.452   4.230  17.192 -0.2243  0.5401 -0.5777
 1781SOL    HW116802   4.390   4.285  17.143 -2.1515 -4.4284 -3.7146
 1781SOL    HW216803   4.498   4.293  17.247  0.4562  1.6310 -2.4043
 1782SOL     OW16804   3.693   0.888   1.024  0.5738 -0.1170  1.0856
 1782SOL    HW116805   3.693   0.955   0.955  1.3514 -1.2364 -0.0088
 1782SOL    HW216806   3.624   0.830   0.992 -0.8347  1.3015  1.5793
 1783SOL     OW16807   2.972   2.785  17.525 -0.1894  0.9016 -0.6076
 1783SOL    HW116808   2.925   2.750  17.449  0.3255  0.1050 -0.5571
 1783SOL    HW216809   3.050   2.730  17.521 -1.6776 -1.3416  0.9412
 1784SOL     OW16810   2.055   3.696   0.781  0.1999  0.1822  0.3747
 1784SOL    HW116811   2.142   3.657   0.788 -0.5764 -0.9921  3.3804
 1784SOL    HW216812   2.065   3.784   0.745  0.3066  0.1106  0.2317
 1785SOL     OW16813   1.286   3.564   9.348 -0.2648 -0.6644  0.4075
 1785SOL    HW116814   1.250   3.575   9.260  0.0886  1.6072  0.5419
 1785SOL    HW216815   1.258   3.643   9.395 -0.1439  0.0872 -0.7999
 1786SOL     OW16816   3.663   2.598   6.752  0.6258  0.6415 -0.3858
 1786SOL    HW116817   3.717   2.675   6.732  0.4910  0.4817 -1.3752
 1786SOL    HW216818   3.580   2.616   6.708  1.1031  1.4957 -0.9583
 1787SOL     OW16819   2.901   4.042   3.783 -0.2696  0.2089  0.4551
 1787SOL    HW116820   2.820   4.084   3.812 -0.0524  0.0521  1.2970
 1787SOL    HW216821   2.911   3.967   3.841  0.9146 -0.2485 -0.3447
 1788SOL     OW16822   2.172   4.303  15.433  0.2345 -0.0602 -0.4359
 1788SOL    HW116823   2.079   4.305  15.413  0.2049  1.1335 -0.1508
 1788SOL    HW216824   2.199   4.387  15.397  0.2670  0.0619 -0.1232
 1789SOL     OW16825   3.091   3.944   2.787 -0.4223  0.3415  0.5683
 1789SOL    HW116826   3.161   3.887   2.820  1.6273  1.6597 -1.5292
 1789SOL    HW216827   3.144   4.006   2.737  0.6985 -0.3233  0.9084
 1790SOL     OW16828   3.997   2.647   1.581  0.0085 -0.2606  0.6985
 1790SOL    HW116829   4.006   2.552   1.588  1.0651 -0.2666 -0.7812
 1790SOL    HW216830   3.932   2.661   1.512 -0.8272  2.4281  2.0412
 1791SOL     OW16831   1.590   4.551   1.434  0.4085 -0.0412 -0.2369
 1791SOL    HW116832   1.655   4.564   1.365 -1.3625  0.0750 -1.8782
 1791SOL    HW216833   1.507   4.550   1.385 -0.5167 -1.4100  1.3443
 1792SOL     OW16834   0.550   3.084   6.641 -0.8487  0.0650 -0.0573
 1792SOL    HW116835   0.492   3.021   6.598 -1.5994  0.8107 -0.1330
 1792SOL    HW216836   0.489   3.152   6.668 -0.6322  0.6665 -1.0864
 1793SOL     OW16837   0.686   3.181   3.899 -0.3918  0.6814 -0.1344
 1793SOL    HW116838   0.719   3.210   3.984 -0.1618 -5.4967  1.8380
 1793SOL    HW216839   0.622   3.250   3.879 -1.1114 -0.1380 -0.6384
 1794SOL     OW16840   3.241   2.349   4.012 -0.2216  0.0751 -0.9313
 1794SOL    HW116841   3.328   2.332   3.975  0.6469 -1.4859  1.7974
 1794SOL    HW216842   3.207   2.402   3.941  0.5574  2.0913  0.2191
 1795SOL     OW16843   2.755   3.041  16.774 -0.6806 -0.4711 -1.2189
 1795SOL    HW116844   2.809   3.002  16.843 -0.2232 -0.6373 -1.6728
 1795SOL    HW216845   2.673   3.061  16.819  0.2747 -2.1044  1.2696
 1796SOL     OW16846   1.447   0.881   7.411 -0.1723 -0.0085 -0.6582
 1796SOL    HW116847   1.377   0.839   7.460 -0.4046  0.9285 -0.1783
 1796SOL    HW216848   1.454   0.961   7.464 -1.2283  0.2458 -0.9068
 1797SOL     OW16849   1.287   0.225  11.247 -0.1110  0.8429 -0.1138
 1797SOL    HW116850   1.243   0.310  11.253  3.3432  2.4800  1.9172
 1797SOL    HW216851   1.277   0.212  11.152  1.4182 -1.6173  0.0522
 1798SOL     OW16852   0.114   4.157   0.943  0.1413  0.1219 -0.7799
 1798SOL    HW116853   0.161   4.113   1.014 -1.4104 -0.1631  0.0767
 1798SOL    HW216854   0.181   4.222   0.922  0.7919  0.1408  1.3565
 1799SOL     OW16855   0.482   1.013   9.599 -0.0628 -0.1171  0.2969
 1799SOL    HW116856   0.464   0.929   9.557 -0.2717 -0.5177  1.1916
 1799SOL    HW216857   0.500   0.990   9.690  1.6616  0.9420  0.2281
 1800SOL     OW16858   2.562   4.022   7.273 -0.8718 -0.2391 -0.0621
 1800SOL    HW116859   2.606   3.987   7.195  0.3448  0.7517  0.1764
 1800SOL    HW216860   2.481   3.970   7.272 -0.3834 -0.9865 -0.7908
 1801SOL     OW16861   0.112   4.706   0.340  0.0654  1.0586  0.2930
 1801SOL    HW116862   0.029   4.663   0.363  0.9355 -0.1566  1.1528
 1801SOL    HW216863   0.168   4.677   0.412  1.5194  1.5659 -0.6372
 1802SOL     OW16864   1.565   0.115   4.442 -0.2406  0.1028  0.5055
 1802SOL    HW116865   1.624   0.047   4.473 -1.5572 -0.5602  1.5505
 1802SOL    HW216866   1.547   0.153   4.528 -0.6968  2.5773 -0.6796
 1803SOL     OW16867   0.707   0.789  10.606 -0.0011  0.0119 -0.0835
 1803SOL    HW116868   0.737   0.763  10.693 -1.3266  0.3197  0.4604
 1803SOL    HW216869   0.750   0.719  10.556  0.1389 -0.7062  1.0425
 1804SOL     OW16870   1.899   0.986   8.930 -0.4461  0.3567  0.0552
 1804SOL    HW116871   1.830   1.049   8.911  0.8101  2.2216  1.7866
 1804SOL    HW216872   1.971   1.035   8.970 -0.1259  1.0080 -1.3144
 1805SOL     OW16873   0.868   1.124   1.403 -0.3138  0.1450  0.4044
 1805SOL    HW116874   0.816   1.199   1.433 -0.6207  0.8862 -1.9572
 1805SOL    HW216875   0.948   1.174   1.385  0.3858 -0.3070  2.3329
 1806SOL     OW16876   1.414   2.091   6.883 -0.0097  0.5466 -0.2212
 1806SOL    HW116877   1.419   2.056   6.794 -0.6038  1.2146 -0.5115
 1806SOL    HW216878   1.442   2.181   6.870 -0.6938  0.7263 -0.4098
 1807SOL     OW16879   2.065   3.046  10.049 -0.1747 -0.0429  0.2176
 1807SOL    HW116880   1.986   3.042   9.994 -0.0525 -2.2211  0.2022
 1807SOL    HW216881   2.062   2.963  10.097  0.0507  0.8226  1.7037
 1808SOL     OW16882   1.332   3.300  15.160 -0.2951 -0.1720 -0.4058
 1808SOL    HW116883   1.410   3.265  15.117 -0.0084 -1.2488  1.0154
 1808SOL    HW216884   1.271   3.230  15.138 -0.6248  0.1194 -0.4318
 1809SOL     OW16885   0.788   4.681   3.730 -0.5536 -0.0611  0.2419
 1809SOL    HW116886   0.852   4.611   3.744 -0.4512 -0.0013  0.0688
 1809SOL    HW216887   0.781   4.716   3.819  1.2709  2.2901 -0.5600
 1810SOL     OW16888   1.343   0.582   2.486 -0.7211  0.2562  0.5465
 1810SOL    HW116889   1.291   0.603   2.563 -0.6282 -0.5465  0.8330
 1810SOL    HW216890   1.430   0.612   2.514 -0.7562 -2.0615  3.1060
 1811SOL     OW16891   0.322   2.371  11.300 -0.1293  0.6065  0.5844
 1811SOL    HW116892   0.340   2.448  11.245 -1.9743 -1.4909 -2.9653
 1811SOL    HW216893   0.397   2.371  11.360  0.4178 -1.2235 -0.0985
 1812SOL     OW16894   1.752   1.353   4.705  0.3729 -0.2577  0.0225
 1812SOL    HW116895   1.673   1.311   4.672 -0.5857  0.7311  1.0698
 1812SOL    HW216896   1.776   1.297   4.779  0.3345 -0.7544 -0.3419
 1813SOL     OW16897   2.796   1.679   2.986  0.0702  0.3375 -0.1255
 1813SOL    HW116898   2.824   1.751   2.930  3.4613  0.4449  1.6721
 1813SOL    HW216899   2.712   1.716   3.012  0.5730  0.0623  1.8772
 1814SOL     OW16900   3.294   0.343   1.795  0.9476  0.1771 -0.3429
 1814SOL    HW116901   3.357   0.276   1.766  0.4955 -0.7519  0.8318
 1814SOL    HW216902   3.233   0.296   1.852  0.7650  1.0264  0.1529
 1815SOL     OW16903   2.101   3.905  13.081 -0.0403 -0.3991 -0.6707
 1815SOL    HW116904   2.063   3.965  13.145 -0.2025 -0.2059 -0.9480
 1815SOL    HW216905   2.106   3.827  13.135 -0.3413  1.1511  1.5749
 1816SOL     OW16906   4.439   3.175   5.322  0.1465 -0.1420  0.4832
 1816SOL    HW116907   4.408   3.144   5.407 -0.5884  0.6828  0.5165
 1816SOL    HW216908   4.361   3.213   5.282 -0.6100 -0.5970  1.5372
 1817SOL     OW16909   2.740   0.337   2.789  0.3657  0.3174  0.6355
 1817SOL    HW116910   2.667   0.399   2.784 -0.3317 -0.7205 -2.1897
 1817SOL    HW216911   2.704   0.276   2.725 -1.2696 -0.2791  2.1135
 1818SOL     OW16912   3.619   3.931  12.076  0.5745 -0.6886  0.0254
 1818SOL    HW116913   3.690   3.994  12.067 -0.0959  0.0120 -0.3742
 1818SOL    HW216914   3.595   3.966  12.161 -2.5186 -1.4353 -0.5485
 1819SOL     OW16915   1.352   0.746  12.637  0.5151 -0.2149 -0.0073
 1819SOL    HW116916   1.280   0.808  12.655  0.8768  0.3485 -0.5176
 1819SOL    HW216917   1.396   0.751  12.722  0.7082  1.6578 -0.2085
 1820SOL     OW16918   3.269   1.037   6.281  0.2522 -0.1478 -0.4293
 1820SOL    HW116919   3.304   0.973   6.219 -4.2856 -3.0992  0.0337
 1820SOL    HW216920   3.347   1.084   6.309  0.5244  0.0523 -1.5232
 1821SOL     OW16921   3.925   2.170  10.686 -0.0834  0.3731  0.0552
 1821SOL    HW116922   3.905   2.255  10.725 -2.8828  0.2485 -1.1204
 1821SOL    HW216923   3.838   2.135  10.667  0.3612 -0.3425 -0.6422
 1822SOL     OW16924   2.054   1.740   8.898  0.1448  0.0102  0.1552
 1822SOL    HW116925   2.018   1.827   8.879 -2.2450 -1.1734 -0.7222
 1822SOL    HW216926   2.147   1.764   8.904  0.2174  0.0737 -1.3299
 1823SOL     OW16927   2.575   0.500   4.431  0.8572 -0.1290 -0.3462
 1823SOL    HW116928   2.639   0.475   4.498  2.3073  0.6774 -1.4147
 1823SOL    HW216929   2.499   0.502   4.488  0.1969  1.6859 -1.2639
 1824SOL     OW16930   3.969   4.076   7.535 -0.0683  0.4170 -1.1165
 1824SOL    HW116931   4.018   4.141   7.585  1.2941 -1.3836 -0.1159
 1824SOL    HW216932   3.880   4.112   7.534 -0.5738 -0.8345 -1.7099
 1825SOL     OW16933   0.488   4.200   2.348  0.2556 -0.0892  0.0403
 1825SOL    HW116934   0.457   4.207   2.257 -2.6846 -0.6971  0.9949
 1825SOL    HW216935   0.572   4.161   2.326  1.4485  2.6056 -0.2348
 1826SOL     OW16936   2.232   1.477   1.398  0.1202  0.6239  0.5279
 1826SOL    HW116937   2.276   1.444   1.320 -1.2559  0.7032 -0.2849
 1826SOL    HW216938   2.303   1.492   1.460 -0.5577  0.2675  1.4027
 1827SOL     OW16939   0.769   1.398   5.002 -0.1913 -0.3173  0.6786
 1827SOL    HW116940   0.782   1.492   4.991  1.0173 -0.5317  0.3745
 1827SOL    HW216941   0.804   1.371   4.918  0.5868 -1.1142  1.2627
 1828SOL     OW16942   4.455   0.842  12.397  0.1258  0.1259  0.6742
 1828SOL    HW116943   4.529   0.820  12.339 -2.4119 -2.7274 -1.4831
 1828SOL    HW216944   4.394   0.775  12.368 -0.3187  0.7060  0.2701
 1829SOL     OW16945   4.166   3.125  13.310 -0.0445  0.1181 -0.2875
 1829SOL    HW116946   4.248   3.076  13.316  0.7912  1.4279 -0.9909
 1829SOL    HW216947   4.197   3.192  13.249  0.4638 -1.2426 -1.5258
 1830SOL     OW16948   4.214   2.020  17.221 -0.3680 -0.2682  0.8417
 1830SOL    HW116949   4.263   2.090  17.176  0.4281 -1.0452  0.5008
 1830SOL    HW216950   4.273   2.001  17.294 -0.9853 -3.3538  0.5406
 1831SOL     OW16951   2.875   2.780   0.111  0.0217 -0.2090  0.6286
 1831SOL    HW116952   2.825   2.855   0.141  1.9061  0.0305  3.1459
 1831SOL    HW216953   2.889   2.802   0.019 -1.9803  0.2393  0.4429
 1832SOL     OW16954   2.517   1.516   5.574 -0.4872  0.3584  0.2718
 1832SOL    HW116955   2.549   1.449   5.513 -2.4487 -0.0359 -0.3308
 1832SOL    HW216956   2.601   1.524   5.619  0.2383 -0.1956 -0.9821
 1833SOL     OW16957   0.609   1.989   4.296 -0.2031 -0.4271  0.4529
 1833SOL    HW116958   0.531   1.990   4.352 -0.6419 -0.4024 -0.1484
 1833SOL    HW216959   0.582   1.921   4.234 -0.8145 -0.5737  0.8745
 1834SOL     OW16960   0.337   2.956   6.255  0.0996 -0.1699 -0.3807
 1834SOL    HW116961   0.251   2.915   6.248 -0.0187  0.2423 -1.3830
 1834SOL    HW216962   0.314   3.022   6.320 -0.1719 -0.2135 -0.4323
 1835SOL     OW16963   1.831   1.772   4.022 -0.7574  0.3706  0.0262
 1835SOL    HW116964   1.784   1.765   3.938  1.7094 -2.4320 -1.1375
 1835SOL    HW216965   1.899   1.705   4.020  0.0441  1.0963  2.9714
 1836SOL     OW16966   1.137   0.801   3.474 -0.5451  0.4327  0.0776
 1836SOL    HW116967   1.129   0.765   3.562 -1.1485  1.0353  0.2651
 1836SOL    HW216968   1.075   0.873   3.466 -0.6503  0.4844  1.3908
 1837SOL     OW16969   4.584   1.118  13.128 -0.1976 -0.5081 -0.5016
 1837SOL    HW116970   4.658   1.107  13.188 -0.9902  1.1539  0.7854
 1837SOL    HW216971   4.563   1.025  13.119  1.8957 -1.2137  1.8848
 1838SOL     OW16972   0.086   0.330   9.625 -0.3245  0.2806  0.2184
 1838SOL    HW116973   0.063   0.338   9.533  0.3569  1.4649  0.1446
 1838SOL    HW216974   0.072   0.236   9.637 -0.0462  0.1594 -0.4043
 1839SOL     OW16975   3.939   1.950   8.532  0.1570 -0.2642 -0.3601
 1839SOL    HW116976   3.845   1.962   8.546  0.1186 -1.9393  0.7657
 1839SOL    HW216977   3.957   1.971   8.440 -0.3469  0.0209 -0.3973
 1840SOL     OW16978   0.114   3.636  13.872 -0.0061 -0.4684 -0.3188
 1840SOL    HW116979   0.114   3.547  13.835  0.8314 -1.3708  1.8427
 1840SOL    HW216980   0.088   3.687  13.795 -1.0293 -0.1450  0.2438
 1841SOL     OW16981   3.132   3.784   2.403  0.9227  0.5589 -0.1314
 1841SOL    HW116982   3.107   3.724   2.332  2.4422  0.4079 -0.5546
 1841SOL    HW216983   3.210   3.734   2.429  0.3536  0.3896  1.2585
 1842SOL     OW16984   0.792   1.308   7.625 -0.4011 -0.3534 -0.1430
 1842SOL    HW116985   0.773   1.359   7.546 -0.4407 -3.4490 -2.1287
 1842SOL    HW216986   0.886   1.326   7.629 -0.5001 -0.3023  2.0626
 1843SOL     OW16987   2.569   2.617  16.890  0.4664  0.2224  0.3372
 1843SOL    HW116988   2.577   2.676  16.965 -0.9470 -1.3399  1.7105
 1843SOL    HW216989   2.572   2.527  16.922 -0.4079  0.5468  1.3343
 1844SOL     OW16990   1.422   2.943   6.784  0.3249 -0.1352 -0.1867
 1844SOL    HW116991   1.348   2.910   6.733 -0.1927  0.6856  0.0499
 1844SOL    HW216992   1.469   2.860   6.798  0.3998 -0.4414 -2.2182
 1845SOL     OW16993   3.226   0.074  16.278 -0.2278  0.5774 -0.4031
 1845SOL    HW116994   3.279   0.152  16.294 -0.5528  0.2768  2.1303
 1845SOL    HW216995   3.218   0.069  16.182  1.4727 -0.6208 -0.4950
 1846SOL     OW16996   2.201   4.045   6.569  0.1869  0.1002 -0.2742
 1846SOL    HW116997   2.232   3.984   6.502  0.2421  0.6220 -0.7270
 1846SOL    HW216998   2.285   4.076   6.602  0.9916 -1.8329 -0.4969
 1847SOL     OW16999   0.139   3.435   5.894 -0.2735 -0.2645 -0.3383
 1847SOL    HW117000   0.184   3.448   5.977  3.0876 -0.3749 -2.1477
 1847SOL    HW217001   0.158   3.518   5.850  0.9020  0.0931  0.8426
 1848SOL     OW17002   3.923   1.776   6.009  0.6799  0.0923 -0.2641
 1848SOL    HW117003   3.892   1.737   6.091  1.4291  0.3934  0.1621
 1848SOL    HW217004   3.845   1.766   5.955  0.0667  2.8152  0.1308
 1849SOL     OW17005   0.773   3.498  17.134 -0.0566 -0.3123 -0.7045
 1849SOL    HW117006   0.802   3.448  17.210 -0.7218 -1.1507 -0.9968
 1849SOL    HW217007   0.808   3.584  17.155  1.0371 -1.0519  0.5358
 1850SOL     OW17008   4.457   2.497   8.122  0.5601 -0.0994  0.1109
 1850SOL    HW117009   4.536   2.547   8.098 -0.2046 -0.1541 -2.5705
 1850SOL    HW217010   4.406   2.534   8.050  0.5946 -1.8421 -0.8138
 1851SOL     OW17011   4.452   4.235   4.156 -0.5017  0.3030 -0.4988
 1851SOL    HW117012   4.387   4.293   4.197  0.5766  1.3632 -0.2882
 1851SOL    HW217013   4.533   4.247   4.206 -0.1179  2.2520 -1.5841
 1852SOL     OW17014   2.735   4.094   8.683 -0.1201 -0.0380 -0.1379
 1852SOL    HW117015   2.642   4.088   8.705 -0.3494  1.5635 -0.7223
 1852SOL    HW217016   2.730   4.105   8.588  2.2807 -2.1161 -0.5158
 1853SOL     OW17017   3.791   2.201   2.081  0.1339  0.4513 -0.0782
 1853SOL    HW117018   3.705   2.232   2.109 -0.2324 -1.4284  0.9243
 1853SOL    HW217019   3.781   2.202   1.986 -0.7909 -2.1028  0.0044
 1854SOL     OW17020   3.421   1.884   4.127 -0.0093 -0.6320 -0.3329
 1854SOL    HW117021   3.392   1.793   4.134 -0.8506 -0.1630  2.2732
 1854SOL    HW217022   3.370   1.923   4.198  1.6064 -0.9644  0.9921
 1855SOL     OW17023   2.867   2.108   2.911  0.2781 -0.1959  0.2224
 1855SOL    HW117024   2.843   2.068   2.994 -1.2806  0.6732  0.2052
 1855SOL    HW217025   2.818   2.191   2.913  1.6771  0.6263  0.2048
 1856SOL     OW17026   1.202   2.774  12.005  0.0134 -0.1276  0.1046
 1856SOL    HW117027   1.203   2.784  12.100 -0.7822 -0.6470  0.1743
 1856SOL    HW217028   1.157   2.856  11.990  0.8723 -0.3065 -3.5273
 1857SOL     OW17029   3.843   1.105   2.321  1.2179  0.1570 -0.1636
 1857SOL    HW117030   3.903   1.159   2.270  1.0861  1.4206  1.0185
 1857SOL    HW217031   3.790   1.174   2.363  2.0678  2.6226 -3.1447
 1858SOL     OW17032   3.392   2.305  15.055 -0.5508 -0.3680 -0.0172
 1858SOL    HW117033   3.338   2.232  15.025 -0.2948 -0.8749  0.7465
 1858SOL    HW217034   3.466   2.265  15.101 -0.2495 -1.6934 -1.6520
 1859SOL     OW17035   0.361   0.277   3.791  0.3875  0.2229 -0.4572
 1859SOL    HW117036   0.323   0.208   3.736  1.5547 -1.0650  0.3448
 1859SOL    HW217037   0.407   0.321   3.720  0.2526  0.5130 -0.3659
 1860SOL     OW17038   2.952   0.775   5.602 -0.1099  0.1240 -0.2836
 1860SOL    HW117039   2.868   0.810   5.632  0.1825 -0.0508  0.7328
 1860SOL    HW217040   2.987   0.762   5.690  0.9473  1.8190 -0.4369
 1861SOL     OW17041   4.440   3.725   4.357 -0.1362  0.1133  0.5458
 1861SOL    HW117042   4.445   3.750   4.264 -0.9866  0.5742  0.6245
 1861SOL    HW217043   4.365   3.665   4.357 -0.2661  0.2723 -0.0477
 1862SOL     OW17044   3.417   4.706  15.863  0.6135 -0.4619  0.4687
 1862SOL    HW117045   3.365   4.710  15.783  0.5711  0.8941  0.5747
 1862SOL    HW217046   3.493   4.657  15.834  0.3964 -0.6820  0.2698
 1863SOL     OW17047   1.352   3.657  12.894 -0.6062 -0.0204 -0.4767
 1863SOL    HW117048   1.405   3.699  12.963 -2.2847  1.4486 -0.0777
 1863SOL    HW217049   1.269   3.652  12.942  1.0607 -0.5103  2.3942
 1864SOL     OW17050   2.947   0.387  13.476  0.1156  0.5874  0.0125
 1864SOL    HW117051   2.884   0.343  13.419 -1.1601  0.7035  1.3134
 1864SOL    HW217052   3.012   0.320  13.495  1.6734  1.5323 -1.9578
 1865SOL     OW17053   1.456   0.750   0.569 -0.1243 -0.5657  0.6947
 1865SOL    HW117054   1.400   0.698   0.511  2.2495 -1.9114 -0.3814
 1865SOL    HW217055   1.433   0.841   0.553 -0.1339 -0.4306  1.4611
 1866SOL     OW17056   0.722   0.314  15.843 -0.1925 -0.4033  0.2224
 1866SOL    HW117057   0.726   0.218  15.839  1.8315 -0.3794  1.8260
 1866SOL    HW217058   0.627   0.320  15.854  0.0355  1.1269  1.3324
 1867SOL     OW17059   2.601   4.623   2.627  0.2135 -0.2268  0.0496
 1867SOL    HW117060   2.593   4.581   2.541 -0.4210 -1.7899  0.8853
 1867SOL    HW217061   2.632   4.547   2.676 -1.1117 -0.3916  0.6522
 1868SOL     OW17062   1.872   4.093   0.864  0.0269  0.2324  1.2708
 1868SOL    HW117063   1.923   4.013   0.869  0.1872  0.2870  0.3638
 1868SOL    HW217064   1.800   4.091   0.928 -0.9007  0.2483  0.2204
 1869SOL     OW17065   1.741   0.212  10.419 -0.3870  0.2809  0.0626
 1869SOL    HW117066   1.711   0.191  10.507  1.6997 -3.5112 -0.1188
 1869SOL    HW217067   1.833   0.212  10.442 -0.5251 -1.7340  0.6622
 1870SOL     OW17068   0.620   0.782   4.258 -0.0735  0.1809  0.2585
 1870SOL    HW117069   0.555   0.826   4.314 -0.1706 -2.8740  2.5541
 1870SOL    HW217070   0.595   0.822   4.175  1.2849 -0.2582 -0.3539
 1871SOL     OW17071   0.820   2.642   8.090  0.0463 -0.4931 -0.0056
 1871SOL    HW117072   0.842   2.691   8.170 -2.7880  0.2253  0.3352
 1871SOL    HW217073   0.840   2.714   8.030 -1.8895 -0.4247 -0.5539
 1872SOL     OW17074   1.648   3.752   5.699 -0.3481 -0.1245  0.1284
 1872SOL    HW117075   1.664   3.691   5.771 -1.1916 -2.7001 -1.8796
 1872SOL    HW217076   1.725   3.729   5.647 -1.2352 -1.3302 -0.6495
 1873SOL     OW17077   1.805   4.698   7.579 -0.0762 -0.3112  0.1121
 1873SOL    HW117078   1.789   0.014   7.665  1.5259  1.7673 -0.5362
 1873SOL    HW217079   1.796   0.046   7.515  1.9671 -0.1062  0.0724
 1874SOL     OW17080   0.034   2.437   2.184  0.5277  0.0409  0.1209
 1874SOL    HW117081   0.000   2.357   2.224 -0.4636 -0.7889 -2.3466
 1874SOL    HW217082   4.703   2.453   2.106 -0.3788  1.6668  1.0767
 1875SOL     OW17083   2.606   4.670   7.185  0.9116  0.6083 -0.1443
 1875SOL    HW117084   2.547   4.717   7.244  1.2848 -0.7123  1.2756
 1875SOL    HW217085   2.637   4.600   7.243 -1.1200  0.4300  0.7165
 1876SOL     OW17086   2.220   0.598   4.800 -0.1245 -0.0183  0.2126
 1876SOL    HW117087   2.192   0.600   4.891  1.0299  0.4782  0.5471
 1876SOL    HW217088   2.280   0.672   4.811 -0.4496  0.3166 -0.2505
 1877SOL     OW17089   2.357   3.732   3.645  0.2684 -0.1967 -0.3845
 1877SOL    HW117090   2.330   3.646   3.677  0.3986 -0.1561 -0.1599
 1877SOL    HW217091   2.277   3.751   3.596 -0.6590  0.6766  1.4559
 1878SOL     OW17092   1.628   0.158   3.602 -0.2777 -0.1049 -0.1155
 1878SOL    HW117093   1.686   0.231   3.580  1.3572 -1.2408  0.4373
 1878SOL    HW217094   1.579   0.130   3.524  0.6967  1.6152 -1.3557
 1879SOL     OW17095   1.950   2.555   4.565  0.4236 -0.2890  0.0767
 1879SOL    HW117096   2.039   2.585   4.546  0.3134 -0.7406 -1.2098
 1879SOL    HW217097   1.905   2.624   4.516  0.0172  0.1687  1.0920
 1880SOL     OW17098   1.190   1.002   6.681  0.0849  0.3015  0.3414
 1880SOL    HW117099   1.178   0.929   6.742 -1.0389  1.9614  2.1245
 1880SOL    HW217100   1.253   1.058   6.728  0.6139  0.7320 -0.8799
 1881SOL     OW17101   1.436   0.668   5.626  0.5228 -0.3488  0.1510
 1881SOL    HW117102   1.502   0.600   5.611 -0.7620 -1.3518 -0.9372
 1881SOL    HW217103   1.379   0.652   5.551 -1.6969  0.3290  1.7056
 1882SOL     OW17104   4.404   4.108   7.584  0.5767 -0.2944  0.1119
 1882SOL    HW117105   4.496   4.134   7.587  1.0952 -2.0393 -1.1512
 1882SOL    HW217106   4.380   4.087   7.674 -1.7241 -0.0654 -0.4464
 1883SOL     OW17107   3.640   3.506   0.251 -0.4305  0.8002 -0.4969
 1883SOL    HW117108   3.673   3.568   0.186  0.0109  0.8431 -0.2311
 1883SOL    HW217109   3.665   3.426   0.206 -1.1377 -0.8783  2.0776
 1884SOL     OW17110   0.213   4.418   6.122 -0.4752  0.3375 -0.1853
 1884SOL    HW117111   0.293   4.466   6.140 -0.2091  0.0525 -0.6192
 1884SOL    HW217112   0.227   4.334   6.166 -0.5703  0.4112 -0.0125
 1885SOL     OW17113   1.478   4.017  11.038  0.3795 -0.7622  0.1277
 1885SOL    HW117114   1.469   3.925  11.011  0.3357 -0.3129 -1.4004
 1885SOL    HW217115   1.389   4.051  11.025  1.9621  2.8307 -1.3313
 1886SOL     OW17116   4.528   3.367   8.594  0.1951 -0.1400  0.6277
 1886SOL    HW117117   4.569   3.305   8.534  0.5054 -0.0057  0.7039
 1886SOL    HW217118   4.571   3.343   8.675 -1.5211  0.2372  1.6525
 1887SOL     OW17119   1.535   0.099   7.520 -0.1139 -0.3273  0.1111
 1887SOL    HW117120   1.506   0.168   7.579 -0.5138  1.8082 -2.5910
 1887SOL    HW217121   1.630   0.112   7.515 -0.4394  2.2857  0.9528
 1888SOL     OW17122   3.371   2.667   6.324  0.3673  0.6537 -0.7009
 1888SOL    HW117123   3.456   2.652   6.282  0.8488 -1.0824  0.8800
 1888SOL    HW217124   3.363   2.758   6.296 -2.7848  0.9294  1.1349
 1889SOL     OW17125   2.558   0.541   3.017  0.1971 -0.0805 -0.3833
 1889SOL    HW117126   2.602   0.459   3.038  0.1487  0.5640  2.2181
 1889SOL    HW217127   2.615   0.608   3.054 -1.2671 -0.6763  2.9390
 1890SOL     OW17128   4.252   2.227  15.902 -0.1494 -0.2861  0.9729
 1890SOL    HW117129   4.218   2.283  15.972  0.0866 -0.5709  1.3137
 1890SOL    HW217130   4.262   2.292  15.832  3.1559 -0.5828  1.1872
 1891SOL     OW17131   0.752   0.577   2.162 -0.8097 -0.5515  0.1531
 1891SOL    HW117132   0.658   0.582   2.179 -0.9843  0.0359 -0.9949
 1891SOL    HW217133   0.755   0.594   2.068 -1.9570 -1.3152 -0.0146
 1892SOL     OW17134   1.236   1.548   9.553  0.4725  0.1155  0.1180
 1892SOL    HW117135   1.148   1.586   9.548 -0.5920 -2.6072 -1.9551
 1892SOL    HW217136   1.217   1.454   9.555  1.4721 -0.0659  1.0536
 1893SOL     OW17137   2.091   0.095   2.782  0.0787  0.7240  0.4102
 1893SOL    HW117138   2.161   0.152   2.750  1.4308 -0.8686  0.5571
 1893SOL    HW217139   2.044   0.074   2.700  0.0224 -0.9910  0.8930
 1894SOL     OW17140   4.578   4.632   9.031  0.2490  0.9140  0.1789
 1894SOL    HW117141   4.581   0.001   9.058  0.8503  0.6966  0.8626
 1894SOL    HW217142   4.663   4.609   9.070 -0.1191  1.9976  1.5913
 1895SOL     OW17143   1.039   0.324  11.136  0.1952 -0.7465  0.1864
 1895SOL    HW117144   1.069   0.384  11.068 -1.2747  0.2104  0.3944
 1895SOL    HW217145   1.048   0.385  11.209 -1.4254 -0.4661  0.1318
 1896SOL     OW17146   2.666   4.363   9.033  0.0249  0.1223 -0.2401
 1896SOL    HW117147   2.689   4.432   8.970  1.7391 -1.4179 -1.3170
 1896SOL    HW217148   2.643   4.419   9.107  0.0442 -0.2177  0.0230
 1897SOL     OW17149   3.771   0.684   7.872  0.7284  0.0207  0.3042
 1897SOL    HW117150   3.702   0.720   7.929  1.1046  0.4533  0.4908
 1897SOL    HW217151   3.817   0.628   7.935  0.9476 -0.1441 -0.0057
 1898SOL     OW17152   2.914   2.609   2.790 -0.8154 -0.2697 -0.0881
 1898SOL    HW117153   2.998   2.639   2.826 -1.3370  0.4885  0.4898
 1898SOL    HW217154   2.928   2.518   2.764 -0.7028  0.4312 -2.5512
 1899SOL     OW17155   3.195   0.499   3.335  1.1226 -0.1040 -0.3180
 1899SOL    HW117156   3.194   0.485   3.240  1.1931 -0.1426 -0.3130
 1899SOL    HW217157   3.219   0.416   3.376  2.0391 -0.7981 -2.2813
 1900SOL     OW17158   2.791   1.745   2.653  0.9509 -0.3162  0.4126
 1900SOL    HW117159   2.804   1.729   2.560  1.2657 -0.5387  0.4963
 1900SOL    HW217160   2.877   1.721   2.688  0.2466 -2.0491  0.9496
 1901SOL     OW17161   1.676   2.058  12.243  0.4039 -0.1320 -0.1987
 1901SOL    HW117162   1.761   2.040  12.284  0.4958  1.3873  0.2917
 1901SOL    HW217163   1.663   2.150  12.268  2.2096  0.4510 -1.4226
 1902SOL     OW17164   1.813   4.169   2.664  0.2201  0.5003  0.1193
 1902SOL    HW117165   1.876   4.213   2.607  0.1921 -1.0493 -1.1318
 1902SOL    HW217166   1.726   4.202   2.641  0.2187  0.1446 -0.4085
 1903SOL     OW17167   1.707   4.154  10.296  0.1566 -0.1189  0.3710
 1903SOL    HW117168   1.671   4.169  10.384  1.1424  0.0024  0.7512
 1903SOL    HW217169   1.752   4.073  10.320  0.2679 -0.9706 -2.7021
 1904SOL     OW17170   1.918   1.709  15.549  0.5033 -0.0338  0.1229
 1904SOL    HW117171   1.863   1.631  15.543  0.4003  0.0851 -0.3921
 1904SOL    HW217172   1.919   1.726  15.644 -1.2335  0.1460  0.1096
 1905SOL     OW17173   1.585   3.496   7.263  0.7865  0.5006 -0.3774
 1905SOL    HW117174   1.588   3.403   7.286  1.7990  0.5126 -0.4952
 1905SOL    HW217175   1.520   3.522   7.328 -1.2465  0.8095 -2.5238
 1906SOL     OW17176   2.114   1.285   5.293 -0.3869 -0.1384 -0.0949
 1906SOL    HW117177   2.195   1.336   5.289 -0.8566  0.9134  3.3557
 1906SOL    HW217178   2.147   1.217   5.353  1.9240  0.0745 -1.1003
 1907SOL     OW17179   2.159   0.441  16.291  0.5156  0.1213 -0.0066
 1907SOL    HW117180   2.102   0.482  16.356 -0.8599  0.8254 -1.6574
 1907SOL    HW217181   2.199   0.519  16.253  1.5959 -0.2279  0.4211
 1908SOL     OW17182   1.925   2.907   7.920 -0.7741  0.4966  0.5440
 1908SOL    HW117183   1.900   2.946   7.836 -0.9103 -0.5536  0.1058
 1908SOL    HW217184   2.018   2.932   7.922  0.1145 -2.9591  2.4058
 1909SOL     OW17185   2.045   4.384   7.160 -0.5042  0.6439 -0.1095
 1909SOL    HW117186   2.055   4.434   7.240  0.8577 -0.6278  0.5220
 1909SOL    HW217187   2.134   4.381   7.125  0.1216  2.1226  1.3882
 1910SOL     OW17188   1.624   3.787   6.724  0.3479  0.3283 -0.0751
 1910SOL    HW117189   1.555   3.846   6.694  0.5366  0.8616  0.5482
 1910SOL    HW217190   1.649   3.743   6.643  3.5623  0.9525  0.6005
 1911SOL     OW17191   2.076   3.488   9.565  0.1063 -0.0222 -0.0010
 1911SOL    HW117192   2.144   3.539   9.521 -0.9530  1.2636 -0.1444
 1911SOL    HW217193   2.003   3.538   9.530 -0.5648 -2.6506 -2.3663
 1912SOL     OW17194   2.738   2.053   6.136  0.4809 -0.4005 -0.0252
 1912SOL    HW117195   2.647   2.050   6.165  0.1566 -0.8209 -1.0980
 1912SOL    HW217196   2.773   2.132   6.177 -0.1398 -0.4604  0.6184
 1913SOL     OW17197   0.493   0.037  16.585 -0.1604 -0.5325  0.2386
 1913SOL    HW117198   0.520   4.712  16.664 -2.7601 -0.2466  1.2993
 1913SOL    HW217199   0.437   4.690  16.551 -1.3287  0.1885  0.6810
 1914SOL     OW17200   3.182   1.441   2.864  0.7150 -0.2784 -0.3047
 1914SOL    HW117201   3.239   1.405   2.932 -0.8274 -0.4506  0.8906
 1914SOL    HW217202   3.095   1.435   2.902  1.2055  2.8319  1.3148
 1915SOL     OW17203   0.222   2.276   9.020 -0.1938  0.1214 -0.0847
 1915SOL    HW117204   0.174   2.273   9.103  1.3674 -0.4718  0.7830
 1915SOL    HW217205   0.287   2.344   9.032  1.8003 -1.5356 -1.4222
 1916SOL     OW17206   4.146   3.523   8.270 -0.4110 -0.1544 -0.3386
 1916SOL    HW117207   4.143   3.480   8.355 -1.6294 -1.0655 -0.8332
 1916SOL    HW217208   4.115   3.609   8.297 -0.8513  0.2150 -1.9783
 1917SOL     OW17209   4.315   1.039   5.276  0.0066 -0.3586  0.3454
 1917SOL    HW117210   4.364   0.985   5.339 -1.0328 -2.7527 -0.9077
 1917SOL    HW217211   4.390   1.065   5.222  0.7816 -0.0079  1.5795
 1918SOL     OW17212   2.085   3.154   2.183  0.5734  0.2216 -0.3846
 1918SOL    HW117213   2.026   3.080   2.193 -0.1693  1.2854  3.2373
 1918SOL    HW217214   2.172   3.116   2.171  0.1451 -0.7195 -0.5151
 1919SOL     OW17215   1.203   0.115  11.006 -0.4886 -0.1125  0.4640
 1919SOL    HW117216   1.261   0.114  10.929 -2.0434  2.1511 -0.7437
 1919SOL    HW217217   1.243   0.044  11.055 -1.9161 -2.0666 -1.2117
 1920SOL     OW17218   3.533   2.138  16.715  0.6409  0.3166 -0.0504
 1920SOL    HW117219   3.562   2.200  16.782  2.1898 -0.2352 -0.2122
 1920SOL    HW217220   3.526   2.066  16.778  0.9076  1.5457  1.3942
 1921SOL     OW17221   0.377   1.565   8.590  0.8263  0.2283 -0.2491
 1921SOL    HW117222   0.375   1.538   8.682 -0.8292 -1.3802 -0.7630
 1921SOL    HW217223   0.466   1.602   8.591 -0.2184  2.7190 -0.2485
 1922SOL     OW17224   0.618   1.477   6.991 -0.4978 -0.6466  0.6318
 1922SOL    HW117225   0.702   1.431   6.992 -0.6832 -0.9775  1.3249
 1922SOL    HW217226   0.634   1.556   7.043  0.4910 -0.1189 -0.4620
 1923SOL     OW17227   4.537   0.759   7.640  0.0922 -0.0879  0.0268
 1923SOL    HW117228   4.448   0.734   7.663  0.6107 -1.8518  0.1045
 1923SOL    HW217229   4.546   0.827   7.707 -1.0949  1.8283 -1.7326
 1924SOL     OW17230   4.054   2.315   9.272  0.8416 -0.0011  0.1940
 1924SOL    HW117231   4.022   2.280   9.355  1.0716 -1.1814 -0.2007
 1924SOL    HW217232   4.101   2.241   9.232  0.3027 -1.3220  1.9910
 1925SOL     OW17233   1.808   0.831   2.041 -0.3895  0.3005 -0.4900
 1925SOL    HW117234   1.772   0.819   2.129  1.2147  0.6540  0.2142
 1925SOL    HW217235   1.763   0.910   2.011 -1.8152  0.1141  1.1452
 1926SOL     OW17236   3.922   1.218  15.176  0.4778 -0.2429 -0.3209
 1926SOL    HW117237   3.967   1.211  15.260  2.2632  0.0104 -1.2491
 1926SOL    HW217238   3.864   1.142  15.186 -1.7249  1.3681 -1.0715
 1927SOL     OW17239   0.549   4.086   2.948 -0.0874 -0.5275 -0.1895
 1927SOL    HW117240   0.488   4.146   2.904  0.3954  0.4818  0.5260
 1927SOL    HW217241   0.621   4.147   2.964  0.8065 -1.7390  0.3201
 1928SOL     OW17242   4.593   3.388   2.496 -0.9104 -0.1001 -0.0906
 1928SOL    HW117243   4.551   3.441   2.428 -0.4471 -0.6837 -0.8349
 1928SOL    HW217244   4.677   3.371   2.453 -0.1173  2.5500  0.3950
 1929SOL     OW17245   0.042   1.245  12.823 -0.6153  0.0089 -0.2052
 1929SOL    HW117246   0.062   1.173  12.882 -0.9267  1.4881  1.7089
 1929SOL    HW217247   4.685   1.210  12.783 -2.0525  2.1461  0.7762
 1930SOL     OW17248   0.587   4.565   6.882 -0.2325  0.5469  0.3775
 1930SOL    HW117249   0.632   4.529   6.957  1.1241 -1.2350 -1.2947
 1930SOL    HW217250   0.512   4.505   6.871  0.3657 -0.0109 -0.7319
 1931SOL     OW17251   2.260   1.152   1.554 -0.0359 -0.4365 -0.0360
 1931SOL    HW117252   2.219   1.073   1.591  0.1827 -0.1508  0.8109
 1931SOL    HW217253   2.336   1.118   1.507  1.0621  0.8961  0.8021
 1932SOL     OW17254   0.013   2.040  17.312  0.4964 -0.1736 -0.4147
 1932SOL    HW117255   0.052   1.954  17.293  1.4766 -0.6182  3.7500
 1932SOL    HW217256   0.038   2.038  17.404 -0.8238 -0.9354 -0.0632
 1933SOL     OW17257   2.793   2.320   5.828 -0.5715 -0.3553  0.0716
 1933SOL    HW117258   2.737   2.242   5.821 -2.3525  0.9977 -0.8805
 1933SOL    HW217259   2.868   2.280   5.785  1.2162  3.3394 -0.1501
 1934SOL     OW17260   1.786   0.534   6.536  0.2012 -0.0081  0.0911
 1934SOL    HW117261   1.798   0.620   6.576 -0.4319 -0.9016  2.2383
 1934SOL    HW217262   1.768   0.474   6.609  0.5337 -1.4800 -1.0238
 1935SOL     OW17263   4.266   1.442   3.265  0.4686 -0.1511  0.0294
 1935SOL    HW117264   4.179   1.404   3.276 -0.2331  1.1368 -1.0649
 1935SOL    HW217265   4.271   1.451   3.170 -2.4925 -3.1480 -0.3821
 1936SOL     OW17266   0.311   2.092   5.516  0.6020 -0.2607 -0.0225
 1936SOL    HW117267   0.216   2.093   5.522  0.4634  0.3270 -2.0782
 1936SOL    HW217268   0.319   2.186   5.502  1.3767 -0.4230 -0.7031
 1937SOL     OW17269   1.745   4.252  17.436 -0.3211 -0.4022  0.5692
 1937SOL    HW117270   1.749   4.298  17.352  0.5824 -0.0973  0.7747
 1937SOL    HW217271   1.741   4.160  17.410  0.8635  0.0536 -1.2649
 1938SOL     OW17272   4.043   1.271   4.546 -0.5136 -0.0846  0.3104
 1938SOL    HW117273   4.075   1.196   4.597  0.9560 -0.4642 -1.1639
 1938SOL    HW217274   4.036   1.330   4.622  2.3461  1.8984 -0.9750
 1939SOL     OW17275   0.017   3.930   1.991  0.0921 -0.6747  0.0378
 1939SOL    HW117276   0.088   3.992   2.006 -0.1028 -0.4596  0.0824
 1939SOL    HW217277   0.014   3.952   1.898  1.8376 -2.2616 -0.3918
 1940SOL     OW17278   0.584   2.052   7.213  0.0572 -0.7877 -0.2951
 1940SOL    HW117279   0.556   2.143   7.202  0.9957 -0.6828 -1.9527
 1940SOL    HW217280   0.538   2.032   7.294 -0.3923  0.7886 -0.1553
 1941SOL     OW17281   0.409   0.441   6.318 -0.0845  0.0455  0.1284
 1941SOL    HW117282   0.493   0.470   6.283  0.0648 -0.3308  0.1685
 1941SOL    HW217283   0.442   0.366   6.368 -0.0383 -0.7721 -1.1164
 1942SOL     OW17284   4.708   4.378   7.666 -0.2292  0.8041  0.2230
 1942SOL    HW117285   4.645   4.377   7.738 -2.2014  0.7721 -1.4989
 1942SOL    HW217286   4.701   4.285   7.644 -0.1649  1.2238 -1.5714
 1943SOL     OW17287   2.265   1.298   3.447 -0.2737 -0.4900 -0.0589
 1943SOL    HW117288   2.218   1.308   3.364 -0.5898  0.7673  0.2875
 1943SOL    HW217289   2.205   1.264   3.513 -1.3987  4.0077  1.2070
 1944SOL     OW17290   3.368   1.950   2.652 -0.3448 -0.1528 -0.0710
 1944SOL    HW117291   3.348   1.868   2.606 -1.1155 -1.3721  2.4597
 1944SOL    HW217292   3.326   1.937   2.737 -0.2615 -0.0626 -0.0158
 1945SOL     OW17293   1.247   1.667   1.519 -0.5046  0.1586 -0.0517
 1945SOL    HW117294   1.311   1.709   1.461 -1.3039  0.0379 -1.0294
 1945SOL    HW217295   1.302   1.641   1.593 -2.1906  0.7559  1.3920
 1946SOL     OW17296   3.328   0.654   4.307  0.6517 -0.0554  0.1650
 1946SOL    HW117297   3.317   0.629   4.215  0.4086 -0.1496  0.2194
 1946SOL    HW217298   3.239   0.686   4.320  0.6467 -0.5688  1.4259
 1947SOL     OW17299   0.376   1.761   6.801 -0.2572  0.2295  0.0399
 1947SOL    HW117300   0.343   1.839   6.845 -2.0508 -1.0763  0.9912
 1947SOL    HW217301   0.366   1.693   6.867 -0.8814  1.0334  0.7770
 1948SOL     OW17302   0.671   4.037   4.148 -0.5370 -0.2031 -0.1593
 1948SOL    HW117303   0.605   4.107   4.147  2.4617  2.6346  0.5386
 1948SOL    HW217304   0.757   4.078   4.154 -0.5073 -0.1888 -0.6804
 1949SOL     OW17305   0.932   2.414   5.781  0.1452  0.7529 -0.7473
 1949SOL    HW117306   0.942   2.399   5.875 -4.7277  0.4793 -0.2453
 1949SOL    HW217307   0.838   2.397   5.775  0.0452  1.5253 -1.3971
 1950SOL     OW17308   4.597   2.091   5.199  0.8509 -0.0239  0.0679
 1950SOL    HW117309   4.641   2.022   5.250 -0.2995 -2.5078 -2.2828
 1950SOL    HW217310   4.548   2.133   5.269  2.5303  1.0096  0.6323
 1951SOL     OW17311   1.359   0.504   5.259 -0.2731 -0.1913 -0.1343
 1951SOL    HW117312   1.325   0.421   5.226 -1.6351 -0.0233  0.8098
 1951SOL    HW217313   1.406   0.545   5.187  2.0389 -3.0204 -0.2210
 1952SOL     OW17314   3.972   1.793   2.765 -0.1756  0.1965 -0.5342
 1952SOL    HW117315   3.998   1.786   2.673  1.2207 -1.2030 -0.0289
 1952SOL    HW217316   3.991   1.701   2.782 -0.6912  0.4846  1.5610
 1953SOL     OW17317   2.795   2.749   7.404  0.2605 -0.0086 -0.8504
 1953SOL    HW117318   2.803   2.654   7.410 -1.1924  0.0196  1.8806
 1953SOL    HW217319   2.746   2.760   7.323 -1.3492  0.0999  0.1325
 1954SOL     OW17320   1.065   3.825   2.798  0.2788  0.3999  0.0115
 1954SOL    HW117321   1.092   3.862   2.714  2.4848 -0.7546  0.2214
 1954SOL    HW217322   1.149   3.785   2.819 -0.0764  0.1600  0.9668
 1955SOL     OW17323   0.390   0.269   7.946  0.1622  0.4104 -0.3053
 1955SOL    HW117324   0.297   0.276   7.925  0.1861 -1.3771 -1.0371
 1955SOL    HW217325   0.426   0.235   7.864 -2.5234  1.8786 -2.0946
 1956SOL     OW17326   2.864   1.500   2.499 -0.7450 -0.5012  0.2215
 1956SOL    HW117327   2.826   1.435   2.558 -1.8920 -0.7242 -0.7644
 1956SOL    HW217328   2.948   1.504   2.545 -0.5461 -1.9048 -0.0073
 1957SOL     OW17329   3.182   3.489   9.034  0.4409  0.3927 -0.0085
 1957SOL    HW117330   3.120   3.417   9.026  0.5499  0.2801  0.1855
 1957SOL    HW217331   3.242   3.464   9.104  0.6786  2.3418  0.4852
 1958SOL     OW17332   3.084   1.060  16.387  0.7236  0.0754 -0.0366
 1958SOL    HW117333   3.172   1.061  16.350  0.2825  0.0077 -1.0933
 1958SOL    HW217334   3.088   1.065  16.482 -0.8533 -0.7520  0.0779
 1959SOL     OW17335   3.167   0.003   1.768  0.2928  0.2775 -0.2822
 1959SOL    HW117336   3.110   0.038   1.699 -0.3991 -0.1339  0.0733
 1959SOL    HW217337   3.142   0.060   1.841  0.0628 -1.3677  0.9373
 1960SOL     OW17338   1.854   0.678   5.016 -0.1534  0.4670 -0.0816
 1960SOL    HW117339   1.907   0.609   5.055 -0.2280  1.0175  0.9914
 1960SOL    HW217340   1.781   0.684   5.078  0.5560  2.8790  0.5178
 1961SOL     OW17341   0.773   4.241   2.628 -0.5252 -0.0177  0.2012
 1961SOL    HW117342   0.784   4.293   2.548 -1.6292  1.7730  1.1988
 1961SOL    HW217343   0.733   4.163   2.589  1.4936  0.2486 -2.4196
 1962SOL     OW17344   4.412   2.746   7.511 -0.3492  0.0139 -0.3830
 1962SOL    HW117345   4.449   2.662   7.484 -2.4155 -1.7637  2.3703
 1962SOL    HW217346   4.322   2.728   7.535 -0.4363  1.2725  0.2450
 1963SOL     OW17347   0.814   0.544  14.464 -0.7584  0.3573  0.1362
 1963SOL    HW117348   0.860   0.619  14.426  1.8197 -1.3960 -0.2052
 1963SOL    HW217349   0.879   0.476  14.447 -0.5106 -0.0325  2.6534
 1964SOL     OW17350   0.438   0.899   3.036 -0.0335 -0.1841 -0.5244
 1964SOL    HW117351   0.349   0.866   3.043  0.6393 -1.7209  0.8675
 1964SOL    HW217352   0.479   0.857   3.112  0.2005  0.2699 -0.3982
 1965SOL     OW17353   1.077   2.064   5.204 -0.3514 -0.2680 -0.1327
 1965SOL    HW117354   1.025   2.071   5.124 -0.4976  1.8055  0.1511
 1965SOL    HW217355   1.091   1.969   5.212 -0.7919 -0.3858 -0.8038
 1966SOL     OW17356   1.694   3.136  15.482 -0.6092 -0.6530  0.0807
 1966SOL    HW117357   1.607   3.105  15.459 -0.8185 -0.3598  0.4764
 1966SOL    HW217358   1.715   3.216  15.435 -0.7792 -0.5426  0.1944
 1967SOL     OW17359   1.512   0.652   0.130 -0.3017 -0.0825  0.7665
 1967SOL    HW117360   1.491   0.703   0.052  0.3492 -1.5236 -0.3546
 1967SOL    HW217361   1.606   0.639   0.121 -0.3332 -0.9725  1.6675
 1968SOL     OW17362   2.884   3.739  15.747  0.2861  0.3497  0.0684
 1968SOL    HW117363   2.948   3.795  15.704  1.0487 -0.6959 -0.1479
 1968SOL    HW217364   2.857   3.796  15.820 -2.3910  0.6158 -1.1541
 1969SOL     OW17365   0.603   2.977  11.786  0.4798  0.6494  0.1604
 1969SOL    HW117366   0.633   3.015  11.704 -1.1495 -1.9916 -1.6634
 1969SOL    HW217367   0.684   2.951  11.829 -0.5461  0.3450  1.9087
 1970SOL     OW17368   2.717   0.443  17.237  0.1178 -0.7165 -0.0273
 1970SOL    HW117369   2.771   0.513  17.199 -1.4559  0.3036 -0.3777
 1970SOL    HW217370   2.634   0.461  17.193 -0.8824 -1.0267  1.7700
 1971SOL     OW17371   3.900   3.800  14.625 -0.5637 -0.1126  0.0745
 1971SOL    HW117372   3.954   3.798  14.704  1.0475  1.3110 -0.9874
 1971SOL    HW217373   3.838   3.730  14.642  0.2517 -0.7070  0.6173
 1972SOL     OW17374   1.347   4.690   2.822 -0.0320  0.3443  0.2788
 1972SOL    HW117375   1.378   4.639   2.896  1.5557 -0.1613 -0.7358
 1972SOL    HW217376   1.271   0.008   2.864 -0.6100 -0.3512 -0.1045
 1973SOL     OW17377   4.712   2.892  14.218 -0.8065 -0.1446  0.4505
 1973SOL    HW117378   0.008   2.870  14.309 -0.3172  2.6376  1.0013
 1973SOL    HW217379   4.647   2.827  14.190 -0.5487  1.2337 -3.3053
 1974SOL     OW17380   2.866   3.698   9.907 -0.6279  0.1951  0.1467
 1974SOL    HW117381   2.783   3.683   9.863 -1.1381 -2.3822  2.0354
 1974SOL    HW217382   2.845   3.772   9.965 -0.8894  0.1033  0.1671
 1975SOL     OW17383   3.784   3.825   3.214 -0.1478  0.4889  0.1382
 1975SOL    HW117384   3.769   3.732   3.195  0.1852  0.5884 -0.5981
 1975SOL    HW217385   3.743   3.829   3.301  1.2071 -1.1233  0.8581
 1976SOL     OW17386   1.024   3.766   1.290  0.5575  0.5656  0.1630
 1976SOL    HW117387   1.057   3.844   1.333 -1.3335  2.2824 -1.4727
 1976SOL    HW217388   1.078   3.706   1.342 -0.7588 -0.0280  0.8463
 1977SOL     OW17389   3.735   1.415   3.772  0.3732 -0.4942  0.5803
 1977SOL    HW117390   3.825   1.431   3.743  0.2782 -3.5162 -1.3170
 1977SOL    HW217391   3.734   1.383   3.862  1.6163 -2.3320 -0.0727
 1978SOL     OW17392   1.096   2.091   3.718  0.1882  0.0732 -0.2342
 1978SOL    HW117393   1.178   2.107   3.764  0.1814  1.9300 -0.8634
 1978SOL    HW217394   1.109   2.154   3.648  5.1628  0.1312  0.7911
 1979SOL     OW17395   3.812   0.776  14.198  0.2778 -0.5913  0.4600
 1979SOL    HW117396   3.783   0.863  14.170  1.1027 -0.9488 -1.5676
 1979SOL    HW217397   3.821   0.787  14.292 -1.7565  1.4771  0.4066
 1980SOL     OW17398   1.148   1.689   0.609  0.4713 -0.4000  0.0923
 1980SOL    HW117399   1.177   1.776   0.582  3.2613 -1.8280 -1.5117
 1980SOL    HW217400   1.089   1.705   0.682  0.9784 -1.3714  0.7015
 1981SOL     OW17401   2.031   0.630   3.457 -0.3206  0.5496 -0.3494
 1981SOL    HW117402   2.062   0.590   3.376 -0.5891  0.0538 -0.2078
 1981SOL    HW217403   2.091   0.704   3.456 -0.9914  1.1059  1.2274
 1982SOL     OW17404   4.128   3.194   2.281  0.0843  0.5188  0.2075
 1982SOL    HW117405   4.178   3.235   2.210  0.8928  0.1627  0.5705
 1982SOL    HW217406   4.178   3.113   2.290  2.4670  1.9605 -0.0763
 1983SOL     OW17407   0.382   2.586  17.425 -0.1357 -0.2920  0.7765
 1983SOL    HW117408   0.302   2.601  17.476 -0.6707 -0.4746  0.0034
 1983SOL    HW217409   0.414   2.505  17.464  1.2278  0.6964  1.7008
 1984SOL     OW17410   4.054   3.108   6.680 -0.3986 -0.2753 -0.1151
 1984SOL    HW117411   4.098   3.093   6.596 -0.7572 -0.4381 -0.2755
 1984SOL    HW217412   4.086   3.038   6.737  1.1427 -0.2395 -0.9309
 1985SOL     OW17413   1.934   2.065  14.437 -0.1724  0.0547  0.7058
 1985SOL    HW117414   1.882   2.138  14.405  1.0211  0.3940 -0.4556
 1985SOL    HW217415   2.007   2.105  14.484  0.6792 -3.2588  2.1952
 1986SOL     OW17416   3.448   0.510   7.491  0.0407  0.1153 -0.0388
 1986SOL    HW117417   3.399   0.462   7.424 -0.5399  0.6754 -0.0185
 1986SOL    HW217418   3.459   0.451   7.565 -0.8819  0.5087  0.4155
 1987SOL     OW17419   3.996   0.648   6.967 -0.1378 -0.1787  0.0577
 1987SOL    HW117420   4.070   0.588   6.984  0.5469  1.1109  1.6372
 1987SOL    HW217421   3.946   0.596   6.904  0.5238 -1.0170  0.2264
 1988SOL     OW17422   2.476   0.662   5.260 -0.5328  0.1004  0.2132
 1988SOL    HW117423   2.413   0.705   5.318 -2.9906 -0.0065 -2.3478
 1988SOL    HW217424   2.426   0.611   5.196 -0.3377  1.0468 -0.6946
 1989SOL     OW17425   1.464   3.539   0.074  0.3537  0.3950 -0.0311
 1989SOL    HW117426   1.504   3.472   0.129  1.8669 -0.0440 -1.6667
 1989SOL    HW217427   1.372   3.528   0.101  0.3806  2.0148  0.7386
 1990SOL     OW17428   0.743   1.396   2.477  0.1855  0.0199  0.0508
 1990SOL    HW117429   0.674   1.431   2.421  1.8786  1.4707 -1.1087
 1990SOL    HW217430   0.771   1.467   2.534  0.0111  0.2130 -0.1062
 1991SOL     OW17431   3.862   0.664  16.925 -0.1878  0.3442  0.6713
 1991SOL    HW117432   3.948   0.701  16.908 -1.1260  0.7271 -3.1858
 1991SOL    HW217433   3.853   0.665  17.020 -2.6596  0.2272  0.4327
 1992SOL     OW17434   3.976   1.806   4.559 -0.6237 -0.1093 -0.1462
 1992SOL    HW117435   3.929   1.855   4.627  1.2062 -0.3277  1.2844
 1992SOL    HW217436   3.931   1.722   4.575  3.1931 -2.2065 -0.5022
 1993SOL     OW17437   0.838   2.826   6.461 -0.4665 -0.4346 -0.1668
 1993SOL    HW117438   0.813   2.780   6.541 -0.0227 -0.1068  0.1613
 1993SOL    HW217439   0.751   2.849   6.431 -0.2028  0.5888 -0.1375
 1994SOL     OW17440   3.559   2.654   7.501  0.9737  0.1469 -0.1600
 1994SOL    HW117441   3.605   2.736   7.517  1.2137 -0.1024  0.4362
 1994SOL    HW217442   3.469   2.685   7.492  1.1148  0.5333 -0.2345
 1995SOL     OW17443   2.193   2.771   2.048  0.0003  0.5953 -0.3477
 1995SOL    HW117444   2.255   2.697   2.046  0.1352  0.7049 -0.2303
 1995SOL    HW217445   2.161   2.763   2.138  0.7259 -1.8579 -0.3099
 1996SOL     OW17446   0.710   0.492   2.437 -0.0826 -0.2584 -0.2938
 1996SOL    HW117447   0.680   0.574   2.398  1.5113 -0.1040 -1.1978
 1996SOL    HW217448   0.780   0.467   2.377  0.8443 -1.2924  1.2011
 1997SOL     OW17449   2.612   3.176   7.713 -0.0736 -0.3904  0.0916
 1997SOL    HW117450   2.697   3.220   7.707 -0.0711 -0.2076  1.4218
 1997SOL    HW217451   2.560   3.256   7.722 -2.2184 -1.9353  1.3094
 1998SOL     OW17452   3.448   4.061   3.517 -0.0833  0.0889  0.1575
 1998SOL    HW117453   3.412   4.007   3.446  1.9938  0.3021 -1.0574
 1998SOL    HW217454   3.401   4.140   3.490 -0.6106  0.4160  2.0440
 1999SOL     OW17455   1.334   0.353  10.766  0.7543  0.0758 -0.2566
 1999SOL    HW117456   1.360   0.265  10.738  0.8581  0.3885 -1.1382
 1999SOL    HW217457   1.412   0.390  10.724  0.5948  0.4296 -0.2406
 2000SOL     OW17458   0.229   1.943   3.311 -0.0466  0.1009  0.6499
 2000SOL    HW117459   0.220   1.869   3.251  0.1682 -0.0432  0.7952
 2000SOL    HW217460   0.271   2.003   3.249  1.2365 -1.3520  0.1272
 2001SOL     OW17461   3.813   3.907  10.602  0.0846 -0.2059 -0.7440
 2001SOL    HW117462   3.763   3.855  10.538 -0.5497  0.6471 -0.9358
 2001SOL    HW217463   3.905   3.890  10.584  0.4345  1.7644 -0.7288
 2002SOL     OW17464   1.434   1.624   4.348 -0.1962 -0.0680 -0.4456
 2002SOL    HW117465   1.453   1.673   4.268 -0.3905 -0.4426 -0.7186
 2002SOL    HW217466   1.443   1.697   4.410  0.3561 -1.0338  0.6123
 2003SOL     OW17467   1.058   2.426   9.257  0.1181  0.5442  0.0310
 2003SOL    HW117468   1.120   2.496   9.236  0.1819  0.7926  1.0436
 2003SOL    HW217469   1.071   2.410   9.350 -0.3117 -0.0482 -0.0125
 2004SOL     OW17470   3.740   3.189   2.613 -0.4387  0.3899  0.2261
 2004SOL    HW117471   3.811   3.188   2.549  1.6645 -1.1294  2.5456
 2004SOL    HW217472   3.771   3.133   2.684 -1.3884 -1.9929 -1.2609
 2005SOL     OW17473   2.984   4.419   8.039  0.2235 -0.7512 -0.4793
 2005SOL    HW117474   2.982   4.324   8.028  2.2467 -0.7036 -1.1864
 2005SOL    HW217475   2.891   4.440   8.031  0.1639 -1.4398 -1.5965
 2006SOL     OW17476   3.051   3.718   5.519 -0.0350  0.4888 -0.0469
 2006SOL    HW117477   3.002   3.665   5.581 -1.6522 -0.3506 -2.0615
 2006SOL    HW217478   2.987   3.724   5.449  1.3845 -0.5804 -1.4403
 2007SOL     OW17479   0.119   0.894  12.073 -0.4474  0.3151 -0.0473
 2007SOL    HW117480   0.076   0.975  12.099  0.7364  0.3667  1.7662
 2007SOL    HW217481   0.208   0.914  12.102 -0.7289 -0.6956  1.5373
 2008SOL     OW17482   2.269   4.126   0.014 -0.0325  0.1635 -0.0909
 2008SOL    HW117483   2.328   4.057  17.673  0.3559  0.5435 -0.1858
 2008SOL    HW217484   2.313   4.170   0.086  1.9623  2.7160 -2.8445
 2009SOL     OW17485   2.016   3.583  17.361  0.7497 -0.4411 -0.2964
 2009SOL    HW117486   2.023   3.654  17.424  0.3927  0.3162 -1.1074
 2009SOL    HW217487   1.929   3.608  17.330  1.3506 -0.1101 -1.7234
 2010SOL     OW17488   1.780   3.365   7.576 -0.4173  0.1611 -0.0511
 2010SOL    HW117489   1.709   3.428   7.579 -1.5026 -1.2118  3.1214
 2010SOL    HW217490   1.752   3.306   7.506 -0.6239 -0.0191  0.1840
 2011SOL     OW17491   1.748   0.029   5.112  0.2667 -0.0622 -0.6159
 2011SOL    HW117492   1.827   0.048   5.162 -0.9109  2.9006  0.1061
 2011SOL    HW217493   1.761   4.656   5.114 -1.2020 -0.2069  1.6490
 2012SOL     OW17494   3.317   3.850   7.435 -0.3885  0.8118 -0.4521
 2012SOL    HW117495   3.339   3.912   7.505 -2.4450  0.8388  0.1784
 2012SOL    HW217496   3.318   3.768   7.485 -0.3918 -0.5446 -2.6915
 2013SOL     OW17497   1.671   0.894   8.616 -0.0881 -0.2936  0.5957
 2013SOL    HW117498   1.724   0.922   8.542  0.5341 -1.2837  0.6742
 2013SOL    HW217499   1.730   0.845   8.674  0.9008  0.3709  0.1469
 2014SOL     OW17500   2.635   2.783  15.841  0.4456  0.0000 -0.3590
 2014SOL    HW117501   2.627   2.842  15.766  0.0688 -1.2333 -1.2956
 2014SOL    HW217502   2.668   2.707  15.792 -1.2180 -0.3449 -0.9342
 2015SOL     OW17503   1.058   2.283   7.196 -0.3711 -0.6774 -0.1768
 2015SOL    HW117504   0.996   2.229   7.147 -0.9670  0.8183 -1.0776
 2015SOL    HW217505   1.077   2.347   7.127  2.0384  0.8173  1.9092
 2016SOL     OW17506   3.986   4.602   3.677 -0.4581  0.0751 -0.1743
 2016SOL    HW117507   4.039   4.525   3.656  0.4060  0.8874 -1.0402
 2016SOL    HW217508   3.896   4.571   3.678  0.0074 -1.3793 -1.7348
 2017SOL     OW17509   1.617   2.710   9.018 -0.7693  0.2562  0.4354
 2017SOL    HW117510   1.694   2.670   9.058 -1.4182  0.2171  1.6382
 2017SOL    HW217511   1.615   2.791   9.070  0.5090  2.3842 -2.8362
 2018SOL     OW17512   2.001   4.277   6.313 -0.4131 -0.1985  0.2448
 2018SOL    HW117513   1.935   4.220   6.351  0.1801  0.7804  2.7078
 2018SOL    HW217514   1.988   4.269   6.218 -0.5468 -1.8035  0.4102
 2019SOL     OW17515   1.484   1.931   6.362 -0.1755  0.4797 -0.1906
 2019SOL    HW117516   1.422   1.923   6.290 -0.8170 -0.1482  0.4381
 2019SOL    HW217517   1.563   1.974   6.328  0.1123 -0.2445 -0.4354
 2020SOL     OW17518   0.993   3.244   0.763  0.4058  0.3625 -0.0160
 2020SOL    HW117519   0.994   3.310   0.833 -0.3995  1.0784 -0.6947
 2020SOL    HW217520   1.008   3.304   0.690  0.0939 -0.6882 -0.9407
 2021SOL     OW17521   2.225   1.314   8.873  0.5024  0.4572  0.3084
 2021SOL    HW117522   2.181   1.385   8.827  2.0567  0.3008 -1.4392
 2021SOL    HW217523   2.262   1.267   8.798  2.7654  1.4486  0.7844
 2022SOL     OW17524   0.365   2.568   8.937 -0.9540 -0.1603 -0.0433
 2022SOL    HW117525   0.273   2.558   8.912 -1.3752  3.0474  0.2117
 2022SOL    HW217526   0.387   2.652   8.897 -2.3917 -0.0526 -0.6322
 2023SOL     OW17527   3.831   0.716  15.238 -0.5105 -0.6028  0.1277
 2023SOL    HW117528   3.790   0.632  15.258  0.4211 -1.0862  0.0211
 2023SOL    HW217529   3.837   0.713  15.142  0.4229  0.4695  0.1504
 2024SOL     OW17530   4.517   0.504   8.920  0.2225 -0.3540  0.1983
 2024SOL    HW117531   4.582   0.438   8.898  0.7129 -0.6762  2.6514
 2024SOL    HW217532   4.529   0.577   8.859  1.3615 -0.0635  0.7676
 2025SOL     OW17533   1.042   0.213   8.004 -0.3350  0.0143 -0.0672
 2025SOL    HW117534   1.028   0.249   7.916 -3.2141 -1.0332 -0.0610
 2025SOL    HW217535   1.081   0.130   7.976  0.0741  0.9462 -2.2679
 2026SOL     OW17536   0.486   1.122   8.700  0.2726 -0.5412 -0.1620
 2026SOL    HW117537   0.489   1.126   8.795  2.3116  2.9300 -0.3789
 2026SOL    HW217538   0.573   1.083   8.688 -0.4958 -1.2244 -3.7613
 2027SOL     OW17539   0.709   2.466   7.880 -0.3533 -0.6223  0.2781
 2027SOL    HW117540   0.621   2.502   7.870 -0.8152 -1.0956  2.8143
 2027SOL    HW217541   0.752   2.525   7.941  0.5390 -0.3470 -0.6171
 2028SOL     OW17542   3.664   1.636   4.923  0.0871  0.2292 -0.2454
 2028SOL    HW117543   3.727   1.576   4.964 -0.8124 -1.1152 -0.8319
 2028SOL    HW217544   3.631   1.566   4.867 -0.9184  0.2411  0.3307
 2029SOL     OW17545   0.493   1.546   4.522  0.1414 -0.2141  0.3479
 2029SOL    HW117546   0.494   1.520   4.614  1.7214  0.5769  0.5565
 2029SOL    HW217547   0.477   1.461   4.480  0.8601  0.4444 -1.2556
 2030SOL     OW17548   4.539   3.780   8.757 -0.3356 -0.2307  0.0197
 2030SOL    HW117549   4.609   3.841   8.783  0.2977 -0.8227 -0.3244
 2030SOL    HW217550   4.582   3.719   8.698  1.1305  0.0721  0.7640
 2031SOL     OW17551   0.399   2.620  10.281  0.0773  0.2195  0.0427
 2031SOL    HW117552   0.370   2.697  10.233 -2.4098  0.6271  2.1908
 2031SOL    HW217553   0.312   2.591  10.311 -0.4065 -0.2244 -1.7649
 2032SOL     OW17554   4.652   1.489   9.493 -0.0483  0.2022 -0.1551
 2032SOL    HW117555   4.580   1.515   9.435  0.7937 -0.5799 -1.5574
 2032SOL    HW217556   4.719   1.516   9.429  0.3470  0.0383  0.1893
 2033SOL     OW17557   0.451   1.935   8.950 -0.2147  0.0656  0.0366
 2033SOL    HW117558   0.536   1.980   8.951 -0.1892 -0.0093  1.1051
 2033SOL    HW217559   0.439   1.945   9.045 -0.8846  2.9627 -0.3371
 2034SOL     OW17560   0.723   1.548   5.781  0.3935 -0.4603  0.3849
 2034SOL    HW117561   0.664   1.622   5.770  0.8871 -0.4399 -2.1001
 2034SOL    HW217562   0.777   1.580   5.853  1.6292  0.9882 -1.1794
 2035SOL     OW17563   3.626   2.433   3.632  0.0955  0.0814 -0.2638
 2035SOL    HW117564   3.546   2.390   3.602 -0.6954  0.3243  1.4590
 2035SOL    HW217565   3.690   2.365   3.612  0.3060  0.8230 -2.1294
 2036SOL     OW17566   0.827   2.885   1.264 -0.6725  0.2607  0.2477
 2036SOL    HW117567   0.882   2.848   1.333 -1.9244  0.3308  1.2773
 2036SOL    HW217568   0.773   2.952   1.306  0.5284  0.3076  1.7129
 2037SOL     OW17569   1.828   0.689   9.309  0.5261 -0.2344 -0.3296
 2037SOL    HW117570   1.819   0.622   9.377 -1.8230 -0.9386 -1.3190
 2037SOL    HW217571   1.887   0.637   9.254  1.6725  0.9137 -0.1997
 2038SOL     OW17572   2.038   0.652   2.720  0.0136  0.1939  0.0258
 2038SOL    HW117573   2.120   0.649   2.769  0.6768 -0.4443 -1.1157
 2038SOL    HW217574   1.971   0.636   2.786 -1.2108 -0.3941 -1.3589
 2039SOL     OW17575   3.694   0.793   4.652  0.3639 -0.1154  0.3663
 2039SOL    HW117576   3.741   0.723   4.607  0.5682  0.0921  0.2610
 2039SOL    HW217577   3.606   0.763   4.628 -0.0347  2.1950 -1.0468
 2040SOL     OW17578   2.598   4.397   4.823 -0.2415  0.1644  0.1490
 2040SOL    HW117579   2.685   4.402   4.785 -0.4791 -0.2603 -0.4508
 2040SOL    HW217580   2.548   4.347   4.759 -0.2046  0.1995  0.0937
 2041SOL     OW17581   4.578   0.172   9.109 -0.6329 -0.4619  0.0025
 2041SOL    HW117582   4.503   0.224   9.139 -0.1475 -1.3909  2.7995
 2041SOL    HW217583   4.623   0.230   9.048 -1.1944 -2.2362 -2.0666
 2042SOL     OW17584   3.293   1.164   3.693  0.3599 -0.1022  0.1581
 2042SOL    HW117585   3.385   1.189   3.686  0.2735  0.4341  0.9106
 2042SOL    HW217586   3.242   1.245   3.706  0.4929  0.0947 -0.5482
 2043SOL     OW17587   2.218   4.654   4.596 -0.4158  0.2865  0.1706
 2043SOL    HW117588   2.139   4.621   4.554 -0.6286  0.4267  0.4666
 2043SOL    HW217589   2.284   4.635   4.529  2.0914  1.1564  2.4050
 2044SOL     OW17590   2.155   0.165   5.808  0.1582  0.9347 -0.3670
 2044SOL    HW117591   2.068   0.173   5.847  0.1742 -1.6104  0.1997
 2044SOL    HW217592   2.167   0.070   5.812  1.3966  1.0840 -0.5092
 2045SOL     OW17593   0.010   3.863  15.352  0.7005  0.3768  0.1319
 2045SOL    HW117594   4.678   3.852  15.430  0.4470 -1.1612 -0.2616
 2045SOL    HW217595   0.030   3.957  15.357 -0.6288  0.5657  2.0149
 2046SOL     OW17596   2.574   2.695   5.929  0.1091  0.1585 -0.5242
 2046SOL    HW117597   2.650   2.654   5.888  0.6941  0.8744 -0.1466
 2046SOL    HW217598   2.520   2.728   5.857 -0.1619 -1.2960 -0.9919
 2047SOL     OW17599   3.273   0.847  16.236 -0.3544 -0.4802 -0.1939
 2047SOL    HW117600   3.310   0.935  16.237 -3.0095  0.6401 -1.7080
 2047SOL    HW217601   3.299   0.820  16.148  0.1374 -0.7708  0.0415
 2048SOL     OW17602   3.598   3.862   9.467 -0.0898  0.5870 -0.1421
 2048SOL    HW117603   3.507   3.841   9.488  0.7537 -1.4018  1.6192
 2048SOL    HW217604   3.647   3.812   9.533 -1.8650  0.2643  0.9310
 2049SOL     OW17605   3.021   2.709   6.234 -1.0934 -0.4511 -0.2277
 2049SOL    HW117606   3.020   2.783   6.173  0.7690  0.2476  0.5808
 2049SOL    HW217607   3.048   2.638   6.176 -0.5765 -0.6359  0.2355
 2050SOL     OW17608   2.552   1.483   7.452 -0.6063  0.4565  0.5107
 2050SOL    HW117609   2.624   1.484   7.390 -1.8444  2.7054 -0.8867
 2050SOL    HW217610   2.522   1.392   7.464  0.6336 -0.1386 -0.9545
 2051SOL     OW17611   1.391   3.133   8.193  0.0950  0.7031  0.1353
 2051SOL    HW117612   1.486   3.147   8.188  0.6682 -2.4446  1.8110
 2051SOL    HW217613   1.386   3.068   8.263 -1.3939 -0.5826 -1.1656
 2052SOL     OW17614   0.493   4.689   3.335 -0.8741 -0.2516  0.3394
 2052SOL    HW117615   0.544   4.632   3.278  0.5035  1.4555 -0.1492
 2052SOL    HW217616   0.556   4.721   3.400 -0.5061  0.6322 -0.4553
 2053SOL     OW17617   4.639   2.471   4.452 -0.1158  0.0651 -0.5826
 2053SOL    HW117618   4.604   2.382   4.442  0.7099  0.0489 -3.3599
 2053SOL    HW217619   0.005   2.451   4.422  0.0754  2.1315 -1.3449
 2054SOL     OW17620   4.711   2.637   8.201 -0.3927  0.7798  0.7450
 2054SOL    HW117621   4.650   2.707   8.224  1.4094  2.0900  1.5436
 2054SOL    HW217622   0.073   2.681   8.203 -1.2072  2.3076  1.6679
 2055SOL     OW17623   3.726   1.245   7.768 -0.0532 -0.2318 -0.5235
 2055SOL    HW117624   3.729   1.221   7.676 -1.1188 -3.4262  0.3056
 2055SOL    HW217625   3.802   1.303   7.771 -0.7759  0.7984 -2.2243
 2056SOL     OW17626   4.366   3.930   5.077  0.3910  0.2437 -0.0866
 2056SOL    HW117627   4.394   3.909   4.988 -2.3596 -0.8990 -0.6574
 2056SOL    HW217628   4.277   3.897   5.090  0.7726 -0.9241 -0.4462
 2057SOL     OW17629   2.889   4.458   3.976 -0.0680  0.3929  0.5563
 2057SOL    HW117630   2.961   4.438   4.037  1.0529  0.4157 -0.7579
 2057SOL    HW217631   2.896   4.376   3.928 -1.3830  0.7055 -0.1680
 2058SOL     OW17632   2.483   1.401   8.081  0.2228  0.3428  0.6612
 2058SOL    HW117633   2.576   1.423   8.072  0.1971  0.3407  0.3687
 2058SOL    HW217634   2.460   1.453   8.157 -0.2986 -1.0419  1.4605
 2059SOL     OW17635   2.779   3.151   1.582 -0.0342  0.2639 -0.5279
 2059SOL    HW117636   2.694   3.195   1.592 -0.6798 -0.3428 -3.2312
 2059SOL    HW217637   2.793   3.110   1.667  1.3218 -0.0788 -0.9221
 2060SOL     OW17638   2.247   0.192  16.364 -0.1657 -0.2626 -0.3939
 2060SOL    HW117639   2.230   0.280  16.330 -0.0981  1.0929  3.0852
 2060SOL    HW217640   2.319   0.172  16.305  1.5221 -1.6229  2.1521
 2061SOL     OW17641   4.420   1.762   4.389 -0.6710  0.0188  0.4078
 2061SOL    HW117642   4.514   1.749   4.402 -0.8475  2.1967  3.9695
 2061SOL    HW217643   4.387   1.674   4.369  1.4202 -0.4241 -1.0871
 2062SOL     OW17644   0.034   1.434   5.684 -0.4771  0.4607 -0.4246
 2062SOL    HW117645   4.710   1.501   5.634 -0.5086 -0.2513 -1.3453
 2062SOL    HW217646   4.692   1.363   5.689 -1.3818  1.4971  2.8933
 2063SOL     OW17647   1.952   0.870   0.904 -0.0494  0.4735 -0.0020
 2063SOL    HW117648   1.960   0.965   0.891 -0.5049  0.5243  0.0941
 2063SOL    HW217649   2.006   0.836   0.833 -1.3327 -4.0790  1.2114
 2064SOL     OW17650   2.718   3.681  16.952  0.3012 -0.5124 -0.2626
 2064SOL    HW117651   2.802   3.702  16.992  0.3537 -0.6311 -0.3121
 2064SOL    HW217652   2.662   3.753  16.982  1.3434  1.3868 -2.9612
 2065SOL     OW17653   3.205   3.425   7.423  0.0115  0.2055 -0.1937
 2065SOL    HW117654   3.301   3.422   7.422 -0.0108 -0.3261 -0.6030
 2065SOL    HW217655   3.180   3.495   7.362 -0.6167 -0.4517 -0.6796
 2066SOL     OW17656   3.210   4.271  14.770  0.4647  0.3055 -0.5622
 2066SOL    HW117657   3.244   4.223  14.694  0.9230  0.1687 -0.2696
 2066SOL    HW217658   3.116   4.253  14.769  0.8130 -1.4828 -0.4221
 2067SOL     OW17659   2.788   1.567   7.607 -0.4685  0.2856 -0.0660
 2067SOL    HW117660   2.700   1.571   7.569  0.2167  2.5944 -1.4374
 2067SOL    HW217661   2.819   1.658   7.607  0.0221  0.1229  1.7830
 2068SOL     OW17662   2.217   2.332  16.200  0.4138 -0.4583 -0.7919
 2068SOL    HW117663   2.253   2.245  16.182 -0.0148 -0.7225 -0.3554
 2068SOL    HW217664   2.123   2.312  16.196  0.7830 -2.1417 -1.3005
 2069SOL     OW17665   2.158   4.626   5.831 -0.1093  0.4643  0.2576
 2069SOL    HW117666   2.120   4.563   5.770  1.2684 -0.1900  0.0725
 2069SOL    HW217667   2.248   4.596   5.845  0.4380  0.9439 -2.2561
 2070SOL     OW17668   0.773   4.203   1.925 -0.5928 -0.1312 -0.1250
 2070SOL    HW117669   0.695   4.256   1.911 -0.5287 -0.1163 -0.4340
 2070SOL    HW217670   0.827   4.228   1.850  0.4262  1.1365  1.0355
 2071SOL     OW17671   4.233   0.928   4.352  0.1265 -0.0856 -0.1730
 2071SOL    HW117672   4.267   1.017   4.342  0.3287 -0.0214  1.0709
 2071SOL    HW217673   4.220   0.906   4.260 -1.2307  0.2458 -0.0598
 2072SOL     OW17674   0.393   3.936   2.200 -0.0717 -0.4468  0.2643
 2072SOL    HW117675   0.353   3.953   2.115  0.8062  0.5408  0.0490
 2072SOL    HW217676   0.477   3.975   2.177 -0.1578  0.5577  1.6600
 2073SOL     OW17677   4.522   3.076   9.422  0.0321 -0.2728  0.2119
 2073SOL    HW117678   4.492   2.993   9.460  0.3528 -0.2711  0.4702
 2073SOL    HW217679   4.488   3.068   9.333 -0.4210 -1.1879  0.4627
 2074SOL     OW17680   1.208   2.141  11.926 -0.0870  0.1956  0.2733
 2074SOL    HW117681   1.180   2.112  11.839 -0.8702 -1.6376  1.1211
 2074SOL    HW217682   1.278   2.078  11.945 -0.4019 -0.2445 -0.0144
 2075SOL     OW17683   0.877   1.610   7.996  0.2873 -0.0693 -0.2552
 2075SOL    HW117684   0.815   1.678   7.972 -0.8748 -0.9383  0.3140
 2075SOL    HW217685   0.825   1.534   7.972 -0.0530  0.4996 -1.2766
 2076SOL     OW17686   1.221   3.369   0.147  0.1597 -0.0273  0.2752
 2076SOL    HW117687   1.241   3.421   0.224 -3.2763  1.3027  0.2851
 2076SOL    HW217688   1.156   3.312   0.189  1.7660 -0.5404  2.0650
 2077SOL     OW17689   0.932   2.375   6.054  0.8423 -0.6752  0.2526
 2077SOL    HW117690   0.905   2.401   6.142 -2.8549  0.3445 -1.1781
 2077SOL    HW217691   0.877   2.300   6.031 -1.4048  1.1088 -0.2604
 2078SOL     OW17692   2.906   1.192  11.783  0.1630 -0.5281 -0.4784
 2078SOL    HW117693   2.964   1.215  11.710  1.7887 -0.2453  0.9112
 2078SOL    HW217694   2.922   1.097  11.782 -1.2494 -0.7730  2.4014
 2079SOL     OW17695   0.609   0.950  10.403  0.4439 -0.5736  0.2060
 2079SOL    HW117696   0.638   0.889  10.471 -1.1467 -1.3107  0.2248
 2079SOL    HW217697   0.555   1.012  10.451  0.9261  0.5571 -0.7132
 2080SOL     OW17698   0.537   1.513   2.330 -0.1167  0.1772 -0.2057
 2080SOL    HW117699   0.495   1.446   2.275  0.0722 -1.0059  1.1071
 2080SOL    HW217700   0.492   1.592   2.302 -0.0219 -0.4580 -2.2101
 2081SOL     OW17701   3.441   3.220   4.871  0.0029 -0.0106 -0.5114
 2081SOL    HW117702   3.399   3.155   4.815  0.1712 -1.5566  1.1420
 2081SOL    HW217703   3.520   3.236   4.821  0.2664 -0.6902 -0.3190
 2082SOL     OW17704   2.477   1.912  10.105  0.0476 -0.0055 -0.1523
 2082SOL    HW117705   2.399   1.880  10.150  0.2574  1.1717  1.0341
 2082SOL    HW217706   2.470   1.866  10.020 -1.6931 -1.1174  0.5996
 2083SOL     OW17707   4.611   3.594   6.991  0.0241 -0.5059  0.7693
 2083SOL    HW117708   4.686   3.653   6.989 -0.5546  0.2259  0.3935
 2083SOL    HW217709   4.575   3.610   7.079 -0.5224  1.5470  0.1574
 2084SOL     OW17710   1.568   2.840   7.944 -0.1949  0.1154 -0.7058
 2084SOL    HW117711   1.487   2.888   7.960 -0.2044  1.0559 -3.5098
 2084SOL    HW217712   1.587   2.869   7.855 -1.4597  1.3495 -0.5667
 2085SOL     OW17713   1.920   2.496   2.064  0.0916 -0.1329  0.0466
 2085SOL    HW117714   1.881   2.579   2.090  1.6737  0.4181  0.6355
 2085SOL    HW217715   1.988   2.497   2.132  1.2785 -1.4522 -1.1196
 2086SOL     OW17716   1.885   3.194   7.234  0.4546  0.3415 -0.0955
 2086SOL    HW117717   1.917   3.129   7.297  2.7307  0.0055 -1.5622
 2086SOL    HW217718   1.809   3.152   7.193  1.9623 -0.0076 -2.5843
 2087SOL     OW17719   3.201   2.977  16.051 -0.8935  0.2115 -0.1626
 2087SOL    HW117720   3.290   2.956  16.024 -1.3434 -0.7723 -0.8558
 2087SOL    HW217721   3.191   3.055  15.996  1.8035  3.1942  3.6022
 2088SOL     OW17722   1.991   2.679   2.557  0.2709 -1.0742  0.1041
 2088SOL    HW117723   1.967   2.587   2.566 -2.4161 -0.4686 -0.8959
 2088SOL    HW217724   1.900   2.706   2.547  1.1708  1.4269 -1.3413
 2089SOL     OW17725   0.202   1.748   4.063  0.0815  0.0055  0.1433
 2089SOL    HW117726   0.174   1.826   4.112 -1.8156  1.5931 -3.4179
 2089SOL    HW217727   0.212   1.777   3.972  0.3643 -0.7036 -0.0474
 2090SOL     OW17728   2.756   3.785   9.623  0.1064  0.5485 -0.1152
 2090SOL    HW117729   2.678   3.822   9.582 -0.9672 -0.1701  1.2967
 2090SOL    HW217730   2.722   3.767   9.710 -1.7576  0.8347 -0.7983
 2091SOL     OW17731   2.409   0.601   7.373  0.3150 -0.2828  0.1271
 2091SOL    HW117732   2.502   0.581   7.371  0.7157  1.7468 -1.6771
 2091SOL    HW217733   2.417   0.689   7.336 -2.6212 -1.0859 -2.4299
 2092SOL     OW17734   4.635   3.173  15.514  0.2990 -0.7918 -0.2885
 2092SOL    HW117735   0.001   3.146  15.489  0.0310 -0.5068 -1.5847
 2092SOL    HW217736   4.628   3.263  15.481  0.7635 -0.9433 -0.7985
 2093SOL     OW17737   2.714   0.199   2.090 -0.0453  0.3198 -0.0190
 2093SOL    HW117738   2.689   0.288   2.065  1.2981  0.1744 -1.8649
 2093SOL    HW217739   2.807   0.201   2.068  0.5945 -0.7931  2.5568
 2094SOL     OW17740   2.227   0.298   6.326  0.1327  0.0138 -0.1190
 2094SOL    HW117741   2.171   0.221   6.336 -0.8112  0.6797 -0.2750
 2094SOL    HW217742   2.170   0.364   6.365 -1.0601 -2.5013  2.3627
 2095SOL     OW17743   3.137   1.419   3.729 -0.6752 -0.3583  0.2291
 2095SOL    HW117744   3.192   1.471   3.671  1.1708 -3.5669 -0.8767
 2095SOL    HW217745   3.063   1.478   3.744 -0.0734  0.4951 -0.1602
 2096SOL     OW17746   4.689   1.138   6.782  0.7076  0.1511 -0.8117
 2096SOL    HW117747   0.029   1.211   6.787  1.8518 -0.7758 -1.6699
 2096SOL    HW217748   0.009   1.072   6.837  1.4962 -0.2345 -1.8963
 2097SOL     OW17749   1.184   3.606   6.611  0.3313  0.0817 -0.2008
 2097SOL    HW117750   1.261   3.613   6.667 -1.5599  1.3056  2.2911
 2097SOL    HW217751   1.162   3.515   6.628  0.8061  0.3879  2.0381
 2098SOL     OW17752   2.903   4.220   9.094 -0.1021  0.0245  0.2712
 2098SOL    HW117753   2.943   4.299   9.131  3.5030 -1.6014 -0.1689
 2098SOL    HW217754   2.819   4.263   9.078  1.5022  2.7551 -0.7577
 2099SOL     OW17755   2.758   4.498   7.357  0.2771 -0.0825  0.5561
 2099SOL    HW117756   2.830   4.498   7.294  0.2600 -1.5512  0.5308
 2099SOL    HW217757   2.746   4.406   7.382 -0.9222 -0.5232 -1.6337
 2100SOL     OW17758   2.496   4.106   8.470  0.1463 -0.2524  0.1759
 2100SOL    HW117759   2.479   4.198   8.450  1.2350  0.0591  0.6652
 2100SOL    HW217760   2.485   4.074   8.381 -1.8838  0.1032  0.2994
 2101SOL     OW17761   1.780   4.611   8.710 -0.0641  0.4260  0.2834
 2101SOL    HW117762   1.705   4.665   8.685 -0.0116  0.5108  0.3091
 2101SOL    HW217763   1.849   4.621   8.644 -0.5821  0.2060 -0.2867
 2102SOL     OW17764   1.815   4.706   8.225 -0.2253 -0.3671 -0.5786
 2102SOL    HW117765   1.762   0.056   8.192 -0.5655 -0.3507  0.0018
 2102SOL    HW217766   1.881   4.692   8.157 -0.3894 -0.1085 -0.7926
 2103SOL     OW17767   2.821   1.669  12.721 -0.6173 -0.5244  0.2652
 2103SOL    HW117768   2.768   1.596  12.690 -0.5936 -0.3856 -0.0952
 2103SOL    HW217769   2.807   1.726  12.646  4.8320 -0.0608 -0.3991
 2104SOL     OW17770   0.707   2.175   2.311  0.3957 -0.1721  0.2478
 2104SOL    HW117771   0.696   2.264   2.277  1.5521 -0.8085 -1.7883
 2104SOL    HW217772   0.661   2.182   2.394  0.8323 -0.9318  0.5474
 2105SOL     OW17773   1.139   4.720   3.407 -0.0049  0.2418  0.0556
 2105SOL    HW117774   1.108   0.066   3.466 -0.3144  1.2899 -1.3039
 2105SOL    HW217775   1.220   4.688   3.447  0.2485  0.3233 -0.3873
 2106SOL     OW17776   2.942   2.457   4.436  0.6486 -0.0840  0.0872
 2106SOL    HW117777   2.945   2.367   4.469 -1.4058 -0.0791  0.2597
 2106SOL    HW217778   2.908   2.485   4.521  0.4110 -0.9017  0.2580
 2107SOL     OW17779   1.732   2.373   4.057 -0.8887  0.5457  0.9116
 2107SOL    HW117780   1.714   2.306   3.991 -1.0982  0.3819  1.1338
 2107SOL    HW217781   1.721   2.452   4.003  1.7292  0.4796  0.3134
 2108SOL     OW17782   3.589   4.022   3.749 -0.3730 -0.2071 -0.2254
 2108SOL    HW117783   3.551   4.027   3.662  0.1771 -0.4575 -0.4806
 2108SOL    HW217784   3.620   3.931   3.745  0.5879  0.1086 -0.0116
 2109SOL     OW17785   3.541   3.295   8.635 -0.3406  0.0742  0.0388
 2109SOL    HW117786   3.541   3.386   8.608 -0.1463  0.9362  3.0110
 2109SOL    HW217787   3.479   3.300   8.707 -1.0031 -1.5960 -0.4047
 2110SOL     OW17788   1.659   0.995   0.420 -0.1328  0.3291 -0.0394
 2110SOL    HW117789   1.661   0.899   0.423  2.6239  0.3988  1.1466
 2110SOL    HW217790   1.565   1.009   0.408  0.5158  1.0691 -4.1063
 2111SOL     OW17791   0.539   1.105   6.830 -0.4659 -0.3577 -0.4639
 2111SOL    HW117792   0.525   1.091   6.737  1.5061 -0.6857 -0.7082
 2111SOL    HW217793   0.507   1.196   6.834  1.8316  0.2898  4.0219
 2112SOL     OW17794   0.498   1.255   8.218 -1.0090 -0.1533  0.7402
 2112SOL    HW117795   0.505   1.329   8.279  1.6732  0.5586 -0.4240
 2112SOL    HW217796   0.435   1.285   8.153 -0.4972 -1.2649 -0.2736
 2113SOL     OW17797   4.605   1.878   4.023 -0.6495  0.4012 -0.1418
 2113SOL    HW117798   4.512   1.892   4.040 -0.4414  0.6394  0.7723
 2113SOL    HW217799   4.632   1.793   4.058  0.6097  1.6758  1.9228
 2114SOL     OW17800   4.497   1.065   3.824 -0.5446  0.3728 -0.2303
 2114SOL    HW117801   4.475   1.035   3.736 -1.0258  0.6045 -0.1909
 2114SOL    HW217802   4.406   1.072   3.854 -1.3102 -1.1133 -2.1369
 2115SOL     OW17803   0.592   0.291  16.620 -0.6935 -0.0721 -0.4359
 2115SOL    HW117804   0.562   0.202  16.604 -1.0138  0.1753 -1.1624
 2115SOL    HW217805   0.599   0.270  16.714  3.1571 -0.7377 -0.8702
 2116SOL     OW17806   0.119   1.275  10.350 -0.4877  0.6498 -0.0152
 2116SOL    HW117807   0.088   1.207  10.290  0.0221  0.4211 -0.0152
 2116SOL    HW217808   0.051   1.337  10.324 -0.9535  0.8527  1.6577
 2117SOL     OW17809   0.736   2.682  17.511  0.2674  0.4935 -0.0093
 2117SOL    HW117810   0.677   2.709  17.441 -0.5070  0.3457  0.5830
 2117SOL    HW217811   0.670   2.655  17.575  0.3613  1.6425  0.5732
 2118SOL     OW17812   1.862   0.861   5.481  0.7847 -0.3141  0.5004
 2118SOL    HW117813   1.850   0.943   5.529 -0.7260 -1.4148  1.9932
 2118SOL    HW217814   1.774   0.831   5.463  0.2418  0.1099  2.4247
 2119SOL     OW17815   2.770   2.155   9.347 -0.8461 -0.1522 -0.3445
 2119SOL    HW117816   2.702   2.200   9.398  1.2300  0.8260  1.5520
 2119SOL    HW217817   2.736   2.068   9.370  0.0246 -0.7376 -1.2830
 2120SOL     OW17818   4.446   3.840   1.578 -0.0036  0.4661  0.3610
 2120SOL    HW117819   4.436   3.921   1.628  0.5894 -0.2546  1.6405
 2120SOL    HW217820   4.541   3.844   1.563 -0.0000 -1.3025 -0.0097
 2121SOL     OW17821   1.409   0.081   4.887  0.8362 -0.3543  0.0566
 2121SOL    HW117822   1.316   0.094   4.907  1.8253  1.9582  3.0701
 2121SOL    HW217823   1.419   4.709   4.905 -1.6941 -0.0603  3.1271
 2122SOL     OW17824   3.209   0.462  13.311 -0.0641 -0.2375 -0.0797
 2122SOL    HW117825   3.173   0.548  13.332 -1.7786 -0.7447 -0.9507
 2122SOL    HW217826   3.190   0.414  13.391 -1.3670  0.0736 -0.2063
 2123SOL     OW17827   3.689   2.137   7.409  0.0868  0.8500  0.6729
 2123SOL    HW117828   3.645   2.122   7.325  1.2117 -1.2387  0.4452
 2123SOL    HW217829   3.690   2.232   7.407 -1.3941  0.8140 -1.4323
 2124SOL     OW17830   3.602   0.377   8.877  0.3540 -0.2382 -0.2535
 2124SOL    HW117831   3.565   0.462   8.901 -0.1821 -1.0234  1.7717
 2124SOL    HW217832   3.692   0.386   8.908  0.5661  0.6743 -1.1424
 2125SOL     OW17833   1.524   4.317   6.874  0.5004 -0.4740 -0.1426
 2125SOL    HW117834   1.539   4.247   6.938 -0.2602  1.9572  2.7067
 2125SOL    HW217835   1.430   4.333   6.883  0.4603  0.4296 -2.2276
 2126SOL     OW17836   1.205   4.488   8.668 -0.1902  0.2201 -0.4804
 2126SOL    HW117837   1.225   4.431   8.743 -2.0650  0.8150  0.4643
 2126SOL    HW217838   1.114   4.509   8.688 -0.0822  1.1797 -1.0187
 2127SOL     OW17839   4.506   3.664   7.251 -0.0550 -0.2497 -0.6947
 2127SOL    HW117840   4.439   3.628   7.309  1.2044 -0.9857  0.3047
 2127SOL    HW217841   4.463   3.745   7.225 -2.0142 -1.5106 -1.3840
 2128SOL     OW17842   2.483   2.633   5.086 -0.2312 -0.0305 -0.4309
 2128SOL    HW117843   2.464   2.594   5.171  2.3350  1.7575  0.9653
 2128SOL    HW217844   2.511   2.722   5.106  0.6851 -0.8219  1.7791
 2129SOL     OW17845   3.715   2.245  15.058  0.0966  0.0700  0.1309
 2129SOL    HW117846   3.789   2.186  15.043  0.7056  0.8390  0.1195
 2129SOL    HW217847   3.642   2.185  15.046  0.6200  0.0169 -2.8616
 2130SOL     OW17848   2.064   1.714   8.508 -0.4021 -0.1888 -0.4137
 2130SOL    HW117849   2.034   1.803   8.525 -2.2122 -0.7072 -0.8503
 2130SOL    HW217850   2.157   1.728   8.492 -0.4332 -0.1539 -0.5693
 2131SOL     OW17851   0.737   0.909  13.637  0.0873  0.0398 -0.6688
 2131SOL    HW117852   0.656   0.859  13.638  0.5526 -0.7317 -1.2030
 2131SOL    HW217853   0.755   0.903  13.543  2.7468  0.3577 -0.1997
 2132SOL     OW17854   0.185   1.842   5.842 -0.2408 -0.1387  0.2701
 2132SOL    HW117855   0.235   1.779   5.893 -0.0683  1.3132  1.8870
 2132SOL    HW217856   0.175   1.804   5.754  0.2987 -1.1266  0.6327
 2133SOL     OW17857   1.675   0.876   1.738  0.5464  0.3697  0.6102
 2133SOL    HW117858   1.767   0.848   1.735  1.1644  2.1359  2.6970
 2133SOL    HW217859   1.640   0.800   1.784  0.6051  1.0140  1.7173
 2134SOL     OW17860   0.496   2.344   4.394  0.1812  0.1295  0.1113
 2134SOL    HW117861   0.415   2.353   4.444 -0.8381 -0.8199 -1.3237
 2134SOL    HW217862   0.462   2.294   4.319 -0.4247  0.6378  0.0488
 2135SOL     OW17863   3.933   3.227  13.127  0.2635 -0.3593  0.0791
 2135SOL    HW117864   3.979   3.151  13.164  1.6688 -0.0567 -1.0522
 2135SOL    HW217865   3.947   3.205  13.035 -0.2338  1.2346 -0.3668
 2136SOL     OW17866   4.141   2.804  10.595 -0.0778 -0.2639  0.5005
 2136SOL    HW117867   4.184   2.883  10.628 -1.8154  1.2248 -0.7795
 2136SOL    HW217868   4.219   2.761  10.560  0.7919  1.5303  0.2302
 2137SOL     OW17869   1.133   3.306   8.818 -0.1673 -0.1275  0.1108
 2137SOL    HW117870   1.210   3.360   8.801 -0.8194  0.7386 -0.1133
 2137SOL    HW217871   1.131   3.281   8.726 -1.1500 -2.2925  0.7206
 2138SOL     OW17872   3.349   3.581  13.018 -0.2588 -0.1119  0.2738
 2138SOL    HW117873   3.282   3.614  13.078 -0.9962 -1.4265  0.1792
 2138SOL    HW217874   3.423   3.554  13.074  1.1886  0.1359 -1.5235
 2139SOL     OW17875   4.242   2.687   2.466  0.0021  0.2713  0.6137
 2139SOL    HW117876   4.201   2.751   2.524 -1.1586  0.8948 -0.9142
 2139SOL    HW217877   4.181   2.687   2.393  1.5420  0.8662 -0.6663
 2140SOL     OW17878   2.219   0.835   3.528 -0.2487 -0.8201  0.2544
 2140SOL    HW117879   2.200   0.856   3.620  0.2354 -0.4165  0.2628
 2140SOL    HW217880   2.178   0.911   3.487  1.9681  0.2575  0.0067
 2141SOL     OW17881   1.062   3.371  15.436  0.1511 -0.4217 -0.4565
 2141SOL    HW117882   1.057   3.288  15.389  2.2872 -1.3132  0.9038
 2141SOL    HW217883   1.095   3.433  15.371  0.5023 -1.3262 -1.1304
 2142SOL     OW17884   3.750   3.110   1.602  0.4437  0.3451 -0.3951
 2142SOL    HW117885   3.789   3.194   1.627 -3.2704  1.4983  1.4860
 2142SOL    HW217886   3.665   3.134   1.564  0.1169 -0.5058 -0.1850
 2143SOL     OW17887   2.502   3.694   7.218  0.6527  0.1549  0.3828
 2143SOL    HW117888   2.435   3.762   7.230  0.4407  0.1914 -1.0387
 2143SOL    HW217889   2.558   3.741   7.156  0.0382 -1.6500 -1.5308
 2144SOL     OW17890   2.803   0.317   8.512  0.2025 -0.2501  0.3889
 2144SOL    HW117891   2.867   0.379   8.547 -0.2919  0.5658 -0.1483
 2144SOL    HW217892   2.773   0.270   8.590 -0.7005  0.4881  0.4925
 2145SOL     OW17893   4.336   0.509   5.989 -0.1387  0.1791  0.4945
 2145SOL    HW117894   4.297   0.532   6.074  0.6030  0.8108  0.6732
 2145SOL    HW217895   4.297   0.590   5.953 -0.0731 -0.2509 -0.5442
 2146SOL     OW17896   0.475   1.557  15.174 -0.6407  0.6253  0.7195
 2146SOL    HW117897   0.431   1.482  15.214 -1.4544  0.6396 -0.1509
 2146SOL    HW217898   0.564   1.550  15.208 -0.1251  0.3573 -0.6847
 2147SOL     OW17899   1.157   0.446   8.746  0.2399 -0.2060 -0.0634
 2147SOL    HW117900   1.214   0.375   8.716 -0.1166 -0.0207 -1.1769
 2147SOL    HW217901   1.076   0.395   8.738  0.4766 -0.2110 -2.4657
 2148SOL     OW17902   4.319   2.810   3.628 -0.0950  0.0056 -0.4008
 2148SOL    HW117903   4.297   2.748   3.698 -1.0762  0.5136 -0.2666
 2148SOL    HW217904   4.260   2.884   3.640 -1.0507 -0.3521 -2.9707
 2149SOL     OW17905   1.055   4.576   8.950 -0.0874  0.3462  0.1611
 2149SOL    HW117906   1.133   4.520   8.957 -1.0326 -0.6395  2.7759
 2149SOL    HW217907   0.993   4.517   8.994 -1.3021  2.0218  0.6741
 2150SOL     OW17908   2.594   3.258  12.627 -0.8032  0.4421  0.4070
 2150SOL    HW117909   2.610   3.167  12.654  0.8606  0.2100 -1.3569
 2150SOL    HW217910   2.685   3.289  12.628 -0.3661 -0.7626 -1.7404
 2151SOL     OW17911   1.801   0.742   2.402 -0.4099 -0.2274  0.0514
 2151SOL    HW117912   1.848   0.823   2.386  0.5636 -0.9655 -0.8185
 2151SOL    HW217913   1.870   0.678   2.421  1.2919  2.3158  2.3533
 2152SOL     OW17914   2.918   3.706   6.790 -0.1528  0.3291 -0.2455
 2152SOL    HW117915   2.878   3.645   6.727 -1.7313  1.4640 -0.3317
 2152SOL    HW217916   3.001   3.730   6.750 -0.7767  0.7518 -1.3052
 2153SOL     OW17917   4.499   2.730   6.585 -0.2063 -0.9806 -0.0095
 2153SOL    HW117918   4.426   2.684   6.627  1.5291 -1.5775  2.3577
 2153SOL    HW217919   4.478   2.814   6.625  0.2275 -0.5608 -0.6702
 2154SOL     OW17920   3.128   4.324   4.106 -0.4624 -0.2627  0.2282
 2154SOL    HW117921   3.199   4.387   4.093  0.9655 -2.0546 -0.7162
 2154SOL    HW217922   3.116   4.301   4.013 -2.1987  2.2362 -0.1634
 2155SOL     OW17923   0.445   2.695   8.345  0.6423  0.6855  0.1285
 2155SOL    HW117924   0.474   2.785   8.333  1.6076  0.3248 -0.2276
 2155SOL    HW217925   0.458   2.687   8.439 -1.8801 -0.4624  0.4033
 2156SOL     OW17926   4.693   4.368   1.114  0.2635  0.4718  0.0691
 2156SOL    HW117927   0.014   4.314   1.048 -3.3750 -1.1827 -0.9735
 2156SOL    HW217928   4.601   4.341   1.106  0.0894  1.4320 -1.1985
 2157SOL     OW17929   0.314   4.338   7.165 -0.4732  0.4839  0.1283
 2157SOL    HW117930   0.221   4.358   7.171 -0.3710  0.6517  1.2051
 2157SOL    HW217931   0.350   4.403   7.225  0.9360  0.3730 -0.5914
 2158SOL     OW17932   2.907   3.177   2.302  0.2325 -0.3756 -0.0366
 2158SOL    HW117933   2.859   3.211   2.377  3.6421  3.5244  0.3644
 2158SOL    HW217934   2.950   3.105   2.348  2.4062  0.0847 -1.3357
 2159SOL     OW17935   0.876   4.616   4.840  0.1903  0.1250 -0.0160
 2159SOL    HW117936   0.842   4.685   4.782 -1.1627 -0.2416  0.3519
 2159SOL    HW217937   0.908   4.674   4.909 -2.3699 -0.5328  1.7256
 2160SOL     OW17938   0.132   0.245   8.268  0.4987  0.3382 -0.4457
 2160SOL    HW117939   0.171   0.332   8.259  0.5974  0.2269 -1.1463
 2160SOL    HW217940   0.084   0.232   8.186  2.0084  0.0069 -1.2838
 2161SOL     OW17941   4.295   1.018   0.144 -0.3498 -0.2676  0.2379
 2161SOL    HW117942   4.250   1.097   0.116  2.0435  1.6461  1.6946
 2161SOL    HW217943   4.385   1.048   0.133 -1.2908  2.3969 -0.1160
 2162SOL     OW17944   0.357   1.743   9.369 -0.1877 -0.2576  0.3470
 2162SOL    HW117945   0.444   1.766   9.402  1.8189 -1.5503 -4.1017
 2162SOL    HW217946   0.369   1.651   9.347  1.1159 -0.3012  1.2522
 2163SOL     OW17947   2.465   1.947   6.278  0.4947 -1.1582  0.4439
 2163SOL    HW117948   2.377   1.913   6.265  0.7736 -0.7736 -2.5263
 2163SOL    HW217949   2.517   1.887   6.225  0.4799 -0.8584  0.0856
 2164SOL     OW17950   3.186   0.124   5.692 -0.8384 -0.4163 -0.1515
 2164SOL    HW117951   3.249   0.087   5.631  0.8565  1.6685  0.3311
 2164SOL    HW217952   3.240   0.143   5.769  0.3950  0.4404 -1.2277
 2165SOL     OW17953   1.191   0.025  16.078  0.0918 -0.2618  0.1292
 2165SOL    HW117954   1.150   4.677  16.128 -0.0258 -0.2628  0.0318
 2165SOL    HW217955   1.160   0.108  16.115 -1.3375 -0.6139 -0.2540
 2166SOL     OW17956   4.647   3.095   6.535  0.0087 -0.5039 -0.5676
 2166SOL    HW117957   4.573   3.056   6.582  1.9476 -2.2129  1.0658
 2166SOL    HW217958   4.613   3.081   6.447 -0.8273 -1.3788 -0.1040
 2167SOL     OW17959   2.875   3.989   5.811  0.1512 -0.0669  0.7898
 2167SOL    HW117960   2.886   4.022   5.900  2.4162  0.0326  0.4650
 2167SOL    HW217961   2.956   3.938   5.807 -1.7299 -3.1816  2.5399
 2168SOL     OW17962   4.622   0.494   1.908 -0.3808 -0.4880  0.4458
 2168SOL    HW117963   4.530   0.480   1.887 -1.1014  1.2777  2.3741
 2168SOL    HW217964   4.637   0.401   1.895  1.2532 -0.2451  0.5220
 2169SOL     OW17965   1.879   3.237   5.657  0.3716  0.0502 -0.0926
 2169SOL    HW117966   1.826   3.315   5.641  1.7373  0.6244 -1.7078
 2169SOL    HW217967   1.873   3.197   5.571  3.8054 -2.0379  0.6503
 2170SOL     OW17968   3.202   2.072  15.001 -0.0632 -0.1451  0.3509
 2170SOL    HW117969   3.218   1.999  15.060 -0.1143 -1.0963 -0.8207
 2170SOL    HW217970   3.164   2.131  15.066 -1.8413 -1.1957  0.2531
 2171SOL     OW17971   1.923   4.036  12.486 -0.4432 -0.2735 -0.1676
 2171SOL    HW117972   1.931   3.941  12.476  1.3079  0.0826 -2.2872
 2171SOL    HW217973   1.834   4.055  12.459 -0.3740  1.1071  0.5611
 2172SOL     OW17974   1.324   4.433   1.569 -0.1301  0.5890 -0.0519
 2172SOL    HW117975   1.326   4.474   1.482  0.9893  1.4811  0.3886
 2172SOL    HW217976   1.230   4.434   1.581  0.2779 -0.8166  3.2218
 2173SOL     OW17977   0.530   4.129  15.552  0.0640 -0.0133 -0.2022
 2173SOL    HW117978   0.578   4.208  15.575  0.7321 -0.4459 -0.1277
 2173SOL    HW217979   0.529   4.086  15.637  1.8807  0.5939  0.1252
 2174SOL     OW17980   2.877   0.756   9.919 -0.3301 -0.0581 -0.5673
 2174SOL    HW117981   2.966   0.724   9.936 -0.1228  1.3864  1.0744
 2174SOL    HW217982   2.829   0.679   9.952  0.1080 -0.4926 -0.9462
 2175SOL     OW17983   1.535   0.258   8.421 -0.4373 -0.8677 -0.2851
 2175SOL    HW117984   1.630   0.269   8.425 -0.5065  0.6392 -3.0610
 2175SOL    HW217985   1.504   0.325   8.361  0.0003  0.8269  1.3838
 2176SOL     OW17986   0.086   1.513  11.486  0.0310 -0.2820  0.9034
 2176SOL    HW117987   0.035   1.448  11.438  0.3384 -1.0586  1.6302
 2176SOL    HW217988   0.025   1.585  11.501  0.5150 -0.0015  1.5365
 2177SOL     OW17989   2.609   4.633   1.176 -0.4221  0.1373 -0.2546
 2177SOL    HW117990   2.599   4.598   1.264 -0.3001  1.5769  0.3407
 2177SOL    HW217991   2.654   4.560   1.134 -1.5841 -0.7217  0.0027
 2178SOL     OW17992   4.704   2.783   9.036 -0.1269  0.0122  0.2245
 2178SOL    HW117993   4.652   2.702   9.031  2.7599 -1.9128  1.5181
 2178SOL    HW217994   0.008   2.773   9.127  0.5352 -0.4166 -0.0079
 2179SOL     OW17995   1.611   1.545   8.766  0.1190  0.5540  0.0007
 2179SOL    HW117996   1.651   1.515   8.848 -2.2158  1.7516  1.5924
 2179SOL    HW217997   1.552   1.470   8.756  1.1812 -0.3081  0.1170
 2180SOL     OW17998   4.283   4.218  10.303  0.6757 -0.2824 -0.3396
 2180SOL    HW117999   4.216   4.159  10.269 -1.3133  2.3591 -0.9341
 2180SOL    HW218000   4.262   4.219  10.397  0.9798  0.5161 -0.2798
 2181SOL     OW18001   2.498   0.093   6.412  0.8247  0.1341  0.0374
 2181SOL    HW118002   2.491   0.004   6.379  0.9801  0.9960 -2.3319
 2181SOL    HW218003   2.445   0.148   6.355  2.5119  0.4895 -1.2085
 2182SOL     OW18004   1.889   0.197   6.187  0.1690  0.0121  0.1448
 2182SOL    HW118005   1.815   0.235   6.234 -0.0657  0.7728 -0.8321
 2182SOL    HW218006   1.940   0.149   6.252  0.7566 -0.5927 -0.7644
 2183SOL     OW18007   4.061   1.904   3.860  0.3125  0.7849 -0.0725
 2183SOL    HW118008   3.994   1.893   3.792  0.8025 -1.1383 -0.2405
 2183SOL    HW218009   4.141   1.874   3.817 -0.3118 -0.6896 -0.2402
 2184SOL     OW18010   2.215   1.580   2.198  0.1299 -0.4628  0.8501
 2184SOL    HW118011   2.223   1.524   2.121 -1.8730  1.0017 -0.4369
 2184SOL    HW218012   2.121   1.599   2.194 -0.1515 -1.9176  0.5079
 2185SOL     OW18013   2.803   1.634   8.911  0.5006 -0.1103  0.8113
 2185SOL    HW118014   2.872   1.579   8.873  0.1492  1.7126 -2.3726
 2185SOL    HW218015   2.855   1.647   8.991  0.7238  1.6437  0.3755
 2186SOL     OW18016   4.079   1.251   1.738 -0.6398  0.1354 -0.4607
 2186SOL    HW118017   4.075   1.343   1.764 -0.6359  0.3922 -1.3742
 2186SOL    HW218018   4.162   1.257   1.689 -1.2411  0.0251 -1.4930
 2187SOL     OW18019   3.841   4.304   2.202 -0.0414  0.4015 -0.2735
 2187SOL    HW118020   3.923   4.352   2.216 -0.7544  1.4124  0.4461
 2187SOL    HW218021   3.785   4.381   2.198  1.6737  1.8580  3.4067
 2188SOL     OW18022   0.844   3.735  12.664 -0.0184 -0.3479  0.2050
 2188SOL    HW118023   0.904   3.663  12.685  1.4320  0.4174 -1.3621
 2188SOL    HW218024   0.900   3.792  12.611 -0.6683 -1.6976 -1.9792
 2189SOL     OW18025   2.187   4.336   5.584  0.0307  0.3520  0.3817
 2189SOL    HW118026   2.120   4.309   5.646  0.8882  0.3886  1.3223
 2189SOL    HW218027   2.226   4.251   5.566  0.2605  0.2752  1.2207
 2190SOL     OW18028   0.459   1.230  12.196 -0.3265  0.7972 -0.4822
 2190SOL    HW118029   0.417   1.147  12.171 -1.5898  1.1506  0.5279
 2190SOL    HW218030   0.495   1.245  12.108  1.3053 -1.5854 -0.2499
 2191SOL     OW18031   0.192   2.757   1.161 -0.6678  0.0765  0.1680
 2191SOL    HW118032   0.167   2.732   1.250  0.4971  0.3253  0.5565
 2191SOL    HW218033   0.174   2.851   1.157  2.5352  0.6896 -0.1058
 2192SOL     OW18034   1.092   0.317   1.841 -0.0161 -0.1335 -0.3394
 2192SOL    HW118035   1.131   0.401   1.862 -1.6550 -0.0342  2.2519
 2192SOL    HW218036   1.018   0.340   1.784 -1.9116 -0.7000  1.8836
 2193SOL     OW18037   4.348   3.434   4.305 -0.7132  0.1603  0.0179
 2193SOL    HW118038   4.288   3.411   4.377 -1.1140 -0.2274 -0.4414
 2193SOL    HW218039   4.434   3.422   4.344  0.2096 -1.7763 -2.7093
 2194SOL     OW18040   2.249   3.568   3.181 -0.2106  0.0360  0.3693
 2194SOL    HW118041   2.237   3.538   3.091 -0.2467 -1.3697  0.8505
 2194SOL    HW218042   2.334   3.542   3.215  0.7310 -0.9785 -2.8052
 2195SOL     OW18043   0.996   2.992   6.695  0.3680 -0.5601  0.7331
 2195SOL    HW118044   1.086   2.967   6.715  0.9371  0.2622 -0.7902
 2195SOL    HW218045   1.004   3.004   6.600 -1.0749  0.0961  0.6923
 2196SOL     OW18046   0.757   2.783   0.654 -0.4522  0.5317  0.2215
 2196SOL    HW118047   0.738   2.761   0.563  1.2349 -2.2717  0.5783
 2196SOL    HW218048   0.769   2.878   0.654 -0.3139  0.5159  0.5522
 2197SOL     OW18049   0.355   2.535  11.807 -0.2928  0.1514 -0.2991
 2197SOL    HW118050   0.395   2.586  11.877 -0.0865  0.5066 -0.6815
 2197SOL    HW218051   0.430   2.491  11.768 -2.5191 -1.5735 -2.5928
 2198SOL     OW18052   4.647   2.015  12.915 -0.9841  0.0835  0.3653
 2198SOL    HW118053   4.567   2.064  12.935 -1.7497 -0.5684 -1.0657
 2198SOL    HW218054   4.617   1.961  12.842 -1.0282  0.0858  0.3818
 2199SOL     OW18055   4.332   2.138   7.494  0.3598 -0.5120 -0.6366
 2199SOL    HW118056   4.282   2.094   7.563  0.6919 -0.3725 -0.3049
 2199SOL    HW218057   4.282   2.127   7.413 -0.5412  2.0210 -0.4334
 2200SOL     OW18058   0.850   3.318   1.701 -0.9880 -0.0556 -0.1671
 2200SOL    HW118059   0.943   3.340   1.699 -0.8503 -0.5571  1.2153
 2200SOL    HW218060   0.813   3.407   1.696 -1.9039 -0.2743  2.6712
 2201SOL     OW18061   0.778   2.704   8.725 -0.4332 -0.0115  0.0300
 2201SOL    HW118062   0.712   2.638   8.703 -0.5110 -0.3177  1.1853
 2201SOL    HW218063   0.727   2.771   8.771 -0.4818  0.1932 -0.3245
 2202SOL     OW18064   2.454   0.087   5.515  0.1553  0.5578 -0.0492
 2202SOL    HW118065   2.420   0.005   5.550  0.3460 -0.0811 -1.3376
 2202SOL    HW218066   2.401   0.149   5.565 -0.6031 -1.8450  2.0773
 2203SOL     OW18067   0.347   1.509   7.378 -0.0593  0.1243 -0.0281
 2203SOL    HW118068   0.418   1.471   7.431  0.3487  0.4809 -0.3218
 2203SOL    HW218069   0.313   1.553   7.456  0.4142 -1.2718  0.9760
 2204SOL     OW18070   1.722   4.494  13.080 -0.8858  0.4834 -0.7527
 2204SOL    HW118071   1.655   4.540  13.130  0.7827  2.2188 -0.1025
 2204SOL    HW218072   1.740   4.533  12.994 -1.2511 -0.1399 -1.1122
 2205SOL     OW18073   4.069   3.647   6.844  0.6949  0.2134  0.0208
 2205SOL    HW118074   4.090   3.628   6.753  0.8603  2.1121 -0.3459
 2205SOL    HW218075   3.976   3.623   6.845  1.1117 -1.4682 -2.6664
 2206SOL     OW18076   1.665   1.173   6.952 -0.3355 -0.4074  0.1085
 2206SOL    HW118077   1.694   1.223   6.875 -2.1654  2.2554  1.1853
 2206SOL    HW218078   1.701   1.086   6.934 -1.6535 -0.9536  0.1262
 2207SOL     OW18079   2.313   0.316  16.623 -0.1498  0.1498  0.4723
 2207SOL    HW118080   2.395   0.283  16.586  0.8233  1.3949  1.5162
 2207SOL    HW218081   2.256   0.256  16.574  0.1107 -2.1854  3.0407
 2208SOL     OW18082   4.446   2.685  12.624  0.6007 -0.3087 -0.1684
 2208SOL    HW118083   4.534   2.653  12.602  0.7240 -0.4572  0.5332
 2208SOL    HW218084   4.483   2.755  12.677  1.2824  0.8743 -2.2175
 2209SOL     OW18085   3.511   3.945  15.286  0.0355  0.2982  0.2267
 2209SOL    HW118086   3.437   3.885  15.297 -0.1867  0.5192 -0.0392
 2209SOL    HW218087   3.497   4.007  15.358  1.5086  1.3391 -0.3965
 2210SOL     OW18088   2.337   1.755   9.570 -0.4754 -0.3074 -0.2193
 2210SOL    HW118089   2.292   1.671   9.557 -1.8733  0.2513  0.9635
 2210SOL    HW218090   2.266   1.819   9.567 -0.9158 -0.7225  1.5424
 2211SOL     OW18091   0.370   3.723   0.611 -0.5773 -0.2073 -0.4189
 2211SOL    HW118092   0.439   3.788   0.619  0.5773 -1.6021  1.1335
 2211SOL    HW218093   0.386   3.682   0.526  1.0038  1.0770 -0.7338
 2212SOL     OW18094   0.977   3.722   2.004 -0.1430  0.0073 -0.4191
 2212SOL    HW118095   0.903   3.781   2.019 -1.0213 -0.6449 -2.2770
 2212SOL    HW218096   1.026   3.732   2.086 -0.3853  1.0678 -0.4023
 2213SOL     OW18097   0.026   3.851  10.064  0.1590  0.5662 -0.0637
 2213SOL    HW118098   4.660   3.825  10.090  0.5224  1.6227  2.2967
 2213SOL    HW218099   0.077   3.814  10.136 -0.6705 -1.8618 -0.7496
 2214SOL     OW18100   1.708   0.392   6.278 -0.0569  0.4390 -0.5954
 2214SOL    HW118101   1.735   0.463   6.220  0.4687  0.4159 -0.3739
 2214SOL    HW218102   1.751   0.418   6.359  0.5753  1.9278 -1.4056
 2215SOL     OW18103   1.395   0.870   3.418 -0.3630 -0.3473  0.2207
 2215SOL    HW118104   1.365   0.917   3.341  0.7906  0.4759  0.2638
 2215SOL    HW218105   1.311   0.878   3.463 -0.1309  0.7330  0.4696
 2216SOL     OW18106   0.865   2.383   7.581 -0.2701 -0.3927  0.1262
 2216SOL    HW118107   0.938   2.350   7.529 -0.3932 -0.6496  0.1158
 2216SOL    HW218108   0.838   2.308   7.634  3.0394 -0.8749  1.1604
 2217SOL     OW18109   2.845   4.495  14.147  0.3643  0.0205 -0.1374
 2217SOL    HW118110   2.886   4.467  14.229  1.7535  0.9277 -0.5111
 2217SOL    HW218111   2.814   4.582  14.173  2.1188  1.1437 -1.7840
 2218SOL     OW18112   2.856   2.079   3.203 -0.1303 -0.0126 -0.1162
 2218SOL    HW118113   2.919   2.030   3.256 -0.0852  0.0654 -0.0987
 2218SOL    HW218114   2.774   2.039   3.235  0.6632 -0.4714  1.3494
 2219SOL     OW18115   1.847   2.209   7.488  0.7726 -0.0360  0.6131
 2219SOL    HW118116   1.752   2.216   7.479  0.3319 -0.5861  4.7099
 2219SOL    HW218117   1.871   2.234   7.399 -0.3950 -0.2520  0.2389
 2220SOL     OW18118   0.675   2.263   4.782  0.1604 -0.5617 -0.0254
 2220SOL    HW118119   0.645   2.192   4.838  2.5730 -0.5934  1.2352
 2220SOL    HW218120   0.688   2.222   4.697  1.3442  0.8442 -0.5273
 2221SOL     OW18121   0.768   0.942   5.495  0.7353  0.2894  0.3479
 2221SOL    HW118122   0.704   0.991   5.444 -0.8768  1.2813  3.3356
 2221SOL    HW218123   0.843   0.937   5.435 -1.5233 -0.2982 -2.3920
 2222SOL     OW18124   0.683   1.388   4.249 -0.0139 -0.0846  0.6261
 2222SOL    HW118125   0.689   1.460   4.312 -2.3306  0.3976  0.2895
 2222SOL    HW218126   0.746   1.325   4.285  0.6113 -0.8950 -1.8420
 2223SOL     OW18127   2.355   2.208   9.964  0.1796  0.4849 -1.0232
 2223SOL    HW118128   2.264   2.203   9.995  0.2932 -0.9819 -0.9372
 2223SOL    HW218129   2.406   2.183  10.040  0.7039 -2.3779 -2.3212
 2224SOL     OW18130   3.206   3.700   3.171 -0.0929 -0.2945  0.1443
 2224SOL    HW118131   3.141   3.761   3.136 -0.0081  0.4833  1.3189
 2224SOL    HW218132   3.272   3.684   3.104  0.9672 -0.7341  1.2824
 2225SOL     OW18133   2.937   4.046   3.531  0.7574  1.0512 -0.0714
 2225SOL    HW118134   2.902   3.963   3.499  0.1409  0.8992  1.0058
 2225SOL    HW218135   2.931   4.035   3.625 -0.7446 -0.2757 -0.3131
 2226SOL     OW18136   1.099   4.161   7.644 -0.2515 -0.4300 -0.1559
 2226SOL    HW118137   1.062   4.206   7.568  1.8653 -0.6409 -1.3066
 2226SOL    HW218138   1.053   4.077   7.648  0.0588 -0.5809  0.2625
 2227SOL     OW18139   0.322   3.450  12.508  0.2454 -0.0100 -0.6123
 2227SOL    HW118140   0.305   3.356  12.501  0.0973  0.0286 -0.7771
 2227SOL    HW218141   0.408   3.446  12.467  0.1104 -1.5948 -0.7552
 2228SOL     OW18142   4.385   4.493   3.470 -0.3776  0.1152  0.5184
 2228SOL    HW118143   4.392   4.411   3.420 -1.1819  1.5733 -2.0166
 2228SOL    HW218144   4.293   4.477   3.491  0.0151  0.5042  2.4791
 2229SOL     OW18145   2.103   3.920  10.227 -0.0275 -0.3076  1.0266
 2229SOL    HW118146   2.150   3.843  10.196  0.7957  0.5264  0.1945
 2229SOL    HW218147   2.167   3.975  10.272 -0.2087 -0.8939  1.9945
 2230SOL     OW18148   1.392   3.286   1.896 -0.5081  0.0008 -0.3819
 2230SOL    HW118149   1.353   3.244   1.820  0.6086 -2.2991  0.3287
 2230SOL    HW218150   1.328   3.350   1.928 -0.9267 -1.4171  1.6115
 2231SOL     OW18151   0.415   1.930   8.550  0.1350  0.1079 -0.3113
 2231SOL    HW118152   0.477   1.890   8.611 -1.4180  2.4378  2.7835
 2231SOL    HW218153   0.477   1.976   8.494  2.5358 -0.8856  1.4942
 2232SOL     OW18154   0.396   3.518   9.491  0.1673 -0.1626  0.1817
 2232SOL    HW118155   0.340   3.520   9.569  1.2578  0.4978  0.9568
 2232SOL    HW218156   0.453   3.593   9.510  2.1821 -1.7513  0.3814
 2233SOL     OW18157   4.514   1.790  13.776  0.7837 -0.1040 -0.1091
 2233SOL    HW118158   4.453   1.802  13.703 -0.9660  1.2513  1.5546
 2233SOL    HW218159   4.490   1.702  13.806  0.4868  0.1808  0.4881
 2234SOL     OW18160   3.549   3.516   9.856  0.2906 -0.1967 -0.3907
 2234SOL    HW118161   3.463   3.475   9.846  0.7045 -1.3646  0.7771
 2234SOL    HW218162   3.541   3.551   9.944 -0.4274 -0.5714 -0.3097
 2235SOL     OW18163   1.926   2.490  15.993  0.0645  0.1386  0.5809
 2235SOL    HW118164   1.839   2.514  15.959 -0.2223 -2.6118 -0.5973
 2235SOL    HW218165   1.901   2.481  16.085 -0.6139 -1.9393  0.1972
 2236SOL     OW18166   4.565   2.297  17.398 -0.1794  0.1225 -0.0104
 2236SOL    HW118167   4.556   2.310  17.492  0.3359 -4.5752  0.6794
 2236SOL    HW218168   4.614   2.216  17.385 -0.3119 -0.3233  2.3375
 2237SOL     OW18169   2.984   2.234   6.054  0.3569 -0.2425 -0.4214
 2237SOL    HW118170   2.917   2.248   5.987 -1.1365 -1.6974  0.7710
 2237SOL    HW218171   2.994   2.139   6.049  1.9361 -0.1354  1.0737
 2238SOL     OW18172   2.741   4.000   1.127 -0.8103 -0.3763 -0.3771
 2238SOL    HW118173   2.754   3.906   1.137 -0.5992 -0.2315  0.6763
 2238SOL    HW218174   2.805   4.027   1.062 -0.6884  0.7387  0.1972
 2239SOL     OW18175   1.086   4.252   1.416  0.0514  0.1979  0.1583
 2239SOL    HW118176   1.064   4.342   1.438 -0.6539  0.9160 -3.5719
 2239SOL    HW218177   1.120   4.232   1.503  0.7352  2.0069  0.3044
 2240SOL     OW18178   4.391   1.785   2.435 -0.5218  0.8522 -0.1483
 2240SOL    HW118179   4.471   1.743   2.402  0.3478  1.2682  1.4162
 2240SOL    HW218180   4.332   1.770   2.362 -0.7162 -0.8945  0.3763
 2241SOL     OW18181   0.366   3.234   4.739  0.1303  0.3539  0.1910
 2241SOL    HW118182   0.294   3.219   4.799  0.2795 -0.3667  0.1842
 2241SOL    HW218183   0.328   3.201   4.657  1.2192 -0.3992 -0.0162
 2242SOL     OW18184   1.980   0.109   0.117  0.1969  0.6093  0.3418
 2242SOL    HW118185   2.006   0.194   0.081  1.2416 -0.4605 -1.4758
 2242SOL    HW218186   2.063   0.068   0.092 -0.6103 -2.0597  2.1033
 2243SOL     OW18187   3.934   4.079  11.009  0.4101  0.4662 -0.3437
 2243SOL    HW118188   3.998   4.028  11.058 -1.6876 -0.1637  1.7302
 2243SOL    HW218189   3.931   4.165  11.052 -2.3050 -0.3269  0.9862
 2244SOL     OW18190   0.553   3.939   0.663 -0.3044 -0.4948 -0.4481
 2244SOL    HW118191   0.533   4.033   0.659  0.6182 -0.2861 -0.0556
 2244SOL    HW218192   0.634   3.926   0.614  0.8682 -0.3163  1.4453
 2245SOL     OW18193   1.117   3.136   3.568  0.0728 -0.5652  0.5968
 2245SOL    HW118194   1.068   3.111   3.647 -0.0705  1.6093  1.1965
 2245SOL    HW218195   1.076   3.082   3.500  1.6751  0.6198 -1.2850
 2246SOL     OW18196   3.671   2.052   3.181  0.5912  0.2611  0.2455
 2246SOL    HW118197   3.695   1.967   3.144 -1.8654  0.1822 -1.1026
 2246SOL    HW218198   3.612   2.095   3.119 -1.7184 -0.0181  2.2597
 2247SOL     OW18199   3.397   2.597   3.875  0.4151 -0.1080  0.1879
 2247SOL    HW118200   3.485   2.626   3.851  0.4317 -0.9054 -0.6779
 2247SOL    HW218201   3.427   2.553   3.954  2.5027  0.7005 -0.1496
 2248SOL     OW18202   2.620   3.903  10.395 -0.0424  0.0799 -0.8832
 2248SOL    HW118203   2.564   3.827  10.385 -0.3012  0.0765  0.5269
 2248SOL    HW218204   2.701   3.855  10.379  0.7306  1.1863 -0.3057
 2249SOL     OW18205   0.003   1.508   6.724  0.0556 -0.2256  0.1254
 2249SOL    HW118206   0.030   1.562   6.798  0.2502  0.8740 -0.7515
 2249SOL    HW218207   0.069   1.439   6.715 -0.4743 -0.8732  1.1838
 2250SOL     OW18208   3.071   1.299   9.991  0.1722  0.0172 -0.5432
 2250SOL    HW118209   3.093   1.376  10.042  2.6503 -0.0069 -1.5736
 2250SOL    HW218210   3.140   1.236  10.009 -0.7745 -0.8370  0.1057
 2251SOL     OW18211   2.941   2.038   8.755  0.0201  0.4056 -0.7012
 2251SOL    HW118212   2.891   2.014   8.834  0.7058 -2.4960 -1.1418
 2251SOL    HW218213   2.955   2.132   8.768  1.7206 -0.1709  1.8308
 2252SOL     OW18214   4.467   2.640   7.155  0.1498  0.1251  0.1495
 2252SOL    HW118215   4.511   2.712   7.201 -1.3237  0.5805  0.8686
 2252SOL    HW218216   4.492   2.660   7.065 -0.7725 -0.6228 -0.2691
 2253SOL     OW18217   2.751   0.439   7.884 -0.4430 -0.5254 -0.6608
 2253SOL    HW118218   2.711   0.470   7.803  0.2385  0.1185 -0.7470
 2253SOL    HW218219   2.738   0.344   7.894 -2.2375 -0.0693  1.2708
 2254SOL     OW18220   2.408   4.252   6.035  0.3253 -0.3007 -0.3502
 2254SOL    HW118221   2.395   4.185   6.102 -0.7516  0.0380 -0.2123
 2254SOL    HW218222   2.336   4.312   6.055  1.5758  0.8197  0.7837
 2255SOL     OW18223   4.233   2.322   4.460 -0.0929  0.0261 -0.2262
 2255SOL    HW118224   4.154   2.376   4.469 -0.9581 -1.0927 -1.1621
 2255SOL    HW218225   4.283   2.365   4.391  1.2097 -0.2576  0.5554
 2256SOL     OW18226   2.886   2.957  17.007  0.0313 -0.0658  0.2273
 2256SOL    HW118227   2.943   2.890  17.044  0.2650  0.4700  0.8307
 2256SOL    HW218228   2.834   2.987  17.082  2.8799 -0.0885  2.1932
 2257SOL     OW18229   1.758   3.335   3.042  0.0320  0.4367  0.2612
 2257SOL    HW118230   1.712   3.306   2.963  2.8138 -0.2841 -1.0766
 2257SOL    HW218231   1.695   3.306   3.109  0.8732 -1.6022  0.1817
 2258SOL     OW18232   3.262   0.777   5.383 -0.6510  0.2571 -0.4507
 2258SOL    HW118233   3.342   0.755   5.337 -1.0469  0.9052 -1.4479
 2258SOL    HW218234   3.241   0.864   5.349  1.1808 -0.3927 -3.2119
 2259SOL     OW18235   4.094   4.495   6.989  0.0102 -0.5848 -0.5810
 2259SOL    HW118236   4.043   4.434   6.935 -0.7361 -1.3163  0.9325
 2259SOL    HW218237   4.171   4.512   6.935 -1.5940  2.0150 -2.0318
 2260SOL     OW18238   3.034   4.370   7.566 -0.4391 -0.0796  0.0179
 2260SOL    HW118239   3.021   4.439   7.631  2.3205 -0.0925  0.5578
 2260SOL    HW218240   3.069   4.303   7.626 -0.9226 -1.4242 -1.2023
 2261SOL     OW18241   0.759   3.874   1.248 -0.1881  0.0510  1.1293
 2261SOL    HW118242   0.776   3.931   1.173 -1.6348  1.6747  2.0184
 2261SOL    HW218243   0.846   3.841   1.267 -0.4900 -0.9901  0.7095
 2262SOL     OW18244   1.453   1.606   0.441 -0.1541 -0.3342  0.1944
 2262SOL    HW118245   1.483   1.650   0.361 -2.9799 -0.0964 -0.7402
 2262SOL    HW218246   1.360   1.599   0.420 -0.1953  2.5100 -0.5239
 2263SOL     OW18247   0.359   2.914   7.165 -0.1218 -0.3487  0.3616
 2263SOL    HW118248   0.353   2.987   7.226 -2.3202  0.0862 -0.3784
 2263SOL    HW218249   0.266   2.917   7.143 -0.0945 -1.9424  0.0041
 2264SOL     OW18250   0.654   3.988  16.297  0.7806 -0.2041 -0.4096
 2264SOL    HW118251   0.730   3.933  16.313  0.9123  0.5511  1.5356
 2264SOL    HW218252   0.579   3.928  16.301 -0.0471  0.9090  0.8671
 2265SOL     OW18253   1.070   4.580  16.260 -0.1328 -0.0602 -0.8000
 2265SOL    HW118254   1.100   4.495  16.227 -0.9103 -1.3029  1.6869
 2265SOL    HW218255   1.028   4.550  16.341  0.2838  1.1936 -0.1175
 2266SOL     OW18256   3.033   1.539   4.124 -0.0625  0.4438 -0.5154
 2266SOL    HW118257   3.012   1.527   4.217  0.3350  1.4150 -0.2989
 2266SOL    HW218258   2.957   1.592   4.098  1.0725  1.6295 -1.3833
 2267SOL     OW18259   0.133   2.391   1.834  0.0520  0.1876 -0.3086
 2267SOL    HW118260   0.202   2.448   1.868 -1.1154  1.2888  0.2066
 2267SOL    HW218261   0.052   2.399   1.885  0.1650 -2.8857  0.3615
 2268SOL     OW18262   4.622   4.548   5.369 -0.0465  0.5098 -0.2923
 2268SOL    HW118263   4.699   4.540   5.426 -1.1500 -1.5081  0.8973
 2268SOL    HW218264   4.616   4.644   5.370 -0.7982  0.4750 -1.4428
 2269SOL     OW18265   2.593   0.535   8.549  0.2628 -1.0115  0.6137
 2269SOL    HW118266   2.661   0.472   8.573  0.6237  0.0485  2.3515
 2269SOL    HW218267   2.528   0.471   8.521 -1.5727  0.8596  0.5762
 2270SOL     OW18268   4.717   3.345   7.740 -0.3677  0.7914  0.2362
 2270SOL    HW118269   4.691   3.303   7.822 -1.6589  1.4917  0.1871
 2270SOL    HW218270   4.630   3.364   7.704  0.8960 -0.0705 -3.2943
 2271SOL     OW18271   4.566   2.676   4.803 -1.0959 -0.3659 -0.3122
 2271SOL    HW118272   4.603   2.763   4.789 -3.0322  0.5506  0.3427
 2271SOL    HW218273   4.483   2.671   4.756 -1.0933 -3.4551 -0.0235
 2272SOL     OW18274   0.488   0.922   2.061 -0.3335  0.2141 -0.3548
 2272SOL    HW118275   0.406   0.916   2.110 -0.1520  3.3206  0.3219
 2272SOL    HW218276   0.470   0.922   1.967 -1.3279  0.9917 -0.1683
 2273SOL     OW18277   2.270   3.613   8.011  0.1128 -0.0408  0.0809
 2273SOL    HW118278   2.197   3.570   8.056  1.7521 -2.7060  0.2255
 2273SOL    HW218279   2.227   3.619   7.926  1.6178 -0.2945 -0.6846
 2274SOL     OW18280   3.672   0.414   0.886 -0.4036  0.1675  0.4398
 2274SOL    HW118281   3.625   0.434   0.805 -1.4067  0.6854  1.1434
 2274SOL    HW218282   3.610   0.402   0.957 -0.1217 -1.1495  0.4529
 2275SOL     OW18283   4.660   4.133   8.194 -0.5745  0.2166 -0.1364
 2275SOL    HW118284   4.608   4.206   8.160  0.3760  1.4751  1.1413
 2275SOL    HW218285   0.024   4.174   8.198 -0.1775 -0.6662  0.3847
 2276SOL     OW18286   1.748   4.097   4.090  0.0660  0.4209 -0.2043
 2276SOL    HW118287   1.831   4.056   4.067 -1.0190 -2.3367  0.8950
 2276SOL    HW218288   1.766   4.190   4.108 -0.3221  0.3993  0.2813
 2277SOL     OW18289   1.219   0.850   2.222  0.3387 -0.6422 -0.3051
 2277SOL    HW118290   1.229   0.872   2.315 -0.4375 -1.9461  0.0964
 2277SOL    HW218291   1.127   0.822   2.223 -0.4658  2.0845  2.1859
 2278SOL     OW18292   2.314   3.545   5.112 -0.0644  0.5222 -0.5358
 2278SOL    HW118293   2.387   3.562   5.172  0.6638 -1.8024 -0.7301
 2278SOL    HW218294   2.285   3.462   5.150  0.9680  0.9184  1.1367
 2279SOL     OW18295   4.054   0.544   2.182  0.1800 -0.1974 -0.8988
 2279SOL    HW118296   4.097   0.611   2.129  0.7112 -0.0376 -0.2639
 2279SOL    HW218297   4.122   0.531   2.248 -1.3076  4.9727  1.6295
 2280SOL     OW18298   1.944   3.282   1.363 -0.5766 -0.3389 -0.2282
 2280SOL    HW118299   1.977   3.360   1.319 -1.1567  0.5317  0.8668
 2280SOL    HW218300   1.944   3.317   1.452 -3.1443 -1.8875  0.3917
 2281SOL     OW18301   0.179   1.286   6.709 -0.0919  0.1651  0.1833
 2281SOL    HW118302   0.259   1.269   6.759 -0.7031  2.1355  1.8559
 2281SOL    HW218303   0.206   1.335   6.630 -0.3867  0.5256  0.3053
 2282SOL     OW18304   4.261   2.688   8.615  0.3896 -0.4604  0.0575
 2282SOL    HW118305   4.193   2.637   8.659  0.8288  0.2675  1.5910
 2282SOL    HW218306   4.301   2.634   8.547 -0.8247 -1.4030  0.0975
 2283SOL     OW18307   1.064   3.379   3.757 -0.1134 -0.0402  0.0951
 2283SOL    HW118308   1.125   3.338   3.695 -0.4651  0.1183 -0.3548
 2283SOL    HW218309   1.005   3.304   3.765 -0.0734 -0.1194 -0.3483
 2284SOL     OW18310   0.860   4.621   5.213 -0.3525  0.3462 -0.5571
 2284SOL    HW118311   0.778   4.619   5.264 -0.2342  1.1609 -0.3352
 2284SOL    HW218312   0.927   4.654   5.273 -0.4244 -0.2198 -0.1658
 2285SOL     OW18313   3.990   2.761  16.095 -0.3597  0.3459  0.1068
 2285SOL    HW118314   4.012   2.692  16.158  2.6471  2.6905  1.6365
 2285SOL    HW218315   4.069   2.815  16.093  0.0280 -0.1820  1.0708
 2286SOL     OW18316   1.388   1.165   2.332  0.5755 -0.1455  0.2567
 2286SOL    HW118317   1.314   1.108   2.314  1.6652 -0.9498 -1.7344
 2286SOL    HW218318   1.458   1.136   2.273  0.2344 -0.5898  0.0742
 2287SOL     OW18319   0.785   3.041   5.527  0.5488  0.6515 -0.2609
 2287SOL    HW118320   0.718   2.983   5.491 -0.7950  1.6077  0.7216
 2287SOL    HW218321   0.833   2.985   5.588 -0.0127  1.0836  0.5732
 2288SOL     OW18322   0.960   0.914   6.541  0.1487 -0.2279 -0.3501
 2288SOL    HW118323   1.029   0.963   6.586 -1.3151  0.1958  1.4520
 2288SOL    HW218324   0.994   0.883   6.457 -1.2504 -1.0513 -0.6081
 2289SOL     OW18325   3.607   3.047  10.296  0.2179 -0.1351 -0.2571
 2289SOL    HW118326   3.518   3.054  10.333 -1.0665  1.2443 -3.6085
 2289SOL    HW218327   3.608   3.118  10.232  0.9236 -0.3972 -0.5292
 2290SOL     OW18328   4.219   1.617   3.702  0.1473  0.1519 -0.6084
 2290SOL    HW118329   4.294   1.654   3.750 -0.6190 -0.3247  0.9605
 2290SOL    HW218330   4.271   1.557   3.649  1.4316 -0.9405  1.8816
 2291SOL     OW18331   3.297   2.894  15.395  0.0916 -0.2167 -0.3329
 2291SOL    HW118332   3.232   2.962  15.378 -0.1163 -0.4000 -0.2724
 2291SOL    HW218333   3.322   2.928  15.481 -0.3938 -2.2739  0.6310
 2292SOL     OW18334   1.600   2.061   4.341  0.3296  0.4954 -0.1313
 2292SOL    HW118335   1.595   2.048   4.246  0.5281  2.1745 -0.3702
 2292SOL    HW218336   1.691   2.085   4.356  0.8518 -1.4033 -0.2952
 2293SOL     OW18337   4.337   3.134   6.906  0.4231  0.0858  0.5227
 2293SOL    HW118338   4.318   3.226   6.923 -2.6347 -0.4031 -0.2567
 2293SOL    HW218339   4.345   3.088   6.989  1.1823  0.8159  0.8500
 2294SOL     OW18340   1.423   0.595  10.177  0.0954 -0.1612  0.1758
 2294SOL    HW118341   1.361   0.525  10.158  0.5666 -0.3113 -0.8236
 2294SOL    HW218342   1.396   0.602  10.268 -0.2460  0.1872  0.0489
 2295SOL     OW18343   0.798   3.750   3.244 -0.1901 -0.1063  0.2556
 2295SOL    HW118344   0.860   3.728   3.175  2.0154 -2.0042  2.8435
 2295SOL    HW218345   0.834   3.700   3.317  0.4526  2.4189  1.6899
 2296SOL     OW18346   1.575   2.761   8.749  0.2484  0.1548 -0.2597
 2296SOL    HW118347   1.576   2.745   8.843  1.3302 -1.6498 -0.5782
 2296SOL    HW218348   1.501   2.821   8.747 -0.3741 -0.6273 -1.0718
 2297SOL     OW18349   4.447   1.416   8.628  0.2131  0.0240 -0.4484
 2297SOL    HW118350   4.404   1.489   8.673 -0.1605  0.0865 -0.9046
 2297SOL    HW218351   4.390   1.380   8.559  1.0994  0.7185 -1.5262
 2298SOL     OW18352   1.164   0.053  10.046  0.3759  0.5538 -0.6924
 2298SOL    HW118353   1.239   0.009  10.005 -0.1258 -1.8030  0.9282
 2298SOL    HW218354   1.205   0.124  10.095  1.6516  0.2463 -1.3028
 2299SOL     OW18355   1.530   0.908   9.740 -0.0156  0.1823 -0.0759
 2299SOL    HW118356   1.529   1.000   9.766 -0.0280 -0.9371  3.9390
 2299SOL    HW218357   1.503   0.863   9.820  0.3814  0.7380  0.3742
 2300SOL     OW18358   1.963   1.066   3.205 -0.4404  0.2998 -0.7564
 2300SOL    HW118359   2.011   1.147   3.189  1.8229 -1.0240 -0.5798
 2300SOL    HW218360   1.999   1.017   3.132 -1.0149 -1.8620  0.4305
 2301SOL     OW18361   4.041   2.693   5.970 -0.1822 -0.1148 -0.5731
 2301SOL    HW118362   4.015   2.626   5.906  1.3206 -1.4726  0.2537
 2301SOL    HW218363   4.021   2.766   5.911  1.4963 -0.4726 -1.5813
 2302SOL     OW18364   2.322   1.615  10.688 -0.8387 -0.1589  0.0262
 2302SOL    HW118365   2.267   1.693  10.698 -0.0721  0.3895 -0.1054
 2302SOL    HW218366   2.259   1.552  10.723  1.3759 -1.5644  1.4714
 2303SOL     OW18367   3.565   3.748   9.155 -0.6513 -0.2217 -0.4809
 2303SOL    HW118368   3.644   3.774   9.203 -1.1975 -1.6181  1.1968
 2303SOL    HW218369   3.515   3.828   9.170  0.2607 -0.1579  2.2716
 2304SOL     OW18370   2.910   1.254  12.883 -0.1391 -0.1513 -0.5608
 2304SOL    HW118371   2.848   1.273  12.954 -0.4329  0.9858 -1.1377
 2304SOL    HW218372   2.923   1.159  12.894  2.3822  0.2871  0.3319
 2305SOL     OW18373   0.086   3.262   2.898  0.5100 -0.0178  0.3378
 2305SOL    HW118374   0.008   3.263   2.843 -0.0433  0.8191  1.1310
 2305SOL    HW218375   0.149   3.279   2.827  0.2919 -1.1363 -0.1146
 2306SOL     OW18376   3.514   1.344   5.131 -0.5676  0.3410 -0.3575
 2306SOL    HW118377   3.604   1.376   5.125 -1.3518  2.3557 -1.4401
 2306SOL    HW218378   3.499   1.310   5.043 -1.9170  0.0129  0.0071
 2307SOL     OW18379   1.003   4.561  11.935  0.0419 -0.3705  0.4855
 2307SOL    HW118380   1.032   4.549  12.026  0.7870 -3.0720 -0.1118
 2307SOL    HW218381   0.929   4.620  11.949  1.4081  1.5588 -0.4875
 2308SOL     OW18382   1.138   1.928   1.555 -0.3241  0.0503  0.4890
 2308SOL    HW118383   1.154   1.837   1.533 -0.7744  0.5719 -2.0330
 2308SOL    HW218384   1.050   1.933   1.593  0.2759  2.3783  1.6279
 2309SOL     OW18385   3.380   3.841   5.815  0.3919  0.3776  1.1135
 2309SOL    HW118386   3.399   3.890   5.735 -3.8328 -0.2299 -0.2413
 2309SOL    HW218387   3.448   3.773   5.812 -0.6522 -0.6346  0.2716
 2310SOL     OW18388   0.759   2.218   4.353  0.0083  0.9733  0.1341
 2310SOL    HW118389   0.723   2.138   4.315  0.8437  1.1146 -0.9502
 2310SOL    HW218390   0.673   2.257   4.369  0.0457  0.7940  0.8033
 2311SOL     OW18391   0.344   1.226   5.850 -0.0206 -0.0222 -0.6205
 2311SOL    HW118392   0.295   1.160   5.899 -1.0013  1.5489  0.4969
 2311SOL    HW218393   0.391   1.169   5.788 -1.0431 -0.7855 -0.6937
 2312SOL     OW18394   2.807   3.541   6.603  0.1372  0.1411 -0.4501
 2312SOL    HW118395   2.821   3.454   6.640 -0.0298 -0.3960 -1.6524
 2312SOL    HW218396   2.716   3.531   6.574 -0.3336  2.8370  0.0338
 2313SOL     OW18397   3.348   2.635   5.226 -0.7268  0.0412 -0.2250
 2313SOL    HW118398   3.276   2.689   5.193 -1.7386  0.2193  2.2765
 2313SOL    HW218399   3.321   2.599   5.311 -3.6671 -1.3301 -1.7289
 2314SOL     OW18400   4.151   3.692   2.995  0.2535  0.2197 -0.1374
 2314SOL    HW118401   4.192   3.762   2.945  0.0539 -0.3545 -1.0938
 2314SOL    HW218402   4.103   3.740   3.063  1.7392 -1.1757  1.9023
 2315SOL     OW18403   4.248   0.177   6.803 -0.3609  0.3190 -0.6446
 2315SOL    HW118404   4.274   0.126   6.880  0.6910 -0.9736 -1.8374
 2315SOL    HW218405   4.324   0.145   6.753 -0.5619 -2.0719  0.5610
 2316SOL     OW18406   4.157   3.186   4.928 -0.0343 -0.3181  0.0643
 2316SOL    HW118407   4.179   3.279   4.938 -2.4452  0.2375  0.0764
 2316SOL    HW218408   4.196   3.171   4.842 -1.6232 -0.7802 -0.5627
 2317SOL     OW18409   2.770   4.541   8.495 -0.0120  0.1400  0.0856
 2317SOL    HW118410   2.796   4.629   8.466  0.0490  0.8628  2.3950
 2317SOL    HW218411   2.853   4.494   8.500 -0.3710 -0.5444 -0.4401
 2318SOL     OW18412   0.943   0.374  14.674  0.4592 -0.0935  0.0552
 2318SOL    HW118413   0.933   0.372  14.769  1.8667 -0.1029  0.1998
 2318SOL    HW218414   0.990   0.456  14.664  1.8556 -0.9276 -0.2545
 2319SOL     OW18415   2.331   1.103   6.138  0.4512 -0.2493  0.0540
 2319SOL    HW118416   2.322   1.059   6.053  0.1152 -0.5047  0.2254
 2319SOL    HW218417   2.248   1.151   6.141  0.6485  0.1025 -0.1021
 2320SOL     OW18418   4.582   0.658  16.442  0.1301  0.1865  0.0281
 2320SOL    HW118419   4.519   0.660  16.371 -0.0070 -4.4574  0.0067
 2320SOL    HW218420   4.650   0.606  16.399  1.9850  1.1264  1.7697
 2321SOL     OW18421   2.942   2.908   6.587  0.8853  0.0676 -0.3269
 2321SOL    HW118422   2.893   2.990   6.580 -1.0804 -1.0580  0.2918
 2321SOL    HW218423   3.033   2.934   6.574  1.2378 -0.0306  1.9240
 2322SOL     OW18424   0.408   2.424   9.286  0.4932  1.0296 -0.1466
 2322SOL    HW118425   0.341   2.365   9.321  0.5851  0.9335 -0.1318
 2322SOL    HW218426   0.464   2.363   9.239 -2.2817 -0.4428 -1.5377
 2323SOL     OW18427   2.304   4.419  10.171  0.5092  0.7823 -0.1753
 2323SOL    HW118428   2.332   4.345  10.117 -0.7135  1.4978 -1.7882
 2323SOL    HW218429   2.223   4.455  10.135 -0.4231 -0.2180  0.8850
 2324SOL     OW18430   0.330   1.671  16.213 -0.3744  0.1565  0.2924
 2324SOL    HW118431   0.378   1.738  16.261  1.3165 -0.9497  0.1338
 2324SOL    HW218432   0.347   1.703  16.124  0.1049 -0.0531  0.3118
 2325SOL     OW18433   0.951   0.280   8.716  0.3602 -0.3400  0.0062
 2325SOL    HW118434   0.996   0.230   8.649 -0.7701  0.0314 -1.0300
 2325SOL    HW218435   0.871   0.227   8.715  0.8021 -0.9930 -1.1303
 2326SOL     OW18436   3.152   2.239   8.456  0.1219 -0.2594  0.4354
 2326SOL    HW118437   3.165   2.299   8.529 -0.7524 -0.3180  0.6473
 2326SOL    HW218438   3.160   2.299   8.382 -0.2706  0.1412  0.7192
 2327SOL     OW18439   0.763   1.536   1.270  0.0639  0.8167  0.5314
 2327SOL    HW118440   0.771   1.450   1.228  1.8767  0.1067  2.3695
 2327SOL    HW218441   0.683   1.571   1.232 -0.6594 -0.2551  1.0509
 2328SOL     OW18442   1.205   4.386   1.889 -0.3887 -0.2526  0.2746
 2328SOL    HW118443   1.181   4.419   1.802 -2.0226 -0.6755  0.5715
 2328SOL    HW218444   1.170   4.452   1.949 -0.3606 -0.1367  0.1658
 2329SOL     OW18445   0.659   1.068   5.996  0.3551  0.1155 -0.5132
 2329SOL    HW118446   0.662   1.030   5.908  0.0635  0.1802 -0.5495
 2329SOL    HW218447   0.713   1.146   5.982 -1.4523  1.4272 -0.0488
 2330SOL     OW18448   1.962   2.567  12.367  0.1025  0.8098  0.1996
 2330SOL    HW118449   2.017   2.502  12.410 -0.9373 -0.7156 -0.7857
 2330SOL    HW218450   1.903   2.511  12.316  2.2996 -0.1376 -1.2983
 2331SOL     OW18451   1.939   2.654   8.550 -0.0176  0.1795  0.2090
 2331SOL    HW118452   1.889   2.670   8.470  0.0433  1.0865  0.3515
 2331SOL    HW218453   2.021   2.626   8.509 -0.3957  1.5089 -1.4904
 2332SOL     OW18454   4.716   4.068   1.433 -0.1471  0.3580  0.1604
 2332SOL    HW118455   0.007   4.088   1.341  1.6969  1.5090  0.6611
 2332SOL    HW218456   0.067   4.008   1.448  0.0724  0.8675  1.1809
 2333SOL     OW18457   0.692   4.216   7.382 -0.7280 -0.3325 -0.0417
 2333SOL    HW118458   0.665   4.211   7.291 -0.2733  1.2967 -0.2711
 2333SOL    HW218459   0.779   4.179   7.369 -0.6844 -0.8080  1.5697
 2334SOL     OW18460   2.321   0.885   7.990 -0.2294 -0.0453 -0.0568
 2334SOL    HW118461   2.406   0.841   7.978  1.0361  2.4186 -0.1491
 2334SOL    HW218462   2.333   0.978   7.971 -2.1649 -0.3517 -2.7504
 2335SOL     OW18463   2.583   3.282  16.292  0.3390  0.1736  0.3676
 2335SOL    HW118464   2.594   3.260  16.385 -0.7161 -0.6158  0.3063
 2335SOL    HW218465   2.521   3.216  16.261  1.3833  0.8748 -3.1623
 2336SOL     OW18466   4.479   3.365   7.526 -0.0228  0.3235  0.5883
 2336SOL    HW118467   4.408   3.372   7.462 -1.9289  0.6495  2.7662
 2336SOL    HW218468   4.549   3.317   7.481  0.5584 -0.0248  1.8710
 2337SOL     OW18469   1.136   1.784  13.514  0.2855 -0.5096  0.3902
 2337SOL    HW118470   1.152   1.862  13.462 -0.2927  1.4708  3.1453
 2337SOL    HW218471   1.045   1.806  13.537  0.5420 -0.8794  1.7400
 2338SOL     OW18472   3.039   3.950   7.531 -0.3991 -0.4302  0.0146
 2338SOL    HW118473   3.013   3.987   7.616 -0.5317  1.8294 -1.0268
 2338SOL    HW218474   3.133   3.968   7.533 -0.6266  0.7928 -0.6414
 2339SOL     OW18475   3.620   3.174   7.004  0.1704  0.1627 -0.6821
 2339SOL    HW118476   3.634   3.116   7.079  1.2950  0.1621 -0.9033
 2339SOL    HW218477   3.695   3.153   6.950 -0.8120  2.3895 -2.9245
 2340SOL     OW18478   0.208   2.867   5.230 -0.0527  0.3121  0.2139
 2340SOL    HW118479   0.117   2.871   5.260 -0.1408 -0.6300  0.0537
 2340SOL    HW218480   0.229   2.961   5.230  3.5168 -0.4878 -1.0220
 2341SOL     OW18481   0.079   3.871   6.040 -0.2859 -0.5162  0.0602
 2341SOL    HW118482   0.090   3.963   6.016  2.5237 -0.7463  0.4227
 2341SOL    HW218483   4.713   3.861   6.074  0.0514 -2.5937  0.3641
 2342SOL     OW18484   3.360   4.656  12.704 -0.1658  0.4691  0.5073
 2342SOL    HW118485   3.296   0.004  12.692 -0.7929  0.0427  1.3664
 2342SOL    HW218486   3.337   4.601  12.629  0.2787  2.4691 -1.0976
 2343SOL     OW18487   1.954   3.171   7.782 -0.4740  0.0394  0.1178
 2343SOL    HW118488   2.011   3.210   7.848 -3.1688  0.6754  2.1015
 2343SOL    HW218489   1.891   3.243   7.785 -0.2901  0.2332 -0.8608
 2344SOL     OW18490   3.385   0.091  15.017 -0.3162  0.2066  0.1402
 2344SOL    HW118491   3.362   0.042  14.938  1.5096  0.5171 -0.5797
 2344SOL    HW218492   3.340   0.056  15.094 -1.2980  1.1428 -0.0054
 2345SOL     OW18493   4.143   3.308   6.011 -0.0000  0.5898 -0.0262
 2345SOL    HW118494   4.155   3.250   5.936  2.4258  0.6485  0.3189
 2345SOL    HW218495   4.067   3.358   5.979  0.4902  3.3042  3.0503
 2346SOL     OW18496   1.346   1.079   4.193  0.0041 -0.3699  0.0271
 2346SOL    HW118497   1.431   1.036   4.201  1.9637  3.2549 -1.2016
 2346SOL    HW218498   1.290   1.016   4.238 -0.3395 -0.4698 -0.5349
 2347SOL     OW18499   0.018   3.474   2.019 -0.0439 -0.3854  0.5188
 2347SOL    HW118500   4.722   3.449   1.928 -0.2397 -0.7356  0.6557
 2347SOL    HW218501   0.035   3.381   2.033 -1.6634 -0.3658  2.5555
 2348SOL     OW18502   4.526   0.112   4.614 -1.0214 -0.4138 -0.4899
 2348SOL    HW118503   4.523   0.109   4.710 -3.2772  1.3036 -0.5106
 2348SOL    HW218504   4.593   0.047   4.591 -2.0408 -1.1461 -1.3819
 2349SOL     OW18505   3.939   3.025  10.840 -0.3361 -0.0811 -0.2483
 2349SOL    HW118506   3.889   2.956  10.797 -2.7394  1.3204  0.2980
 2349SOL    HW218507   3.982   2.972  10.907 -0.7893 -0.8762 -0.5947
 2350SOL     OW18508   0.314   0.092   8.721  0.0163 -0.1967  0.3925
 2350SOL    HW118509   0.224   0.061   8.716 -0.2991  1.0533 -1.7397
 2350SOL    HW218510   0.339   0.118   8.632 -0.5279  2.3014  0.9619
 2351SOL     OW18511   2.946   0.492  11.143  0.2375  0.3993 -0.1713
 2351SOL    HW118512   2.985   0.429  11.204  1.3103  0.8064 -0.4364
 2351SOL    HW218513   2.910   0.547  11.212 -0.3913 -0.0739 -0.1260
 2352SOL     OW18514   0.674   2.441   5.852  0.0255 -0.4549  0.1884
 2352SOL    HW118515   0.658   2.473   5.941  0.2114  1.4653 -0.4669
 2352SOL    HW218516   0.583   2.424   5.828 -0.6589  0.1295  2.3906
 2353SOL     OW18517   2.869   3.817  13.624 -0.5578 -0.0654 -0.5406
 2353SOL    HW118518   2.962   3.835  13.641 -0.5945 -1.4251  1.0652
 2353SOL    HW218519   2.860   3.741  13.681  2.1265 -0.0397 -0.0712
 2354SOL     OW18520   2.962   0.522   2.736  0.6853 -0.1380 -0.5455
 2354SOL    HW118521   2.901   0.457   2.770 -0.3081  0.3564 -1.3899
 2354SOL    HW218522   2.980   0.582   2.808 -0.8928 -0.5707  0.1950
 2355SOL     OW18523   3.451   3.293  12.522  0.2310 -0.0595  0.3221
 2355SOL    HW118524   3.472   3.341  12.602 -0.8488  2.5780 -0.9750
 2355SOL    HW218525   3.360   3.321  12.507 -0.0356 -0.3873  1.3252
 2356SOL     OW18526   1.745   4.087   9.510  0.8790  0.6591  0.0071
 2356SOL    HW118527   1.702   4.005   9.486  0.9776  1.3474 -2.5222
 2356SOL    HW218528   1.695   4.104   9.591 -0.1516 -1.5216 -0.1718
 2357SOL     OW18529   0.438   4.215  13.305  0.0736  0.3792  0.2297
 2357SOL    HW118530   0.352   4.187  13.273  0.0405 -0.5775  1.1494
 2357SOL    HW218531   0.430   4.309  13.291 -1.9358  0.0454 -0.8282
 2358SOL     OW18532   2.659   2.761  17.158  0.2896  0.0591 -0.0302
 2358SOL    HW118533   2.679   2.854  17.144  3.7350 -0.5293  1.1787
 2358SOL    HW218534   2.563   2.761  17.165  0.3754 -1.6689  0.9346
 2359SOL     OW18535   2.966   1.331   4.549 -0.4719 -0.1886  0.6095
 2359SOL    HW118536   3.005   1.417   4.530  0.7620 -0.2834  2.6228
 2359SOL    HW218537   2.872   1.342   4.533 -0.1588  2.7943  0.7576
 2360SOL     OW18538   2.227   4.544   2.523  0.3261  0.7760 -0.4378
 2360SOL    HW118539   2.135   4.569   2.511  0.5302  0.4750 -2.6961
 2360SOL    HW218540   2.266   4.586   2.446  0.6895 -0.4618 -0.9394
 2361SOL     OW18541   2.152   2.200   4.748 -0.2548 -0.1420 -0.2863
 2361SOL    HW118542   2.246   2.181   4.744 -0.3358 -0.4130 -0.8562
 2361SOL    HW218543   2.140   2.167   4.659 -0.1655 -1.3563  0.1571
 2362SOL     OW18544   4.708   2.189   4.794 -0.7405 -0.6569  0.3576
 2362SOL    HW118545   4.612   2.196   4.801 -0.7262 -2.3098  2.0422
 2362SOL    HW218546   0.017   2.279   4.787 -1.9707 -0.3590 -1.4267
 2363SOL     OW18547   0.670   4.213   4.465 -0.3454  0.1798  0.2930
 2363SOL    HW118548   0.737   4.153   4.500  0.7694  1.0119 -0.4054
 2363SOL    HW218549   0.707   4.228   4.378  2.1557 -0.3908  1.2627
 2364SOL     OW18550   2.608   2.865  15.572  0.1759  0.0323 -0.0958
 2364SOL    HW118551   2.543   2.905  15.515 -2.1572 -1.1192  1.7802
 2364SOL    HW218552   2.621   2.783  15.523  0.9354  0.5624 -0.7825
 2365SOL     OW18553   4.694   1.619   4.323 -0.8986  0.5405  0.1315
 2365SOL    HW118554   4.639   1.595   4.249 -4.0246  1.0334  2.3096
 2365SOL    HW218555   4.680   1.538   4.371  0.0159  1.0645  1.3035
 2366SOL     OW18556   0.958   1.996   6.840 -1.0412  0.2227 -0.1209
 2366SOL    HW118557   0.968   1.928   6.773  1.6060 -0.7912  1.2793
 2366SOL    HW218558   1.045   1.985   6.877 -0.4256 -1.2355 -1.9723
 2367SOL     OW18559   1.954   2.855   5.643  0.3761 -0.5370 -0.0848
 2367SOL    HW118560   1.887   2.827   5.579 -1.4563 -0.4877  1.8264
 2367SOL    HW218561   1.988   2.773   5.679  1.1544 -0.7787 -1.3641
 2368SOL     OW18562   0.136   3.803   5.042 -0.0343  0.1509  0.2274
 2368SOL    HW118563   0.139   3.761   5.128 -2.2718  1.5693  1.0044
 2368SOL    HW218564   0.059   3.859   5.038 -0.5630 -0.6553 -1.0723
 2369SOL     OW18565   2.096   1.884   3.904  0.0342 -0.5118  0.3552
 2369SOL    HW118566   2.191   1.884   3.917  0.3501 -0.2542 -1.9686
 2369SOL    HW218567   2.072   1.792   3.896 -0.4929 -0.3001 -0.5596
 2370SOL     OW18568   1.884   0.740   6.747 -0.2001 -0.3219 -0.6049
 2370SOL    HW118569   1.975   0.737   6.778 -0.4428  2.3346  0.3630
 2370SOL    HW218570   1.857   0.826   6.779  1.2199  0.4600 -1.5293
 2371SOL     OW18571   4.065   0.830   0.811 -0.3480  0.3311 -0.5837
 2371SOL    HW118572   4.090   0.741   0.785  3.4718  1.1530  0.2894
 2371SOL    HW218573   3.971   0.814   0.799  0.1113 -1.3314 -1.9231
 2372SOL     OW18574   4.601   0.673   5.489  0.7715  0.0684  0.2301
 2372SOL    HW118575   4.571   0.596   5.440  1.0921  0.5043 -0.6494
 2372SOL    HW218576   4.622   0.643   5.578  2.6102  2.3929  0.5718
 2373SOL     OW18577   0.169   1.786   3.057 -0.9344  0.1819  0.3274
 2373SOL    HW118578   0.088   1.831   3.033 -1.7292 -1.3098  0.2339
 2373SOL    HW218579   0.135   1.701   3.084  0.1272  0.2727  1.9752
 2374SOL     OW18580   4.713   0.895   5.288 -0.1539  0.1956 -0.4951
 2374SOL    HW118581   4.661   0.865   5.363  0.6946 -2.1839 -0.8825
 2374SOL    HW218582   4.663   0.974   5.268 -0.7515  0.1111  0.6291
 2375SOL     OW18583   0.251   3.129   7.334  0.6928 -0.1076  0.0302
 2375SOL    HW118584   0.223   3.069   7.404  0.7613  1.3935  1.3416
 2375SOL    HW218585   0.276   3.212   7.375 -0.4441  0.8646 -1.2453
 2376SOL     OW18586   3.736   1.486  13.143  0.1034 -0.2889  0.3546
 2376SOL    HW118587   3.721   1.580  13.151  0.1311 -0.4512  2.3985
 2376SOL    HW218588   3.699   1.467  13.057  0.4635 -1.5985  0.4903
 2377SOL     OW18589   3.348   4.067  15.910  0.0569 -0.1953 -0.2092
 2377SOL    HW118590   3.426   4.051  15.963  0.6474 -1.8335 -1.5734
 2377SOL    HW218591   3.334   3.984  15.864 -0.2093  1.0738 -2.4537
 2378SOL     OW18592   0.594   3.204   2.176  0.0241 -0.1698  0.2709
 2378SOL    HW118593   0.597   3.190   2.081 -0.6666  0.0773  0.2121
 2378SOL    HW218594   0.662   3.146   2.213  0.8328  0.2688 -0.5268
 2379SOL     OW18595   3.943   3.927   2.666 -0.5441  0.1967 -0.1083
 2379SOL    HW118596   4.016   3.875   2.633 -1.2602  0.6893 -2.4965
 2379SOL    HW218597   3.879   3.895   2.602 -1.5210  0.1517  0.8888
 2380SOL     OW18598   1.432   4.388  17.420  0.5109 -0.2350 -0.4954
 2380SOL    HW118599   1.470   4.319  17.474 -0.4378 -0.3222  0.0614
 2380SOL    HW218600   1.422   4.345  17.335 -0.9785  0.6026 -0.7601
 2381SOL     OW18601   0.036   0.430   3.932 -0.1358 -0.3525 -0.3503
 2381SOL    HW118602   0.029   0.337   3.952 -0.0957  0.3219  2.8568
 2381SOL    HW218603   4.694   0.436   3.861 -0.7372  1.4819  0.3419
 2382SOL     OW18604   1.940   2.368   9.697 -0.0897 -0.3589  0.1364
 2382SOL    HW118605   1.943   2.284   9.651 -0.9510 -0.5241  0.4001
 2382SOL    HW218606   1.930   2.340   9.787  0.2096 -1.7882 -0.2712
 2383SOL     OW18607   1.936   0.232   7.185 -0.1735  0.2638  0.4941
 2383SOL    HW118608   1.930   0.293   7.112  1.5633  1.3700  1.2764
 2383SOL    HW218609   2.018   0.187   7.166 -2.4420 -3.1922 -1.0251
 2384SOL     OW18610   0.450   2.758   8.614  0.0201 -0.6505 -0.4373
 2384SOL    HW118611   0.488   2.777   8.700  0.0166  0.7945 -0.7539
 2384SOL    HW218612   0.402   2.840   8.600 -2.0389 -1.4841  1.9274
 2385SOL     OW18613   0.698   3.905   1.792 -0.3254 -0.3041 -0.3827
 2385SOL    HW118614   0.702   4.000   1.787 -1.0182 -0.1108  2.6645
 2385SOL    HW218615   0.742   3.882   1.710 -0.7521  0.2698 -0.7782
 2386SOL     OW18616   4.434   3.105   1.935  0.0984  0.3826 -0.0886
 2386SOL    HW118617   4.435   3.123   1.841 -1.7003  1.3645  0.0761
 2386SOL    HW218618   4.496   3.033   1.947  2.0798  2.1013 -0.0482
 2387SOL     OW18619   4.701   3.692  17.256 -0.4641  0.5182  0.0596
 2387SOL    HW118620   4.672   3.638  17.329  0.0398 -0.4287 -0.4411
 2387SOL    HW218621   4.620   3.741  17.243 -0.0352  1.6495  1.6525
 2388SOL     OW18622   0.686   1.305   5.630 -0.0956  0.4431  0.2541
 2388SOL    HW118623   0.750   1.250   5.674 -0.9426  0.5414  1.6185
 2388SOL    HW218624   0.696   1.387   5.678 -0.9069  0.1448  0.9246
 2389SOL     OW18625   2.189   0.737   6.802  0.0941 -0.0919 -0.1139
 2389SOL    HW118626   2.229   0.800   6.862  2.3100 -0.3368 -1.3252
 2389SOL    HW218627   2.273   0.718   6.759 -0.3010 -1.8767 -0.0715
 2390SOL     OW18628   1.259   0.709   8.801 -0.0130  0.4793 -0.0827
 2390SOL    HW118629   1.326   0.725   8.867  2.3681 -0.7492 -2.2255
 2390SOL    HW218630   1.233   0.621   8.828 -0.1355 -0.4062 -3.0428
 2391SOL     OW18631   2.962   0.057   5.175 -0.5735  0.4320 -0.0102
 2391SOL    HW118632   2.910   0.064   5.096 -0.7923 -1.0710  0.0009
 2391SOL    HW218633   2.902   0.032   5.245 -0.4950 -2.6745 -1.0579
 2392SOL     OW18634   0.124   0.323   7.199  0.2500 -0.1755 -0.6558
 2392SOL    HW118635   0.192   0.285   7.256 -0.5851  0.9255  1.0475
 2392SOL    HW218636   0.172   0.314   7.116  0.3582 -1.1519 -0.4965
 2393SOL     OW18637   1.009   3.806   7.354  0.4239 -0.1056  0.3994
 2393SOL    HW118638   1.073   3.840   7.416 -0.3718  0.9893  0.6208
 2393SOL    HW218639   1.060   3.816   7.274 -0.2950 -1.3086 -0.2192
 2394SOL     OW18640   1.707   2.059  15.120 -0.0236 -0.6886 -0.5661
 2394SOL    HW118641   1.706   1.964  15.123 -0.9776 -0.6898 -0.8394
 2394SOL    HW218642   1.802   2.073  15.121  0.3471 -3.2657 -0.7632
 2395SOL     OW18643   3.669   3.059  15.116  0.4498 -0.4599  0.3017
 2395SOL    HW118644   3.715   3.027  15.194 -0.5441  1.0391  1.4801
 2395SOL    HW218645   3.594   3.109  15.149  0.2209 -0.1259 -0.7436
 2396SOL     OW18646   2.196   2.862   7.276  0.1840  0.5686  0.0223
 2396SOL    HW118647   2.291   2.867   7.281  0.4284 -0.7722 -3.1757
 2396SOL    HW218648   2.183   2.898   7.189 -1.8286 -0.4351 -0.0908
 2397SOL     OW18649   2.886   0.503   3.975  0.0469 -0.4645 -0.7813
 2397SOL    HW118650   2.908   0.581   4.026  0.3596 -0.3515 -1.0926
 2397SOL    HW218651   2.830   0.458   4.038  0.3426  0.6332  0.2587
 2398SOL     OW18652   4.653   1.389   5.373  0.1105  0.0444  0.2259
 2398SOL    HW118653   4.564   1.365   5.399  0.5704 -0.0924  1.7140
 2398SOL    HW218654   4.693   1.313   5.415  1.6797  0.8669  0.1947
 2399SOL     OW18655   0.356   3.532  16.358 -0.0720  0.2108 -0.2526
 2399SOL    HW118656   0.371   3.574  16.273  0.2524  3.0211  1.1960
 2399SOL    HW218657   0.389   3.444  16.339  1.6413  0.3680  2.1243
 2400SOL     OW18658   2.949   4.597  14.770  0.4214 -0.1833  0.5055
 2400SOL    HW118659   2.880   4.534  14.788 -0.9764  1.2026 -0.0430
 2400SOL    HW218660   2.937   4.654  14.846 -0.9365 -0.2852  0.3638
 2401SOL     OW18661   3.892   3.362   5.277 -0.5945  0.0729 -0.5606
 2401SOL    HW118662   3.885   3.285   5.221 -0.8382  0.2276 -0.7376
 2401SOL    HW218663   3.837   3.335   5.350 -0.5512  0.6916 -0.2953
 2402SOL     OW18664   0.428   0.926   9.236 -0.6764 -0.6712 -0.5515
 2402SOL    HW118665   0.333   0.939   9.241 -0.9369 -2.4022 -0.8629
 2402SOL    HW218666   0.416   0.867   9.161 -2.1073  0.8496 -1.5210
 2403SOL     OW18667   0.102   4.462  10.897 -0.1249 -0.2729 -0.4226
 2403SOL    HW118668   0.092   4.496  10.808  0.4505 -2.8170 -1.4528
 2403SOL    HW218669   0.051   4.526  10.947  1.1445 -0.6154  1.3454
 2404SOL     OW18670   0.983   2.942   1.019 -0.5655  0.6347 -0.8989
 2404SOL    HW118671   1.025   2.904   0.941 -1.8110 -1.7623 -0.3856
 2404SOL    HW218672   0.944   2.863   1.055 -2.4007  2.0226  0.1364
 2405SOL     OW18673   0.903   1.954   0.534  0.7210  0.1126 -0.0296
 2405SOL    HW118674   0.906   2.044   0.501  1.4146  0.3053  0.5554
 2405SOL    HW218675   0.996   1.935   0.547  0.8560  0.5974 -0.2780
 2406SOL     OW18676   1.417   3.369   5.209  0.1262  0.3708 -0.1024
 2406SOL    HW118677   1.391   3.284   5.175  0.0474  0.2013  0.3833
 2406SOL    HW218678   1.334   3.401   5.245 -1.2215 -0.8807 -2.1311
 2407SOL     OW18679   2.777   2.602  13.606  0.3685 -0.4059  0.9369
 2407SOL    HW118680   2.800   2.522  13.558 -1.1693  1.0350 -2.1771
 2407SOL    HW218681   2.839   2.671  13.582 -1.6798  1.0497 -0.1347
 2408SOL     OW18682   1.590   1.697  15.487  0.3845 -0.1166  0.1282
 2408SOL    HW118683   1.639   1.614  15.488 -0.5503 -0.6897 -0.6895
 2408SOL    HW218684   1.510   1.659  15.526 -1.7545  2.9792 -1.2703
 2409SOL     OW18685   1.756   1.798   4.489 -0.3385  0.1150  0.3587
 2409SOL    HW118686   1.762   1.702   4.490  0.6663  0.1709 -0.5337
 2409SOL    HW218687   1.805   1.826   4.411  0.9614 -0.5502  0.9348
 2410SOL     OW18688   2.226   0.247  10.626  0.2232  0.1070 -0.1766
 2410SOL    HW118689   2.273   0.254  10.543 -0.4359 -0.1697 -0.5707
 2410SOL    HW218690   2.210   0.339  10.646 -1.3927  0.3473 -2.5181
 2411SOL     OW18691   2.224   4.201   8.631  0.1102  0.2083 -0.0500
 2411SOL    HW118692   2.159   4.214   8.562 -0.1518  1.1406  0.3642
 2411SOL    HW218693   2.178   4.220   8.713 -1.3375  0.1098 -0.8316
 2412SOL     OW18694   2.074   4.017  14.524 -0.0369  0.7472 -0.0158
 2412SOL    HW118695   2.060   4.111  14.522 -0.6061  0.6389 -1.2063
 2412SOL    HW218696   2.145   4.008  14.587 -1.5970  1.7008  1.8848
 2413SOL     OW18697   0.564   3.435   7.672  0.3722  0.1459  0.0344
 2413SOL    HW118698   0.513   3.481   7.739  0.3225 -1.9710  1.4298
 2413SOL    HW218699   0.642   3.405   7.718 -0.3746  0.4691  1.5245
 2414SOL     OW18700   2.004   3.203   1.838  0.8489 -0.1268  0.0549
 2414SOL    HW118701   2.015   3.110   1.854 -1.1772 -0.6280 -1.4644
 2414SOL    HW218702   1.916   3.225   1.869  0.6573  0.2609 -0.7566
 2415SOL     OW18703   0.125   2.674  17.539 -0.1695 -0.3969  0.3227
 2415SOL    HW118704   0.046   2.645  17.585  0.4478 -2.3633  0.1548
 2415SOL    HW218705   0.140   2.758  17.582  2.1599 -0.5246 -0.2335
 2416SOL     OW18706   0.502   2.737  11.942  0.2836 -0.4517 -1.4789
 2416SOL    HW118707   0.475   2.803  12.005 -1.1026 -2.0476 -0.4131
 2416SOL    HW218708   0.553   2.793  11.883 -1.4101  0.5964 -1.9377
 2417SOL     OW18709   4.284   2.207   8.524 -0.2132  0.5066  0.4358
 2417SOL    HW118710   4.224   2.249   8.462 -0.1895 -0.1174 -0.0154
 2417SOL    HW218711   4.360   2.187   8.470 -0.3017 -0.7257  0.7694
 2418SOL     OW18712   3.840   0.845   8.658  0.3741  0.2276 -0.5323
 2418SOL    HW118713   3.802   0.921   8.614 -0.9713 -1.3042 -2.0015
 2418SOL    HW218714   3.769   0.841   8.722 -0.7670  0.6011 -1.7784
 2419SOL     OW18715   2.650   2.468   3.651  0.1450  0.0061 -0.5475
 2419SOL    HW118716   2.740   2.500   3.662  0.3043 -0.7844  0.3509
 2419SOL    HW218717   2.617   2.523   3.722  0.9499  2.0724 -1.7667
 2420SOL     OW18718   2.647   3.402   1.660  0.6579 -0.7830 -0.1404
 2420SOL    HW118719   2.606   3.463   1.721  1.8095  0.0842 -0.2270
 2420SOL    HW218720   2.735   3.396   1.698 -0.1154  0.7065  1.8737
 2421SOL     OW18721   1.159   3.595   8.364  0.0120 -0.6560  0.2300
 2421SOL    HW118722   1.075   3.558   8.338 -0.8633  2.0175 -0.6916
 2421SOL    HW218723   1.225   3.552   8.309  0.2509 -2.8776  2.3043
 2422SOL     OW18724   3.621   2.731  15.471  0.0016  0.2819 -0.0269
 2422SOL    HW118725   3.548   2.703  15.525 -0.9565  0.1739 -1.3679
 2422SOL    HW218726   3.652   2.808  15.519  2.0696 -0.0095 -0.8884
 2423SOL     OW18727   2.922   1.026   0.727 -0.3641  0.2272  0.2394
 2423SOL    HW118728   2.916   1.104   0.781 -0.1334  1.4585 -1.5113
 2423SOL    HW218729   2.857   0.972   0.771  1.3252  0.8424  3.4977
 2424SOL     OW18730   3.181   4.561   3.549  0.1308  0.2494  0.0686
 2424SOL    HW118731   3.158   4.635   3.494  0.0206  1.5065  1.8245
 2424SOL    HW218732   3.140   4.578   3.633 -0.6095 -2.4750  0.2626
 2425SOL     OW18733   0.322   4.089   3.420 -0.3017 -0.6092 -0.0970
 2425SOL    HW118734   0.353   4.168   3.462 -0.7338 -0.9233  0.8091
 2425SOL    HW218735   0.403   4.080   3.370  0.9021  1.5522  1.5010
 2426SOL     OW18736   1.091   1.834   2.336  0.1986 -0.2970 -0.2902
 2426SOL    HW118737   1.150   1.811   2.264 -0.5197 -0.9724 -0.6653
 2426SOL    HW218738   1.080   1.928   2.326 -1.0285 -0.3799  0.2750
 2427SOL     OW18739   3.924   1.304  14.611 -0.0260 -0.4158  0.4906
 2427SOL    HW118740   3.923   1.370  14.542  2.4986 -3.0470 -2.0203
 2427SOL    HW218741   3.897   1.230  14.557  1.4576 -0.7944  0.2899
 2428SOL     OW18742   4.135   0.425  13.402 -0.5294 -0.0658 -0.1901
 2428SOL    HW118743   4.080   0.457  13.474  0.1994  2.5494 -0.8080
 2428SOL    HW218744   4.056   0.412  13.350 -0.4538 -3.8531  0.6599
 2429SOL     OW18745   2.205   4.134   9.775 -0.2851 -0.5547 -0.8193
 2429SOL    HW118746   2.155   4.107   9.852 -0.4765 -2.3579 -1.5752
 2429SOL    HW218747   2.142   4.190   9.730 -1.4536 -0.6999  0.6427
 2430SOL     OW18748   1.543   2.466  13.263  0.5041  0.0474  0.4055
 2430SOL    HW118749   1.532   2.557  13.235  2.3395  0.5115  1.1725
 2430SOL    HW218750   1.489   2.465  13.341 -1.5647  0.5891 -1.0242
 2431SOL     OW18751   1.792   1.964   7.789  0.3118  0.2426  0.2941
 2431SOL    HW118752   1.876   1.919   7.799  0.5815  0.4729 -0.8917
 2431SOL    HW218753   1.739   1.911   7.847 -1.8241  2.2802  0.2049
 2432SOL     OW18754   0.761   4.156  17.531  0.0478 -0.0686 -0.4041
 2432SOL    HW118755   0.789   4.070  17.562 -1.4826  0.0175  1.1902
 2432SOL    HW218756   0.777   4.196  17.616 -1.3033  2.7835 -1.4639
 2433SOL     OW18757   3.928   4.460   7.981  0.1313 -0.2292  0.0939
 2433SOL    HW118758   3.976   4.420   8.054  0.9706  0.4739 -0.0843
 2433SOL    HW218759   3.983   4.536   7.966 -0.4937  0.6637  2.2868
 2434SOL     OW18760   1.306   1.082  12.237  0.3062 -0.2345  0.3274
 2434SOL    HW118761   1.271   0.996  12.215  3.2207 -1.3204  0.0379
 2434SOL    HW218762   1.316   1.071  12.332  1.7927 -0.2270  0.1686
 2435SOL     OW18763   3.281   4.389  10.780  0.1880  0.6217  0.0659
 2435SOL    HW118764   3.271   4.333  10.856 -1.6956  0.9532  0.0490
 2435SOL    HW218765   3.190   4.399  10.752  0.1358 -0.0593 -0.0079
 2436SOL     OW18766   2.283   1.535   7.926  0.2662  0.0524  0.1355
 2436SOL    HW118767   2.313   1.465   7.984 -0.3309 -1.9788 -2.0013
 2436SOL    HW218768   2.319   1.615   7.966  1.6418  0.2723 -1.5346
 2437SOL     OW18769   4.041   4.439  12.304  0.1194  0.3987 -0.1485
 2437SOL    HW118770   4.094   4.518  12.313  0.0738  0.3801  0.2637
 2437SOL    HW218771   3.972   4.458  12.368 -0.3685 -1.2320 -0.1976
 2438SOL     OW18772   1.827   3.977   0.393 -0.5560 -1.2700 -0.4336
 2438SOL    HW118773   1.761   3.963   0.325 -0.8782 -1.3611 -0.0993
 2438SOL    HW218774   1.821   3.895   0.441  1.9680 -0.6541  0.9334
 2439SOL     OW18775   2.714   3.450  17.175  0.0195 -0.1215 -0.2922
 2439SOL    HW118776   2.663   3.523  17.210  3.1916  1.6097  0.6208
 2439SOL    HW218777   2.712   3.480  17.085 -2.6950  1.0803  0.1625
 2440SOL     OW18778   3.814   0.813   4.332 -0.1725  0.5082  0.4431
 2440SOL    HW118779   3.834   0.866   4.255 -2.6233 -1.9508 -1.8801
 2440SOL    HW218780   3.723   0.788   4.314 -0.6467  1.1341  1.9863
 2441SOL     OW18781   2.970   1.374   5.517 -0.6466  0.3605  0.2472
 2441SOL    HW118782   2.942   1.285   5.493 -3.3852  1.4421 -0.5400
 2441SOL    HW218783   2.985   1.410   5.430 -0.6734  1.7871  0.8399
 2442SOL     OW18784   2.372   2.293   1.507 -0.1909 -0.4856 -0.6988
 2442SOL    HW118785   2.354   2.213   1.557 -1.4379  0.8073  0.9324
 2442SOL    HW218786   2.461   2.283   1.472  0.3460 -1.3803  0.8984
 2443SOL     OW18787   0.578   1.420   5.410 -0.3624  0.2725  0.2277
 2443SOL    HW118788   0.649   1.480   5.384 -2.0014  1.0227 -2.5084
 2443SOL    HW218789   0.605   1.381   5.493  1.5876 -0.7992 -0.9165
 2444SOL     OW18790   0.133   1.747   4.483  0.4463  0.4616  0.2094
 2444SOL    HW118791   0.053   1.771   4.530 -0.0143  0.3536 -0.5310
 2444SOL    HW218792   0.097   1.708   4.404  2.0547 -1.8324  0.6008
 2445SOL     OW18793   3.901   3.008   8.565  0.1789 -0.1756 -0.0730
 2445SOL    HW118794   3.970   3.064   8.602  0.9386 -0.9085 -0.3734
 2445SOL    HW218795   3.915   3.031   8.473  0.9170 -1.1385 -0.2008
 2446SOL     OW18796   1.951   0.777   3.881 -0.0577  0.6667  0.4327
 2446SOL    HW118797   1.944   0.756   3.974 -1.2973 -0.8991 -0.0166
 2446SOL    HW218798   1.877   0.731   3.840  1.3810 -1.7201  0.4681
 2447SOL     OW18799   1.962   3.430   7.350  0.0586 -0.3620 -0.4168
 2447SOL    HW118800   1.927   3.403   7.435 -4.6241  2.5912 -1.3863
 2447SOL    HW218801   1.953   3.348   7.302 -1.2254 -1.0766  1.0197
 2448SOL     OW18802   4.250   3.186   4.676 -0.2486 -0.0930  0.4858
 2448SOL    HW118803   4.261   3.276   4.642  0.2936  0.2749  1.6539
 2448SOL    HW218804   4.221   3.141   4.596  0.5873  0.8471 -0.3598
 2449SOL     OW18805   2.734   1.427   3.104 -0.0706  0.0415  0.0297
 2449SOL    HW118806   2.804   1.491   3.088  0.5979 -0.2615  1.7690
 2449SOL    HW218807   2.763   1.354   3.049  0.9744 -0.4645  1.2516
 2450SOL     OW18808   0.285   2.051   2.134 -0.3871  0.1050  0.3209
 2450SOL    HW118809   0.366   2.045   2.084 -0.2359 -2.7880  0.8895
 2450SOL    HW218810   0.238   1.971   2.107  1.4889 -0.4748 -1.2377
 2451SOL     OW18811   1.599   1.596  15.930 -0.2227 -0.3037 -0.4649
 2451SOL    HW118812   1.576   1.549  15.850  2.5032 -1.3149 -0.6370
 2451SOL    HW218813   1.676   1.644  15.901  1.4967 -2.3332  0.7869
 2452SOL     OW18814   2.937   2.081   7.570 -0.5593  0.3020 -0.0820
 2452SOL    HW118815   2.908   2.126   7.490 -3.0897 -1.2134 -0.0196
 2452SOL    HW218816   3.032   2.089   7.575 -0.6358  0.5832  0.9426
 2453SOL     OW18817   2.646   2.010   6.735 -0.1637 -0.1553  0.0955
 2453SOL    HW118818   2.693   2.079   6.781 -0.5329 -0.0698  0.3524
 2453SOL    HW218819   2.682   2.030   6.649  1.1091  0.5365  0.7911
 2454SOL     OW18820   3.940   3.364   2.733 -0.3030  0.2896  0.3867
 2454SOL    HW118821   3.933   3.349   2.638  1.6629 -0.8269  0.4159
 2454SOL    HW218822   3.930   3.458   2.746 -1.6143  0.1786  0.2216
 2455SOL     OW18823   1.815   4.315   4.520  0.2688 -0.2101 -0.6268
 2455SOL    HW118824   1.866   4.251   4.570 -2.5710 -0.8273  1.5173
 2455SOL    HW218825   1.861   4.311   4.436 -0.0252 -1.3607 -0.7359
 2456SOL     OW18826   1.684   4.020   8.357 -0.2547  0.7204  0.2893
 2456SOL    HW118827   1.748   4.091   8.346 -0.7702  1.2986  1.0181
 2456SOL    HW218828   1.703   3.994   8.447  1.2824  1.4323  0.1710
 2457SOL     OW18829   1.126   2.382   9.524  0.0781  0.4930 -0.0628
 2457SOL    HW118830   1.127   2.340   9.610  0.9534  2.7304  1.0170
 2457SOL    HW218831   1.164   2.462   9.561  3.4912 -1.4156  0.5323
 2458SOL     OW18832   1.240   3.152   1.683  0.0991  0.0524 -0.4440
 2458SOL    HW118833   1.249   3.057   1.684  0.1243  0.0824  1.2544
 2458SOL    HW218834   1.165   3.155   1.623 -0.0337  0.9119 -0.2398
 2459SOL     OW18835   2.041   4.310   9.107  0.2533 -0.3306  0.0550
 2459SOL    HW118836   2.131   4.294   9.081  0.3073  0.5307 -0.2666
 2459SOL    HW218837   2.008   4.362   9.034  0.1074 -0.1575  0.2426
 2460SOL     OW18838   3.172   3.645  16.707  0.2149  0.1863 -0.3214
 2460SOL    HW118839   3.124   3.597  16.775  1.2714 -0.9119 -0.3523
 2460SOL    HW218840   3.210   3.576  16.653  1.4400  2.3836 -2.2602
 2461SOL     OW18841   4.411   0.166   5.099  0.8346  0.8442  0.3938
 2461SOL    HW118842   4.438   0.177   5.191  1.9559  0.8271  0.0653
 2461SOL    HW218843   4.415   0.254   5.063  0.4578  0.1225 -1.3773
 2462SOL     OW18844   1.178   4.418   8.390 -0.1478 -0.2771 -0.7211
 2462SOL    HW118845   1.207   4.454   8.474  1.0011 -0.3294 -1.0907
 2462SOL    HW218846   1.151   4.498   8.345 -1.3890  0.3536  1.1452
 2463SOL     OW18847   0.668   2.088   1.186 -0.1421  0.0947 -0.0069
 2463SOL    HW118848   0.741   2.116   1.132 -1.1017  1.8380 -0.3853
 2463SOL    HW218849   0.598   2.107   1.123  0.1197 -1.5090 -0.7946
 2464SOL     OW18850   3.262   2.282   2.797 -0.3854  0.4785 -0.0334
 2464SOL    HW118851   3.337   2.304   2.852  1.9140 -0.4099 -2.8412
 2464SOL    HW218852   3.217   2.367   2.793  0.5983  1.0775  1.8231
 2465SOL     OW18853   4.376   2.801   8.837  0.4921  0.8381  0.4412
 2465SOL    HW118854   4.338   2.766   8.756  3.1025  0.5415 -0.6684
 2465SOL    HW218855   4.412   2.724   8.880  2.0247  1.1612 -0.2578
 2466SOL     OW18856   0.848   3.296  13.443  0.1586  0.5071 -0.3903
 2466SOL    HW118857   0.864   3.307  13.349 -1.1233 -0.3911 -0.6979
 2466SOL    HW218858   0.791   3.371  13.457  0.3070  0.4833  0.3252
 2467SOL     OW18859   2.971   3.741  14.211  0.3065  0.6241 -0.0925
 2467SOL    HW118860   3.014   3.817  14.171  0.0076 -0.0640 -1.7385
 2467SOL    HW218861   2.883   3.741  14.171  0.7739  0.3610 -1.1270
 2468SOL     OW18862   4.524   2.181   5.816  0.1820 -0.5909  0.2614
 2468SOL    HW118863   4.596   2.240   5.835 -1.4660  1.5492 -0.1671
 2468SOL    HW218864   4.516   2.142   5.903 -0.3786  0.2173  0.5660
 2469SOL     OW18865   0.056   0.328   7.640 -0.2368 -0.1848 -0.1527
 2469SOL    HW118866   0.051   0.423   7.638  2.3074 -0.0490  0.1125
 2469SOL    HW218867   4.700   0.298   7.593  0.4372 -0.5252 -1.0499
 2470SOL     OW18868   0.140   1.726   5.597 -0.0318  0.0333  0.3079
 2470SOL    HW118869   0.069   1.780   5.631 -0.9106 -1.0243  0.1410
 2470SOL    HW218870   0.120   1.709   5.505 -0.9294 -1.5223  0.7901
 2471SOL     OW18871   2.060   3.347  16.394  0.3571 -0.4390  0.6023
 2471SOL    HW118872   1.992   3.399  16.352 -1.3727 -1.9185  1.5777
 2471SOL    HW218873   2.130   3.408  16.370 -0.4073 -0.2993 -1.2562
 2472SOL     OW18874   3.817   0.075   6.366 -0.2125 -0.4127  0.1621
 2472SOL    HW118875   3.761   0.002   6.392 -0.4967 -1.0216 -2.1648
 2472SOL    HW218876   3.883   0.070   6.435 -1.2494 -1.5159  1.0779
 2473SOL     OW18877   4.585   0.384   3.710 -0.6550 -0.1826  0.1650
 2473SOL    HW118878   4.489   0.381   3.704 -0.4698  1.6090 -3.8652
 2473SOL    HW218879   4.610   0.311   3.655 -0.7537 -2.0094  2.5409
 2474SOL     OW18880   1.305   4.037   6.379  0.0706  0.0296 -0.2151
 2474SOL    HW118881   1.254   3.966   6.339 -0.7169 -0.3636  1.5024
 2474SOL    HW218882   1.286   4.112   6.323  0.4281  1.6769  1.8676
 2475SOL     OW18883   2.150   4.606   0.441  0.5038  0.0495  0.8448
 2475SOL    HW118884   2.186   4.534   0.390  2.5161  2.8048 -1.6499
 2475SOL    HW218885   2.082   4.559   0.490  0.1923  0.4354  0.7843
 2476SOL     OW18886   3.187   2.850  13.966 -0.3660  0.6839  0.1202
 2476SOL    HW118887   3.128   2.896  14.027 -1.3639 -0.5021  0.0493
 2476SOL    HW218888   3.144   2.766  13.949  0.7416  0.2785 -0.6870
 2477SOL     OW18889   0.642   0.557   9.444  0.0132  0.2439 -0.3988
 2477SOL    HW118890   0.651   0.533   9.536 -0.8086  0.8030 -0.1704
 2477SOL    HW218891   0.574   0.624   9.452 -0.0786  0.1582 -0.4558
 2478SOL     OW18892   0.371   0.266   7.300 -0.3363  0.5413 -0.5233
 2478SOL    HW118893   0.424   0.206   7.353 -0.8673  1.3799  0.9687
 2478SOL    HW218894   0.416   0.350   7.299  1.7932 -0.5733  0.8018
 2479SOL     OW18895   4.490   3.000   7.414 -0.4092  0.1000  0.0039
 2479SOL    HW118896   4.467   2.908   7.431 -0.2598  0.5001  2.4371
 2479SOL    HW218897   4.507   3.026   7.504  0.2442  0.2221 -0.1588
 2480SOL     OW18898   1.981   2.309  15.787  0.1612  0.1795 -0.2869
 2480SOL    HW118899   1.949   2.372  15.852 -0.4493 -1.8576  1.3752
 2480SOL    HW218900   1.966   2.234  15.845  2.0274 -0.0342 -0.1053
 2481SOL     OW18901   1.665   2.220   2.724  0.4420 -0.2344  0.1588
 2481SOL    HW118902   1.643   2.230   2.631  2.5852  0.7570 -0.2327
 2481SOL    HW218903   1.632   2.130   2.726 -2.0666  0.6611 -0.3914
 2482SOL     OW18904   1.694   1.826  14.859  0.2639  0.3259 -0.2580
 2482SOL    HW118905   1.608   1.854  14.829  0.1715 -0.5196 -0.8070
 2482SOL    HW218906   1.701   1.843  14.953 -0.9668 -0.1781 -0.0770
 2483SOL     OW18907   0.916   4.476  16.499  0.5220 -0.2704  0.4029
 2483SOL    HW118908   0.896   4.568  16.485  2.6029  0.6244  3.2774
 2483SOL    HW218909   0.984   4.482  16.567  0.9999 -2.3673  0.1146
 2484SOL     OW18910   0.634   4.405  16.586 -0.4102  0.1756  0.3734
 2484SOL    HW118911   0.725   4.434  16.580 -0.6297  0.4620 -1.7522
 2484SOL    HW218912   0.631   4.320  16.540  2.3610 -0.6113  1.6487
 2485SOL     OW18913   1.254   0.639   4.733  0.5907  0.3830  0.1739
 2485SOL    HW118914   1.223   0.571   4.673 -0.7177  0.2480  0.9992
 2485SOL    HW218915   1.336   0.675   4.702  1.1373  0.2928  1.5039
 2486SOL     OW18916   1.721   3.550   0.757 -0.1540 -0.2836 -0.2450
 2486SOL    HW118917   1.784   3.482   0.779  0.5485  1.2399  2.4608
 2486SOL    HW218918   1.690   3.580   0.842 -1.3351 -0.1570 -0.7186
 2487SOL     OW18919   3.424   1.303   1.021 -0.0184 -0.0586  0.5354
 2487SOL    HW118920   3.495   1.315   1.085 -0.3686  0.5191  0.8138
 2487SOL    HW218921   3.457   1.354   0.948 -0.3467  0.1090  0.5065
 2488SOL     OW18922   3.704   1.313   2.091 -0.0677  0.9044 -0.0289
 2488SOL    HW118923   3.657   1.380   2.141  1.2740  0.4178  1.8711
 2488SOL    HW218924   3.785   1.361   2.077  0.0328  0.3108 -1.4658
 2489SOL     OW18925   4.266   0.217  12.330  0.1408  0.4654  0.1059
 2489SOL    HW118926   4.316   0.267  12.395 -1.0393 -0.7118  1.9293
 2489SOL    HW218927   4.325   0.255  12.265 -0.7535  0.4598 -0.7119
 2490SOL     OW18928   2.395   0.532  14.642  0.1183 -0.5099  0.7524
 2490SOL    HW118929   2.419   0.610  14.592 -0.6168 -1.0766 -0.4877
 2490SOL    HW218930   2.394   0.461  14.577 -0.0890  0.4332 -0.2784
 2491SOL     OW18931   1.455   0.591   6.815 -0.4335  0.8999 -0.1392
 2491SOL    HW118932   1.518   0.548   6.874 -2.1283 -0.4030  0.7341
 2491SOL    HW218933   1.376   0.599   6.867  0.1070  3.1319  0.3378
 2492SOL     OW18934   2.522   0.779  14.563 -0.1991  0.6625 -0.7786
 2492SOL    HW118935   2.563   0.720  14.626 -2.4285  0.5802  0.6058
 2492SOL    HW218936   2.553   0.862  14.597 -0.6560  0.7391 -0.5470
 2493SOL     OW18937   1.357   0.608  10.439 -0.0535 -0.5200  0.3450
 2493SOL    HW118938   1.419   0.610  10.512  1.0264  3.4386 -0.6374
 2493SOL    HW218939   1.298   0.677  10.470  0.0988 -1.1849  2.0988
 2494SOL     OW18940   0.830   2.147   0.784 -0.2322  0.1551 -0.2731
 2494SOL    HW118941   0.861   2.089   0.715  0.6825 -1.1005  1.1843
 2494SOL    HW218942   0.739   2.122   0.801 -0.8311  2.7953  0.4354
 2495SOL     OW18943   2.604   1.058   4.386 -0.2187  0.1403 -0.5366
 2495SOL    HW118944   2.592   1.033   4.294  0.8887 -0.7304 -0.4343
 2495SOL    HW218945   2.699   1.061   4.379 -0.1552  1.9993  1.0229
 2496SOL     OW18946   2.252   3.520  14.762 -0.5679 -0.6360  0.3996
 2496SOL    HW118947   2.222   3.498  14.674  0.2643  2.1031 -0.5524
 2496SOL    HW218948   2.282   3.434  14.791 -0.0766 -0.2820  0.9394
 2497SOL     OW18949   2.756   3.085   4.809 -0.2490 -0.3782  0.5706
 2497SOL    HW118950   2.790   3.060   4.724 -0.0721 -1.9139  1.0914
 2497SOL    HW218951   2.680   3.029   4.829 -1.8260  0.6870 -2.4217
 2498SOL     OW18952   2.930   1.564   8.288 -0.3525 -0.4202 -0.3214
 2498SOL    HW118953   3.021   1.537   8.281 -0.0113  0.5614  0.2977
 2498SOL    HW218954   2.927   1.649   8.244 -0.3691  0.6796  1.7804
 2499SOL     OW18955   2.878   1.392  14.054 -0.2461  0.0663  0.7273
 2499SOL    HW118956   2.959   1.342  14.057 -0.7254 -0.6805  1.3066
 2499SOL    HW218957   2.912   1.478  14.030  0.3407 -0.9185 -2.0245
 2500SOL     OW18958   1.268   3.475   6.200  0.1414 -0.4479  0.5970
 2500SOL    HW118959   1.332   3.464   6.271  0.9412  0.0361 -0.0465
 2500SOL    HW218960   1.193   3.498   6.255  0.5341 -1.8321  1.7435
 2501SOL     OW18961   0.949   2.788   9.592  0.3515 -0.6538  0.0843
 2501SOL    HW118962   0.990   2.776   9.677 -0.1596  0.6889  0.5175
 2501SOL    HW218963   0.893   2.863   9.613  1.8227 -0.0343  1.7789
 2502SOL     OW18964   1.162   3.399   4.079 -0.1636  0.0061 -0.3164
 2502SOL    HW118965   1.208   3.344   4.016  1.7282  1.7134 -0.4552
 2502SOL    HW218966   1.220   3.391   4.155  0.4396  1.4901 -0.6148
 2503SOL     OW18967   3.914   0.254  13.503 -0.3427 -0.3794  0.2314
 2503SOL    HW118968   3.940   0.335  13.547  2.4743 -1.6640  0.9281
 2503SOL    HW218969   3.850   0.288  13.441  1.2827  0.5829 -0.8800
 2504SOL     OW18970   4.674   1.114   3.565  0.5332  0.6254 -0.3001
 2504SOL    HW118971   4.702   1.159   3.485  2.1039  2.4945  1.2777
 2504SOL    HW218972   4.698   1.023   3.547 -2.0696 -0.1510  0.1595
 2505SOL     OW18973   4.451   2.223   4.779 -0.4898 -0.4931 -0.0139
 2505SOL    HW118974   4.376   2.276   4.804 -0.4220 -1.0998  1.4905
 2505SOL    HW218975   4.448   2.164   4.854 -1.5346 -1.7483 -1.0303
 2506SOL     OW18976   4.084   1.188  16.921  0.7845 -0.1841 -0.2754
 2506SOL    HW118977   4.132   1.142  16.853  0.3374 -1.6880  0.4198
 2506SOL    HW218978   4.009   1.128  16.918  0.6598  0.1007 -2.4066
 2507SOL     OW18979   3.044   3.502  13.459 -0.0909 -0.0492  0.2210
 2507SOL    HW118980   3.123   3.548  13.431 -0.6591  0.8358  0.0852
 2507SOL    HW218981   2.984   3.555  13.407  0.6579  1.7097  1.1649
 2508SOL     OW18982   1.179   0.485   5.657  0.0738  0.0215  0.2665
 2508SOL    HW118983   1.195   0.558   5.598 -0.6580 -0.0052  0.0303
 2508SOL    HW218984   1.256   0.477   5.712  0.7244  2.7104 -0.2791
 2509SOL     OW18985   1.203   1.270   8.267 -0.1488 -0.2673  0.1423
 2509SOL    HW118986   1.114   1.234   8.274  0.8489 -2.6100  0.7071
 2509SOL    HW218987   1.189   1.362   8.245 -0.3548 -0.2067  0.5244
 2510SOL     OW18988   4.633   0.019   2.611  0.7477  0.0772 -0.3067
 2510SOL    HW118989   4.687   4.712   2.685  0.5826  1.0713  0.2109
 2510SOL    HW218990   4.675   4.704   2.534 -1.0071 -0.9521 -0.7389
 2511SOL     OW18991   3.861   1.650  16.030 -0.3184  0.4893 -0.1120
 2511SOL    HW118992   3.864   1.678  15.939 -4.5044 -0.3956 -0.5337
 2511SOL    HW218993   3.899   1.563  16.021 -3.4866 -0.7180 -1.9558
 2512SOL     OW18994   2.191   3.415   9.222 -0.0296  0.5024 -0.1933
 2512SOL    HW118995   2.130   3.469   9.172 -0.8775 -0.2091  0.0807
 2512SOL    HW218996   2.136   3.338   9.234  1.1285 -0.5408 -1.4971
 2513SOL     OW18997   4.479   1.684  10.472  0.1660 -0.6255 -0.4409
 2513SOL    HW118998   4.398   1.661  10.426  0.6662  0.4834 -1.8696
 2513SOL    HW218999   4.472   1.779  10.482 -0.7533 -0.5760 -1.5303
 2514SOL     OW19000   2.592   2.576   6.579 -0.0872  0.0443  0.1829
 2514SOL    HW119001   2.561   2.629   6.653  1.3595  3.1149 -1.4013
 2514SOL    HW219002   2.592   2.486   6.612  0.7302 -0.0658 -0.1185
 2515SOL     OW19003   0.653   2.818  15.591  0.1625  0.0933 -0.3267
 2515SOL    HW119004   0.666   2.912  15.602 -0.7482  0.2399 -0.5503
 2515SOL    HW219005   0.700   2.772  15.661 -1.0076 -1.5004 -0.5796
 2516SOL     OW19006   3.025   1.487   8.014 -0.1065 -0.0113 -0.4406
 2516SOL    HW119007   3.096   1.458   8.072 -0.8215 -1.0452 -0.0810
 2516SOL    HW219008   2.951   1.435   8.044 -0.0036  0.8942  1.3962
 2517SOL     OW19009   1.573   2.620   4.493  0.1027 -0.1654  0.1079
 2517SOL    HW119010   1.612   2.590   4.410 -1.8405 -0.7212 -0.6034
 2517SOL    HW219011   1.541   2.535   4.523  1.9793 -1.3008 -1.1188
 2518SOL     OW19012   0.638   0.364   4.238  0.2050 -0.7205 -0.6244
 2518SOL    HW119013   0.670   0.284   4.278  2.8194  1.4733  1.6319
 2518SOL    HW219014   0.676   0.425   4.301 -1.1299 -0.4423 -0.0721
 2519SOL     OW19015   3.159   3.087   6.124  0.6158 -0.1805  0.1346
 2519SOL    HW119016   3.079   3.047   6.088  0.2129  0.9204 -0.1974
 2519SOL    HW219017   3.193   3.125   6.043 -1.6789  0.8968 -0.3396
 2520SOL     OW19018   3.193   3.836   9.192  0.1327 -0.0763 -0.2580
 2520SOL    HW119019   3.273   3.885   9.172  0.1965 -0.8348 -1.8544
 2520SOL    HW219020   3.133   3.882   9.133 -0.4194  1.2775  1.3486
 2521SOL     OW19021   0.110   1.181   4.942  0.5832  0.3103  0.1576
 2521SOL    HW119022   0.120   1.199   5.035  0.1856 -1.2540  0.5036
 2521SOL    HW219023   0.199   1.203   4.914  0.1082  1.7725 -0.2158
 2522SOL     OW19024   2.267   4.070   7.843  0.0894 -0.2816  0.1519
 2522SOL    HW119025   2.242   4.051   7.934 -0.4158 -1.3400 -0.2096
 2522SOL    HW219026   2.346   4.122   7.860 -0.0305 -0.4585  1.2482
 2523SOL     OW19027   1.070   0.778   8.591 -0.3377  0.5754  0.0994
 2523SOL    HW119028   1.129   0.777   8.667 -1.3665 -1.9248  0.8762
 2523SOL    HW219029   1.014   0.702   8.605 -2.6626  2.7120  2.5099
 2524SOL     OW19030   2.961   0.110  12.659 -0.1842  0.3010 -0.2050
 2524SOL    HW119031   3.056   0.117  12.665  0.1205 -1.5450 -2.8391
 2524SOL    HW219032   2.952   0.051  12.584  3.2395 -1.3688  0.7236
 2525SOL     OW19033   0.961   3.631   5.619 -0.0730 -0.0407 -0.0236
 2525SOL    HW119034   0.998   3.660   5.702  3.2878  0.2660 -1.6058
 2525SOL    HW219035   1.019   3.555   5.608  1.7757  1.2304  0.9147
 2526SOL     OW19036   3.748   0.011   5.715  0.1743 -0.3048  0.0423
 2526SOL    HW119037   3.756   0.082   5.651 -0.4274 -0.2077  0.0770
 2526SOL    HW219038   3.837   4.701   5.698 -0.2100 -0.6222 -1.3695
 2527SOL     OW19039   0.701   2.547  11.984  0.3242 -0.1792  0.2901
 2527SOL    HW119040   0.632   2.601  11.946  0.0445 -2.2552 -2.1159
 2527SOL    HW219041   0.649   2.468  11.995 -0.3366  0.1071 -0.7775
 2528SOL     OW19042   3.108   1.838  12.078 -0.3743  0.5824  0.2882
 2528SOL    HW119043   3.063   1.804  12.155 -0.1204 -0.6264 -0.0974
 2528SOL    HW219044   3.149   1.922  12.099 -1.4638  1.5606 -1.3977
 2529SOL     OW19045   0.053   1.803  11.683  0.3208  0.3833 -0.0456
 2529SOL    HW119046   4.718   1.776  11.611 -0.3752 -2.4159  1.5711
 2529SOL    HW219047   0.028   1.894  11.699  0.5609  0.0967  1.9134
 2530SOL     OW19048   2.011   4.711   8.026  0.4078  0.0971  0.1969
 2530SOL    HW119049   2.068   4.638   8.004  1.2494  0.4499  1.2479
 2530SOL    HW219050   2.068   0.065   8.024  0.0191  0.4383  2.3501
 2531SOL     OW19051   1.137   1.420   1.724  0.9338  0.2555  0.2832
 2531SOL    HW119052   1.229   1.426   1.701  0.6413 -2.5979 -1.4984
 2531SOL    HW219053   1.091   1.457   1.648  1.1272  0.5674  0.3203
 2532SOL     OW19054   3.182   0.710   4.644  0.2664 -0.1440 -0.9220
 2532SOL    HW119055   3.132   0.764   4.705  0.1550 -0.5311 -0.6731
 2532SOL    HW219056   3.270   0.719   4.680 -1.2572  5.5366  1.3887
 2533SOL     OW19057   3.324   3.817   5.079 -0.0402 -1.0448  0.5572
 2533SOL    HW119058   3.343   3.800   5.172  0.8485  2.2173  0.9582
 2533SOL    HW219059   3.412   3.814   5.041  0.5763  0.1094  1.8906
 2534SOL     OW19060   1.720   3.460   7.862  0.3796  0.2186 -0.4348
 2534SOL    HW119061   1.701   3.468   7.769  1.3659 -0.5773 -0.6969
 2534SOL    HW219062   1.655   3.392   7.878 -0.2257  0.4983 -1.6995
 2535SOL     OW19063   4.337   0.281   5.511  0.2689  0.2291  0.0119
 2535SOL    HW119064   4.371   0.193   5.494  3.5033  1.4095  0.4157
 2535SOL    HW219065   4.358   0.290   5.604 -0.8975 -0.4461  0.3407
 2536SOL     OW19066   4.041   3.910   3.124  0.4038 -0.2329 -0.0157
 2536SOL    HW119067   4.024   3.987   3.070  1.1006  0.3495  0.5867
 2536SOL    HW219068   3.952   3.879   3.138 -0.0135  1.4105  0.8788
 2537SOL     OW19069   4.638   2.144   1.666 -0.4832  0.3150  0.4607
 2537SOL    HW119070   4.558   2.093   1.678  0.3332 -0.3745  3.0991
 2537SOL    HW219071   4.598   2.224   1.634 -0.1421  0.0592 -0.5811
 2538SOL     OW19072   2.249   1.839   2.871 -0.2154  0.1695 -0.1925
 2538SOL    HW119073   2.317   1.892   2.829  1.3814 -1.5814  0.2132
 2538SOL    HW219074   2.264   1.757   2.825 -0.9818  0.6170 -1.2481
 2539SOL     OW19075   1.636   4.159   7.667  0.4981  0.2931 -0.3300
 2539SOL    HW119076   1.591   4.189   7.745  1.1162  1.8658 -0.5842
 2539SOL    HW219077   1.725   4.165   7.701  0.1668  0.2330  0.5401
 2540SOL     OW19078   0.414   1.571   3.206 -0.5816 -0.5583  0.3111
 2540SOL    HW119079   0.456   1.629   3.143 -1.3007  2.7605  2.9373
 2540SOL    HW219080   0.419   1.487   3.159 -2.2615 -0.5983  0.1912
 2541SOL     OW19081   2.335   2.811   5.404  0.1957 -0.4571  0.0761
 2541SOL    HW119082   2.240   2.799   5.403 -0.0178  1.4006 -2.8434
 2541SOL    HW219083   2.367   2.814   5.314  0.0952 -2.5143 -0.0361
 2542SOL     OW19084   4.366   2.394   1.100  0.2053  0.7586  0.2017
 2542SOL    HW119085   4.413   2.389   1.183 -0.8309 -0.1348  0.7305
 2542SOL    HW219086   4.278   2.380   1.134  0.1886  3.6509  1.3117
 2543SOL     OW19087   1.039   3.777  14.382  0.7766 -0.1326  0.4929
 2543SOL    HW119088   0.989   3.759  14.303 -1.1276 -0.8780  1.8649
 2543SOL    HW219089   1.110   3.827  14.342  0.7648 -0.7838 -0.3504
 2544SOL     OW19090   3.808   2.419   4.227 -0.0257 -0.4704  0.2240
 2544SOL    HW119091   3.823   2.366   4.149 -0.4679 -1.4708  0.8081
 2544SOL    HW219092   3.746   2.486   4.197  1.7077  0.8436 -0.4034
 2545SOL     OW19093   2.316   2.900   5.099 -0.5437 -0.6439  0.1076
 2545SOL    HW119094   2.248   2.964   5.120 -0.3326 -0.6524  0.8174
 2545SOL    HW219095   2.286   2.855   5.019 -0.7497  0.8012 -0.6256
 2546SOL     OW19096   2.043   4.661  12.104  0.0189  0.2775  0.0363
 2546SOL    HW119097   1.996   4.603  12.162 -1.2531 -0.8436 -2.1180
 2546SOL    HW219098   2.126   4.681  12.148 -0.0446  0.7848 -0.0667
 2547SOL     OW19099   2.941   1.200   6.083  0.4082 -0.0475 -0.9898
 2547SOL    HW119100   2.919   1.245   6.002  1.9549  1.2886 -0.6708
 2547SOL    HW219101   3.014   1.253   6.115  0.4121  0.9491 -2.7100
 2548SOL     OW19102   4.206   2.930   2.129 -0.0230  0.2571 -0.3348
 2548SOL    HW119103   4.268   2.994   2.094 -1.5804  1.6189 -0.5900
 2548SOL    HW219104   4.264   2.859   2.156  0.2110 -0.3351 -2.4123
 2549SOL     OW19105   4.333   2.452   1.397  0.7015 -0.1264  0.3172
 2549SOL    HW119106   4.272   2.381   1.418 -0.4951  0.5139 -1.0113
 2549SOL    HW219107   4.273   2.524   1.376  0.0054 -0.8954 -0.3164
 2550SOL     OW19108   0.398   3.341   1.959  0.5606 -0.1844  0.4259
 2550SOL    HW119109   0.352   3.382   1.885  0.1043 -1.1470  0.1805
 2550SOL    HW219110   0.371   3.402   2.028 -1.0098  0.3542 -0.6487
 2551SOL     OW19111   4.224   2.870  16.092  0.1204 -0.4275  0.3039
 2551SOL    HW119112   4.257   2.798  16.146 -1.9383 -1.3484  0.3218
 2551SOL    HW219113   4.285   2.856  16.019  0.5445  1.3352  0.3261
 2552SOL     OW19114   2.838   0.035  15.474 -0.2871  0.7016  0.6950
 2552SOL    HW119115   2.753   4.719  15.495 -0.3429  0.0826 -0.6971
 2552SOL    HW219116   2.844   0.109  15.536  0.2837 -0.0806  1.5763
 2553SOL     OW19117   2.487   4.427   5.763 -0.1038  0.5820 -0.4449
 2553SOL    HW119118   2.469   4.370   5.837  0.7534 -0.1630 -0.8165
 2553SOL    HW219119   2.462   4.504   5.814 -0.5075  0.1403  0.0192
 2554SOL     OW19120   2.111   3.058   1.386 -0.4072  0.0624  0.3647
 2554SOL    HW119121   2.165   3.035   1.462 -0.3327 -1.9589 -0.2909
 2554SOL    HW219122   2.092   3.146   1.417  0.8824  1.3429 -2.4993
 2555SOL     OW19123   4.555   1.155   1.362  0.4757 -0.3936 -0.2144
 2555SOL    HW119124   4.611   1.192   1.430 -0.4940  0.7155 -0.0132
 2555SOL    HW219125   4.547   1.226   1.298  0.9934  0.0609  0.2338
 2556SOL     OW19126   1.342   3.877   4.635 -0.0122  0.4443  0.6659
 2556SOL    HW119127   1.316   3.866   4.726  0.0801  1.3910  0.8005
 2556SOL    HW219128   1.335   3.786   4.604 -1.2891  0.9468 -0.5120
 2557SOL     OW19129   2.497   4.582   6.307 -0.1801  0.2244  0.3567
 2557SOL    HW119130   2.485   4.508   6.366  0.9728  0.2098  0.5827
 2557SOL    HW219131   2.504   4.548   6.218  0.4332 -0.4581  0.6606
 2558SOL     OW19132   4.371   2.873   4.645  0.2291 -0.5557  0.1681
 2558SOL    HW119133   4.293   2.915   4.682 -0.4838 -2.1056  0.4766
 2558SOL    HW219134   4.351   2.886   4.553  0.6032 -0.0486  0.1598
 2559SOL     OW19135   3.127   4.682   1.311 -0.3694 -0.2034  0.5346
 2559SOL    HW119136   3.047   4.705   1.359  0.5943  1.6568  1.2238
 2559SOL    HW219137   3.112   0.011   1.232  1.0248 -0.0895  0.3562
 2560SOL     OW19138   2.025   1.142   8.142  0.3531  0.1929  0.1550
 2560SOL    HW119139   1.937   1.171   8.167  0.5328  0.4795  0.4532
 2560SOL    HW219140   2.034   1.060   8.192 -0.9238  2.2052  3.6812
 2561SOL     OW19141   0.801   0.500   2.959  0.1682 -0.0842  0.2597
 2561SOL    HW119142   0.714   0.482   2.923  0.3119 -0.4064  0.0711
 2561SOL    HW219143   0.784   0.550   3.038 -2.6795  0.1835 -0.5162
 2562SOL     OW19144   2.867   4.432   2.300 -0.1798  0.1275  0.4123
 2562SOL    HW119145   2.941   4.443   2.360 -0.2709  0.1940  0.5125
 2562SOL    HW219146   2.901   4.366   2.240 -1.4969 -0.5108  0.3666
 2563SOL     OW19147   0.265   3.840   7.757 -0.3001  0.1131  0.6455
 2563SOL    HW119148   0.198   3.788   7.714 -1.1287  2.2423 -0.6512
 2563SOL    HW219149   0.213   3.890   7.819 -0.7628 -0.7479  0.9457
 2564SOL     OW19150   3.418   2.583   2.054 -0.0248  0.1925  0.5071
 2564SOL    HW119151   3.475   2.650   2.017 -1.1321  0.0798 -1.3951
 2564SOL    HW219152   3.480   2.512   2.072 -0.4159  0.2450  2.0277
 2565SOL     OW19153   0.006   4.352   6.848  0.3844 -0.4156 -0.1411
 2565SOL    HW119154   4.720   4.445   6.827 -0.7097  0.0733  2.4357
 2565SOL    HW219155   0.068   4.318   6.783  0.2259  0.6625 -0.8531
 2566SOL     OW19156   0.573   2.383  17.001  0.3909  0.1861 -0.4265
 2566SOL    HW119157   0.492   2.427  16.974  0.0980 -0.4757 -0.6186
 2566SOL    HW219158   0.588   2.433  17.081 -1.3868 -0.2203  0.1658
 2567SOL     OW19159   0.407   3.400   5.407  0.6647 -0.0863  0.0746
 2567SOL    HW119160   0.421   3.414   5.501 -0.4796 -0.4906  0.3034
 2567SOL    HW219161   0.355   3.320   5.419  0.0346  0.5992  1.9505
 2568SOL     OW19162   3.449   4.153   0.753  0.1549  0.0201  0.4830
 2568SOL    HW119163   3.524   4.115   0.799  0.1299  1.0441  1.3695
 2568SOL    HW219164   3.450   4.242   0.788 -0.5766  0.5380 -0.8241
 2569SOL     OW19165   4.509   4.503   6.615  0.3025  0.1082  0.5030
 2569SOL    HW119166   4.460   4.556   6.553  0.7431  0.7405  0.6975
 2569SOL    HW219167   4.599   4.530   6.595  0.7436 -2.0194 -0.4676
 2570SOL     OW19168   4.273   1.991   3.263 -0.3027  0.7077  0.0760
 2570SOL    HW119169   4.362   1.956   3.266 -0.0435  1.4736  1.3820
 2570SOL    HW219170   4.243   1.980   3.173  0.7859 -1.5321 -0.0111
 2571SOL     OW19171   3.128   4.583   2.188 -0.1152  0.7505 -0.1601
 2571SOL    HW119172   3.154   4.493   2.209  1.0506  1.0310 -0.3748
 2571SOL    HW219173   3.190   4.595   2.116 -0.1393 -3.2355 -0.8370
 2572SOL     OW19174   0.415   3.253   8.430 -0.0550  0.3759 -0.2405
 2572SOL    HW119175   0.435   3.252   8.336 -0.1057 -0.7245 -0.2452
 2572SOL    HW219176   0.449   3.338   8.456  0.0599  0.0465  0.6848
 2573SOL     OW19177   3.891   2.628   8.500 -0.0569  0.0124  0.5331
 2573SOL    HW119178   3.826   2.595   8.438 -0.6618  0.4543  0.9308
 2573SOL    HW219179   3.948   2.664   8.432  0.1473 -3.3566 -1.1176
 2574SOL     OW19180   4.538   3.977  17.136 -0.4994  0.2794 -0.5346
 2574SOL    HW119181   4.628   3.993  17.166 -0.2095  1.1837 -1.8855
 2574SOL    HW219182   4.497   4.062  17.154  3.3432  1.9269  0.4665
 2575SOL     OW19183   3.416   3.927  14.682  0.8232 -0.1122  0.3181
 2575SOL    HW119184   3.399   3.834  14.666 -0.7405  0.4320 -1.2077
 2575SOL    HW219185   3.446   3.927  14.773  2.1292 -3.8882 -0.1121
 2576SOL     OW19186   3.450   1.580   5.903 -0.6953  0.3118 -0.1750
 2576SOL    HW119187   3.527   1.637   5.913  0.5846 -1.7415  1.5761
 2576SOL    HW219188   3.480   1.494   5.934 -0.6435  0.6752  0.7659
 2577SOL     OW19189   4.579   3.830   6.180 -0.0997 -0.3755 -0.2793
 2577SOL    HW119190   4.647   3.837   6.246 -1.4812 -3.1757  1.4582
 2577SOL    HW219191   4.583   3.734   6.177 -0.1877 -0.3532 -1.1950
 2578SOL     OW19192   3.228   4.323   6.608  0.2074 -0.4986 -0.6332
 2578SOL    HW119193   3.267   4.327   6.521 -0.3018  2.2132 -0.7416
 2578SOL    HW219194   3.305   4.351   6.657 -1.1099  1.6510  0.2204
 2579SOL     OW19195   1.308   3.596   5.938  0.3943 -0.0795  0.4908
 2579SOL    HW119196   1.324   3.513   5.984 -0.1453  0.9268  2.5009
 2579SOL    HW219197   1.341   3.581   5.850 -1.2108 -1.2611  0.0924
 2580SOL     OW19198   0.664   1.611  11.692  0.1258 -0.9676 -0.1221
 2580SOL    HW119199   0.661   1.691  11.744  0.2765  0.2390 -1.9498
 2580SOL    HW219200   0.574   1.617  11.658 -0.2920 -0.7546  1.0349
 2581SOL     OW19201   2.775   3.175   7.049 -0.2046 -0.7364  0.2751
 2581SOL    HW119202   2.837   3.218   6.989  0.1013 -0.9715  0.4233
 2581SOL    HW219203   2.794   3.220   7.131  1.3915  0.0425 -0.5033
 2582SOL     OW19204   1.552   3.390   9.048 -0.1963 -0.2791 -0.1123
 2582SOL    HW119205   1.532   3.344   9.130  0.6408  2.8553  1.8473
 2582SOL    HW219206   1.642   3.358   9.048  0.2407  0.9631 -0.1773
 2583SOL     OW19207   0.919   0.146  16.725  0.1915 -0.1126 -0.0615
 2583SOL    HW119208   0.983   0.150  16.795 -0.8067  1.1657  0.7759
 2583SOL    HW219209   0.844   0.134  16.783  1.1349 -0.2981  1.1033
 2584SOL     OW19210   2.268   4.265  11.231 -0.2696  0.2012  0.1496
 2584SOL    HW119211   2.326   4.195  11.262 -2.0256 -1.9022 -1.2656
 2584SOL    HW219212   2.240   4.296  11.317  1.2807  0.9882  0.3601
 2585SOL     OW19213   0.801   0.254   3.345  1.0130 -0.5993 -0.4641
 2585SOL    HW119214   0.722   0.307   3.348  0.9378 -0.7488  0.2053
 2585SOL    HW219215   0.858   0.300   3.406  0.1425 -0.0715 -0.0534
 2586SOL     OW19216   4.237   4.162   5.172 -0.2913 -0.2328  0.5375
 2586SOL    HW119217   4.245   4.222   5.098 -1.1047 -1.4463 -0.5336
 2586SOL    HW219218   4.291   4.094   5.130  3.7120  2.8584  0.6244
 2587SOL     OW19219   2.543   3.220  11.335  0.2255 -0.6694  0.4067
 2587SOL    HW119220   2.497   3.275  11.271 -4.8014 -1.4628  3.3613
 2587SOL    HW219221   2.636   3.237  11.325  0.8122 -3.6186  1.0387
 2588SOL     OW19222   3.676   1.419   5.793 -0.2078  0.8169 -0.3571
 2588SOL    HW119223   3.696   1.500   5.747 -1.1905  0.3537 -1.6092
 2588SOL    HW219224   3.732   1.362   5.741  0.3810  0.7434  0.3579
 2589SOL     OW19225   4.611   2.139   7.543 -0.0526  0.9324 -0.0924
 2589SOL    HW119226   4.515   2.142   7.537 -0.1503  1.0121  1.4604
 2589SOL    HW219227   4.626   2.135   7.449  1.8306  0.0424  0.2581
 2590SOL     OW19228   0.642   3.011   4.523  0.0631  0.1569  0.1266
 2590SOL    HW119229   0.549   2.995   4.537 -0.3465  1.3317 -1.1332
 2590SOL    HW219230   0.685   2.950   4.582  1.3196  0.9898  0.0804
 2591SOL     OW19231   1.273   4.645  15.841  0.0840 -0.2246  0.3810
 2591SOL    HW119232   1.342   4.596  15.886 -0.9421 -3.6433 -1.7671
 2591SOL    HW219233   1.219   4.677  15.913 -0.6216  1.8074 -1.0618
 2592SOL     OW19234   1.305   1.209   9.877 -0.0027  0.1898  0.1660
 2592SOL    HW119235   1.224   1.175   9.913  0.8537 -0.0399  1.8796
 2592SOL    HW219236   1.369   1.157   9.925  0.7555  1.0897  0.1486
 2593SOL     OW19237   3.684   2.805   3.297  0.6123  0.3342  0.2017
 2593SOL    HW119238   3.603   2.811   3.347 -0.4303 -2.3552 -1.1552
 2593SOL    HW219239   3.736   2.739   3.344  1.3579  0.5836 -0.2725
 2594SOL     OW19240   2.275   1.270   2.871  0.1806 -0.4539  0.1771
 2594SOL    HW119241   2.279   1.251   2.777  1.7833  0.9985 -0.0609
 2594SOL    HW219242   2.368   1.278   2.892  0.6839 -0.3956 -2.0878
 2595SOL     OW19243   1.650   1.567   2.413  0.0514 -0.0083  0.0594
 2595SOL    HW119244   1.625   1.657   2.391 -1.3796 -0.8414 -1.8123
 2595SOL    HW219245   1.601   1.545   2.492  1.4225 -0.3856  0.8065
 2596SOL     OW19246   3.421   3.153   5.522 -0.5638 -0.6935 -0.1457
 2596SOL    HW119247   3.493   3.160   5.584 -2.1202  0.6954  1.5002
 2596SOL    HW219248   3.434   3.065   5.487  0.2236 -0.0670 -1.4504
 2597SOL     OW19249   0.034   0.510   6.803 -0.1628 -0.3930 -0.5538
 2597SOL    HW119250   0.014   0.565   6.728 -1.7398  0.0151  0.1514
 2597SOL    HW219251   0.128   0.494   6.795 -0.3233 -0.7775 -1.6384
 2598SOL     OW19252   2.733   3.872   6.197  0.2176  0.2412  0.4373
 2598SOL    HW119253   2.669   3.840   6.133 -1.1631  0.4640  1.6902
 2598SOL    HW219254   2.784   3.933   6.144 -0.0888 -0.2185 -0.3909
 2599SOL     OW19255   2.477   1.760  15.570  0.0734 -0.2213  0.0011
 2599SOL    HW119256   2.426   1.822  15.517  0.1594 -0.6239 -0.5604
 2599SOL    HW219257   2.408   1.701  15.600 -1.8380  0.9183 -2.0984
 2600SOL     OW19258   2.825   0.361   0.464 -0.3396  0.5505 -0.0352
 2600SOL    HW119259   2.860   0.394   0.547 -0.2342 -0.5148  0.3470
 2600SOL    HW219260   2.735   0.333   0.481  0.1438 -1.4398 -0.8042
 2601SOL     OW19261   2.980   3.568   9.230 -0.0672  0.0219 -0.7000
 2601SOL    HW119262   3.069   3.595   9.207  0.8513 -3.2959 -0.9295
 2601SOL    HW219263   2.936   3.653   9.226  1.3166  0.7756  0.0276
 2602SOL     OW19264   3.579   3.463  13.544  0.1549  0.1035 -0.0129
 2602SOL    HW119265   3.665   3.501  13.525 -0.2494  1.2011  0.3666
 2602SOL    HW219266   3.588   3.446  13.638  0.7100  0.4467 -0.0018
 2603SOL     OW19267   0.041   0.836   9.013 -0.6877 -0.0622 -0.0021
 2603SOL    HW119268   0.105   0.886   8.962 -2.0454  2.2854  0.5721
 2603SOL    HW219269   4.691   0.841   8.951 -0.8816  1.4320  0.3302
 2604SOL     OW19270   2.262   2.964  16.415  0.0760  0.0005 -0.0855
 2604SOL    HW119271   2.298   2.989  16.500  1.3093 -1.0245 -0.3025
 2604SOL    HW219272   2.173   2.999  16.419  0.3437  0.7583 -0.6337
 2605SOL     OW19273   0.810   0.925   8.128 -0.6168  0.1142  0.4703
 2605SOL    HW119274   0.837   0.885   8.210  2.8889  1.4684 -0.0519
 2605SOL    HW219275   0.724   0.960   8.153 -0.7741 -1.4825  2.0988
 2606SOL     OW19276   0.882   3.021  16.454  0.3525  0.5580 -0.3020
 2606SOL    HW119277   0.813   3.087  16.456 -0.1814  0.0212 -1.0812
 2606SOL    HW219278   0.947   3.049  16.519 -1.5185  1.8653  0.9929
 2607SOL     OW19279   3.468   2.289   8.009 -0.2949 -0.6917 -0.6268
 2607SOL    HW119280   3.559   2.318   8.016 -1.1645  1.5287  1.2741
 2607SOL    HW219281   3.421   2.358   8.055  1.8235 -0.4245  1.1189
 2608SOL     OW19282   2.523   3.283   5.087  0.0496 -0.0062  0.0917
 2608SOL    HW119283   2.570   3.366   5.098 -0.2919  0.3946 -1.3520
 2608SOL    HW219284   2.452   3.290   5.151 -0.0066 -0.6756  0.1037
 2609SOL     OW19285   1.424   0.979   2.107  0.4232 -0.2271 -0.5240
 2609SOL    HW119286   1.438   0.891   2.140  0.4159  0.9503  2.6532
 2609SOL    HW219287   1.329   0.984   2.100  0.3628 -0.3692  0.2814
 2610SOL     OW19288   0.791   2.202   9.576 -0.7373  0.3096 -0.0766
 2610SOL    HW119289   0.810   2.140   9.647 -1.1449  0.0020 -0.2332
 2610SOL    HW219290   0.704   2.170   9.550 -1.9134  0.8226  3.2993
 2611SOL     OW19291   4.534   3.915   3.588  0.1270  0.0322  0.5234
 2611SOL    HW119292   4.584   3.886   3.664 -0.0454  1.3914  1.1738
 2611SOL    HW219293   4.595   3.940   3.519  1.3183  0.4605  1.7376
 2612SOL     OW19294   0.259   0.824   6.733 -0.2779  0.4505  0.2336
 2612SOL    HW119295   0.301   0.864   6.657 -2.3642  0.5904 -0.8671
 2612SOL    HW219296   0.211   0.759   6.682 -1.0853 -0.6526  2.3921
 2613SOL     OW19297   3.646   2.661   4.230 -0.1583  0.0335  0.0037
 2613SOL    HW119298   3.558   2.669   4.193  0.8234 -1.0777 -2.5588
 2613SOL    HW219299   3.638   2.701   4.316 -0.7418  0.0348 -0.0486
 2614SOL     OW19300   2.459   4.553   5.251  0.2115 -0.2727 -0.0597
 2614SOL    HW119301   2.438   4.519   5.339 -0.6030 -0.2884 -0.2523
 2614SOL    HW219302   2.390   4.500   5.209 -0.0851  0.3719 -0.3792
 2615SOL     OW19303   3.430   0.487   7.103 -0.2691  0.1639 -0.5367
 2615SOL    HW119304   3.402   0.488   7.012  3.3291  3.9162 -1.5797
 2615SOL    HW219305   3.443   0.579   7.124 -2.2757  0.2972  0.0491
 2616SOL     OW19306   1.350   1.815   8.024  0.5573  0.6050 -0.2572
 2616SOL    HW119307   1.406   1.833   8.099  1.3843 -1.3537 -0.4131
 2616SOL    HW219308   1.349   1.720   8.013  1.0061  0.6013 -0.2694
 2617SOL     OW19309   2.222   4.672  10.465 -0.1779  0.3959  0.2683
 2617SOL    HW119310   2.250   4.582  10.485 -3.1496 -0.7473 -0.7431
 2617SOL    HW219311   2.223   4.706  10.554 -2.3042  0.5580  0.2221
 2618SOL     OW19312   3.156   4.589   9.677 -0.0006 -0.6835 -0.6311
 2618SOL    HW119313   3.228   4.633   9.632 -0.6015 -1.0397 -1.9516
 2618SOL    HW219314   3.100   4.661   9.707  0.4675 -0.3878 -0.4611
 2619SOL     OW19315   1.912   0.961   9.373 -0.2756 -0.4290 -0.2916
 2619SOL    HW119316   1.928   0.887   9.315 -0.2876 -0.0779 -0.7404
 2619SOL    HW219317   1.873   0.920   9.450  0.8652 -0.7002  0.1369
 2620SOL     OW19318   3.184   2.317  16.122  0.6987  0.8436  0.1253
 2620SOL    HW119319   3.242   2.269  16.062  1.1244  2.5539 -0.8369
 2620SOL    HW219320   3.204   2.410  16.114 -0.0849  1.0714  0.8324
 2621SOL     OW19321   4.187   3.186   3.338  0.7089  0.3199 -0.1965
 2621SOL    HW119322   4.104   3.170   3.294  0.9423  2.0236 -1.2529
 2621SOL    HW219323   4.243   3.135   3.279 -0.8082 -0.3169 -1.0808
 2622SOL     OW19324   4.341   3.495   2.351 -0.2086 -0.3031 -0.8305
 2622SOL    HW119325   4.348   3.538   2.266 -0.7591 -1.1151 -1.2830
 2622SOL    HW219326   4.271   3.549   2.387 -0.2557 -2.3077  2.0444
 2623SOL     OW19327   1.981   1.670   2.423 -0.3399  0.3970 -0.1971
 2623SOL    HW119328   1.937   1.589   2.451  1.7102 -0.8068 -0.4786
 2623SOL    HW219329   1.983   1.660   2.328  0.7444 -2.6202  0.1467
 2624SOL     OW19330   0.718   1.657   4.122  0.6556  0.2170  0.2362
 2624SOL    HW119331   0.806   1.684   4.095  0.2235 -0.1748 -1.5638
 2624SOL    HW219332   0.736   1.638   4.214 -2.0342  0.1289  0.7302
 2625SOL     OW19333   2.817   4.570  16.884 -0.3178 -0.0871 -0.1929
 2625SOL    HW119334   2.730   4.553  16.848 -0.8273  2.1502 -0.0129
 2625SOL    HW219335   2.858   4.486  16.867 -3.0901 -1.4674 -0.0035
 2626SOL     OW19336   2.985   0.811   2.684  0.1079 -0.0749 -0.1737
 2626SOL    HW119337   3.080   0.817   2.674  0.1125  0.5490  0.1974
 2626SOL    HW219338   2.960   0.757   2.609 -0.6356 -2.0194  1.4835
 2627SOL     OW19339   3.997   1.132  13.719 -0.1841  0.3519  0.1555
 2627SOL    HW119340   4.040   1.209  13.683  1.6325  0.1190  1.8140
 2627SOL    HW219341   4.035   1.125  13.807  2.1799 -0.1351 -0.8795
 2628SOL     OW19342   0.452   4.573   8.656  0.7335  0.9495  0.1493
 2628SOL    HW119343   0.387   4.625   8.703 -1.5522 -0.8959 -0.9283
 2628SOL    HW219344   0.401   4.497   8.626 -0.6331  1.2700  1.6052
 2629SOL     OW19345   4.313   3.396   4.027 -0.2708 -0.1439 -0.7370
 2629SOL    HW119346   4.296   3.490   4.023 -0.5678 -0.1648  0.0031
 2629SOL    HW219347   4.357   3.391   4.112  0.0979  1.1462 -0.8406
 2630SOL     OW19348   2.750   1.387   4.946 -0.1079  0.0052 -0.8755
 2630SOL    HW119349   2.685   1.338   4.895 -1.8939  1.6923 -0.2324
 2630SOL    HW219350   2.751   1.336   5.027 -4.3428  0.2672 -0.6378
 2631SOL     OW19351   3.331   3.337  16.009  0.2932  0.6208  0.0132
 2631SOL    HW119352   3.265   3.280  15.969  1.8045 -1.5207  0.5735
 2631SOL    HW219353   3.359   3.386  15.932 -1.3561 -0.2291 -1.1283
 2632SOL     OW19354   2.767   0.854   9.707 -0.0106 -0.4829 -0.4658
 2632SOL    HW119355   2.808   0.940   9.715 -0.2517 -0.5402  1.3954
 2632SOL    HW219356   2.809   0.812   9.782  0.5963  1.1902  0.1502
 2633SOL     OW19357   3.759   3.973   4.343 -0.0517 -0.4404 -0.0813
 2633SOL    HW119358   3.843   3.929   4.336  0.5939  0.9501 -1.1992
 2633SOL    HW219359   3.763   4.032   4.267 -0.3510  1.2359  1.2072
 2634SOL     OW19360   1.490   0.917   5.820 -0.4661 -0.3550  0.2758
 2634SOL    HW119361   1.475   0.884   5.908 -3.4130 -0.4292 -0.2562
 2634SOL    HW219362   1.579   0.886   5.805 -0.6903  0.2514 -2.4367
 2635SOL     OW19363   2.963   3.227   8.996 -0.2788 -0.3863 -0.1721
 2635SOL    HW119364   3.041   3.173   8.979 -0.2169 -0.1449 -0.6328
 2635SOL    HW219365   2.983   3.262   9.083  0.2569 -0.7520 -0.1431
 2636SOL     OW19366   3.368   3.122   0.201  0.2128  0.0415 -0.2961
 2636SOL    HW119367   3.362   3.064   0.276 -0.6176 -0.1752 -0.5290
 2636SOL    HW219368   3.460   3.108   0.178 -0.1540 -2.1617 -0.4267
 2637SOL     OW19369   3.057   3.312   8.562 -0.0926 -0.3485 -0.0170
 2637SOL    HW119370   3.005   3.369   8.620 -0.7019 -0.8501 -0.0704
 2637SOL    HW219371   3.072   3.225   8.599 -0.4675  0.3539  1.8107
 2638SOL     OW19372   1.559   2.521   7.883 -0.2986  0.0787  0.8804
 2638SOL    HW119373   1.576   2.438   7.838 -1.7998 -0.3576  1.1068
 2638SOL    HW219374   1.543   2.492   7.972  2.3428 -0.9398  1.0357
 2639SOL     OW19375   0.422   1.613  11.585 -0.2181 -0.1815 -0.5200
 2639SOL    HW119376   0.411   1.541  11.523 -2.4550  0.5775 -1.0401
 2639SOL    HW219377   0.331   1.615  11.616 -0.6730 -0.3507 -1.8313
 2640SOL     OW19378   3.730   2.336   8.034 -0.8227  0.0407  0.1678
 2640SOL    HW119379   3.775   2.417   8.011 -1.7342  0.1617 -1.2188
 2640SOL    HW219380   3.779   2.277   7.977 -1.1508 -0.1684  0.1001
 2641SOL     OW19381   0.354   1.877   9.782  0.8216  0.0837  0.1392
 2641SOL    HW119382   0.414   1.812   9.819 -0.1218 -1.3894 -0.8978
 2641SOL    HW219383   0.361   1.952   9.841  1.3053  2.0573 -2.4350
 2642SOL     OW19384   0.888   2.402   0.780 -0.0272  0.2870 -0.6084
 2642SOL    HW119385   0.855   2.410   0.869  2.9242  1.8657  0.3405
 2642SOL    HW219386   0.859   2.313   0.763 -1.5204  0.3054  1.9262
 2643SOL     OW19387   1.930   4.503   5.663 -0.5346 -0.4638 -0.2991
 2643SOL    HW119388   1.879   4.578   5.634 -1.2575 -0.4872  0.9094
 2643SOL    HW219389   1.861   4.436   5.668  0.8045 -1.7393  1.3764
 2644SOL     OW19390   4.418   2.454   7.528 -0.2238  0.1877 -0.1583
 2644SOL    HW119391   4.477   2.447   7.453 -1.5368  0.3961 -1.2226
 2644SOL    HW219392   4.357   2.383   7.508 -0.6800  1.0552 -1.8660
 2645SOL     OW19393   4.720   2.602  14.103 -0.4239 -0.1644  0.2262
 2645SOL    HW119394   0.044   2.562  14.029  0.1804 -0.6069  0.8498
 2645SOL    HW219395   4.637   2.631  14.066 -0.5685 -0.4933  0.2878
 2646SOL     OW19396   2.466   3.984   1.837 -0.4036  0.0356  0.0204
 2646SOL    HW119397   2.411   3.906   1.838 -1.3669  0.7032 -1.0520
 2646SOL    HW219398   2.453   4.004   1.744  1.0621  0.4619 -0.0995
 2647SOL     OW19399   2.949   1.088  10.242 -0.3262 -0.4660 -0.4561
 2647SOL    HW119400   3.028   1.056  10.286 -0.6350 -0.8134 -0.1601
 2647SOL    HW219401   2.927   1.165  10.293 -3.7778 -0.4165 -2.0371
 2648SOL     OW19402   0.210   0.753   9.452  0.4017 -0.0161 -0.1680
 2648SOL    HW119403   0.151   0.707   9.511 -0.2348 -0.9462 -1.5356
 2648SOL    HW219404   0.199   0.848   9.462  1.0516  0.0982 -0.4779
 2649SOL     OW19405   3.881   3.039   0.247  0.2698  0.3211 -0.4123
 2649SOL    HW119406   3.842   2.954   0.264  0.6243  0.6257  1.9680
 2649SOL    HW219407   3.901   3.045   0.154 -1.0008 -0.7803 -0.7479
 2650SOL     OW19408   0.973   1.392  11.344  0.3784 -0.0962 -0.1702
 2650SOL    HW119409   0.883   1.380  11.375  0.3965  0.9762  0.2916
 2650SOL    HW219410   0.987   1.308  11.299  2.8522  0.3951 -0.3244
 2651SOL     OW19411   0.788   3.864   1.526 -0.2842  0.4880 -0.5669
 2651SOL    HW119412   0.757   3.796   1.467 -0.6691 -2.0179  2.5350
 2651SOL    HW219413   0.740   3.939   1.489 -0.2782  0.0499 -1.4614
 2652SOL     OW19414   2.554   2.959   6.472  0.6338 -0.6560 -0.5107
 2652SOL    HW119415   2.529   2.987   6.559  0.0302 -1.5885 -0.3800
 2652SOL    HW219416   2.543   3.034   6.414 -0.9634  0.9302  1.8997
 2653SOL     OW19417   4.145   2.708   7.721 -0.4023  0.4670  0.5209
 2653SOL    HW119418   4.053   2.683   7.711 -0.5929  1.2216  0.3772
 2653SOL    HW219419   4.152   2.784   7.663  1.8416  0.2436  0.4939
 2654SOL     OW19420   0.811   4.290  14.627  0.1567  0.0606  0.0086
 2654SOL    HW119421   0.843   4.274  14.538  1.9079  0.5211  0.5680
 2654SOL    HW219422   0.883   4.344  14.659 -1.4080  1.4351  1.2167
 2655SOL     OW19423   3.476   2.749   5.016  0.2466  0.0925 -0.0541
 2655SOL    HW119424   3.422   2.733   4.938 -1.0548  1.8142  0.4864
 2655SOL    HW219425   3.411   2.719   5.079 -1.4366  1.2012 -1.2599
 2656SOL     OW19426   4.305   2.866   7.980  0.4705  0.3612  0.0943
 2656SOL    HW119427   4.271   2.801   7.919 -1.0903  0.5553  0.7519
 2656SOL    HW219428   4.398   2.860   7.961  0.4374 -0.5400  0.2126
 2657SOL     OW19429   2.609   3.328  11.847  0.7167 -0.5205  0.0272
 2657SOL    HW119430   2.558   3.276  11.909 -2.3353  2.1321 -0.1969
 2657SOL    HW219431   2.602   3.270  11.771  0.9795  1.0895 -1.2523
 2658SOL     OW19432   3.185   0.498   9.009  0.0258 -0.3797 -0.0663
 2658SOL    HW119433   3.156   0.493   8.918  0.9958 -0.4896 -0.3692
 2658SOL    HW219434   3.268   0.531   8.976 -0.9941  0.6014 -1.6392
 2659SOL     OW19435   3.299   1.757  10.592  0.1568  0.1932  0.5860
 2659SOL    HW119436   3.228   1.708  10.550  0.7668  1.2938 -1.7306
 2659SOL    HW219437   3.248   1.799  10.662  0.3099  0.6481  0.4269
 2660SOL     OW19438   4.511   2.577  10.295  0.1642 -0.1052  0.2900
 2660SOL    HW119439   4.441   2.516  10.319 -0.3673  0.1641 -0.5673
 2660SOL    HW219440   4.503   2.557  10.202  1.9279 -2.1546  0.5752
 2661SOL     OW19441   3.793   3.084   7.745  0.4484 -0.1407  0.0785
 2661SOL    HW119442   3.845   3.163   7.731 -1.1714  0.4958 -2.5209
 2661SOL    HW219443   3.719   3.120   7.794  1.3760  3.1484 -0.9716
 2662SOL     OW19444   2.318   2.124  11.235 -0.2272  0.3557 -0.4572
 2662SOL    HW119445   2.263   2.199  11.215 -2.0701 -1.0388 -0.6535
 2662SOL    HW219446   2.322   2.139  11.329 -0.7577  3.9972 -1.0385
 2663SOL     OW19447   4.033   1.010   3.614 -0.4718 -0.1984 -0.7441
 2663SOL    HW119448   4.005   0.971   3.531  0.0850 -2.8472  0.2892
 2663SOL    HW219449   4.054   1.100   3.589  0.2937  0.1834  1.2910
 2664SOL     OW19450   1.278   2.600   3.811 -0.6981  0.1867 -0.0172
 2664SOL    HW119451   1.372   2.602   3.792 -0.7247 -1.9634 -0.3578
 2664SOL    HW219452   1.259   2.667   3.745  2.8406 -0.6615 -1.9052
 2665SOL     OW19453   2.954   0.351   6.351 -0.0667  0.0525  0.0541
 2665SOL    HW119454   2.929   0.444   6.357 -0.0627  0.2088 -2.1854
 2665SOL    HW219455   2.868   0.322   6.318 -1.0849  2.3304  0.6824
 2666SOL     OW19456   2.123   3.886   9.181 -0.0359  0.0003 -0.1377
 2666SOL    HW119457   2.054   3.947   9.205 -0.2360 -0.1801 -0.2536
 2666SOL    HW219458   2.157   3.905   9.093 -0.8341 -1.3657 -0.7494
 2667SOL     OW19459   0.582   2.380   8.956 -0.0612 -0.6025 -0.4254
 2667SOL    HW119460   0.524   2.445   8.917 -0.1544 -1.1530 -1.2119
 2667SOL    HW219461   0.612   2.424   9.035 -0.6750  1.2646 -1.2326
 2668SOL     OW19462   4.038   1.349   6.635  0.1512  0.1630  0.1407
 2668SOL    HW119463   4.118   1.387   6.599  0.6763  0.1163  1.2365
 2668SOL    HW219464   4.076   1.270   6.676  1.2490  0.4293 -0.3598
 2669SOL     OW19465   1.641   3.638   8.074  0.3397 -0.3822 -0.4803
 2669SOL    HW119466   1.633   3.699   8.001  1.4376  1.3370  0.8557
 2669SOL    HW219467   1.688   3.573   8.022 -1.6751 -0.8408 -1.7465
 2670SOL     OW19468   0.903   2.827  12.279 -0.7035 -0.3842  0.4697
 2670SOL    HW119469   0.859   2.883  12.215 -1.7307 -1.5320  0.1645
 2670SOL    HW219470   0.914   2.751  12.221 -0.3714 -0.9198  1.2433
 2671SOL     OW19471   1.454   2.343   4.456 -0.0776  0.5528 -0.1793
 2671SOL    HW119472   1.542   2.328   4.422  0.4104 -0.7025  1.6313
 2671SOL    HW219473   1.413   2.325   4.371 -0.6048 -1.5575  0.5128
 2672SOL     OW19474   0.666   4.237  16.902 -0.3462  0.0286 -0.0779
 2672SOL    HW119475   0.580   4.279  16.898  0.6949  2.1402 -0.0937
 2672SOL    HW219476   0.660   4.152  16.858 -1.2802  0.0013  0.1075
 2673SOL     OW19477   2.702   0.500   8.817 -0.9274  0.3759  0.1711
 2673SOL    HW119478   2.731   0.507   8.908  1.5348 -1.0055 -0.5270
 2673SOL    HW219479   2.719   0.409   8.795  0.4272  0.6541  0.0457
 2674SOL     OW19480   3.268   1.967  14.766  0.2759 -0.1344 -0.4360
 2674SOL    HW119481   3.320   2.022  14.707 -1.6713  0.3284 -1.7095
 2674SOL    HW219482   3.256   2.024  14.842  0.9309  1.2592 -1.3747
 2675SOL     OW19483   2.113   0.578   8.688 -0.1475 -0.8474  0.2460
 2675SOL    HW119484   2.109   0.574   8.593 -0.0502 -0.1419  0.2200
 2675SOL    HW219485   2.113   0.673   8.698  2.7687 -0.8974  0.7018
 2676SOL     OW19486   3.544   0.325   4.874 -0.7630  0.5700  0.0975
 2676SOL    HW119487   3.502   0.400   4.916 -1.4364  0.2833 -0.0644
 2676SOL    HW219488   3.502   0.249   4.915  0.8686 -0.3283  0.0947
 2677SOL     OW19489   2.589   1.455   3.606  0.3230  0.0035 -0.1112
 2677SOL    HW119490   2.648   1.437   3.679 -1.9338 -1.0160  1.4578
 2677SOL    HW219491   2.517   1.393   3.617  2.5585 -2.7167 -0.8977
 2678SOL     OW19492   1.434   0.358   0.658  0.4384 -0.4063 -0.4974
 2678SOL    HW119493   1.422   0.357   0.753  0.8824 -0.0847 -0.4391
 2678SOL    HW219494   1.342   0.354   0.633  0.3370 -2.9017  0.3327
 2679SOL     OW19495   2.306   0.728   7.626  0.7549 -0.1416 -0.1357
 2679SOL    HW119496   2.301   0.698   7.535  0.0632 -0.1323 -0.1034
 2679SOL    HW219497   2.342   0.645   7.659 -1.5027 -0.5975  1.1657
 2680SOL     OW19498   1.394   0.960   7.967  0.2591 -0.1851  0.2954
 2680SOL    HW119499   1.416   1.021   7.897 -0.0442 -0.7068 -0.2624
 2680SOL    HW219500   1.324   1.005   8.015  0.9795  1.8827 -0.6087
 2681SOL     OW19501   0.807   3.783   8.173  0.4580 -0.2319  0.2982
 2681SOL    HW119502   0.810   3.870   8.133  2.8178  0.2480  1.5290
 2681SOL    HW219503   0.721   3.748   8.150  0.5531 -2.7630  3.7826
 2682SOL     OW19504   3.021   3.489   9.874  0.3422  0.0792 -0.3137
 2682SOL    HW119505   2.962   3.562   9.890 -0.1735 -1.1071  3.0732
 2682SOL    HW219506   3.020   3.502   9.779 -2.7157  0.0001 -0.3080
 2683SOL     OW19507   2.399   4.576   5.951  0.4684 -0.3054  0.1800
 2683SOL    HW119508   2.341   4.524   6.007  1.0727  0.8978  1.9216
 2683SOL    HW219509   2.424   4.658   5.994  0.4155 -1.4240  2.3380
 2684SOL     OW19510   0.843   1.636   7.642 -0.4294  0.1202 -0.1544
 2684SOL    HW119511   0.836   1.693   7.566  0.5570 -1.1366 -1.2009
 2684SOL    HW219512   0.750   1.636   7.664 -0.4984  2.0497 -0.4875
 2685SOL     OW19513   4.418   3.964  15.468 -0.7016 -0.1922  0.3663
 2685SOL    HW119514   4.341   3.909  15.475 -1.6519  0.7975 -2.2723
 2685SOL    HW219515   4.492   3.916  15.506 -0.0057 -0.0765 -0.8432
 2686SOL     OW19516   4.210   0.738   5.920  0.0343  0.2705 -0.4540
 2686SOL    HW119517   4.251   0.768   5.839  2.2644 -2.0878 -0.1987
 2686SOL    HW219518   4.122   0.771   5.905  0.8994  2.1558 -1.4167
 2687SOL     OW19519   1.978   1.458   6.785  0.0049  0.1765 -0.1667
 2687SOL    HW119520   1.921   1.527   6.819  1.6065  0.5608  1.7489
 2687SOL    HW219521   1.918   1.386   6.764 -1.6742  2.0502 -1.7702
 2688SOL     OW19522   0.903   2.977   1.971 -0.2662  0.5726  0.1107
 2688SOL    HW119523   0.934   2.978   1.880  2.0641 -1.6225  0.8694
 2688SOL    HW219524   0.877   3.067   1.991 -0.5364  0.3711  0.6577
 2689SOL     OW19525   4.231   2.454  12.863 -0.3967 -0.2799 -0.2765
 2689SOL    HW119526   4.224   2.462  12.768  0.6966 -0.1597 -0.3475
 2689SOL    HW219527   4.291   2.525  12.885 -1.8573  1.4152 -1.8436
 2690SOL     OW19528   1.717   1.658   7.631  0.1529 -0.2492  0.2270
 2690SOL    HW119529   1.720   1.703   7.716  0.7092 -0.8719  0.5402
 2690SOL    HW219530   1.797   1.685   7.587  1.1400 -2.0002  0.9469
 2691SOL     OW19531   3.169   1.963   8.589  0.2107  0.2529 -0.0084
 2691SOL    HW119532   3.199   2.052   8.571  0.2661  0.7889  2.7651
 2691SOL    HW219533   3.095   1.995   8.641 -0.5231 -1.3003 -0.0723
 2692SOL     OW19534   3.833   4.578   6.674  0.4676 -0.1033  0.1001
 2692SOL    HW119535   3.918   4.584   6.630 -1.6708  1.5465 -3.7865
 2692SOL    HW219536   3.822   4.667   6.706 -0.4812 -0.4709  0.7762
 2693SOL     OW19537   1.772   4.112   6.410  0.4135  0.4064 -0.0628
 2693SOL    HW119538   1.769   4.139   6.502 -1.6889  0.8877 -0.2724
 2693SOL    HW219539   1.815   4.027   6.421  0.1747  0.2216 -0.5832
 2694SOL     OW19540   3.231   1.098  11.951 -0.1263 -0.0099  0.2480
 2694SOL    HW119541   3.209   1.181  11.909  2.5198  0.5738 -0.0280
 2694SOL    HW219542   3.179   1.110  12.030  0.4724  1.0656  0.4763
 2695SOL     OW19543   1.836   0.678   8.654  0.6224  0.2720 -0.1235
 2695SOL    HW119544   1.921   0.722   8.656  1.6511 -1.7878  0.5259
 2695SOL    HW219545   1.808   0.679   8.745 -0.4705 -0.5409 -0.4563
 2696SOL     OW19546   2.183   0.885   3.775 -0.0291  0.0763  0.0448
 2696SOL    HW119547   2.241   0.819   3.812 -1.3314 -0.7764  0.5592
 2696SOL    HW219548   2.095   0.856   3.799  0.4796  0.5037  2.4508
 2697SOL     OW19549   0.990   0.035   7.098 -0.0858 -0.9762  0.1455
 2697SOL    HW119550   1.056   0.011   7.164  0.6579  0.8165  0.0404
 2697SOL    HW219551   0.910   0.026   7.151 -0.5348 -1.0715 -0.5489
 2698SOL     OW19552   2.249   1.136   0.617  0.3111 -0.3193  0.3196
 2698SOL    HW119553   2.218   1.068   0.556 -0.3077 -0.3227  0.6388
 2698SOL    HW219554   2.314   1.085   0.667  0.5976  0.7196  0.9987
 2699SOL     OW19555   2.112   1.513   7.449  0.4783  0.4495  0.7339
 2699SOL    HW119556   2.141   1.492   7.537 -0.4942 -0.5308  0.8124
 2699SOL    HW219557   2.059   1.435   7.430 -0.7626  1.7153 -0.9834
 2700SOL     OW19558   1.816   3.850  17.165  0.0170  0.3923 -0.1105
 2700SOL    HW119559   1.904   3.879  17.143  0.0166  0.1356 -0.4455
 2700SOL    HW219560   1.819   3.761  17.130 -0.2081 -0.1967  1.3466
 2701SOL     OW19561   2.157   2.717   4.447 -0.0803 -0.4202  0.0818
 2701SOL    HW119562   2.187   2.764   4.524  2.8849  0.9567 -1.9261
 2701SOL    HW219563   2.205   2.763   4.379 -1.6177 -0.3558 -0.9494
 2702SOL     OW19564   2.062   2.228   7.663 -0.0750 -0.1389  0.2613
 2702SOL    HW119565   1.987   2.194   7.615  2.4382 -2.0796 -2.2468
 2702SOL    HW219566   2.078   2.316   7.629 -1.2327  0.0794  0.2714
 2703SOL     OW19567   3.431   1.973   8.914  0.1427 -0.0594  0.8349
 2703SOL    HW119568   3.483   2.051   8.935  0.2317 -0.0410  0.5590
 2703SOL    HW219569   3.346   2.011   8.893  0.7472  0.8274 -0.0140
 2704SOL     OW19570   1.779   2.449   7.659  0.1560  0.0720  0.3255
 2704SOL    HW119571   1.854   2.410   7.614 -0.4439 -0.5523 -0.1169
 2704SOL    HW219572   1.790   2.408   7.745  0.2215 -0.5316  0.0257
 2705SOL     OW19573   1.173   2.240   5.578  0.4390  0.4734  0.1816
 2705SOL    HW119574   1.118   2.171   5.542  2.0217 -0.5380 -0.3202
 2705SOL    HW219575   1.171   2.214   5.670 -0.2108  0.9423  0.3022
 2706SOL     OW19576   4.302   0.107   8.391  0.2714 -0.3309 -0.2178
 2706SOL    HW119577   4.395   0.101   8.370 -0.2976  0.8528 -3.1050
 2706SOL    HW219578   4.300   0.083   8.483  0.6859  1.1144  0.1735
 2707SOL     OW19579   2.904   3.351   2.855  0.0630  0.0974  0.5148
 2707SOL    HW119580   2.854   3.341   2.936 -0.7211  2.5141  0.3265
 2707SOL    HW219581   2.991   3.372   2.888  0.2410  0.1897 -0.0183
 2708SOL     OW19582   2.649   4.164   8.145 -0.5214  0.4883  0.2488
 2708SOL    HW119583   2.607   4.079   8.159 -0.2653  0.3901  0.4117
 2708SOL    HW219584   2.605   4.226   8.203 -0.3782 -0.6908  1.6299
 2709SOL     OW19585   2.681   3.088   9.027 -0.3894  0.0770  0.2329
 2709SOL    HW119586   2.754   3.127   8.980 -0.3728 -0.3297 -0.0850
 2709SOL    HW219587   2.704   3.102   9.119 -0.3379 -0.9752  0.3815
 2710SOL     OW19588   1.321   4.145   4.644 -0.2231 -0.4534 -0.4376
 2710SOL    HW119589   1.411   4.176   4.654  0.1566 -1.5204 -0.5595
 2710SOL    HW219590   1.330   4.053   4.621  0.5732 -0.1428 -1.4077
 2711SOL     OW19591   1.117   3.782  15.301 -0.0433 -0.1621 -0.0972
 2711SOL    HW119592   1.149   3.698  15.270 -0.7985 -0.1977 -0.7860
 2711SOL    HW219593   1.180   3.787  15.373 -0.5751 -0.3853  0.3715
 2712SOL     OW19594   0.791   3.577  15.113 -0.6684 -0.1896 -0.5935
 2712SOL    HW119595   0.787   3.592  15.019  2.3186  3.5656 -0.1009
 2712SOL    HW219596   0.854   3.505  15.120 -2.1233 -1.3431  0.9479
 2713SOL     OW19597   2.397   4.618   7.724  0.3158 -0.1447 -0.3357
 2713SOL    HW119598   2.381   4.607   7.630 -0.9606  0.4072 -0.1856
 2713SOL    HW219599   2.396   4.713   7.735 -2.4013 -0.2917  0.7105
 2714SOL     OW19600   1.977   3.358  13.266  0.4781 -1.0335 -0.1126
 2714SOL    HW119601   2.033   3.321  13.198 -1.0550 -0.7446 -1.5281
 2714SOL    HW219602   1.911   3.396  13.209  0.4731  0.5022  0.9141
 2715SOL     OW19603   0.421   1.379  11.419  0.2951  0.0201 -0.0290
 2715SOL    HW119604   0.347   1.318  11.415 -0.9908  1.5141  0.6334
 2715SOL    HW219605   0.458   1.359  11.333 -1.1719  0.1145 -0.6986
 2716SOL     OW19606   2.414   2.050   5.232 -0.2696  0.4183 -0.2297
 2716SOL    HW119607   2.425   1.966   5.188 -1.1079 -0.6279  1.5502
 2716SOL    HW219608   2.369   2.021   5.311  0.0995 -2.4415 -1.0679
 2717SOL     OW19609   0.897   0.481   5.715  0.5328 -0.0346  0.1022
 2717SOL    HW119610   0.987   0.499   5.690 -0.1640  1.6710 -1.1724
 2717SOL    HW219611   0.865   0.571   5.707  0.8560 -0.0047 -0.8547
 2718SOL     OW19612   2.843   2.412   9.287 -0.0849  0.4259  0.3687
 2718SOL    HW119613   2.814   2.321   9.295 -0.8423  0.6625  0.2802
 2718SOL    HW219614   2.842   2.435   9.380  3.2610  2.1945 -0.0265
 2719SOL     OW19615   4.439   4.255   2.667 -0.0154  0.4653 -0.0134
 2719SOL    HW119616   4.525   4.280   2.635  0.1014 -0.7117 -0.6325
 2719SOL    HW219617   4.384   4.247   2.589 -0.8131  0.5908  0.5377
 2720SOL     OW19618   4.237   0.050   3.629 -0.7542 -0.3093  0.0711
 2720SOL    HW119619   4.157   0.002   3.652 -0.3205  0.0698  2.4482
 2720SOL    HW219620   4.252   0.098   3.710 -0.5033  0.0913 -0.2181
 2721SOL     OW19621   1.968   0.895   8.245  0.1323 -0.6392 -0.5691
 2721SOL    HW119622   2.036   0.842   8.286  1.2214  0.3027 -1.1514
 2721SOL    HW219623   1.909   0.845   8.189 -0.7109 -0.6299  0.3101
 2722SOL     OW19624   1.500   1.356  11.113 -0.1870 -0.2827  0.4156
 2722SOL    HW119625   1.406   1.377  11.108 -0.2226 -0.5445  0.0121
 2722SOL    HW219626   1.497   1.273  11.159  2.5763 -0.2355  0.6691
 2723SOL     OW19627   3.406   1.573   5.594  0.5403  0.5042  0.1996
 2723SOL    HW119628   3.457   1.584   5.674  0.6590  0.2819  0.1540
 2723SOL    HW219629   3.336   1.518   5.631  1.7596 -1.0144  0.2261
 2724SOL     OW19630   0.389   0.386   9.569 -0.1330  0.3232 -0.1212
 2724SOL    HW119631   0.366   0.465   9.618 -1.0453  0.6896 -1.1400
 2724SOL    HW219632   0.483   0.402   9.557  0.3923 -0.6540  2.6302
 2725SOL     OW19633   4.142   2.936   8.939  0.3008  0.4077 -0.1772
 2725SOL    HW119634   4.075   2.901   8.882 -0.3869  0.6230  0.5009
 2725SOL    HW219635   4.221   2.885   8.920  1.6558  1.5126  2.3158
 2726SOL     OW19636   2.405   1.819   4.232 -0.0551 -0.0780  0.0090
 2726SOL    HW119637   2.456   1.761   4.288 -1.2451 -1.4385 -0.3180
 2726SOL    HW219638   2.467   1.854   4.167  0.3246 -0.4870  0.1513
 2727SOL     OW19639   2.897   4.175   0.568 -0.0318 -0.7031  0.0879
 2727SOL    HW119640   2.843   4.098   0.582 -0.7483  0.3001  2.8499
 2727SOL    HW219641   2.877   4.195   0.477  1.5289 -0.8031 -0.2706
 2728SOL     OW19642   0.370   3.142  16.510 -0.2547 -0.3245 -0.3438
 2728SOL    HW119643   0.339   3.152  16.419  0.6318  2.3499 -0.3625
 2728SOL    HW219644   0.453   3.104  16.483 -0.7303  0.7044 -3.3631
 2729SOL     OW19645   2.512   3.724  13.155  0.5775  0.0567  0.7967
 2729SOL    HW119646   2.608   3.722  13.160  0.6082  0.0971  0.1943
 2729SOL    HW219647   2.483   3.774  13.231 -0.4680  1.3805 -0.4875
 2730SOL     OW19648   0.237   3.652   6.070 -1.0706 -0.2363 -0.0056
 2730SOL    HW119649   0.187   3.732   6.056 -0.6357  0.0611  0.1613
 2730SOL    HW219650   0.319   3.692   6.042  0.3008 -3.1705 -0.1438
 2731SOL     OW19651   0.094   3.045  14.672  1.2040 -0.0036 -0.2377
 2731SOL    HW119652   0.109   3.048  14.577  4.0029  1.1341  0.2511
 2731SOL    HW219653   0.138   3.128  14.687  1.0669  0.2700 -1.3666
 2732SOL     OW19654   1.606   4.394   3.157 -0.2588 -0.2540  0.3035
 2732SOL    HW119655   1.624   4.420   3.067 -3.0173 -0.5656 -0.3299
 2732SOL    HW219656   1.559   4.475   3.176 -4.2712 -1.9967 -2.0053
 2733SOL     OW19657   2.594   1.098   5.961 -0.2703  0.4603 -0.0655
 2733SOL    HW119658   2.572   1.006   5.955  1.1135  0.1280 -0.0161
 2733SOL    HW219659   2.506   1.127   5.988 -0.7016 -0.9714  0.0372
 2734SOL     OW19660   2.503   3.434   7.724  0.2174 -0.1111 -0.1263
 2734SOL    HW119661   2.519   3.485   7.644 -1.9165 -1.3131 -1.3230
 2734SOL    HW219662   2.415   3.410   7.695  0.0032  0.5135  0.0067
 2735SOL     OW19663   0.048   3.281   6.171 -0.3552  0.0096 -0.6508
 2735SOL    HW119664   0.140   3.279   6.195 -0.8076  1.2412  1.1322
 2735SOL    HW219665   0.013   3.235   6.247  1.1365 -0.3701 -0.1904
 2736SOL     OW19666   0.624   3.377   4.128 -0.4678 -0.5572  0.3264
 2736SOL    HW119667   0.630   3.340   4.216 -1.1440  0.0546  0.6290
 2736SOL    HW219668   0.717   3.375   4.102 -1.1563 -0.4732 -2.1374
 2737SOL     OW19669   4.406   2.698   4.034 -0.1341  0.3701 -0.6657
 2737SOL    HW119670   4.391   2.673   3.943  0.3330  2.0059 -1.1998
 2737SOL    HW219671   4.497   2.668   4.031 -0.4052 -0.2937 -2.0144
 2738SOL     OW19672   2.853   3.612   4.153 -0.0217  0.7096 -0.5682
 2738SOL    HW119673   2.843   3.541   4.089  0.3970 -0.2281  0.4094
 2738SOL    HW219674   2.780   3.597   4.213  0.8578 -1.7841 -0.0893
 2739SOL     OW19675   4.401   0.963  12.084 -0.7196  0.4179  0.3598
 2739SOL    HW119676   4.466   0.995  12.022 -2.0411 -1.9311 -2.2837
 2739SOL    HW219677   4.446   0.882  12.109 -0.1957 -0.2175 -2.6407
 2740SOL     OW19678   1.588   1.828   1.629  0.7120  0.2405 -0.3208
 2740SOL    HW119679   1.521   1.891   1.655 -0.3710 -0.8323 -0.4882
 2740SOL    HW219680   1.552   1.804   1.544  2.6213 -0.8250 -0.8073
 2741SOL     OW19681   2.354   3.860  17.282  0.2134 -0.2987  0.0829
 2741SOL    HW119682   2.436   3.822  17.314 -0.4373 -1.8945 -0.1524
 2741SOL    HW219683   2.396   3.916  17.216  0.0150 -0.7575 -0.4280
 2742SOL     OW19684   2.923   0.747   8.814  0.3990  0.3892 -0.2825
 2742SOL    HW119685   2.926   0.712   8.903 -0.1556  1.6981  0.2517
 2742SOL    HW219686   2.834   0.782   8.806  1.2099  2.4605 -0.1477
 2743SOL     OW19687   1.983   4.301   1.574 -0.2741 -0.3236  0.3529
 2743SOL    HW119688   1.890   4.315   1.558 -0.3594  0.0847  1.2367
 2743SOL    HW219689   2.027   4.294   1.489  2.7651  2.0376  1.7193
 2744SOL     OW19690   0.329   4.263   1.304 -0.0700 -0.2065  0.1664
 2744SOL    HW119691   0.423   4.265   1.285  0.3194  3.6872  2.5137
 2744SOL    HW219692   0.324   4.170   1.328  0.9905 -0.3307 -0.1120
 2745SOL     OW19693   2.062   0.435  16.745  0.2578 -0.0558 -0.2935
 2745SOL    HW119694   2.131   0.376  16.714 -0.0919  0.0860 -1.3521
 2745SOL    HW219695   2.021   0.468  16.666  0.9442  1.7677  0.1167
 2746SOL     OW19696   2.559   1.330   8.690 -0.1147  0.4459  0.5161
 2746SOL    HW119697   2.492   1.386   8.727 -0.9873  1.1068 -2.1328
 2746SOL    HW219698   2.545   1.348   8.597 -0.9788  0.0413  0.5658
 2747SOL     OW19699   1.270   3.430   2.142  0.5253  0.4659  0.2397
 2747SOL    HW119700   1.322   3.352   2.158  3.0376  1.8484 -1.2282
 2747SOL    HW219701   1.303   3.487   2.212  1.2536  1.2556 -0.7474
 2748SOL     OW19702   0.616   0.440   9.014  0.0409 -0.5753 -0.1940
 2748SOL    HW119703   0.628   0.357   8.968 -2.8095 -1.3008  0.3812
 2748SOL    HW219704   0.537   0.415   9.062  0.3152 -1.5883 -0.2757
 2749SOL     OW19705   1.515   3.404   4.663 -0.4222 -0.8878  0.0764
 2749SOL    HW119706   1.510   3.403   4.759  0.3028  3.3979  0.1256
 2749SOL    HW219707   1.595   3.354   4.645  0.3525  0.5094 -0.3416
 2750SOL     OW19708   3.355   1.110  10.405 -0.0710 -0.1161  0.0952
 2750SOL    HW119709   3.273   1.102  10.453 -0.1840  0.3505 -0.0209
 2750SOL    HW219710   3.370   1.021  10.373  2.2493 -0.4767  2.1321
 2751SOL     OW19711   4.718   4.256   2.834  0.5074 -0.2910  0.1401
 2751SOL    HW119712   4.665   4.304   2.771  0.4038  0.3943  0.7503
 2751SOL    HW219713   0.026   4.328   2.889  1.0434  0.4088 -1.0761
 2752SOL     OW19714   3.979   2.963   4.243 -0.4430  0.4148 -0.1842
 2752SOL    HW119715   3.976   3.054   4.214  0.7321 -0.1905 -2.2179
 2752SOL    HW219716   3.927   2.916   4.178 -1.5576  3.0470 -1.2274
 2753SOL     OW19717   4.392   4.278   3.313 -0.0735 -0.3291  0.4190
 2753SOL    HW119718   4.355   4.191   3.297 -0.1399 -0.3061  0.4467
 2753SOL    HW219719   4.459   4.292   3.246 -0.0483 -1.3249  0.2432
 2754SOL     OW19720   4.137   4.412   3.522  0.7134  0.5300  0.2468
 2754SOL    HW119721   4.109   4.341   3.465  3.0831  0.1908 -0.5174
 2754SOL    HW219722   4.116   4.377   3.608 -3.0551 -0.4391 -1.0612
 2755SOL     OW19723   3.489   0.580   2.609  0.1524 -0.1508  0.1582
 2755SOL    HW119724   3.493   0.608   2.517  2.9237  0.3583  0.4427
 2755SOL    HW219725   3.405   0.534   2.604 -0.4139  0.9287 -0.1684
 2756SOL     OW19726   0.847   3.298   5.471  0.1955  0.5698 -0.0108
 2756SOL    HW119727   0.826   3.208   5.494 -2.0388  0.8132 -1.0429
 2756SOL    HW219728   0.930   3.286   5.425 -0.8072 -2.4520 -1.0067
 2757SOL     OW19729   0.345   2.922   2.117 -0.6301 -0.0984  0.0593
 2757SOL    HW119730   0.250   2.937   2.121 -0.4480  0.1042  3.4033
 2757SOL    HW219731   0.375   2.987   2.054  2.1496 -0.0217  1.4778
 2758SOL     OW19732   4.594   1.049   4.897 -0.3950  0.3515 -0.3307
 2758SOL    HW119733   4.655   1.122   4.884  1.6082 -0.9527  1.7788
 2758SOL    HW219734   4.645   0.984   4.850 -0.0728 -0.3646  0.9995
 2759SOL     OW19735   4.641   3.399   1.761 -0.0753 -0.5836  0.8382
 2759SOL    HW119736   4.553   3.363   1.753  0.4785 -1.9929  1.2329
 2759SOL    HW219737   4.689   3.331   1.714  1.8208  0.5680  1.1180
 2760SOL     OW19738   0.040   0.165   4.769 -0.1684 -0.5763  0.1232
 2760SOL    HW119739   4.689   0.126   4.816 -0.5623 -0.1137 -0.1219
 2760SOL    HW219740   0.003   0.249   4.742 -0.2123 -0.2888  1.0901
 2761SOL     OW19741   2.495   2.820   5.657 -0.0183  0.2934  0.3181
 2761SOL    HW119742   2.458   2.817   5.569  1.2210  0.1707 -0.1883
 2761SOL    HW219743   2.482   2.912   5.680  3.7930  0.7063  0.7595
 2762SOL     OW19744   1.003   3.835   1.677  0.1447 -0.5789 -0.0948
 2762SOL    HW119745   0.936   3.835   1.609 -0.1750  2.2803  0.2041
 2762SOL    HW219746   0.956   3.794   1.749  2.8869 -0.7919  1.5689
 2763SOL     OW19747   0.565   2.543   2.445  0.4564  0.5796  0.1902
 2763SOL    HW119748   0.562   2.594   2.526 -2.6682 -0.3077  0.6301
 2763SOL    HW219749   0.519   2.597   2.380 -1.2512 -0.8776  0.1897
 2764SOL     OW19750   0.304   2.098  15.740 -0.4760 -0.1299  0.0382
 2764SOL    HW119751   0.211   2.077  15.743 -0.8350  1.5718  0.5229
 2764SOL    HW219752   0.344   2.020  15.701 -1.5486 -0.3727 -0.5500
 2765SOL     OW19753   3.335   1.785   3.833  0.4571  0.3616  0.3178
 2765SOL    HW119754   3.402   1.787   3.902 -2.1239 -1.1685  2.8401
 2765SOL    HW219755   3.352   1.698   3.796 -0.2548  0.0512  0.7208
 2766SOL     OW19756   0.760   4.212   1.341  0.1365 -0.1563  0.4403
 2766SOL    HW119757   0.814   4.284   1.308 -0.6186 -0.2170 -0.9441
 2766SOL    HW219758   0.762   4.143   1.274  0.3003 -1.0724  1.3881
 2767SOL     OW19759   2.883   1.551  15.841  0.4624 -0.3294  0.2280
 2767SOL    HW119760   2.823   1.586  15.775  1.9071 -0.9971 -1.4180
 2767SOL    HW219761   2.831   1.533  15.920 -1.3122 -1.1962 -1.1453
 2768SOL     OW19762   2.091   4.229  12.871  0.3727 -0.3712 -0.1368
 2768SOL    HW119763   2.165   4.180  12.835  1.6047  0.6394  1.0360
 2768SOL    HW219764   2.027   4.172  12.828  1.2962 -0.6867 -1.0872
 2769SOL     OW19765   3.392   2.986   2.343 -0.7520  0.1143  0.5940
 2769SOL    HW119766   3.484   3.013   2.339 -0.5046 -0.8487 -0.0376
 2769SOL    HW219767   3.345   3.047   2.286  0.7252 -1.1880 -2.0302
 2770SOL     OW19768   2.267   1.908  14.689  0.3762 -0.5716  0.3122
 2770SOL    HW119769   2.350   1.906  14.736  0.7297  2.2529 -0.1583
 2770SOL    HW219770   2.210   1.963  14.742  0.0864 -0.3205 -0.2494
 2771SOL     OW19771   0.977   2.022   8.135 -0.6315  0.3811 -0.6390
 2771SOL    HW119772   1.033   1.961   8.182  1.1918  2.3954 -0.2049
 2771SOL    HW219773   0.900   1.968   8.113 -1.2414  1.0004 -0.0287
 2772SOL     OW19774   2.407   3.129   1.757 -0.4031  0.0225  0.3288
 2772SOL    HW119775   2.369   3.195   1.815 -0.0147  0.2698  0.3001
 2772SOL    HW219776   2.436   3.067   1.824  0.3765 -1.5832 -1.5005
 2773SOL     OW19777   4.142   2.762  15.715 -0.2910 -0.0812  0.1215
 2773SOL    HW119778   4.165   2.669  15.707 -2.1308 -0.4495 -0.9498
 2773SOL    HW219779   4.135   2.800  15.627 -1.0365  0.2998  0.3403
 2774SOL     OW19780   0.584   4.593  16.779  0.7462  0.0908 -0.8471
 2774SOL    HW119781   0.592   4.517  16.721  0.9364 -1.8059  1.6868
 2774SOL    HW219782   0.489   4.594  16.790  1.2950  0.2775  3.5852
 2775SOL     OW19783   2.799   4.542   8.858  0.3043 -0.5270 -0.2823
 2775SOL    HW119784   2.861   4.471   8.841  1.6584  0.9835 -1.7102
 2775SOL    HW219785   2.839   4.620   8.820 -2.0886  0.8272 -0.0047
 2776SOL     OW19786   3.100   4.411   3.280 -0.0643  0.1038  0.2968
 2776SOL    HW119787   3.021   4.454   3.312 -0.6332 -1.2191  0.6588
 2776SOL    HW219788   3.114   4.443   3.191 -2.0702 -0.0093 -0.0520
 2777SOL     OW19789   3.412   1.435  10.155  0.3511 -0.1681 -0.1742
 2777SOL    HW119790   3.478   1.492  10.193  2.2446 -1.3946 -1.6428
 2777SOL    HW219791   3.434   1.456  10.065  1.3835  1.8186  0.5539
 2778SOL     OW19792   3.202   2.093   7.973  0.0998 -0.1239 -0.2906
 2778SOL    HW119793   3.228   2.093   8.065  0.0489 -0.8571 -0.2756
 2778SOL    HW219794   3.214   2.185   7.949 -1.4357  0.2193  0.2356
 2779SOL     OW19795   0.415   1.220  13.647  0.1737 -0.8581  0.2870
 2779SOL    HW119796   0.467   1.204  13.726 -2.5731 -1.7143  1.9772
 2779SOL    HW219797   0.353   1.290  13.669  1.3780  0.8342 -1.7899
 2780SOL     OW19798   0.194   2.951   3.434  0.2514 -0.6051  0.7038
 2780SOL    HW119799   0.212   3.039   3.467  1.3107 -1.6968  3.0489
 2780SOL    HW219800   0.265   2.897   3.466  1.4844  0.5218 -0.1127
 2781SOL     OW19801   0.588   3.976   3.241 -0.0019  0.0466 -0.1566
 2781SOL    HW119802   0.645   3.906   3.275 -2.0138 -0.2325  2.6127
 2781SOL    HW219803   0.650   4.018   3.181  0.8095  1.2664  1.5366
 2782SOL     OW19804   1.342   4.245   2.358 -0.1459 -0.3882  0.4878
 2782SOL    HW119805   1.318   4.153   2.362  2.3798 -1.0527  0.1373
 2782SOL    HW219806   1.262   4.287   2.392  0.7236  2.0630 -0.4514
 2783SOL     OW19807   2.468   1.286   4.503  0.3873  0.6869  0.1374
 2783SOL    HW119808   2.538   1.248   4.449 -0.4748 -1.7361  0.7242
 2783SOL    HW219809   2.392   1.235   4.474 -0.6279  2.0681  0.3984
 2784SOL     OW19810   4.715   4.277   6.368  0.5791 -0.4444  0.0178
 2784SOL    HW119811   4.653   4.270   6.297  0.7712 -1.4506 -0.0508
 2784SOL    HW219812   0.006   4.184   6.388  2.7341 -0.3256 -0.9069
 2785SOL     OW19813   1.119   1.129   3.164  0.2142  0.4703  0.5257
 2785SOL    HW119814   1.108   1.116   3.259 -0.5010 -0.5982  0.2987
 2785SOL    HW219815   1.207   1.091   3.162  0.3211  0.7838 -0.2749
 2786SOL     OW19816   3.141   3.160   6.994  0.0756 -0.8205 -0.1924
 2786SOL    HW119817   3.182   3.179   7.078 -0.4770 -0.2826 -0.0396
 2786SOL    HW219818   3.218   3.148   6.938  0.9959 -0.9681  1.1177
 2787SOL     OW19819   2.867   2.506  16.102  0.3531  0.6339  0.2107
 2787SOL    HW119820   2.829   2.583  16.060 -1.6757 -0.4937 -0.0319
 2787SOL    HW219821   2.879   2.533  16.193  0.7419  0.7434  0.1282
 2788SOL     OW19822   1.424   2.849  11.282 -0.1795 -0.5709 -0.1314
 2788SOL    HW119823   1.419   2.755  11.297 -0.2679 -0.4088  0.8526
 2788SOL    HW219824   1.395   2.867  11.193 -0.3690 -3.0023 -0.5435
 2789SOL     OW19825   4.044   1.316   3.288  0.3240 -0.4296  0.0811
 2789SOL    HW119826   3.957   1.302   3.326 -0.4090 -0.4085 -1.5706
 2789SOL    HW219827   4.032   1.245   3.225  0.4031 -0.5271  0.1760
 2790SOL     OW19828   0.541   2.508   5.203 -0.7197 -0.3689  0.8367
 2790SOL    HW119829   0.578   2.595   5.218  0.0667 -0.8529  1.7249
 2790SOL    HW219830   0.454   2.528   5.168 -0.2781  0.6462  0.3361
 2791SOL     OW19831   0.269   4.170   6.232 -0.2866  0.7855 -0.5632
 2791SOL    HW119832   0.304   4.167   6.321 -0.4180 -2.4490 -0.6437
 2791SOL    HW219833   0.327   4.101   6.200  0.7854  1.5243 -0.2215
 2792SOL     OW19834   2.021   1.112   8.626 -0.4620  0.2460 -0.1388
 2792SOL    HW119835   1.975   1.187   8.664 -1.1157 -0.0747 -0.3072
 2792SOL    HW219836   1.951   1.088   8.565  0.1881 -0.7421 -0.4958
 2793SOL     OW19837   1.820   2.013   4.984  0.2656  0.0544  0.0961
 2793SOL    HW119838   1.748   1.966   4.942  0.5065 -0.4102  0.1945
 2793SOL    HW219839   1.776   2.039   5.065 -0.9439  3.0132 -1.5089
 2794SOL     OW19840   1.894   1.064   4.610 -0.2754  0.1840 -0.2746
 2794SOL    HW119841   1.921   0.978   4.643  1.4304  0.7127 -0.2923
 2794SOL    HW219842   1.816   1.084   4.662 -0.0780  3.4749 -1.2519
 2795SOL     OW19843   0.121   3.111   8.701  0.5487  0.7346  0.1457
 2795SOL    HW119844   0.150   3.181   8.760  2.3554  0.1969 -0.1348
 2795SOL    HW219845   0.057   3.069   8.758  0.3363 -0.1338 -0.7469
 2796SOL     OW19846   1.591   3.539   7.635  0.3311 -0.5808  0.3826
 2796SOL    HW119847   1.593   3.619   7.688 -1.5857  0.3062 -0.9165
 2796SOL    HW219848   1.530   3.560   7.566  0.3310  0.6223  0.7594
 2797SOL     OW19849   4.684   0.888   3.903  0.6153  0.6952  0.3811
 2797SOL    HW119850   4.609   0.944   3.887  0.8796  0.3188 -2.0979
 2797SOL    HW219851   4.714   0.852   3.820  0.0201  0.2669  0.3558
 2798SOL     OW19852   3.141   1.657   4.918  0.6688  0.2555  0.9145
 2798SOL    HW119853   3.197   1.597   4.966  1.6284  1.2020  0.9717
 2798SOL    HW219854   3.072   1.594   4.898  0.2589  1.0911 -0.3786
 2799SOL     OW19855   3.684   0.015   1.235 -0.2114 -0.1227  0.1917
 2799SOL    HW119856   3.695   4.678   1.309  1.4815  1.0584  0.8835
 2799SOL    HW219857   3.591   0.031   1.251 -0.7006 -0.7216 -2.0174
 2800SOL     OW19858   4.119   2.884  11.595 -0.1993  0.3718 -0.7276
 2800SOL    HW119859   4.131   2.864  11.688 -2.5184 -1.2341 -0.7612
 2800SOL    HW219860   4.171   2.810  11.563 -1.9156 -1.4998  0.7922
 2801SOL     OW19861   3.752   0.297   3.642  0.2406 -0.0068  0.4385
 2801SOL    HW119862   3.836   0.263   3.673 -0.1062 -1.3935 -0.1874
 2801SOL    HW219863   3.716   0.211   3.620  0.1835 -0.0542  0.7227
 2802SOL     OW19864   3.215   0.688  15.796 -0.5477  0.2108  0.2611
 2802SOL    HW119865   3.128   0.720  15.772 -1.1877 -0.2889  1.9043
 2802SOL    HW219866   3.240   0.761  15.851  0.8818  0.6672 -1.0068
 2803SOL     OW19867   3.048   0.844   3.182 -0.0559 -0.2992 -0.3329
 2803SOL    HW119868   3.139   0.821   3.198 -0.2946  0.3776  1.9066
 2803SOL    HW219869   3.034   0.773   3.119 -4.1349  0.4018 -0.1985
 2804SOL     OW19870   3.607   0.624   8.615 -0.5416  0.2087 -0.2204
 2804SOL    HW119871   3.699   0.617   8.640 -0.1826  0.2112 -1.5515
 2804SOL    HW219872   3.609   0.550   8.555  1.6236 -0.4475  0.6642
 2805SOL     OW19873   2.522   2.694  11.802  0.0425 -0.1659  0.2791
 2805SOL    HW119874   2.595   2.723  11.747 -2.8405  0.1155 -3.4098
 2805SOL    HW219875   2.515   2.772  11.856  0.2549 -0.5397  0.8459
 2806SOL     OW19876   4.701   4.482   5.974 -0.2037 -0.2374 -0.1259
 2806SOL    HW119877   4.635   4.466   6.040  1.5196 -0.8053  1.4655
 2806SOL    HW219878   0.055   4.458   6.026 -0.6115 -1.3083 -0.0304
 2807SOL     OW19879   1.434   3.769   9.661 -0.1283  0.3018 -0.5444
 2807SOL    HW119880   1.453   3.677   9.681 -0.4467 -0.0378 -1.8309
 2807SOL    HW219881   1.380   3.784   9.739 -0.0766  0.8343 -0.6112
 2808SOL     OW19882   1.098   0.622   6.130  0.1313  0.0981 -0.0212
 2808SOL    HW119883   1.011   0.580   6.133  0.6506 -1.0451 -1.2195
 2808SOL    HW219884   1.107   0.661   6.044  0.5410  0.7221  0.3084
 2809SOL     OW19885   3.752   3.250   5.478  0.3210 -0.2292 -0.3490
 2809SOL    HW119886   3.808   3.173   5.471  2.5416  1.3663 -0.0717
 2809SOL    HW219887   3.710   3.220   5.559  1.5465  2.3673  1.2320
 2810SOL     OW19888   3.858   2.314   3.513 -0.0652  0.2052 -0.0089
 2810SOL    HW119889   3.926   2.315   3.446 -0.8834  0.2939 -0.8457
 2810SOL    HW219890   3.801   2.243   3.484 -0.6073  1.0073 -0.9153
 2811SOL     OW19891   1.668   0.344   7.092 -0.1107  0.2324 -0.4451
 2811SOL    HW119892   1.677   0.399   7.170 -0.6946  0.3496 -0.4658
 2811SOL    HW219893   1.734   0.384   7.036 -1.7047  0.8055 -1.8769
 2812SOL     OW19894   3.962   2.679  14.099 -0.4996  0.4427 -0.0531
 2812SOL    HW119895   3.917   2.617  14.156 -0.3735 -0.7393 -1.2440
 2812SOL    HW219896   3.893   2.697  14.035 -1.1402  2.9199  1.3359
 2813SOL     OW19897   0.336   4.535   5.506 -0.3753 -0.3018  0.2677
 2813SOL    HW119898   0.279   4.479   5.559  1.4707 -2.9072 -0.5048
 2813SOL    HW219899   0.297   4.508   5.423 -1.9813  0.4921  0.7404
 2814SOL     OW19900   2.725   3.839   1.854  0.3637 -0.3089 -0.3290
 2814SOL    HW119901   2.696   3.834   1.946  0.1214 -1.0235 -0.4389
 2814SOL    HW219902   2.649   3.890   1.828  2.0318  0.1727 -4.1283
 2815SOL     OW19903   4.257   3.976   9.004  0.0776  0.0333  0.2861
 2815SOL    HW119904   4.178   4.028   8.996  1.8701  2.5699 -0.7317
 2815SOL    HW219905   4.303   4.001   8.924  4.5214 -1.2732  2.4129
 2816SOL     OW19906   1.931   2.747  11.582  0.8109  0.4640  0.2281
 2816SOL    HW119907   1.955   2.810  11.650  2.2844 -1.3642  1.4101
 2816SOL    HW219908   1.893   2.808  11.519  3.5697  1.6701 -0.2741
 2817SOL     OW19909   2.257   2.961   6.995  0.5792 -0.2625 -0.3397
 2817SOL    HW119910   2.347   2.987   7.014 -0.0993  2.7735 -1.2081
 2817SOL    HW219911   2.224   3.033   6.942 -3.0531 -0.3821  1.7158
 2818SOL     OW19912   3.485   0.746   7.208 -0.0635 -0.1021  0.1779
 2818SOL    HW119913   3.399   0.783   7.229 -1.0088 -1.8251 -0.5969
 2818SOL    HW219914   3.537   0.824   7.222 -0.1780  0.0087 -0.0210
 2819SOL     OW19915   3.265   4.346   9.738  0.1371 -0.2991  0.0483
 2819SOL    HW119916   3.229   4.429   9.706 -1.9539 -1.1889  0.0692
 2819SOL    HW219917   3.194   4.314   9.794  2.5134 -3.2229  1.3401
 2820SOL     OW19918   0.953   3.516  16.457 -0.3318 -0.0690 -0.5871
 2820SOL    HW119919   0.923   3.495  16.545  1.5907 -0.1997  0.0418
 2820SOL    HW219920   1.030   3.459  16.449 -0.5039 -0.2921 -0.6363
 2821SOL     OW19921   1.935   0.511   3.717  0.0024  0.2610  0.1352
 2821SOL    HW119922   1.852   0.556   3.706  0.5547  0.6486 -2.6155
 2821SOL    HW219923   1.973   0.527   3.630 -2.3987  1.5627 -0.6820
 2822SOL     OW19924   3.827   3.880  14.351  0.3127 -0.1676 -0.3362
 2822SOL    HW119925   3.875   3.840  14.424  1.6464  2.0800 -0.0100
 2822SOL    HW219926   3.802   3.960  14.397 -0.5488  0.1811 -1.4032
 2823SOL     OW19927   4.202   0.508   6.431 -0.0972 -0.4778 -0.0216
 2823SOL    HW119928   4.162   0.459   6.359 -0.8459  0.0240  0.0591
 2823SOL    HW219929   4.268   0.557   6.382  0.6511 -0.7027  0.7516
 2824SOL     OW19930   3.606   3.821   5.021 -0.3334 -0.2382  0.2157
 2824SOL    HW119931   3.594   3.900   4.969  1.4062  1.2490  2.0466
 2824SOL    HW219932   3.690   3.799   4.982  1.8861  0.1852  4.7258
 2825SOL     OW19933   2.557   3.752   2.055  0.5842 -0.1278  0.3653
 2825SOL    HW119934   2.468   3.722   2.070  0.4672  1.8438  3.6211
 2825SOL    HW219935   2.542   3.835   2.099 -0.3223 -1.7751  3.1540
 2826SOL     OW19936   4.311   0.881   8.858 -0.6398 -0.0767  0.6098
 2826SOL    HW119937   4.302   0.946   8.788  1.3063  0.9033  1.2735
 2826SOL    HW219938   4.375   0.821   8.821 -0.5996  0.0129  0.5361
 2827SOL     OW19939   0.880   2.677   4.343 -0.1186 -0.6892  0.1579
 2827SOL    HW119940   0.797   2.639   4.313 -0.8226  1.5764 -0.7395
 2827SOL    HW219941   0.851   2.768   4.337 -0.3956 -0.7307  0.8516
 2828SOL     OW19942   3.244   1.024   8.403 -0.0091 -0.2129  0.2306
 2828SOL    HW119943   3.288   1.004   8.320 -0.6985 -2.2877  0.3736
 2828SOL    HW219944   3.159   1.057   8.375  0.5453  1.6994  0.7900
 2829SOL     OW19945   1.037   1.816   6.647 -0.0451  0.4220  0.0078
 2829SOL    HW119946   1.002   1.729   6.627  1.1898 -0.3165  1.0182
 2829SOL    HW219947   1.123   1.795   6.684 -0.5398 -0.9575  0.3875
 2830SOL     OW19948   1.751   1.861  10.066 -0.0152 -0.2670 -0.1933
 2830SOL    HW119949   1.805   1.870   9.987  0.5046 -1.0010  0.0728
 2830SOL    HW219950   1.670   1.834  10.025  0.3214  0.8653 -1.5765
 2831SOL     OW19951   3.334   3.099   3.479 -0.2105 -0.2843 -0.3151
 2831SOL    HW119952   3.282   3.149   3.541  0.2111  1.0110 -1.0055
 2831SOL    HW219953   3.297   3.132   3.398 -1.6211  2.3482  1.4033
 2832SOL     OW19954   3.223   2.093  12.126 -0.2021 -0.0967 -0.7395
 2832SOL    HW119955   3.304   2.071  12.080  0.6025  1.3507  0.0147
 2832SOL    HW219956   3.200   2.169  12.073 -0.2996  1.3918  1.4442
 2833SOL     OW19957   4.350   4.398   8.820 -0.3647 -0.5220 -0.6342
 2833SOL    HW119958   4.391   4.473   8.777  2.7834 -0.3961  2.5602
 2833SOL    HW219959   4.394   4.400   8.905 -1.7789 -0.6643  0.0939
 2834SOL     OW19960   0.200   2.172   6.848  0.0435  0.1610  0.2466
 2834SOL    HW119961   0.262   2.180   6.775  0.3894 -0.8333  0.4308
 2834SOL    HW219962   0.240   2.092   6.881 -1.0585 -0.8940 -0.9923
 2835SOL     OW19963   3.186   0.565  16.046  0.4273 -0.0139  0.1327
 2835SOL    HW119964   3.217   0.584  15.957 -2.0157 -1.1827 -0.9816
 2835SOL    HW219965   3.270   0.537  16.082  1.1916  1.1330 -0.7770
 2836SOL     OW19966   0.169   0.922   8.779  0.1356 -0.2804 -0.0737
 2836SOL    HW119967   0.245   0.895   8.727  2.0191  0.3434  2.3697
 2836SOL    HW219968   0.126   0.974   8.710  0.4839  0.2395  0.0942
 2837SOL     OW19969   2.637   4.686   7.520  0.4861 -0.6304 -0.0738
 2837SOL    HW119970   2.643   4.616   7.454  0.6292  0.5389 -1.3045
 2837SOL    HW219971   2.660   4.643   7.602  1.5929 -1.6776 -0.9229
 2838SOL     OW19972   1.590   3.331   4.946 -0.1117 -0.8354 -0.6664
 2838SOL    HW119973   1.559   3.241   4.940  2.2232 -1.4781 -2.7734
 2838SOL    HW219974   1.630   3.340   5.033  0.0467 -0.7606 -0.7482
 2839SOL     OW19975   0.117   1.362   8.944  1.0345 -0.5151 -0.1217
 2839SOL    HW119976   0.113   1.457   8.950  2.3966 -0.3932 -1.0676
 2839SOL    HW219977   0.072   1.348   8.861  0.0116 -1.1715  0.5479
 2840SOL     OW19978   4.566   4.010   5.432  0.1548 -0.7982  0.4090
 2840SOL    HW119979   4.485   4.005   5.481 -0.0804 -0.4712  0.0564
 2840SOL    HW219980   4.580   3.918   5.409 -2.5268 -0.6456 -1.8384
 2841SOL     OW19981   3.125   2.862   8.865 -0.1285 -0.2541  0.0528
 2841SOL    HW119982   3.178   2.936   8.895 -1.5370  0.7924 -0.0542
 2841SOL    HW219983   3.053   2.867   8.927  1.2627 -4.4892  1.9823
 2842SOL     OW19984   2.463   2.098   9.294 -0.4045 -0.1693  0.1334
 2842SOL    HW119985   2.473   2.019   9.346  1.7165  0.3118  0.4213
 2842SOL    HW219986   2.467   2.170   9.356  0.1204  0.3544 -0.5042
 2843SOL     OW19987   2.467   3.286   3.573  0.0392  0.2690 -0.0740
 2843SOL    HW119988   2.528   3.213   3.557  0.7911  1.0095 -0.5644
 2843SOL    HW219989   2.382   3.252   3.544 -0.6176 -0.1203  2.2879
 2844SOL     OW19990   1.695   3.255  13.324 -0.5449  0.0267 -0.1352
 2844SOL    HW119991   1.681   3.333  13.378  0.1428  0.0172  0.0604
 2844SOL    HW219992   1.772   3.280  13.273 -0.6749  0.9720  0.1281
 2845SOL     OW19993   1.670   3.628   8.563 -0.4618 -0.7639 -0.2471
 2845SOL    HW119994   1.601   3.676   8.517 -1.2899  1.2771  3.1105
 2845SOL    HW219995   1.637   3.603   8.649  0.2812 -0.4940  0.1185
 2846SOL     OW19996   0.692   4.104  16.027  0.5751 -0.0015  0.5966
 2846SOL    HW119997   0.662   4.191  15.999 -1.7285 -1.3450 -1.0946
 2846SOL    HW219998   0.686   4.108  16.122 -1.0811 -1.2664  0.5394
 2847SOL     OW19999   1.986   3.869   2.164  0.0205  0.2558 -0.0598
 2847SOL    HW120000   1.952   3.874   2.074  1.3206  1.3342 -0.4937
 2847SOL    HW220001   1.915   3.879   2.227  0.1742 -0.0687  0.1656
 2848SOL     OW20002   2.190   1.764  16.393 -0.0972  0.0182 -0.0987
 2848SOL    HW120003   2.159   1.711  16.465  2.4174 -1.6304 -0.2172
 2848SOL    HW220004   2.191   1.848  16.439  0.5388 -0.6196  1.0437
 2849SOL     OW20005   2.414   3.347   0.786  0.3264 -0.6872 -0.1734
 2849SOL    HW120006   2.395   3.409   0.715  1.3283 -1.9427 -1.5490
 2849SOL    HW220007   2.482   3.298   0.740 -1.7961  0.2047 -4.2730
 2850SOL     OW20008   4.401   2.407   3.399 -0.0160  0.2997 -0.4219
 2850SOL    HW120009   4.476   2.354   3.425  0.0466  0.3660 -0.4672
 2850SOL    HW220010   4.422   2.500   3.412  1.6436 -0.1902  0.3158
 2851SOL     OW20011   1.857   1.706   5.162 -0.0955  0.0040  0.0947
 2851SOL    HW120012   1.883   1.671   5.076 -0.8235 -1.6866  0.5737
 2851SOL    HW220013   1.790   1.766   5.131  0.7225  1.1519  0.5441
 2852SOL     OW20014   1.468   0.544   3.177 -0.1511  0.7714  0.0265
 2852SOL    HW120015   1.545   0.597   3.199  0.4334  0.2762 -0.7974
 2852SOL    HW220016   1.437   0.567   3.089 -0.7813  0.6261  0.2135
 2853SOL     OW20017   0.378   1.765  15.952  0.5493 -0.5318  0.0684
 2853SOL    HW120018   0.440   1.706  15.909 -0.0500 -1.1785  0.0837
 2853SOL    HW220019   0.411   1.852  15.931 -0.9320 -0.4971 -2.1511
 2854SOL     OW20020   2.509   4.601   3.437 -0.1026  0.8285 -0.0099
 2854SOL    HW120021   2.511   4.509   3.464 -0.5209  0.2725 -1.8855
 2854SOL    HW220022   2.551   4.634   3.517 -2.0346 -0.2080  1.4522
 2855SOL     OW20023   0.337   3.473  11.773 -0.4591 -0.2482 -0.2784
 2855SOL    HW120024   0.372   3.480  11.684 -1.2462  0.5246 -0.5212
 2855SOL    HW220025   0.366   3.385  11.799  1.7387  0.4273 -0.4374
 2856SOL     OW20026   0.519   1.686   9.882 -0.2284  0.5799 -0.0033
 2856SOL    HW120027   0.601   1.703   9.836  0.5644  0.6028  1.3843
 2856SOL    HW220028   0.511   1.591   9.873 -2.0160  0.8405 -1.0028
 2857SOL     OW20029   4.361   4.372   5.575  0.0707  0.0999  0.7747
 2857SOL    HW120030   4.340   4.293   5.525  1.8465  0.0120  0.2006
 2857SOL    HW220031   4.325   4.429   5.507  1.7805  1.4750  1.0412
 2858SOL     OW20032   3.622   4.261  15.923 -0.0812  0.3411 -0.5386
 2858SOL    HW120033   3.700   4.293  15.968 -0.2235 -1.2540  0.8747
 2858SOL    HW220034   3.546   4.306  15.960  1.9244  1.2419  2.5031
 2859SOL     OW20035   4.018   4.115   2.096 -0.0692  0.0125 -0.7765
 2859SOL    HW120036   3.941   4.169   2.115 -2.2345 -3.2985 -0.1877
 2859SOL    HW220037   3.996   4.041   2.152 -0.3770  0.3896 -0.3912
 2860SOL     OW20038   0.835   4.295   0.055 -0.4989 -0.1646  0.3206
 2860SOL    HW120039   0.844   4.376   0.105  0.7774 -1.2456  1.8172
 2860SOL    HW220040   0.926   4.266   0.049 -0.1958  0.5762  1.4680
 2861SOL     OW20041   2.244   3.039   8.826 -0.1287  0.9038 -0.2191
 2861SOL    HW120042   2.313   2.997   8.877 -0.8607  1.3001  1.0858
 2861SOL    HW220043   2.267   3.130   8.843 -2.4241  1.2146  1.2555
 2862SOL     OW20044   1.527   3.309  12.728 -0.8610 -0.6830  0.4775
 2862SOL    HW120045   1.524   3.324  12.823  0.8827  1.7967  0.1508
 2862SOL    HW220046   1.619   3.284  12.727 -0.9193 -0.8870  0.2445
 2863SOL     OW20047   0.393   1.113   7.690  0.5290 -1.3001  0.2821
 2863SOL    HW120048   0.410   1.205   7.669  2.7919 -2.3300 -2.4019
 2863SOL    HW220049   0.478   1.080   7.661  1.3371  0.6717  0.4027
 2864SOL     OW20050   3.580   0.271   5.185  0.0673  0.3134  0.4273
 2864SOL    HW120051   3.541   0.286   5.271  0.4313  0.7245  0.5241
 2864SOL    HW220052   3.670   0.251   5.206 -0.7073 -1.9075  1.5513
 2865SOL     OW20053   1.170   0.368   9.351  0.2383  0.3001  0.2165
 2865SOL    HW120054   1.196   0.339   9.264 -0.1298  1.4045 -0.2579
 2865SOL    HW220055   1.078   0.382   9.331  0.2741  0.2148 -0.0105
 2866SOL     OW20056   2.976   0.983   3.584  0.2945  0.0240  0.4187
 2866SOL    HW120057   2.995   0.892   3.560  0.5538  0.0801  0.4142
 2866SOL    HW220058   2.883   0.982   3.608  0.0438 -2.2686 -0.6013
 2867SOL     OW20059   2.958   3.488   5.360 -0.1206 -0.1335  0.0046
 2867SOL    HW120060   3.048   3.507   5.333 -0.9508  3.4054 -0.3234
 2867SOL    HW220061   2.980   3.422   5.426  0.5738 -0.9272 -1.0307
 2868SOL     OW20062   1.504   3.527  11.653 -0.3114  0.0649  0.3520
 2868SOL    HW120063   1.455   3.460  11.605 -0.8334 -0.0894  1.0980
 2868SOL    HW220064   1.581   3.550  11.601 -1.0497  0.4420 -0.5850
 2869SOL     OW20065   2.227   3.719   9.411  0.1313 -0.2796 -0.6365
 2869SOL    HW120066   2.165   3.757   9.349 -1.5188  2.3810  2.6109
 2869SOL    HW220067   2.179   3.742   9.491  0.6976 -1.1143 -0.0656
 2870SOL     OW20068   4.141   0.336   5.738  0.5488  0.1173 -0.5280
 2870SOL    HW120069   4.144   0.268   5.671 -0.0232  0.6814 -1.1314
 2870SOL    HW220070   4.158   0.277   5.811 -0.5305 -0.2695 -0.6023
 2871SOL     OW20071   2.006   1.820   6.484  0.0522  0.0873  0.4145
 2871SOL    HW120072   2.022   1.727   6.502 -1.5841 -0.2138  0.3232
 2871SOL    HW220073   2.076   1.844   6.545 -0.5398 -0.0345  1.1310
 2872SOL     OW20074   2.563   0.732  13.078 -0.0475  0.2168  0.4186
 2872SOL    HW120075   2.607   0.649  13.098 -2.0699 -0.8481  0.4558
 2872SOL    HW220076   2.497   0.706  13.014  1.2781 -1.7055 -0.1727
 2873SOL     OW20077   0.235   2.224  15.033  0.4318  0.1384  0.2826
 2873SOL    HW120078   0.326   2.228  15.061  0.7811 -0.8502 -0.6878
 2873SOL    HW220079   0.237   2.273  14.951 -1.1222 -0.1426  0.0677
 2874SOL     OW20080   4.085   3.716   5.211  0.1258 -0.1526 -0.2962
 2874SOL    HW120081   4.114   3.701   5.301 -1.5078 -1.3245  0.0351
 2874SOL    HW220082   4.065   3.809   5.203  0.6772 -0.0043  0.1308
 2875SOL     OW20083   4.288   4.330   4.569  0.2889  0.2725 -0.0454
 2875SOL    HW120084   4.294   4.283   4.653 -0.5991  0.6297  0.2141
 2875SOL    HW220085   4.304   4.420   4.598  0.2515  0.3175 -0.1632
 2876SOL     OW20086   1.353   2.903   6.218 -0.0299 -0.5837  0.0172
 2876SOL    HW120087   1.395   2.971   6.270  0.7279  0.2319 -1.6712
 2876SOL    HW220088   1.419   2.840   6.190 -0.4744 -0.1561 -1.9803
 2877SOL     OW20089   4.529   1.602   7.025 -0.3478  0.1268 -0.3516
 2877SOL    HW120090   4.614   1.603   6.980 -0.7139 -1.8989 -1.0853
 2877SOL    HW220091   4.485   1.521   6.998  2.4222 -1.5915  0.2766
 2878SOL     OW20092   2.351   0.844  16.561  0.7164  0.0008  0.2495
 2878SOL    HW120093   2.443   0.821  16.551  0.1623 -1.8402 -0.5645
 2878SOL    HW220094   2.357   0.935  16.532  1.7448  0.1258  0.8589
 2879SOL     OW20095   1.493   2.620   6.629  0.1407  0.5891 -0.0977
 2879SOL    HW120096   1.558   2.689   6.615  0.7065 -0.0005 -0.3919
 2879SOL    HW220097   1.461   2.597   6.541  0.6584 -1.5002  0.2491
 2880SOL     OW20098   2.915   1.345   5.839  0.3797  0.7238  0.1775
 2880SOL    HW120099   2.954   1.399   5.771  0.1923 -0.1765 -0.6514
 2880SOL    HW220100   2.827   1.342   5.799 -0.2647  0.7283  1.5911
 2881SOL     OW20101   0.823   3.458   3.013 -1.0989  0.5113 -0.4592
 2881SOL    HW120102   0.823   3.432   2.921  1.7405 -0.4153 -0.2064
 2881SOL    HW220103   0.885   3.531   3.002 -1.0681  0.6298  0.5496
 2882SOL     OW20104   1.283   3.656   9.071 -0.5364 -0.0948  0.1404
 2882SOL    HW120105   1.230   3.727   9.107 -0.2370 -0.2993  0.9829
 2882SOL    HW220106   1.233   3.620   8.998 -0.7792  0.7225 -0.0934
 2883SOL     OW20107   1.462   3.479  13.649  0.0778  0.0548 -0.1078
 2883SOL    HW120108   1.498   3.545  13.709 -0.7218  0.5135 -0.1308
 2883SOL    HW220109   1.403   3.427  13.704 -1.5614  0.0010 -1.9290
 2884SOL     OW20110   1.100   3.361  13.114 -0.7636 -0.3518 -0.1116
 2884SOL    HW120111   1.141   3.348  13.028  2.2012 -0.0882  1.2528
 2884SOL    HW220112   1.035   3.291  13.114 -0.4624 -0.6389  0.3977
 2885SOL     OW20113   1.580   2.101   7.672 -0.1593 -0.2545 -0.1234
 2885SOL    HW120114   1.525   2.025   7.688 -1.3635  0.5802 -0.2675
 2885SOL    HW220115   1.670   2.076   7.692 -0.8442  0.0730  3.4539
 2886SOL     OW20116   4.441   0.966   3.587  0.4835  0.0980 -0.2421
 2886SOL    HW120117   4.510   1.019   3.548  0.8787  1.0587  1.7413
 2886SOL    HW220118   4.368   0.987   3.529  0.5140 -0.6843 -0.5578
 2887SOL     OW20119   2.686   1.055  17.439 -0.2144 -0.6326  0.4139
 2887SOL    HW120120   2.780   1.057  17.451 -0.1869  1.4751 -0.1499
 2887SOL    HW220121   2.659   0.966  17.460 -0.3509 -0.1250  2.3969
 2888SOL     OW20122   0.647   3.839   3.538  0.0878 -0.1247  0.1939
 2888SOL    HW120123   0.645   3.904   3.468  3.3678 -1.4021 -1.1080
 2888SOL    HW220124   0.735   3.859   3.570 -0.2844  2.5197 -0.4409
 2889SOL     OW20125   4.523   1.872   6.668 -0.1483 -0.2867  0.1578
 2889SOL    HW120126   4.544   1.917   6.586 -0.6063 -3.4186 -1.6615
 2889SOL    HW220127   4.501   1.782   6.643  1.1208 -0.5862  0.1281
 2890SOL     OW20128   2.236   0.427   8.228  0.2471  0.1410  0.1630
 2890SOL    HW120129   2.195   0.445   8.144  0.2572 -1.8124 -0.2700
 2890SOL    HW220130   2.198   0.340   8.242  0.4959 -0.0176 -0.1385
 2891SOL     OW20131   2.995   1.129   8.343 -0.3450  0.1904 -0.2080
 2891SOL    HW120132   2.991   1.189   8.417  0.4602 -1.3033  1.0380
 2891SOL    HW220133   2.904   1.101   8.339 -0.2805 -0.3606  2.3439
 2892SOL     OW20134   1.822   1.645  11.939  0.3025 -0.0241  0.4681
 2892SOL    HW120135   1.751   1.600  11.892  0.1973  0.0176  0.5862
 2892SOL    HW220136   1.778   1.662  12.022 -0.5025 -1.5342  0.3493
 2893SOL     OW20137   0.059   1.889   6.784  0.6775  0.2169  0.5077
 2893SOL    HW120138   4.691   1.864   6.764 -0.0450  2.1490  1.2973
 2893SOL    HW220139   0.079   1.919   6.695  1.4247  0.2402  0.6805
 2894SOL     OW20140   2.393   1.115   9.274  0.0155  0.2193 -0.2107
 2894SOL    HW120141   2.315   1.154   9.313 -0.3965 -1.8361  1.0283
 2894SOL    HW220142   2.356   1.031   9.246  0.0001 -0.2465  1.1899
 2895SOL     OW20143   1.450   2.598   7.644 -0.1556  0.2340  0.2331
 2895SOL    HW120144   1.372   2.544   7.646  0.5692 -0.7549  1.8127
 2895SOL    HW220145   1.488   2.573   7.728 -2.5376  1.5835  1.6740
 2896SOL     OW20146   0.900   0.628   1.162  0.0333  0.1595 -0.3222
 2896SOL    HW120147   0.886   0.617   1.256 -0.2129 -1.1996 -0.5132
 2896SOL    HW220148   0.850   0.552   1.132  0.2032  0.5860 -1.6881
 2897SOL     OW20149   1.306   1.174  16.895 -0.0543  0.1944  0.2035
 2897SOL    HW120150   1.279   1.176  16.803  1.6251  0.1459 -0.3010
 2897SOL    HW220151   1.402   1.183  16.891  0.0390 -0.7328  0.2982
 2898SOL     OW20152   1.688   3.011   5.735 -0.1635 -0.3379  0.7096
 2898SOL    HW120153   1.735   2.974   5.810 -0.0566 -0.0056  0.8061
 2898SOL    HW220154   1.760   3.057   5.693 -0.4292 -0.0233  0.6087
 2899SOL     OW20155   2.093   3.069   6.211 -0.0895 -0.3357 -0.0629
 2899SOL    HW120156   2.094   2.974   6.220 -1.7464 -0.4759 -1.3756
 2899SOL    HW220157   1.998   3.083   6.212 -0.5074 -3.2003 -0.8780
 2900SOL     OW20158   3.159   3.272  13.090 -0.2552  0.0261 -0.0036
 2900SOL    HW120159   3.220   3.309  13.153  0.0958  0.0344 -0.3516
 2900SOL    HW220160   3.080   3.319  13.114  0.2570  0.3460  1.0198
 2901SOL     OW20161   3.451   3.893  15.682 -0.3941 -0.6955 -0.0240
 2901SOL    HW120162   3.535   3.906  15.725 -0.9867 -1.9837  1.5355
 2901SOL    HW220163   3.449   3.974  15.631 -1.4418  0.1254  1.3150
 2902SOL     OW20164   3.660   1.856   6.263 -0.8724  0.0078 -0.3184
 2902SOL    HW120165   3.617   1.771   6.270 -1.6601  0.3827 -0.6359
 2902SOL    HW220166   3.750   1.841   6.294 -0.2697  0.2723 -1.9500
 2903SOL     OW20167   4.089   3.669   2.355  0.1024 -0.4017 -0.4163
 2903SOL    HW120168   4.133   3.665   2.270  0.8541  1.3864 -0.1121
 2903SOL    HW220169   4.002   3.698   2.326  0.2906  1.0598  0.4510
 2904SOL     OW20170   0.868   0.854   7.581  0.2538  0.1854 -0.4875
 2904SOL    HW120171   0.903   0.784   7.636  0.3535  1.1734  0.7162
 2904SOL    HW220172   0.857   0.814   7.495 -0.5747  1.5863 -1.0469
 2905SOL     OW20173   0.087   4.375   8.267  0.2232 -0.3836 -0.9735
 2905SOL    HW120174   0.143   4.426   8.208 -0.6854  2.0500  0.2409
 2905SOL    HW220175   0.038   4.449   8.302  2.8626  1.0822 -0.3020
 2906SOL     OW20176   4.192   4.165   8.041  0.3511 -0.3134  0.1348
 2906SOL    HW120177   4.179   4.080   8.083 -0.6364 -0.4768 -0.5185
 2906SOL    HW220178   4.199   4.221   8.119  1.5331 -0.9209  0.4585
 2907SOL     OW20179   3.905   2.265   3.252  0.3263 -0.3733  0.3807
 2907SOL    HW120180   3.995   2.296   3.261  0.3898 -0.6684  0.7555
 2907SOL    HW220181   3.919   2.229   3.164 -3.9602  1.7173 -1.1494
 2908SOL     OW20182   4.190   2.627  12.635 -0.8157 -0.7231 -0.6157
 2908SOL    HW120183   4.283   2.649  12.625 -0.9290 -0.7419 -1.6320
 2908SOL    HW220184   4.157   2.715  12.648 -1.2391 -0.7553 -1.5132
 2909SOL     OW20185   2.071   1.669   1.404  0.0482  0.0281 -0.6869
 2909SOL    HW120186   2.135   1.598   1.402  0.6621  0.5875 -0.9517
 2909SOL    HW220187   2.061   1.685   1.498 -1.6939  2.2173 -1.2523
 2910SOL     OW20188   4.407   4.408   1.705  0.1532  0.1287  0.4168
 2910SOL    HW120189   4.445   4.378   1.788  0.4547  1.2409  0.6842
 2910SOL    HW220190   4.423   4.325   1.660 -2.1059  0.2213 -0.5898
 2911SOL     OW20191   3.541   0.541  11.835  0.8339 -0.2894  0.0515
 2911SOL    HW120192   3.467   0.480  11.837 -0.8023  1.7522  1.7025
 2911SOL    HW220193   3.576   0.508  11.753 -0.7292 -1.5690 -0.0989
 2912SOL     OW20194   3.866   1.657   1.672  0.3555 -0.1006  0.4577
 2912SOL    HW120195   3.880   1.731   1.731 -0.6490 -0.4673  1.1449
 2912SOL    HW220196   3.774   1.681   1.659  0.1592 -0.0740  1.8999
 2913SOL     OW20197   0.698   1.608   9.233 -0.5425  0.2897  0.7266
 2913SOL    HW120198   0.765   1.675   9.223 -1.1379  0.6253 -0.9886
 2913SOL    HW220199   0.736   1.528   9.197  1.0609  0.3965  2.1476
 2914SOL     OW20200   3.637   2.625   8.022  0.2374  0.0560  0.0049
 2914SOL    HW120201   3.604   2.711   7.996  0.1701  0.0265 -0.0055
 2914SOL    HW220202   3.689   2.598   7.946  0.0987  0.4132 -0.2182
 2915SOL     OW20203   1.562   0.822  10.526  0.4666  0.7575 -0.3047
 2915SOL    HW120204   1.562   0.770  10.607  0.8127 -0.5917 -1.1680
 2915SOL    HW220205   1.471   0.850  10.515  0.6430  1.2350 -0.5453
 2916SOL     OW20206   3.192   1.676   8.641 -0.0345 -0.3522  0.0830
 2916SOL    HW120207   3.210   1.767   8.617 -3.1172  0.1903 -0.2180
 2916SOL    HW220208   3.120   1.663   8.579  0.6745  0.5694 -0.9331
 2917SOL     OW20209   2.039   1.673   7.187 -0.4812  0.0596  0.7465
 2917SOL    HW120210   1.947   1.650   7.172 -0.4212 -0.0865  0.5981
 2917SOL    HW220211   2.059   1.601   7.247 -2.2700 -0.3158  0.8947
 2918SOL     OW20212   0.526   2.077   5.746 -0.3207  0.4562  0.1969
 2918SOL    HW120213   0.485   2.163   5.756 -0.2010  0.8627 -2.8943
 2918SOL    HW220214   0.487   2.045   5.665  2.9970  2.2030 -2.0344
 2919SOL     OW20215   1.112   0.705   5.870 -0.4125 -0.3396  0.1926
 2919SOL    HW120216   1.180   0.694   5.804 -2.1229  2.8375 -2.0666
 2919SOL    HW220217   1.046   0.756   5.823 -0.2912  0.8361  1.2839
 2920SOL     OW20218   0.884   1.414   3.435 -0.6755  0.3185  0.6251
 2920SOL    HW120219   0.875   1.486   3.497 -2.6098  2.9094 -2.6625
 2920SOL    HW220220   0.889   1.451   3.347  1.6201 -1.5512 -0.0221
 2921SOL     OW20221   2.786   3.370  15.828 -0.3767  0.0528 -0.0161
 2921SOL    HW120222   2.747   3.290  15.863 -1.6885  1.2334  1.2202
 2921SOL    HW220223   2.754   3.436  15.890  0.8336  2.7066 -2.2401
 2922SOL     OW20224   1.292   1.616   7.232 -0.1655 -0.4063 -0.6757
 2922SOL    HW120225   1.251   1.639   7.315  0.1540 -2.3971  0.0448
 2922SOL    HW220226   1.380   1.592   7.260 -0.6890 -1.2329  0.2491
 2923SOL     OW20227   0.927   0.069   9.189 -0.1683  0.2866 -0.2144
 2923SOL    HW120228   0.889   0.135   9.247  0.1817 -0.3389  0.7223
 2923SOL    HW220229   0.879   0.082   9.107 -0.7694 -0.4138  0.0166
 2924SOL     OW20230   3.533   4.412   7.573  0.0866  0.1239  0.3067
 2924SOL    HW120231   3.444   4.434   7.599  0.0254 -2.6679  2.4160
 2924SOL    HW220232   3.560   4.493   7.529  0.4372 -0.2065 -0.0871
 2925SOL     OW20233   4.376   2.281   9.928 -0.1104 -0.0308  0.4146
 2925SOL    HW120234   4.320   2.311   9.856 -1.6390  1.4122  2.1958
 2925SOL    HW220235   4.342   2.193   9.948 -3.0026  0.6746 -1.3985
 2926SOL     OW20236   2.589   3.990   4.578 -0.1481  0.0628 -0.0030
 2926SOL    HW120237   2.542   4.037   4.509 -0.1038 -0.5422 -0.4504
 2926SOL    HW220238   2.510   3.955   4.619 -1.2988  0.1787 -2.0906
 2927SOL     OW20239   1.634   4.102   5.229  0.3184  0.0663  0.1865
 2927SOL    HW120240   1.567   4.088   5.296  0.0217 -0.7575 -0.2852
 2927SOL    HW220241   1.590   4.137   5.151 -4.2098 -4.2204  0.8411
 2928SOL     OW20242   3.988   2.627   9.032 -0.3820  0.4629 -0.2945
 2928SOL    HW120243   3.924   2.662   9.094 -1.1980 -2.5562  0.5398
 2928SOL    HW220244   3.996   2.696   8.965 -0.0179  0.2495 -0.4700
 2929SOL     OW20245   1.721   3.787   4.536 -0.1007  0.2775  0.3619
 2929SOL    HW120246   1.718   3.834   4.620  0.1671 -1.3840  1.2971
 2929SOL    HW220247   1.797   3.836   4.505 -0.6951  0.7539 -0.3511
 2930SOL     OW20248   0.493   1.613   4.963  0.1350 -0.0760 -0.1313
 2930SOL    HW120249   0.412   1.662   4.947 -0.4057 -1.4796 -1.5991
 2930SOL    HW220250   0.544   1.688   4.995  1.8708 -0.6227 -1.6170
 2931SOL     OW20251   1.734   1.705   2.743  0.5763 -0.1568  0.1153
 2931SOL    HW120252   1.717   1.759   2.820 -3.1542 -1.8169  0.4857
 2931SOL    HW220253   1.705   1.619   2.774  0.0734 -0.0815 -0.1495
 2932SOL     OW20254   1.215   3.141   0.905  0.0582  0.2037 -0.1446
 2932SOL    HW120255   1.150   3.201   0.869 -1.5547 -0.0214  2.3697
 2932SOL    HW220256   1.193   3.061   0.859 -1.7042 -0.0904  1.2152
 2933SOL     OW20257   3.435   2.009   3.371  0.4027 -0.5546 -0.4220
 2933SOL    HW120258   3.514   2.062   3.380  0.3820 -1.1969  3.5556
 2933SOL    HW220259   3.454   1.937   3.432  0.6689  1.4566  1.8764
 2934SOL     OW20260   1.716   0.301   6.724  0.2126 -0.1241  0.0727
 2934SOL    HW120261   1.723   0.232   6.790  1.7009  2.1495  2.2758
 2934SOL    HW220262   1.621   0.304   6.714  0.0073 -1.3344  1.5585
 2935SOL     OW20263   2.737   4.413   6.467 -0.4709  0.1939 -0.3689
 2935SOL    HW120264   2.673   4.446   6.530 -1.1058 -0.9858 -0.3900
 2935SOL    HW220265   2.798   4.485   6.453  0.3169 -0.3053  0.5037
 2936SOL     OW20266   3.403   0.054   3.817 -0.1061 -0.5857 -0.2525
 2936SOL    HW120267   3.324   0.060   3.869  1.9249  1.8982  2.5041
 2936SOL    HW220268   3.466   0.088   3.880  0.1789 -2.5161  0.5192
 2937SOL     OW20269   1.667   3.031   6.863  0.0468 -0.1169  0.1854
 2937SOL    HW120270   1.579   3.008   6.834 -0.3027  2.4929 -0.7868
 2937SOL    HW220271   1.635   3.079   6.939 -0.3079  1.7931 -1.1758
 2938SOL     OW20272   0.323   3.490  10.697  0.0669 -0.8346  0.0474
 2938SOL    HW120273   0.398   3.468  10.752  0.6269  3.2286  0.8956
 2938SOL    HW220274   0.365   3.512  10.614 -3.2763  1.5696 -1.0227
 2939SOL     OW20275   1.138   1.662   2.720  0.5659  0.1542 -0.0105
 2939SOL    HW120276   1.172   1.715   2.647 -0.7411  1.0237 -0.0002
 2939SOL    HW220277   1.106   1.582   2.679 -1.2644  1.7886 -1.7791
 2940SOL     OW20278   0.863   1.130   5.137 -0.5458 -0.3674 -0.0746
 2940SOL    HW120279   0.775   1.159   5.162 -1.0620  0.7907 -3.2091
 2940SOL    HW220280   0.918   1.169   5.205  0.1210 -0.4614 -0.5604
 2941SOL     OW20281   2.656   2.337   9.032 -0.5089 -0.1731  0.5315
 2941SOL    HW120282   2.704   2.406   9.078  0.4469 -0.8465  0.5303
 2941SOL    HW220283   2.567   2.358   9.059  0.1023  2.5857  0.3996
 2942SOL     OW20284   3.464   1.287   4.885 -0.2049  0.2906  0.1072
 2942SOL    HW120285   3.524   1.330   4.824  0.1038  1.0847  0.9712
 2942SOL    HW220286   3.483   1.198   4.855 -0.4648 -0.0225  0.8756
 2943SOL     OW20287   3.393   3.689  11.884 -0.2256  0.4566  0.3812
 2943SOL    HW120288   3.440   3.697  11.802 -0.8589 -0.5552 -0.0897
 2943SOL    HW220289   3.336   3.766  11.887 -0.7581  0.0467  0.8793
 2944SOL     OW20290   1.970   1.299   4.278 -0.2500 -0.4983  0.1352
 2944SOL    HW120291   1.989   1.298   4.372  1.7885 -0.2303 -0.2803
 2944SOL    HW220292   1.992   1.207   4.263  2.0993  0.2581 -0.9622
 2945SOL     OW20293   1.013   3.992   8.928 -0.1898  0.1663  0.3408
 2945SOL    HW120294   1.003   4.073   8.879 -0.5562 -0.7177 -1.0488
 2945SOL    HW220295   1.071   3.943   8.870  0.8606  1.7348  0.0650
 2946SOL     OW20296   1.970   2.099   9.671  0.4227 -0.2121  0.0705
 2946SOL    HW120297   2.057   2.078   9.706  0.1255 -1.8313 -0.1355
 2946SOL    HW220298   1.924   2.022   9.705  2.4912 -1.4226  0.1321
 2947SOL     OW20299   1.519   4.136   3.913 -0.1221 -0.4729 -0.6455
 2947SOL    HW120300   1.592   4.123   3.974  1.6811  2.9862 -2.1036
 2947SOL    HW220301   1.560   4.198   3.853  0.7866 -0.7172 -0.2818
 2948SOL     OW20302   3.608   1.445  12.907 -0.7795  0.1100  0.0952
 2948SOL    HW120303   3.586   1.414  12.819  0.2311  0.1119 -0.1537
 2948SOL    HW220304   3.589   1.539  12.901 -1.6700 -0.2700 -2.9716
 2949SOL     OW20305   0.437   2.746   8.027 -0.0009 -0.3601 -0.1624
 2949SOL    HW120306   0.496   2.719   8.097 -1.0889 -1.7973  0.2079
 2949SOL    HW220307   0.476   2.716   7.945 -0.9708  1.8517 -1.4205
 2950SOL     OW20308   3.996   2.489  16.727  0.0631 -0.5974 -0.0062
 2950SOL    HW120309   4.071   2.429  16.717 -1.0300 -1.8603 -0.5820
 2950SOL    HW220310   4.010   2.497  16.822 -1.3668 -1.9274  0.3310
 2951SOL     OW20311   0.284   3.966   6.884  0.2720 -0.1348  0.1088
 2951SOL    HW120312   0.320   4.054   6.877  1.3551 -0.6468 -0.6578
 2951SOL    HW220313   0.368   3.920   6.887 -0.0851 -0.8499 -1.0567
 2952SOL     OW20314   0.759   1.765  16.819 -0.0263 -0.2670 -0.4528
 2952SOL    HW120315   0.798   1.781  16.905 -0.5787 -0.8706 -0.0846
 2952SOL    HW220316   0.753   1.669  16.819  0.2794 -0.2811 -1.0829
 2953SOL     OW20317   3.718   4.717   4.841 -0.0450  0.2536  0.2352
 2953SOL    HW120318   3.656   4.713   4.914  2.1012 -0.9495  2.0087
 2953SOL    HW220319   3.702   0.086   4.817 -2.9337 -0.6823 -1.2844
 2954SOL     OW20320   3.689   3.971   8.136  0.5119  0.0838 -0.1153
 2954SOL    HW120321   3.716   3.895   8.084  0.4407 -1.0799  1.5200
 2954SOL    HW220322   3.619   4.012   8.086  0.4245 -0.7995 -0.7291
 2955SOL     OW20323   4.307   0.716   5.058  0.2212 -0.1489 -0.2867
 2955SOL    HW120324   4.319   0.640   5.115  0.3007 -0.4104 -0.6498
 2955SOL    HW220325   4.395   0.747   5.076 -0.1577  0.3770  0.6574
 2956SOL     OW20326   1.461   1.794   4.140  0.2695 -0.3462  0.7026
 2956SOL    HW120327   1.523   1.867   4.137  0.5473 -0.7498 -3.2732
 2956SOL    HW220328   1.458   1.784   4.045  1.8020 -0.1635  0.6405
 2957SOL     OW20329   1.598   2.675  12.336 -0.1890  0.2816  0.6465
 2957SOL    HW120330   1.568   2.584  12.337 -0.0977  0.2303 -0.8282
 2957SOL    HW220331   1.691   2.661  12.356 -0.0368  0.3763  0.0138
 2958SOL     OW20332   0.819   4.471  13.748  0.0703  0.2598  0.5863
 2958SOL    HW120333   0.816   4.471  13.843 -0.9979 -1.8101  0.5654
 2958SOL    HW220334   0.791   4.561  13.735 -1.5459 -0.1418  1.2749
 2959SOL     OW20335   2.517   1.571   2.478 -0.2706 -0.0422  0.0581
 2959SOL    HW120336   2.426   1.599   2.467  0.2992  1.1385 -1.5836
 2959SOL    HW220337   2.568   1.651   2.465 -0.4450 -0.0408 -0.5981
 2960SOL     OW20338   0.451   2.733   6.127  0.0814 -0.3927  1.0760
 2960SOL    HW120339   0.386   2.788   6.171 -2.1250 -1.2982 -1.0398
 2960SOL    HW220340   0.441   2.749   6.033 -0.6380  0.0671  1.2309
 2961SOL     OW20341   0.982   2.997   7.892  0.3632 -0.4971 -0.3359
 2961SOL    HW120342   0.916   2.930   7.913 -1.6879  1.6701  0.1441
 2961SOL    HW220343   0.974   3.014   7.798  3.7469  0.0214 -0.5045
 2962SOL     OW20344   4.017   1.275   2.168  0.1227  0.7671 -0.0223
 2962SOL    HW120345   3.972   1.345   2.121 -0.9009  1.3047  1.7335
 2962SOL    HW220346   4.101   1.267   2.124  0.3701  0.7774  0.4454
 2963SOL     OW20347   2.621   1.331   3.853 -0.2821 -0.6346 -0.4887
 2963SOL    HW120348   2.573   1.309   3.774  0.0955 -0.5148 -0.7526
 2963SOL    HW220349   2.569   1.311   3.931  1.2890 -0.3514  0.6479
 2964SOL     OW20350   0.478   2.205   5.265 -0.2076 -0.5292 -0.1358
 2964SOL    HW120351   0.530   2.246   5.195  1.7099  0.0607  1.6176
 2964SOL    HW220352   0.415   2.276   5.281 -0.5172 -0.9966  0.6860
 2965SOL     OW20353   3.632   2.749   9.640 -0.1770 -0.1725 -0.1012
 2965SOL    HW120354   3.552   2.773   9.593  0.3234  1.8769  0.1058
 2965SOL    HW220355   3.593   2.723   9.723  1.7839 -1.7655  0.3127
 2966SOL     OW20356   0.044   4.395   1.388  0.2029  0.5732 -0.4253
 2966SOL    HW120357   4.710   4.374   1.313  0.3089 -0.9186 -0.0894
 2966SOL    HW220358   0.128   4.361   1.358  0.0469  0.6584 -0.9557
 2967SOL     OW20359   0.791   0.162   5.972 -0.1175  0.1644 -0.0950
 2967SOL    HW120360   0.768   0.094   5.909  0.2292  0.1762 -0.2357
 2967SOL    HW220361   0.881   0.130   5.987  0.1198 -0.2731 -2.4449
 2968SOL     OW20362   2.057   3.241   2.421 -0.2238 -0.0845  0.3081
 2968SOL    HW120363   2.111   3.170   2.455  0.0500  0.4293  0.9613
 2968SOL    HW220364   2.067   3.233   2.327  1.6321  1.7838  0.3537
 2969SOL     OW20365   1.921   1.346   5.126  0.0454  0.0435  0.0969
 2969SOL    HW120366   1.967   1.426   5.101  0.7978 -0.3552  0.2029
 2969SOL    HW220367   1.993   1.288   5.147  0.2862  0.0463 -0.7261
 2970SOL     OW20368   2.819   0.151   0.252  0.5156  0.0082 -0.5248
 2970SOL    HW120369   2.739   0.127   0.299  0.9789 -1.2101 -0.3575
 2970SOL    HW220370   2.846   0.232   0.296 -0.4078 -0.2295  0.5054
 2971SOL     OW20371   2.739   1.082   4.706 -0.0736  0.3203 -0.4166
 2971SOL    HW120372   2.671   1.145   4.730  0.1128 -0.5631  2.4200
 2971SOL    HW220373   2.806   1.108   4.770 -1.5026  1.4557  0.6286
 2972SOL     OW20374   3.451   2.238   3.878  0.0888  0.1162  0.7834
 2972SOL    HW120375   3.382   2.175   3.859  0.9694 -0.2643 -1.1373
 2972SOL    HW220376   3.472   2.266   3.789  3.5045 -1.2212  1.1648
 2973SOL     OW20377   1.211   3.033  12.481  0.0860 -0.4029  0.0718
 2973SOL    HW120378   1.205   3.115  12.431 -0.5506 -0.3889  0.1673
 2973SOL    HW220379   1.288   2.996  12.437  0.8274  0.4904  0.6447
 2974SOL     OW20380   1.263   3.301   9.087 -0.8428  0.1163 -0.1919
 2974SOL    HW120381   1.298   3.355   9.159 -2.5076  1.0793 -0.1098
 2974SOL    HW220382   1.336   3.245   9.063  0.4661  0.9839  1.7283
 2975SOL     OW20383   0.921   2.346   2.800 -0.3715 -0.1976  0.2594
 2975SOL    HW120384   1.016   2.348   2.815 -0.1279 -0.6220 -1.2408
 2975SOL    HW220385   0.890   2.273   2.852 -1.4197 -1.3635 -2.0346
 2976SOL     OW20386   1.186   2.679   8.318 -0.5538 -0.3011 -0.1850
 2976SOL    HW120387   1.129   2.744   8.277 -0.8176  0.4708  1.4393
 2976SOL    HW220388   1.132   2.661   8.394 -0.9895  0.5700 -0.2972
 2977SOL     OW20389   0.511   1.484   2.864  0.5200 -0.3169 -1.0785
 2977SOL    HW120390   0.598   1.446   2.851  1.5863  0.6646  3.2222
 2977SOL    HW220391   0.516   1.568   2.818 -3.8248  0.7415  0.3507
 2978SOL     OW20392   4.296   3.701   9.014 -0.1573  0.2741  0.0969
 2978SOL    HW120393   4.351   3.727   8.940  1.4618 -1.9910  0.4791
 2978SOL    HW220394   4.245   3.781   9.023  1.3381  1.3106 -0.6726
 2979SOL     OW20395   4.133   1.817   5.597 -0.9133 -0.4226 -0.2466
 2979SOL    HW120396   4.213   1.778   5.561 -0.0949  0.6619  0.3937
 2979SOL    HW220397   4.174   1.885   5.649 -2.4413  1.2037 -1.1762
 2980SOL     OW20398   0.855   3.222   2.033  0.1066  0.0683  0.3623
 2980SOL    HW120399   0.902   3.254   2.110 -0.6887 -1.1422  1.3468
 2980SOL    HW220400   0.837   3.304   1.987  0.0061  0.0179  0.3130
 2981SOL     OW20401   2.967   3.676   6.023  0.4607 -0.6371  0.0118
 2981SOL    HW120402   2.974   3.751   6.082 -0.2308 -0.8743  0.3922
 2981SOL    HW220403   3.023   3.610   6.066  1.5004  1.1715  1.4338
 2982SOL     OW20404   1.651   3.135   9.173 -0.1540 -0.0820 -0.0513
 2982SOL    HW120405   1.659   3.162   9.265 -0.5746  0.9809 -0.3281
 2982SOL    HW220406   1.691   3.049   9.166  1.6191  0.6927  0.4389
 2983SOL     OW20407   0.418   2.627   1.054 -0.5347  0.2932 -0.5859
 2983SOL    HW120408   0.350   2.663   1.111 -1.9036 -1.3547 -1.1513
 2983SOL    HW220409   0.462   2.710   1.040 -0.5120  0.0012 -2.2714
 2984SOL     OW20410   0.515   0.808   0.721  0.1238 -0.6735 -0.0502
 2984SOL    HW120411   0.486   0.720   0.694 -1.9305  0.0747 -0.3146
 2984SOL    HW220412   0.607   0.814   0.696  1.3315 -0.9786  4.3173
 2985SOL     OW20413   4.039   2.318   1.665 -0.3646 -0.1360  0.3796
 2985SOL    HW120414   4.111   2.275   1.711  0.7358 -0.3482 -1.5434
 2985SOL    HW220415   4.071   2.315   1.574  0.0432 -3.4537  0.6313
 2986SOL     OW20416   0.403   4.233   4.191 -0.0516  0.1944  0.1583
 2986SOL    HW120417   0.360   4.166   4.245  1.8417 -2.2819 -1.3651
 2986SOL    HW220418   0.421   4.307   4.248  0.5005  1.1169 -1.2118
 2987SOL     OW20419   3.144   3.944  11.062  0.5511  0.2943  0.3124
 2987SOL    HW120420   3.167   3.905  11.146  0.1676 -0.1761  0.1993
 2987SOL    HW220421   3.219   3.917  11.010  1.2684 -0.2469  1.6438
 2988SOL     OW20422   0.572   2.425   2.981 -0.1040  0.0533 -0.2583
 2988SOL    HW120423   0.661   2.461   2.976 -0.2546  0.5330  0.6884
 2988SOL    HW220424   0.531   2.480   3.048 -1.1593 -1.2748  0.1884
 2989SOL     OW20425   2.836   2.943  14.677  0.1217  0.8499  0.4202
 2989SOL    HW120426   2.752   2.955  14.721 -0.6920 -1.8763 -0.3876
 2989SOL    HW220427   2.900   2.918  14.743 -0.3888 -0.6688  0.3437
 2990SOL     OW20428   1.405   1.640   6.949 -0.2427  0.0909 -0.1637
 2990SOL    HW120429   1.355   1.629   7.030 -0.0301  0.7201  0.0548
 2990SOL    HW220430   1.365   1.563   6.908  1.0312 -0.3286 -0.6015
 2991SOL     OW20431   4.709   3.499   9.474  0.0209  0.0442  0.6581
 2991SOL    HW120432   4.625   3.544   9.468  1.7534  3.5610  2.9579
 2991SOL    HW220433   0.040   3.527   9.400 -3.6826  1.9121 -1.3062
 2992SOL     OW20434   4.353   0.574  14.482 -0.1508 -0.6611 -0.4703
 2992SOL    HW120435   4.428   0.564  14.423  0.9093 -0.8809  0.9278
 2992SOL    HW220436   4.341   0.484  14.512  0.0936  0.9539  4.5291
 2993SOL     OW20437   1.774   3.819   9.670  0.1680  0.0818 -0.3258
 2993SOL    HW120438   1.727   3.899   9.651  1.1013  1.2333  2.2057
 2993SOL    HW220439   1.721   3.800   9.747 -0.4358  3.7606  0.1371
 2994SOL     OW20440   2.211   2.992   1.642  0.5447 -0.5856 -0.0172
 2994SOL    HW120441   2.273   3.065   1.646  0.5503 -0.5534 -0.7020
 2994SOL    HW220442   2.180   2.980   1.732  2.7760  0.0349  0.8302
 2995SOL     OW20443   1.776   4.129  12.977  0.6349  0.1261 -0.2111
 2995SOL    HW120444   1.824   4.148  12.897  2.5963  2.4115  1.5137
 2995SOL    HW220445   1.754   4.040  12.948  0.2265 -0.7278  2.7087
 2996SOL     OW20446   0.049   3.785  13.664  0.4952  0.3227 -0.1444
 2996SOL    HW120447   0.105   3.862  13.674 -0.3079  1.3989 -3.8912
 2996SOL    HW220448   4.693   3.824  13.624  1.0795  0.0495 -1.5197
 2997SOL     OW20449   4.423   0.175   4.361 -0.1714  0.0928 -0.3588
 2997SOL    HW120450   4.464   0.140   4.440 -1.4004 -2.0001 -0.6428
 2997SOL    HW220451   4.333   0.170   4.393  0.5283 -2.8103  1.1366
 2998SOL     OW20452   3.923   2.319   5.179 -0.4759  0.2780  0.1001
 2998SOL    HW120453   3.891   2.279   5.098 -2.1657  4.0495 -1.0830
 2998SOL    HW220454   3.943   2.238   5.226  0.2706 -0.2443 -1.0962
 2999SOL     OW20455   4.111   1.221   4.074 -0.5002  0.1245  0.4250
 2999SOL    HW120456   4.118   1.161   4.149 -0.1645  1.3755  1.3780
 2999SOL    HW220457   4.053   1.291   4.102  1.1481  2.2783 -1.6090
 3000SOL     OW20458   2.541   4.306   3.456 -0.2689 -0.3511 -0.1376
 3000SOL    HW120459   2.478   4.280   3.388 -1.0973  0.6145  0.2695
 3000SOL    HW220460   2.614   4.249   3.430 -0.6250  0.0679 -2.0462
 3001SOL     OW20461   4.106   2.492  16.994  0.4070  0.5460 -0.4939
 3001SOL    HW120462   4.110   2.587  16.999 -0.7781  0.5188  0.9776
 3001SOL    HW220463   4.159   2.463  17.068 -2.1154  0.1686  1.1524
 3002SOL     OW20464   0.781   2.370   1.071  0.4011 -0.0674  0.2253
 3002SOL    HW120465   0.849   2.336   1.129  0.4879 -1.7382 -0.8610
 3002SOL    HW220466   0.740   2.437   1.126  2.0205  0.7529  0.4366
 3003SOL     OW20467   3.337   2.770   4.551  0.2798 -0.2893 -0.0026
 3003SOL    HW120468   3.343   2.822   4.471 -0.2059 -0.4350 -0.1339
 3003SOL    HW220469   3.283   2.703   4.510 -0.0245 -0.7175  1.1050
 3004SOL     OW20470   4.384   4.698   2.888  0.4480  0.8611 -0.0389
 3004SOL    HW120471   4.426   4.624   2.844 -1.9857 -1.2477  1.2020
 3004SOL    HW220472   4.352   4.664   2.972  0.7093 -2.0324 -1.1189
 3005SOL     OW20473   0.153   4.173   3.676 -0.4505 -0.1027 -0.0387
 3005SOL    HW120474   0.187   4.100   3.728 -0.1667 -0.4555 -0.7294
 3005SOL    HW220475   0.108   4.223   3.745  0.2784 -0.2728  0.5661
 3006SOL     OW20476   0.379   0.298   4.076 -0.2579 -1.0275 -0.0952
 3006SOL    HW120477   0.468   0.291   4.111 -0.5537 -2.0014  0.4508
 3006SOL    HW220478   0.397   0.281   3.983  0.4596 -1.4859  0.1299
 3007SOL     OW20479   3.031   1.566  15.610  0.4361 -0.2473 -0.3910
 3007SOL    HW120480   2.942   1.590  15.584  0.0610  1.0330  2.0796
 3007SOL    HW220481   3.013   1.583  15.702 -0.3085  0.9866 -0.7693
 3008SOL     OW20482   3.223   1.071   6.689  0.0963  0.1580 -0.0357
 3008SOL    HW120483   3.199   1.065   6.782  0.0284  0.5414 -0.0300
 3008SOL    HW220484   3.150   1.029   6.644  1.1227 -0.4527 -1.1633
 3009SOL     OW20485   3.165   1.526  10.192  0.8464 -0.0931 -0.1303
 3009SOL    HW120486   3.260   1.524  10.181  1.0144 -0.2595  1.2769
 3009SOL    HW220487   3.157   1.527  10.288  2.6080  0.4309 -0.0072
 3010SOL     OW20488   3.036   3.443  15.775  0.4296 -0.2602 -0.2205
 3010SOL    HW120489   3.040   3.535  15.747  0.3405  0.1597  1.1295
 3010SOL    HW220490   2.942   3.423  15.774  1.0693 -3.3164  0.9274
 3011SOL     OW20491   0.142   0.327   5.778 -0.4776  0.1375 -0.1982
 3011SOL    HW120492   0.177   0.273   5.707  0.8699  0.9221 -0.1321
 3011SOL    HW220493   0.094   0.263   5.829  0.5296 -0.4155  0.0583
 3012SOL     OW20494   3.990   0.244  14.472 -0.0791 -0.1319 -0.2226
 3012SOL    HW120495   3.981   0.162  14.425  1.6098 -0.2552 -0.3314
 3012SOL    HW220496   3.897   0.267  14.466  0.2731  1.1146 -0.9521
 3013SOL     OW20497   1.018   4.584  16.822 -0.7574  0.4814 -0.1801
 3013SOL    HW120498   0.991   4.499  16.790 -0.0355  1.0515 -2.2707
 3013SOL    HW220499   0.934   4.622  16.851 -1.0561  0.3069 -0.8232
 3014SOL     OW20500   2.481   1.094   9.003  0.5161 -0.1094  0.1352
 3014SOL    HW120501   2.389   1.068   8.990  0.3767 -0.2189  1.3286
 3014SOL    HW220502   2.516   1.086   8.915  1.5352 -1.6448  0.6790
 3015SOL     OW20503   0.087   3.368  10.040 -0.0994  0.1126 -0.3301
 3015SOL    HW120504   0.001   3.409  10.035 -1.2214 -1.9536  2.1072
 3015SOL    HW220505   0.101   3.337   9.950  3.6611 -0.9126  0.5960
 3016SOL     OW20506   0.815   1.920  10.269  0.4864 -1.2762 -0.0615
 3016SOL    HW120507   0.739   1.902  10.214 -0.6611 -0.5637  1.3177
 3016SOL    HW220508   0.822   2.011  10.240 -2.3537 -1.2498 -0.6541
 3017SOL     OW20509   2.979   0.845   7.104 -0.2353  0.6496  0.3401
 3017SOL    HW120510   2.906   0.898   7.134 -0.5229 -0.5569  1.8042
 3017SOL    HW220511   2.989   0.788   7.180 -3.6095  0.1686  0.4180
 3018SOL     OW20512   3.084   0.330  15.910 -0.4882  0.6708 -0.1507
 3018SOL    HW120513   3.132   0.264  15.958  2.2403  0.7753 -2.7630
 3018SOL    HW220514   3.037   0.369  15.984 -0.7785  1.7799 -0.9056
 3019SOL     OW20515   2.593   1.908   4.070  0.0408  0.2801 -0.1091
 3019SOL    HW120516   2.579   1.900   3.975 -2.0594  1.7105  0.0893
 3019SOL    HW220517   2.682   1.943   4.081  1.3446 -1.9433 -3.4117
 3020SOL     OW20518   3.395   3.498   5.881  0.5090  0.4743 -0.4577
 3020SOL    HW120519   3.346   3.510   5.799  0.1740 -0.3710 -0.3816
 3020SOL    HW220520   3.474   3.545   5.855  1.4361 -0.5577  0.4985
 3021SOL     OW20521   3.181   3.279   3.626  0.3930 -0.0588 -0.2377
 3021SOL    HW120522   3.227   3.328   3.558 -0.2840  1.3158  0.2916
 3021SOL    HW220523   3.181   3.343   3.697 -1.5297  1.1804 -1.3670
 3022SOL     OW20524   4.700   4.338   4.369 -0.0855 -0.0027 -0.4515
 3022SOL    HW120525   0.026   4.376   4.296  0.9194  1.4787  0.9995
 3022SOL    HW220526   0.035   4.267   4.397 -2.4616 -1.7935 -0.0894
 3023SOL     OW20527   1.623   3.924   4.770 -0.1824  0.5162 -0.0908
 3023SOL    HW120528   1.617   3.889   4.859 -1.1165  1.1462  0.0998
 3023SOL    HW220529   1.537   3.896   4.738 -0.9163 -0.0162  2.3559
 3024SOL     OW20530   4.602   1.382   3.584  0.4161  0.0534  0.1267
 3024SOL    HW120531   4.618   1.288   3.591 -0.2243 -0.0003  0.8374
 3024SOL    HW220532   4.678   1.409   3.531  0.5918 -1.3828 -0.3401
 3025SOL     OW20533   0.066   0.672   6.578  0.0040 -0.0343 -0.5950
 3025SOL    HW120534   4.704   0.711   6.554  0.4170 -0.1263 -2.2012
 3025SOL    HW220535   0.099   0.645   6.493 -0.2357 -0.4879 -0.5433
 3026SOL     OW20536   3.784   4.451   7.284  0.0040 -0.2200 -0.6158
 3026SOL    HW120537   3.726   4.493   7.220 -0.0323  0.4352 -0.1454
 3026SOL    HW220538   3.870   4.484   7.256 -0.8309  0.8769 -1.8704
 3027SOL     OW20539   3.954   1.776  14.932  0.1670 -0.5482 -0.1470
 3027SOL    HW120540   4.036   1.747  14.971  0.2641 -1.4473 -1.0153
 3027SOL    HW220541   3.942   1.715  14.859  0.4024  0.6345 -1.1744
 3028SOL     OW20542   3.490   3.307   8.108 -0.1581 -0.0917 -0.6404
 3028SOL    HW120543   3.514   3.308   8.200 -2.5503 -2.3935 -0.0353
 3028SOL    HW220544   3.399   3.336   8.108  0.1372  0.8500 -0.7697
 3029SOL     OW20545   2.524   4.586  14.164 -0.0184  0.2169  0.1154
 3029SOL    HW120546   2.604   4.637  14.167 -0.0746  0.1802  2.6688
 3029SOL    HW220547   2.455   4.649  14.142  1.6181  1.6789 -0.7433
 3030SOL     OW20548   3.885   2.822   6.150 -0.2750 -0.6503  0.2511
 3030SOL    HW120549   3.943   2.790   6.081 -0.1888  2.8606 -1.3078
 3030SOL    HW220550   3.887   2.917   6.141  1.3768 -0.4941  2.2630
 3031SOL     OW20551   3.210   0.526   5.473 -0.0465  0.4424 -0.0942
 3031SOL    HW120552   3.119   0.507   5.448 -0.2900 -0.0138  1.1514
 3031SOL    HW220553   3.212   0.617   5.443  2.0587 -0.0606 -1.4505
 3032SOL     OW20554   2.451   3.357   9.276  0.0144  0.0175  0.3137
 3032SOL    HW120555   2.363   3.390   9.291  0.0143  0.5286 -0.8090
 3032SOL    HW220556   2.491   3.378   9.361  0.0648  1.3243 -0.0280
 3033SOL     OW20557   4.034   4.020  15.357  0.0818 -0.6241 -0.0654
 3033SOL    HW120558   4.100   4.085  15.333 -0.0682 -0.3368  0.2824
 3033SOL    HW220559   3.950   4.053  15.326  0.5557 -0.3833 -1.0822
 3034SOL     OW20560   3.764   4.382   5.815  0.0138 -0.3651  0.6885
 3034SOL    HW120561   3.703   4.308   5.814 -0.7173  0.2312  0.8786
 3034SOL    HW220562   3.763   4.398   5.910  1.4033  1.8999  0.3299
 3035SOL     OW20563   3.169   4.217   7.775 -0.4815  0.1908 -0.4406
 3035SOL    HW120564   3.223   4.143   7.801 -1.3613 -0.0809  0.6105
 3035SOL    HW220565   3.083   4.175   7.785  0.3543 -1.3904  0.1419
 3036SOL     OW20566   0.748   1.223   8.856  0.5875  0.0141  0.2233
 3036SOL    HW120567   0.806   1.154   8.890  1.7134  0.5676 -0.5692
 3036SOL    HW220568   0.665   1.214   8.903  0.7425 -2.1765  0.0756
 3037SOL     OW20569   0.829   0.181   5.320 -0.0695  0.6058 -0.0675
 3037SOL    HW120570   0.792   0.208   5.404  1.8452  1.1039  0.6279
 3037SOL    HW220571   0.819   0.251   5.255 -0.5156  0.6209  0.0215
 3038SOL     OW20572   1.205   1.712   8.643  0.1924 -0.7480  0.9118
 3038SOL    HW120573   1.295   1.734   8.617 -0.6768  0.0856 -1.3236
 3038SOL    HW220574   1.196   1.620   8.617 -0.9790 -0.9637  2.0964
 3039SOL     OW20575   2.345   2.348   6.985  0.2194 -0.1701  0.0866
 3039SOL    HW120576   2.363   2.406   6.911 -1.6362  2.3907  1.6482
 3039SOL    HW220577   2.269   2.295   6.961 -0.7337  1.5178 -0.6223
 3040SOL     OW20578   4.134   0.669   8.300 -0.3802 -0.0500  0.6554
 3040SOL    HW120579   4.126   0.714   8.384 -0.6236  1.0075  0.0574
 3040SOL    HW220580   4.049   0.626   8.295 -0.8706  0.6012  3.2030
 3041SOL     OW20581   1.014   4.249  12.912  0.7843  0.3176  0.1167
 3041SOL    HW120582   1.006   4.165  12.957  1.8385 -0.1838 -0.6435
 3041SOL    HW220583   0.956   4.228  12.840  2.4704 -0.4914 -0.9915
 3042SOL     OW20584   1.752   1.922   6.596 -0.0833 -0.0754 -0.0565
 3042SOL    HW120585   1.822   1.952   6.539 -1.6696  1.2653 -1.3062
 3042SOL    HW220586   1.796   1.918   6.681  1.1042 -1.1505 -0.7354
 3043SOL     OW20587   1.136   0.496  11.310  0.7325 -0.1008 -0.3870
 3043SOL    HW120588   1.165   0.587  11.306 -1.0960  0.6048  2.2757
 3043SOL    HW220589   1.110   0.489  11.402 -1.7904 -3.8300 -1.3585
 3044SOL     OW20590   0.173   4.439   3.533  0.3128 -0.1440  0.0470
 3044SOL    HW120591   0.156   4.365   3.591 -0.2586  0.6211  0.8600
 3044SOL    HW220592   0.260   4.423   3.497  0.8476 -0.0141  1.2728
 3045SOL     OW20593   2.060   0.119   1.657  0.2462  0.3512  0.0716
 3045SOL    HW120594   1.979   0.147   1.698  0.0821 -1.7037  1.1145
 3045SOL    HW220595   2.029   0.077   1.576 -1.4358 -0.5032  1.1631
 3046SOL     OW20596   2.237   4.525   2.199  0.1069  0.3169  0.1989
 3046SOL    HW120597   2.238   4.602   2.142 -0.6877  0.0833 -0.1190
 3046SOL    HW220598   2.145   4.501   2.187  0.0272  0.8873 -0.3948
 3047SOL     OW20599   3.537   4.377  17.482 -0.4056  0.4062  0.1281
 3047SOL    HW120600   3.502   4.402  17.397  1.6729  3.3104  0.0970
 3047SOL    HW220601   3.538   4.458  17.533  1.0238  1.4879 -1.5828
 3048SOL     OW20602   3.000   3.703  17.072  0.2437  0.0611  0.1034
 3048SOL    HW120603   2.997   3.638  17.141  1.5539 -0.9792 -0.8302
 3048SOL    HW220604   3.011   3.655  16.990  0.5034  1.2411 -0.5511
 3049SOL     OW20605   0.382   0.226   8.505  0.2162 -0.2222  0.2895
 3049SOL    HW120606   0.417   0.229   8.416  1.3654 -0.7105  0.7393
 3049SOL    HW220607   0.291   0.255   8.494 -0.6873 -2.9888  0.3969
 3050SOL     OW20608   3.285   2.557   9.989 -0.2069  0.4874 -0.3022
 3050SOL    HW120609   3.216   2.550   9.923 -0.2788  0.6450 -0.2422
 3050SOL    HW220610   3.264   2.481  10.044  0.8341  1.4309  1.3891
 3051SOL     OW20611   0.797   0.657  11.258 -0.0250 -0.6761 -0.3141
 3051SOL    HW120612   0.783   0.742  11.216  1.2138 -0.1752  0.3024
 3051SOL    HW220613   0.830   0.683  11.343 -1.7154  0.3855  0.0254
 3052SOL     OW20614   1.447   3.277  15.435  0.5578 -0.4000 -0.0720
 3052SOL    HW120615   1.420   3.185  15.436  3.5222 -1.2982 -1.7062
 3052SOL    HW220616   1.412   3.303  15.349 -2.3132  0.2776  1.3026
 3053SOL     OW20617   3.740   0.389   6.137  0.4784  0.8099 -0.4179
 3053SOL    HW120618   3.677   0.326   6.173  0.5405  1.1163  0.2346
 3053SOL    HW220619   3.797   0.328   6.089  0.9497 -1.6435  3.2098
 3054SOL     OW20620   3.023   1.128   3.830  0.3011 -0.5154  0.0121
 3054SOL    HW120621   3.050   1.066   3.763  1.1911  0.0707 -0.1736
 3054SOL    HW220622   3.081   1.203   3.816 -0.0967 -0.3172 -0.6058
 3055SOL     OW20623   4.496   1.250   4.564 -0.0389  0.1135 -0.1022
 3055SOL    HW120624   4.479   1.305   4.641  1.2510 -0.6117  0.7021
 3055SOL    HW220625   4.445   1.177   4.601 -0.4780  0.5618  0.1825
 3056SOL     OW20626   2.076   3.189   5.077  0.8846 -0.3968  0.4606
 3056SOL    HW120627   2.082   3.204   5.172 -1.5760  0.2187  0.5255
 3056SOL    HW220628   1.989   3.149   5.079  0.9698 -0.5616  1.1166
 3057SOL     OW20629   4.029   3.228   4.182  0.2994  0.0624 -0.2536
 3057SOL    HW120630   4.021   3.315   4.141  2.0337  1.6693  2.8457
 3057SOL    HW220631   3.971   3.249   4.255 -0.6759  0.5553 -1.1756
 3058SOL     OW20632   3.943   3.070   6.112 -0.2575 -0.2047 -0.0883
 3058SOL    HW120633   3.904   3.151   6.080 -2.7253 -1.4581 -0.2198
 3058SOL    HW220634   4.001   3.100   6.183  0.5102  0.9952 -1.2176
 3059SOL     OW20635   2.113   2.782   6.194  1.0131  0.3026  0.0399
 3059SOL    HW120636   2.147   2.728   6.123  0.6901  1.2909 -0.8760
 3059SOL    HW220637   2.176   2.773   6.265  0.0978 -0.9110  0.7019
 3060SOL     OW20638   0.155   1.373   8.579  0.4337 -0.1745 -0.3675
 3060SOL    HW120639   0.179   1.458   8.540  1.7803 -0.8976 -1.0982
 3060SOL    HW220640   0.208   1.313   8.527 -0.7583  0.0776 -1.8833
 3061SOL     OW20641   1.641   0.393   1.980  0.0990 -0.0195  0.1417
 3061SOL    HW120642   1.597   0.423   2.060 -1.7807  0.8670 -1.2120
 3061SOL    HW220643   1.576   0.339   1.934  0.9671 -0.0187 -1.0880
 3062SOL     OW20644   3.808   2.931  15.320  0.1772 -0.6293 -0.5139
 3062SOL    HW120645   3.787   2.839  15.331  2.8527 -1.1841  0.0024
 3062SOL    HW220646   3.795   2.963  15.410  0.7772 -1.4197 -0.1488
 3063SOL     OW20647   1.546   2.349  14.670 -0.3222 -0.4970 -0.4466
 3063SOL    HW120648   1.541   2.443  14.656  0.7724  0.3543  5.0552
 3063SOL    HW220649   1.487   2.338  14.744 -0.6097 -3.7759 -1.1298
 3064SOL     OW20650   4.122   1.477   8.229  0.1203  0.4956  0.0180
 3064SOL    HW120651   4.151   1.432   8.309 -2.6916  0.0244  0.7655
 3064SOL    HW220652   4.044   1.516   8.266  0.8862  1.3506  0.7216
 3065SOL     OW20653   0.106   0.111   3.165 -0.0351 -0.6782  0.7528
 3065SOL    HW120654   0.050   0.054   3.217 -1.2927  1.1193  1.3189
 3065SOL    HW220655   0.045   0.181   3.142 -0.3769 -0.6441  1.8081
 3066SOL     OW20656   0.377   3.311   7.495 -0.1518  0.2116 -0.4478
 3066SOL    HW120657   0.463   3.297   7.455  1.0163 -1.6362  2.6780
 3066SOL    HW220658   0.400   3.373   7.565 -0.0525  0.0815 -0.3652
 3067SOL     OW20659   3.729   2.892   7.555  0.2853 -0.2074  0.1349
 3067SOL    HW120660   3.748   2.920   7.465 -0.3945 -0.0353  0.0439
 3067SOL    HW220661   3.746   2.970   7.607  0.3374  0.0625 -0.2912
 3068SOL     OW20662   1.956   1.330   8.923 -0.1772 -0.0828 -0.4633
 3068SOL    HW120663   1.943   1.386   9.000 -0.4664  2.4135 -2.3334
 3068SOL    HW220664   2.049   1.341   8.905 -0.0886  0.2629  0.2121
 3069SOL     OW20665   1.995   3.921   3.678 -0.6405  0.1216  0.0180
 3069SOL    HW120666   1.942   3.968   3.613 -0.9821 -1.9031 -1.1575
 3069SOL    HW220667   2.029   3.860   3.613  1.4727  0.3328  0.9487
 3070SOL     OW20668   0.817   0.893   6.136 -0.6826 -0.0037 -0.2322
 3070SOL    HW120669   0.777   0.826   6.081 -1.0932 -1.1699  1.5014
 3070SOL    HW220670   0.768   0.970   6.105 -0.5278  0.1068 -0.2028
 3071SOL     OW20671   2.325   3.458  16.390  0.1584  0.2168 -0.1662
 3071SOL    HW120672   2.386   3.387  16.412 -0.1910 -0.4076 -1.1998
 3071SOL    HW220673   2.314   3.492  16.478 -0.7857  0.9289 -0.5595
 3072SOL     OW20674   4.134   3.904   6.053  0.3592  0.6682  0.3071
 3072SOL    HW120675   4.216   3.885   6.100  1.6211  0.8046 -1.8379
 3072SOL    HW220676   4.062   3.904   6.116 -1.8529 -2.0555 -2.2518
 3073SOL     OW20677   1.209   4.298  12.176 -0.4880  0.2768  0.4219
 3073SOL    HW120678   1.304   4.283  12.173 -0.3033  1.4814  0.3177
 3073SOL    HW220679   1.186   4.218  12.127 -0.1300  1.8718 -2.3503
 3074SOL     OW20680   2.328   4.548   8.562  0.0062 -0.2097 -0.0277
 3074SOL    HW120681   2.406   4.495   8.578  0.6829 -0.2609 -3.6335
 3074SOL    HW220682   2.356   4.616   8.501 -1.6169  0.7944  0.3490
 3075SOL     OW20683   1.418   2.987  15.399 -0.4623  0.2595 -0.2158
 3075SOL    HW120684   1.379   2.910  15.441  0.6666  0.0493  0.4494
 3075SOL    HW220685   1.432   2.949  15.313  1.4030  1.5706 -0.4987
 3076SOL     OW20686   3.393   1.368  11.816 -0.3475 -0.0208  0.0543
 3076SOL    HW120687   3.411   1.446  11.869 -1.5586 -0.0375  0.4879
 3076SOL    HW220688   3.299   1.371  11.831 -0.6642 -2.2431 -1.5219
 3077SOL     OW20689   4.558   4.600   2.118  0.8300 -0.4637 -0.1085
 3077SOL    HW120690   4.573   4.538   2.189  0.7123  0.6758  0.9024
 3077SOL    HW220691   4.638   4.588   2.066  1.9722  0.8239  1.3373
 3078SOL     OW20692   1.935   1.925   8.718  0.3386 -0.1320 -0.2928
 3078SOL    HW120693   1.941   1.946   8.625 -0.0017  2.6637  0.3301
 3078SOL    HW220694   1.914   2.008   8.761 -0.9547 -0.1594 -0.8645
 3079SOL     OW20695   3.602   0.575  15.714  0.6730  0.4328 -0.2002
 3079SOL    HW120696   3.689   0.587  15.675  1.1510 -1.8017  0.1496
 3079SOL    HW220697   3.553   0.602  15.636 -1.3398 -2.5644  0.0295
 3080SOL     OW20698   4.209   0.981   1.772  0.4017 -0.2946  0.0907
 3080SOL    HW120699   4.201   0.993   1.677 -1.1323 -1.9364  0.0051
 3080SOL    HW220700   4.163   0.897   1.780 -0.1756 -0.1528 -1.7042
 3081SOL     OW20701   0.761   0.216   2.950 -0.6431  0.0062  0.4193
 3081SOL    HW120702   0.829   0.212   3.017  0.4678  1.0756 -0.6483
 3081SOL    HW220703   0.780   0.306   2.922 -1.2536  0.9908  3.1009
 3082SOL     OW20704   3.532   3.515   6.769 -0.2404  0.1931 -0.7066
 3082SOL    HW120705   3.500   3.581   6.709  2.7842 -0.1151 -2.6708
 3082SOL    HW220706   3.456   3.500   6.825 -1.1704 -0.0525 -2.0285
 3083SOL     OW20707   0.605   0.110   6.206  0.0516  0.1781  0.7203
 3083SOL    HW120708   0.662   0.102   6.129 -0.5607 -0.3255  0.3196
 3083SOL    HW220709   0.672   0.108   6.274  1.4502 -0.1948 -0.6452
 3084SOL     OW20710   2.962   0.185  10.029 -0.1832  0.0586  0.4385
 3084SOL    HW120711   3.005   0.134   9.960 -0.0646  1.6120 -0.6321
 3084SOL    HW220712   2.923   0.258   9.980 -0.4719  0.3460  1.0892
 3085SOL     OW20713   0.627   3.199   7.335  0.3360  0.1402  0.4689
 3085SOL    HW120714   0.722   3.208   7.343  0.1943  0.5700  1.6540
 3085SOL    HW220715   0.601   3.261   7.267  1.6091  0.2947  0.1366
 3086SOL     OW20716   2.884   1.696   3.454 -0.0794  0.4811 -0.3958
 3086SOL    HW120717   2.870   1.701   3.548 -1.5904 -0.0860 -0.5918
 3086SOL    HW220718   2.798   1.690   3.413 -1.1834  0.7978  1.8864
 3087SOL     OW20719   2.343   2.680   6.984 -0.2363 -0.3167 -0.1161
 3087SOL    HW120720   2.310   2.764   7.015  0.1661  1.0848 -3.4747
 3087SOL    HW220721   2.318   2.620   7.054  0.9388 -1.9033 -1.0767
 3088SOL     OW20722   3.230   1.801   4.709  0.1386  0.7813 -0.0111
 3088SOL    HW120723   3.295   1.839   4.769  2.4427 -0.1135 -1.9601
 3088SOL    HW220724   3.192   1.742   4.774  0.0325  1.3263  0.4226
 3089SOL     OW20725   4.152   4.495   9.292  0.5234 -0.2387 -0.9934
 3089SOL    HW120726   4.231   4.517   9.340  0.7418 -1.5149 -0.7777
 3089SOL    HW220727   4.129   4.582   9.257  1.0983  0.1659 -0.3517
 3090SOL     OW20728   4.674   3.661   7.476 -0.3218 -0.5253  0.1836
 3090SOL    HW120729   4.625   3.679   7.395  0.9204  0.7614 -0.2844
 3090SOL    HW220730   4.712   3.575   7.461  1.5677  0.4677 -0.7460
 3091SOL     OW20731   2.150   0.818   6.458  0.1284 -0.8569 -0.4851
 3091SOL    HW120732   2.179   0.745   6.512  4.3188  0.1383 -1.4236
 3091SOL    HW220733   2.142   0.774   6.374  1.0028 -0.2882 -0.8630
 3092SOL     OW20734   2.041   4.295   2.515  0.2091 -0.8186 -0.2807
 3092SOL    HW120735   1.986   4.273   2.440  1.7711  0.7683 -1.8867
 3092SOL    HW220736   2.130   4.290   2.481  1.0020 -0.5835  1.7743
 3093SOL     OW20737   1.181   2.852   6.418 -0.1231  0.0700 -0.0487
 3093SOL    HW120738   1.245   2.867   6.348 -1.7478  0.4273 -1.4382
 3093SOL    HW220739   1.137   2.776   6.378 -1.4339 -0.1162  1.7759
 3094SOL     OW20740   2.369   2.784  10.303 -0.3315  0.4219  0.3969
 3094SOL    HW120741   2.435   2.715  10.302 -0.6018  0.1891 -1.3524
 3094SOL    HW220742   2.371   2.836  10.383 -0.5414  1.5500 -0.3248
 3095SOL     OW20743   0.146   0.822   3.108 -0.1866  0.7504 -0.2638
 3095SOL    HW120744   0.182   0.779   3.185 -0.5908  0.2961 -0.3251
 3095SOL    HW220745   0.054   0.832   3.130 -0.4457 -2.3394  0.0912
 3096SOL     OW20746   2.706   1.950   3.791 -0.3024 -0.0867  0.9159
 3096SOL    HW120747   2.797   1.978   3.797 -0.7765  1.2358  1.7435
 3096SOL    HW220748   2.719   1.863   3.753 -2.3818  0.2898 -0.6672
 3097SOL     OW20749   3.487   4.486  15.028 -0.2021 -0.6764 -0.0538
 3097SOL    HW120750   3.553   4.536  15.077  0.2237  2.5926 -3.9436
 3097SOL    HW220751   3.427   4.556  15.001 -1.5019 -1.1525  1.6371
 3098SOL     OW20752   3.234   2.730  16.853 -0.7063 -0.2447 -0.2950
 3098SOL    HW120753   3.157   2.715  16.798 -0.7351 -1.3769  0.0494
 3098SOL    HW220754   3.297   2.670  16.814  1.4488 -0.0155  2.8397
 3099SOL     OW20755   3.916   1.905   4.067  0.5905 -0.1555 -1.1024
 3099SOL    HW120756   3.970   1.906   3.988  2.5559 -0.1622  0.2530
 3099SOL    HW220757   3.827   1.913   4.031  0.3776  0.1542 -0.4965
 3100SOL     OW20758   4.309   3.632   2.106  0.4782 -0.2146 -0.3997
 3100SOL    HW120759   4.346   3.698   2.047  0.8936  0.7318  0.9214
 3100SOL    HW220760   4.218   3.643   2.079  0.0508 -1.1965  0.6493
 3101SOL     OW20761   2.343   0.007   0.616 -0.0395  0.1016  0.0951
 3101SOL    HW120762   2.264   4.693   0.576 -0.4764  0.4053  0.6797
 3101SOL    HW220763   2.384   4.659   0.665 -0.4099 -1.5189 -1.9492
 3102SOL     OW20764   1.632   3.183   8.566 -0.2865  0.1885  0.1986
 3102SOL    HW120765   1.668   3.118   8.506 -0.9400 -0.8124  0.9021
 3102SOL    HW220766   1.657   3.264   8.521  1.6230 -1.4554 -1.6535
 3103SOL     OW20767   2.817   3.150  10.233 -0.4188 -0.6721 -0.1811
 3103SOL    HW120768   2.865   3.188  10.158 -0.9175  1.9562  0.8150
 3103SOL    HW220769   2.868   3.073  10.256  0.2310  0.2604  1.5112
 3104SOL     OW20770   4.184   2.957   7.571 -0.4390 -0.0874  0.1730
 3104SOL    HW120771   4.198   3.008   7.651  1.3235  1.3845 -1.0625
 3104SOL    HW220772   4.187   3.025   7.503 -1.4673  0.1333  0.3471
 3105SOL     OW20773   0.532   2.698   0.476  0.5496 -0.1845 -0.0772
 3105SOL    HW120774   0.500   2.612   0.451 -3.4269  1.0189  0.7413
 3105SOL    HW220775   0.565   2.728   0.391 -1.9331  0.3404 -0.8611
 3106SOL     OW20776   1.481   1.901   2.988 -0.2500 -0.3237  0.1011
 3106SOL    HW120777   1.472   1.857   2.904 -0.4296  1.5461 -0.8642
 3106SOL    HW220778   1.438   1.982   2.960 -1.5545 -1.4714 -1.1879
 3107SOL     OW20779   0.371   3.803   3.145  0.5260 -0.2193 -0.3099
 3107SOL    HW120780   0.421   3.722   3.143  1.1279  0.1101  0.8981
 3107SOL    HW220781   0.435   3.872   3.164  2.5143 -2.5215  1.3228
 3108SOL     OW20782   2.075   3.400   8.127  0.6692 -0.3609 -0.7012
 3108SOL    HW120783   2.024   3.465   8.177 -0.9639 -2.3540  0.2433
 3108SOL    HW220784   2.029   3.325   8.165  0.1816  1.2845  1.9785
 3109SOL     OW20785   1.594   0.671   2.552 -0.1719 -0.2173  0.1391
 3109SOL    HW120786   1.599   0.759   2.589 -2.0459 -0.0528 -0.0336
 3109SOL    HW220787   1.662   0.682   2.485  0.0652  1.2879  0.6258
 3110SOL     OW20788   1.729   4.487   0.609 -0.4185  0.2711  0.0946
 3110SOL    HW120789   1.677   4.410   0.628 -1.2882  1.1078  1.0755
 3110SOL    HW220790   1.704   4.514   0.520  2.4489  1.1118 -0.4712
 3111SOL     OW20791   1.249   3.338   4.902 -0.9888  0.6584  0.1786
 3111SOL    HW120792   1.161   3.375   4.906 -1.9342 -1.5720  0.0108
 3111SOL    HW220793   1.297   3.419   4.919  3.2486 -2.3101  2.4577
 3112SOL     OW20794   0.751   3.280   7.826  0.0559 -0.0197 -0.3783
 3112SOL    HW120795   0.806   3.244   7.756 -0.6547 -0.8777 -0.4865
 3112SOL    HW220796   0.814   3.333   7.876 -1.0797  2.1601 -1.2637
 3113SOL     OW20797   0.012   2.637   6.036 -0.1971 -0.8162 -0.5055
 3113SOL    HW120798   0.029   2.709   5.976  0.5596 -1.0144 -0.5266
 3113SOL    HW220799   0.065   2.660   6.113 -0.6865  0.2570 -0.4914
 3114SOL     OW20800   1.804   2.131   7.060  0.1899 -0.0929  0.5033
 3114SOL    HW120801   1.841   2.174   7.137  0.6129  3.0602 -1.4403
 3114SOL    HW220802   1.777   2.205   7.005  0.2691 -2.0645 -2.1415
 3115SOL     OW20803   3.090   4.087   6.716  0.0177  0.6033  0.3244
 3115SOL    HW120804   3.128   4.168   6.682 -1.3313  0.9233 -0.4205
 3115SOL    HW220805   3.131   4.022   6.659 -1.1993 -0.7867  1.0280
 3116SOL     OW20806   2.819   3.298   4.420 -0.0819  0.0710 -0.6421
 3116SOL    HW120807   2.770   3.268   4.344 -0.8041 -2.2598  0.7591
 3116SOL    HW220808   2.746   3.315   4.480  0.3398  0.9559 -0.3690
 3117SOL     OW20809   3.873   3.230  12.463  0.4766  0.1822  0.1045
 3117SOL    HW120810   3.928   3.212  12.539  0.2195 -2.4477 -0.3442
 3117SOL    HW220811   3.789   3.189  12.483  1.0440 -1.6128 -1.1653
 3118SOL     OW20812   2.115   4.171   3.285  0.6651 -0.0601 -0.2392
 3118SOL    HW120813   2.049   4.217   3.234 -0.7058 -1.0962  0.6090
 3118SOL    HW220814   2.183   4.162   3.218  2.0626  0.1231  1.1428
 3119SOL     OW20815   3.838   0.631   8.240 -0.3755  0.1903 -0.2565
 3119SOL    HW120816   3.859   0.582   8.161  1.6397 -1.0821  1.0833
 3119SOL    HW220817   3.828   0.554   8.295  0.2728  1.1379  1.1651
 3120SOL     OW20818   0.815   2.568   2.976 -0.1408 -0.1663  0.1435
 3120SOL    HW120819   0.848   2.567   2.886 -2.1162 -1.6921 -0.5883
 3120SOL    HW220820   0.855   2.646   3.013  1.7731 -0.6407 -0.9478
 3121SOL     OW20821   4.385   3.050   2.380 -0.4715  0.3210  0.3720
 3121SOL    HW120822   4.406   3.012   2.465 -0.4594  1.3371  0.8215
 3121SOL    HW220823   4.400   2.980   2.317  1.0152  1.5143 -0.5956
 3122SOL     OW20824   1.844   1.386   2.423 -0.0914  0.4324 -0.2683
 3122SOL    HW120825   1.822   1.341   2.504  0.3706  0.2449 -0.2466
 3122SOL    HW220826   1.777   1.453   2.408  0.0592  0.4384 -0.9454
 3123SOL     OW20827   3.587   3.994  16.024  0.4398 -0.2158  0.1056
 3123SOL    HW120828   3.562   4.019  16.112  0.8888 -2.0063  0.7360
 3123SOL    HW220829   3.619   4.077  15.989 -1.1407  0.1324 -0.5015
 3124SOL     OW20830   2.603   3.580  16.441 -0.3382  0.7070 -0.3600
 3124SOL    HW120831   2.590   3.488  16.416  1.8764  1.2021 -3.3236
 3124SOL    HW220832   2.619   3.575  16.535 -1.7165 -1.0384 -0.1967
 3125SOL     OW20833   2.374   1.250   7.486  0.2460 -0.4841  0.1084
 3125SOL    HW120834   2.422   1.190   7.543 -0.6597 -2.0365 -0.7782
 3125SOL    HW220835   2.317   1.296   7.547 -0.5531 -2.0464  0.5339
 3126SOL     OW20836   0.440   3.960   4.301  0.2434 -0.3393  0.2836
 3126SOL    HW120837   0.480   3.882   4.340  2.6632 -0.0745 -1.6428
 3126SOL    HW220838   0.509   3.990   4.241  0.0129 -2.2892 -0.9341
 3127SOL     OW20839   3.693   1.078   6.142 -0.2351  0.4649  0.2921
 3127SOL    HW120840   3.646   1.019   6.083 -1.2472  1.4997  0.0578
 3127SOL    HW220841   3.643   1.062   6.222  1.1333 -2.1190  0.6434
 3128SOL     OW20842   0.194   4.061   8.599  0.3710 -0.5740 -0.4993
 3128SOL    HW120843   0.103   4.084   8.582  1.0351  1.9942 -0.5553
 3128SOL    HW220844   0.184   3.975   8.639  2.1401 -0.0126  1.1649
 3129SOL     OW20845   0.871   4.450   9.096  0.3512 -0.2934 -0.2667
 3129SOL    HW120846   0.812   4.379   9.071 -0.5542  0.9141 -1.5594
 3129SOL    HW220847   0.797   4.510   9.104  0.2553 -0.2606 -1.3650
 3130SOL     OW20848   3.859   2.669   1.354 -0.3002  0.7435 -0.3421
 3130SOL    HW120849   3.887   2.700   1.268 -2.0451  2.2255 -0.3956
 3130SOL    HW220850   3.777   2.719   1.363 -0.5017  0.0264  1.7531
 3131SOL     OW20851   4.620   1.311   3.267  0.0516  0.1158  0.1934
 3131SOL    HW120852   4.626   1.312   3.171 -0.0345 -0.6482  0.1798
 3131SOL    HW220853   4.707   1.335   3.299  0.3196  1.9817 -1.8711
 3132SOL     OW20854   3.898   0.492   6.350 -0.0850  0.5458 -0.0500
 3132SOL    HW120855   3.869   0.435   6.278 -0.1112  0.2418  0.1998
 3132SOL    HW220856   3.912   0.564   6.289  0.2446  1.3619  0.9981
 3133SOL     OW20857   3.219   3.421  17.122 -0.3893 -0.6086 -0.1653
 3133SOL    HW120858   3.267   3.504  17.116  1.2823 -1.4978  1.0076
 3133SOL    HW220859   3.160   3.433  17.196 -0.4449 -1.2914 -0.0951
 3134SOL     OW20860   0.678   1.079   2.680  0.3482 -0.1997 -1.0008
 3134SOL    HW120861   0.700   1.171   2.698 -0.6830 -0.2694  0.5629
 3134SOL    HW220862   0.594   1.073   2.724  0.7450  0.7238 -0.1153
 3135SOL     OW20863   1.955   2.349   3.378 -0.2665  0.1740  0.1558
 3135SOL    HW120864   1.918   2.331   3.464  2.3215  1.9139  1.6065
 3135SOL    HW220865   2.048   2.339   3.397 -0.3431 -0.7059  0.0623
 3136SOL     OW20866   0.784   1.238   4.034  0.6204  0.0397 -0.2847
 3136SOL    HW120867   0.780   1.318   4.086 -0.6704 -2.1729  3.0308
 3136SOL    HW220868   0.709   1.193   4.073  0.6588 -0.1089 -0.3825
 3137SOL     OW20869   0.792   1.359   1.503  0.0820  0.2883 -0.2870
 3137SOL    HW120870   0.763   1.422   1.436 -1.4956  2.0750  2.0765
 3137SOL    HW220871   0.874   1.401   1.526  0.8481 -0.7855 -1.0762
 3138SOL     OW20872   4.589   3.796  16.947 -0.1500  0.0574 -0.0497
 3138SOL    HW120873   4.651   3.846  16.894 -0.3528 -0.2768 -0.6018
 3138SOL    HW220874   4.566   3.868  17.006  2.7939  0.7485  0.2863
 3139SOL     OW20875   1.840   2.625   6.849 -0.4611  0.0970  0.0881
 3139SOL    HW120876   1.872   2.715   6.858  0.5534 -0.2268 -0.3400
 3139SOL    HW220877   1.836   2.632   6.754  1.8286 -3.5142 -0.2902
 3140SOL     OW20878   1.272   1.934   0.863  0.1621  0.1919  0.1144
 3140SOL    HW120879   1.358   1.947   0.903  0.6904  0.0180 -0.9747
 3140SOL    HW220880   1.218   1.986   0.923 -0.2276 -1.1493  0.9402
 3141SOL     OW20881   4.281   4.678  10.046 -0.1405  0.2773  0.2138
 3141SOL    HW120882   4.334   4.600  10.061  0.1333  0.3709 -0.2694
 3141SOL    HW220883   4.197   4.653  10.083 -1.0214  1.8615 -0.7415
 3142SOL     OW20884   3.409   4.464   1.455  0.4867  0.0559  0.5763
 3142SOL    HW120885   3.457   4.427   1.381  0.1618 -1.0910  0.9479
 3142SOL    HW220886   3.468   4.521   1.505 -2.3140  3.3292  0.1684
 3143SOL     OW20887   4.539   0.279   6.461 -0.0089  0.4767 -0.6366
 3143SOL    HW120888   4.551   0.290   6.555 -0.3638 -1.9157 -0.2933
 3143SOL    HW220889   4.562   0.367   6.431 -2.0949  0.6988 -1.5715
 3144SOL     OW20890   3.955   1.417   4.193 -0.5396  0.6475  0.5109
 3144SOL    HW120891   3.969   1.512   4.201  0.7427  0.2608  2.9018
 3144SOL    HW220892   3.910   1.402   4.276 -1.2754  0.8257  0.1459
 3145SOL     OW20893   1.083   4.592  15.650  0.4534 -0.5188  0.1881
 3145SOL    HW120894   1.068   4.687  15.641  0.0893 -0.5209  0.7746
 3145SOL    HW220895   1.147   4.601  15.720 -0.7949 -2.7845  1.6007
 3146SOL     OW20896   3.609   4.542   2.273 -0.1245  0.2732  0.0750
 3146SOL    HW120897   3.591   4.534   2.179 -0.8110 -1.5116  0.3579
 3146SOL    HW220898   3.694   4.587   2.269  1.8284 -3.3470  0.7602
 3147SOL     OW20899   0.415   1.342  16.765  0.7912 -0.3022  0.0354
 3147SOL    HW120900   0.415   1.299  16.850  0.2033 -2.2196 -0.9372
 3147SOL    HW220901   0.416   1.431  16.799 -0.6442  0.7268 -2.6545
 3148SOL     OW20902   4.620   3.042   5.181 -0.9044 -0.6412 -0.2442
 3148SOL    HW120903   4.552   3.079   5.236  0.3123  1.5217 -0.1884
 3148SOL    HW220904   4.594   3.088   5.102  2.1846  1.2918 -0.1633
 3149SOL     OW20905   2.076   2.190   7.947 -0.0300  0.4092 -0.2353
 3149SOL    HW120906   2.036   2.260   7.999  0.0783  0.0317  0.3503
 3149SOL    HW220907   2.049   2.193   7.855 -1.3751  0.0817  0.1519
 3150SOL     OW20908   4.520   2.947  13.693 -0.0410  0.2978 -0.9087
 3150SOL    HW120909   4.476   2.862  13.689 -1.3068  0.9690 -0.9441
 3150SOL    HW220910   4.447   3.003  13.669 -0.7769  0.3371  1.4927
 3151SOL     OW20911   2.027   4.548   6.330  0.1157  0.0602 -0.1859
 3151SOL    HW120912   2.035   4.457   6.358 -0.9469 -0.7392 -2.4343
 3151SOL    HW220913   1.933   4.558   6.314  0.2699  2.5477  0.4161
 3152SOL     OW20914   0.153   4.579   8.891  0.3858  0.7532 -0.5688
 3152SOL    HW120915   0.148   4.531   8.974 -0.4603 -0.3127 -1.2401
 3152SOL    HW220916   0.155   4.505   8.831 -0.2706  0.8157 -0.6697
 3153SOL     OW20917   2.535   0.752   9.463 -0.3921  0.5489  0.2655
 3153SOL    HW120918   2.629   0.754   9.446 -0.7301 -1.7392 -1.8702
 3153SOL    HW220919   2.508   0.826   9.409 -1.7439  0.6964  1.1481
 3154SOL     OW20920   1.348   2.471   8.583  0.6096 -0.4232 -0.1862
 3154SOL    HW120921   1.413   2.401   8.593  0.8947  0.0100  1.0025
 3154SOL    HW220922   1.387   2.541   8.531  0.7886 -0.9456 -0.7647
 3155SOL     OW20923   4.057   1.164   5.668  0.8822  0.2763  0.6229
 3155SOL    HW120924   3.994   1.095   5.689 -1.3813  1.7452 -1.3597
 3155SOL    HW220925   4.033   1.243   5.717  1.1717  2.5981 -2.9854
 3156SOL     OW20926   3.294   2.672   8.322 -0.0868 -0.0201  0.3344
 3156SOL    HW120927   3.303   2.643   8.231  0.8346  1.3763 -0.0220
 3156SOL    HW220928   3.248   2.594   8.354 -2.0683  0.6079 -1.0155
 3157SOL     OW20929   3.563   3.982   6.597  0.3340 -0.3905  0.1124
 3157SOL    HW120930   3.519   4.024   6.671  2.1109  1.0049  0.3880
 3157SOL    HW220931   3.647   3.956   6.634 -0.1884 -0.7144  1.0734
 3158SOL     OW20932   3.744   3.924  17.574 -0.5017 -0.0334  0.1243
 3158SOL    HW120933   3.738   4.019  17.575 -0.6403 -0.0420  0.1239
 3158SOL    HW220934   3.687   3.910  17.650  0.2083 -1.4517  0.3876
 3159SOL     OW20935   3.090   2.676   4.055 -0.8696  0.4255 -0.2954
 3159SOL    HW120936   3.093   2.713   3.967 -1.0616 -0.6776 -0.7672
 3159SOL    HW220937   3.036   2.598   4.041  0.2584 -0.7474  1.6547
 3160SOL     OW20938   2.669   3.335   6.768 -0.5237  0.2041 -0.2933
 3160SOL    HW120939   2.592   3.362   6.819  0.4662 -0.9011  1.7435
 3160SOL    HW220940   2.739   3.331   6.833  1.6235 -2.0955 -2.7547
 3161SOL     OW20941   3.995   0.510   5.952 -0.0496 -0.6885  0.2369
 3161SOL    HW120942   4.042   0.462   5.884 -0.0308  0.4857 -0.5600
 3161SOL    HW220943   4.038   0.490   6.035  1.2180 -0.0846 -0.2867
 3162SOL     OW20944   2.041   2.340   3.978 -0.1318  0.3905  0.7113
 3162SOL    HW120945   2.136   2.349   3.968 -0.3840  1.7162 -0.4853
 3162SOL    HW220946   2.044   2.259   4.028 -0.6275 -1.1363 -1.6955
 3163SOL     OW20947   1.329   2.924   4.856  0.0626  0.4110 -0.6023
 3163SOL    HW120948   1.324   2.894   4.766 -1.2299 -2.1762  0.3221
 3163SOL    HW220949   1.265   2.870   4.902  2.2432 -0.3109  1.5995
 3164SOL     OW20950   0.881   0.610   1.416  0.1745  0.9175  0.2940
 3164SOL    HW120951   0.930   0.575   1.490  0.3217 -1.5822 -0.9978
 3164SOL    HW220952   0.913   0.700   1.420 -2.1803  1.7589  0.0133
 3165SOL     OW20953   1.894   4.081  12.742 -0.1203 -0.1649  0.2229
 3165SOL    HW120954   1.913   4.070  12.649  0.6266  1.9263  0.1255
 3165SOL    HW220955   1.822   4.021  12.756 -1.4802  0.9496 -1.8962
 3166SOL     OW20956   0.796   1.631   5.380  0.1736  0.0131  0.1154
 3166SOL    HW120957   0.815   1.671   5.296 -0.4749 -1.9193 -0.9476
 3166SOL    HW220958   0.876   1.580   5.389  0.6929  0.6145 -1.1448
 3167SOL     OW20959   3.647   1.850   9.097  0.0201  0.4838  0.9864
 3167SOL    HW120960   3.644   1.945   9.089 -1.7504  0.4168  0.9449
 3167SOL    HW220961   3.707   1.818   9.030 -0.1091  1.9286  0.1881
 3168SOL     OW20962   1.232   3.698  14.553  0.0194 -0.6926 -0.2704
 3168SOL    HW120963   1.153   3.723  14.505  0.8294 -0.7130 -1.5937
 3168SOL    HW220964   1.265   3.781  14.587 -0.4319 -1.5573  2.3192
 3169SOL     OW20965   3.510   4.337  14.242  0.0061  0.5414 -0.0191
 3169SOL    HW120966   3.447   4.398  14.203 -0.2476  0.4540  0.2575
 3169SOL    HW220967   3.589   4.389  14.226  0.1394  0.5807  0.8092
 3170SOL     OW20968   1.021   0.550   9.107 -0.8764 -0.0283 -0.4189
 3170SOL    HW120969   1.024   0.468   9.058  0.1371 -0.5268  0.4773
 3170SOL    HW220970   0.970   0.602   9.045 -2.4540 -2.0206 -0.7483
 3171SOL     OW20971   2.446   3.481   0.145  0.3478 -0.1034  0.7391
 3171SOL    HW120972   2.421   3.569   0.172  0.6516  0.2206 -0.0345
 3171SOL    HW220973   2.466   3.438   0.228  0.3673 -1.1584  0.1905
 3172SOL     OW20974   3.825   2.477  10.468  0.4375  0.2980 -0.3626
 3172SOL    HW120975   3.762   2.541  10.436 -0.0747 -0.6915 -1.3520
 3172SOL    HW220976   3.849   2.515  10.553  1.0053 -1.3316  0.2119
 3173SOL     OW20977   2.672   3.625  15.614 -0.1330  0.4644  0.0132
 3173SOL    HW120978   2.714   3.639  15.529 -0.2000 -2.3608 -0.4726
 3173SOL    HW220979   2.753   3.599  15.659 -1.3882  0.7640  2.4500
 3174SOL     OW20980   2.827   0.599   6.361 -0.1240  0.2477 -0.4492
 3174SOL    HW120981   2.793   0.687   6.352  0.3377  0.2543 -2.1871
 3174SOL    HW220982   2.755   0.556   6.407 -0.7213  0.8376 -0.8498
 3175SOL     OW20983   1.429   4.558   5.061  0.5259  0.6232 -0.2649
 3175SOL    HW120984   1.483   4.517   5.129 -0.0822  1.3426  0.6487
 3175SOL    HW220985   1.357   4.589   5.116 -1.5046 -2.8361 -1.0043
 3176SOL     OW20986   3.058   3.310   6.582  0.2262  0.3101  0.3117
 3176SOL    HW120987   3.126   3.319   6.516  1.1428 -0.9381  1.0821
 3176SOL    HW220988   3.106   3.336   6.660  0.4169  1.0173 -0.0444
 3177SOL     OW20989   0.081   1.562   8.075 -0.2307  0.0342  0.0274
 3177SOL    HW120990   0.062   1.637   8.132 -2.1104 -0.4866  0.1040
 3177SOL    HW220991   4.718   1.518   8.078  1.8652 -3.8162  2.0443
 3178SOL     OW20992   4.256   3.687  11.806  0.4767  0.1636  0.0895
 3178SOL    HW120993   4.189   3.647  11.749 -1.2694  0.7952  1.7072
 3178SOL    HW220994   4.330   3.627  11.797 -0.0902 -0.5628  0.2234
 3179SOL     OW20995   0.513   1.607   1.218 -0.2760  0.1988  0.6444
 3179SOL    HW120996   0.485   1.692   1.253 -2.4973  0.2044 -1.0905
 3179SOL    HW220997   0.443   1.550   1.248  0.5214 -0.4313  1.3088
 3180SOL     OW20998   1.223   0.773   7.503 -0.7216 -0.0790 -0.2470
 3180SOL    HW120999   1.215   0.751   7.596 -2.0282 -0.3064 -0.4086
 3180SOL    HW221000   1.182   0.859   7.496  0.9792  0.6941 -0.4593
 3181SOL     OW21001   3.583   3.800   6.162 -0.6346  0.2492  0.3205
 3181SOL    HW121002   3.603   3.734   6.096  3.0928 -0.6669  2.3541
 3181SOL    HW221003   3.502   3.762   6.195  0.7637 -0.4907  2.8606
 3182SOL     OW21004   3.765   2.870  12.521  0.1796  0.2801  0.3025
 3182SOL    HW121005   3.737   2.948  12.473  0.3629 -0.6283 -1.2774
 3182SOL    HW221006   3.791   2.913  12.603  0.1663  1.2368 -0.2014
 3183SOL     OW21007   2.130   2.758   2.332 -0.2434  0.1994 -0.7366
 3183SOL    HW121008   2.072   2.717   2.396 -0.2855 -3.4462 -3.1157
 3183SOL    HW221009   2.095   2.847   2.332  0.0574  0.3173 -0.9628
 3184SOL     OW21010   0.486   3.212   1.089  0.6165 -0.5559 -0.3205
 3184SOL    HW121011   0.497   3.213   0.994  2.7293  1.3924 -0.0440
 3184SOL    HW221012   0.412   3.271   1.105  1.2240 -0.4001  1.9327
 3185SOL     OW21013   4.092   0.430  12.772  0.5121 -0.2616 -0.1509
 3185SOL    HW121014   4.068   0.458  12.683  0.5991 -1.6374 -0.6043
 3185SOL    HW221015   4.091   0.516  12.813  1.6762  0.3599 -1.4549
 3186SOL     OW21016   4.263   4.536   5.365 -0.2021 -0.8440 -0.0658
 3186SOL    HW121017   4.285   4.538   5.272  0.1345 -2.0689 -0.0210
 3186SOL    HW221018   4.177   4.497   5.349 -0.6201  0.4686 -1.0037
 3187SOL     OW21019   3.855   2.069   2.439  0.7979  0.3899 -0.2813
 3187SOL    HW121020   3.797   2.032   2.505  2.9590 -0.4788  1.1098
 3187SOL    HW221021   3.842   2.007   2.366 -2.8231  1.8513 -0.8754
 3188SOL     OW21022   4.223   3.395   8.518 -0.5825  0.1990  0.0907
 3188SOL    HW121023   4.304   3.384   8.568 -1.0876 -0.3742  0.7853
 3188SOL    HW221024   4.175   3.313   8.533  0.3982 -1.1938 -4.2297
 3189SOL     OW21025   4.026   3.448   5.531 -0.2035  0.3168  0.1719
 3189SOL    HW121026   3.973   3.528   5.524 -0.1959  0.4562  1.6935
 3189SOL    HW221027   4.038   3.421   5.440  2.1841  1.0869  0.2653
 3190SOL     OW21028   3.999   2.200   3.004  0.8427 -0.1162  0.0916
 3190SOL    HW121029   4.086   2.163   2.989  1.1232 -0.5031  2.7325
 3190SOL    HW221030   3.953   2.120   2.978 -1.0838  1.3167 -0.9303
 3191SOL     OW21031   3.157   0.982  14.806 -0.6686  0.0637  0.4732
 3191SOL    HW121032   3.086   0.920  14.823 -0.6252  0.4558  2.0472
 3191SOL    HW221033   3.195   1.004  14.891  0.8571 -2.1183  0.3471
 3192SOL     OW21034   2.320   0.460   4.213 -0.0766  0.5311  0.0573
 3192SOL    HW121035   2.232   0.437   4.183  0.6155 -0.5489 -1.1257
 3192SOL    HW221036   2.303   0.508   4.294 -1.8106 -0.8213  0.4915
 3193SOL     OW21037   1.785   0.343   8.447 -0.2965 -0.1221  0.1767
 3193SOL    HW121038   1.817   0.411   8.388 -2.5298  2.6843  2.1901
 3193SOL    HW221039   1.856   0.344   8.510  0.3716  0.7226 -0.5876
 3194SOL     OW21040   1.174   0.127   6.193  0.3154 -0.0694 -0.0379
 3194SOL    HW121041   1.193   0.221   6.188 -3.0113  0.6096  0.4766
 3194SOL    HW221042   1.185   0.115   6.099  0.8550  0.2212 -0.0144
 3195SOL     OW21043   3.245   4.208  10.971  0.0492  0.7772  0.2405
 3195SOL    HW121044   3.329   4.163  10.979 -0.1297  0.7767  2.1780
 3195SOL    HW221045   3.189   4.133  10.990  0.6009  0.8377  2.0781
 3196SOL     OW21046   3.302   2.956  10.346 -0.0869 -1.0534 -0.0497
 3196SOL    HW121047   3.231   3.005  10.388  0.0471  0.1905 -1.2972
 3196SOL    HW221048   3.269   2.929  10.261 -0.8909 -0.2800  0.0176
 3197SOL     OW21049   0.350   4.445   6.797  0.8761  0.1809  0.0135
 3197SOL    HW121050   0.336   4.457   6.703 -0.6993  0.0700  0.2341
 3197SOL    HW221051   0.261   4.448   6.831  0.7088 -0.7265 -0.3437
 3198SOL     OW21052   4.495   1.038   5.553 -0.4620 -0.0092 -0.3146
 3198SOL    HW121053   4.429   1.090   5.597 -0.9291  0.7773 -1.9261
 3198SOL    HW221054   4.563   1.106   5.547  0.3769 -0.6711  1.7813
 3199SOL     OW21055   4.445   2.208   5.399 -0.6118 -0.8223  0.2115
 3199SOL    HW121056   4.425   2.217   5.493 -0.5456  0.5624  0.0989
 3199SOL    HW221057   4.387   2.136   5.378 -3.0739  1.0005  0.7096
 3200SOL     OW21058   1.722   2.123  10.112  0.2590 -0.1544 -0.1727
 3200SOL    HW121059   1.728   2.130  10.208 -0.9095  1.8759 -0.2296
 3200SOL    HW221060   1.724   2.028  10.100 -0.2654  0.0519 -1.8154
 3201SOL     OW21061   1.769   1.282   6.726 -0.0504  0.0366 -0.3440
 3201SOL    HW121062   1.805   1.214   6.669 -2.0854 -1.3131 -0.0319
 3201SOL    HW221063   1.708   1.323   6.664 -1.3432  0.1204  0.9653
 3202SOL     OW21064   3.592   3.817   8.816  0.3824 -0.5100 -0.1313
 3202SOL    HW121065   3.538   3.864   8.880 -1.6360 -0.9987 -1.4765
 3202SOL    HW221066   3.656   3.779   8.876 -0.3099  1.4786  1.8673
 3203SOL     OW21067   3.178   0.486   7.837 -0.4790 -0.0356 -0.7799
 3203SOL    HW121068   3.260   0.505   7.883 -1.0513 -1.2904  0.7322
 3203SOL    HW221069   3.116   0.509   7.906  0.0046 -1.6051  0.1811
 3204SOL     OW21070   1.194   1.762   7.614  0.1139  0.0290  0.1257
 3204SOL    HW121071   1.131   1.771   7.686 -0.1399 -1.4074  0.0820
 3204SOL    HW221072   1.132   1.742   7.544 -0.4326  0.8823  0.3690
 3205SOL     OW21073   3.357   4.148  14.559 -0.0799 -0.0094  0.2204
 3205SOL    HW121074   3.399   4.071  14.596 -2.0032 -0.7288  0.9235
 3205SOL    HW221075   3.397   4.147  14.473 -0.4496  0.8990  0.0368
 3206SOL     OW21076   1.401   4.356   9.921 -0.3906  0.8408  0.0064
 3206SOL    HW121077   1.322   4.303   9.914  0.4705 -0.3722 -0.6666
 3206SOL    HW221078   1.417   4.330   9.830 -1.3667 -1.6081  0.5375
 3207SOL     OW21079   3.825   0.470   6.828  0.2095  0.0000  0.6011
 3207SOL    HW121080   3.886   0.400   6.847  1.2320  0.9702  0.8972
 3207SOL    HW221081   3.804   0.447   6.738  0.9619  1.5442  0.0235
 3208SOL     OW21082   3.435   3.988   9.203  0.2204  0.4656 -0.1257
 3208SOL    HW121083   3.374   4.059   9.184  1.4848  1.3523 -0.8409
 3208SOL    HW221084   3.489   4.026   9.271 -0.3836  2.4695 -0.7503
 3209SOL     OW21085   0.139   4.134   4.445 -0.9366  0.3454  0.2095
 3209SOL    HW121086   0.226   4.164   4.471  0.2586 -2.2402 -0.8339
 3209SOL    HW221087   0.147   4.040   4.431 -2.0018 -0.3404  3.9697
 3210SOL     OW21088   0.737   3.968  13.523 -0.2467 -0.0383  0.5760
 3210SOL    HW121089   0.745   3.920  13.440  1.5461 -0.1979  0.8402
 3210SOL    HW221090   0.810   4.030  13.517  0.5299 -0.8643  1.5329
 3211SOL     OW21091   3.779   3.093   2.991 -0.3537 -0.4513  0.3092
 3211SOL    HW121092   3.695   3.139   2.985  0.4121  1.1032  1.3619
 3211SOL    HW221093   3.840   3.167   2.996  1.2741 -1.6773 -1.5469
 3212SOL     OW21094   0.643   0.615   1.646 -0.3663  1.0893  0.0030
 3212SOL    HW121095   0.692   0.628   1.565  2.9185  0.9352  1.9841
 3212SOL    HW221096   0.561   0.577   1.614  0.2997  0.5433 -1.0572
 3213SOL     OW21097   0.675   1.455   0.957  0.5048 -0.6354 -0.2887
 3213SOL    HW121098   0.630   1.537   0.977  0.4621 -1.2731  2.2440
 3213SOL    HW221099   0.677   1.413   1.043 -2.1349 -1.5985 -0.6969
 3214SOL     OW21100   3.505   1.932   5.647  0.0664 -0.0436  0.0982
 3214SOL    HW121101   3.485   2.008   5.702  3.2432  1.1864 -0.4518
 3214SOL    HW221102   3.421   1.886   5.646 -0.2932  0.5842  2.1920
 3215SOL     OW21103   3.410   1.765  12.277 -0.2478  0.3708  0.3166
 3215SOL    HW121104   3.495   1.803  12.297 -1.4303  1.8004  2.5492
 3215SOL    HW221105   3.433   1.672  12.275 -0.9978  0.1764  0.7074
 3216SOL     OW21106   0.382   4.291   5.922  0.0800 -0.3625  0.1591
 3216SOL    HW121107   0.309   4.326   5.870  0.2319 -1.4582 -0.8057
 3216SOL    HW221108   0.371   4.339   6.004 -0.0346 -0.9244  0.4769
 3217SOL     OW21109   0.582   3.019   3.524 -0.3165 -1.2207  0.0521
 3217SOL    HW121110   0.516   3.010   3.592  0.1524 -1.4741  0.4777
 3217SOL    HW221111   0.559   3.106   3.492  1.0208  0.3103  3.2668
 3218SOL     OW21112   1.738   2.074   5.236  0.0719 -0.8322  0.4088
 3218SOL    HW121113   1.740   2.047   5.328 -3.0314  0.0274  0.7451
 3218SOL    HW221114   1.644   2.076   5.218  0.7881  1.3688 -2.9257
 3219SOL     OW21115   0.640   3.820  13.725 -0.0191 -0.5012 -0.2446
 3219SOL    HW121116   0.545   3.835  13.719 -0.2397 -2.4043 -1.6433
 3219SOL    HW221117   0.673   3.878  13.657  2.0004 -1.3438  0.0244
 3220SOL     OW21118   2.358   1.940   0.666  0.0148  0.8486  0.4268
 3220SOL    HW121119   2.400   2.004   0.608 -1.2049  0.6271 -0.7017
 3220SOL    HW221120   2.439   1.901   0.700  0.5649  1.8077  0.2200
 3221SOL     OW21121   3.986   3.442   0.705 -0.0415 -0.2678 -0.0316
 3221SOL    HW121122   3.897   3.472   0.688 -1.9126 -2.5241  5.8238
 3221SOL    HW221123   3.961   3.371   0.763  0.4655 -0.1731  0.2968
 3222SOL     OW21124   2.445   4.034   0.581  0.0240 -0.3119  0.1244
 3222SOL    HW121125   2.456   4.093   0.655 -2.3932  1.5278 -0.9618
 3222SOL    HW221126   2.386   4.089   0.529 -2.7867 -0.6431  2.9836
 3223SOL     OW21127   2.662   3.990  11.457  0.3735  0.2741  0.0536
 3223SOL    HW121128   2.691   4.073  11.493 -1.1494  0.0838  1.6922
 3223SOL    HW221129   2.744   3.955  11.421 -1.0955 -2.9788 -0.1689
 3224SOL     OW21130   1.427   1.916   5.800  0.2525 -0.4776 -0.1944
 3224SOL    HW121131   1.413   1.836   5.850  1.3870 -1.2724 -1.1465
 3224SOL    HW221132   1.346   1.930   5.750 -0.3109 -2.5556  0.1647
 3225SOL     OW21133   2.660   4.498   3.213  0.3734  0.8788  0.6230
 3225SOL    HW121134   2.590   4.453   3.259  0.8302 -0.0863  0.3608
 3225SOL    HW221135   2.729   4.506   3.279 -0.4270  0.5643  1.4857
 3226SOL     OW21136   4.131   4.532   7.434  0.0664 -0.1735  0.6775
 3226SOL    HW121137   4.219   4.548   7.466  0.4369  0.5690 -0.7221
 3226SOL    HW221138   4.080   4.523   7.515 -0.0009 -0.5698  0.5909
 3227SOL     OW21139   2.480   2.412   5.715 -0.0651 -0.2271 -0.7121
 3227SOL    HW121140   2.417   2.478   5.745 -0.4453 -0.0145 -1.9772
 3227SOL    HW221141   2.422   2.337   5.731 -1.5726  0.4044 -3.2833
 3228SOL     OW21142   3.512   1.791   7.344  0.1905 -0.1927  0.1634
 3228SOL    HW121143   3.497   1.744   7.426  2.5428 -0.2326  0.5475
 3228SOL    HW221144   3.429   1.839   7.332  0.8906  1.5355  2.1476
 3229SOL     OW21145   3.269   0.680   8.307 -0.6719  0.0276 -0.3139
 3229SOL    HW121146   3.347   0.626   8.292  0.3797  2.4933 -3.7168
 3229SOL    HW221147   3.280   0.696   8.400 -0.7977 -0.1097 -0.2764
 3230SOL     OW21148   0.649   3.283  10.126  0.6766 -0.4097 -0.1049
 3230SOL    HW121149   0.557   3.291  10.101  0.2253  1.6878  2.3254
 3230SOL    HW221150   0.682   3.341  10.057 -1.5393 -0.1208 -0.9058
 3231SOL     OW21151   0.361   4.236   2.102  0.2617 -0.0010 -0.2179
 3231SOL    HW121152   0.408   4.316   2.078 -1.1941  0.6145 -0.9833
 3231SOL    HW221153   0.366   4.193   2.017 -0.4876  0.1214 -0.3215
 3232SOL     OW21154   2.851   4.493   3.406  0.8326  0.3391  0.2003
 3232SOL    HW121155   2.863   4.417   3.464 -0.6144 -0.9431 -1.1749
 3232SOL    HW221156   2.873   4.560   3.471 -1.4505  1.7974 -0.5158
 3233SOL     OW21157   2.341   3.184   0.555 -0.0945 -0.0901 -0.1996
 3233SOL    HW121158   2.367   3.148   0.471 -0.8913 -1.4774  0.1321
 3233SOL    HW221159   2.245   3.183   0.545 -0.1727 -1.8020  0.6600
 3234SOL     OW21160   4.191   0.004   4.397 -0.5291  0.3512  0.1181
 3234SOL    HW121161   4.132   4.652   4.415  1.9825 -1.4254  0.9582
 3234SOL    HW221162   4.132   0.066   4.354 -0.6880 -0.9956 -1.6427
 3235SOL     OW21163   0.344   3.884   3.611  0.0184 -0.4073  0.1546
 3235SOL    HW121164   0.319   3.956   3.553 -1.6108  0.7230  2.2919
 3235SOL    HW221165   0.439   3.875   3.617  0.0392  0.3808  1.0379
 3236SOL     OW21166   1.415   2.293   7.815  0.2353  0.2442  0.0839
 3236SOL    HW121167   1.330   2.251   7.798  0.3560 -0.2977  0.8138
 3236SOL    HW221168   1.470   2.230   7.769  0.0420  0.6761 -0.7367
 3237SOL     OW21169   4.310   0.985   7.612  0.3119 -0.1786 -0.0932
 3237SOL    HW121170   4.345   1.029   7.535 -0.3868 -1.5886 -1.1934
 3237SOL    HW221171   4.345   1.053   7.670 -2.1930  0.7974  0.2780
 3238SOL     OW21172   1.087   3.962  11.773 -0.0787  0.2912 -0.4896
 3238SOL    HW121173   1.010   3.905  11.774 -0.6925  1.1540  1.8267
 3238SOL    HW221174   1.053   4.025  11.710 -1.0278 -0.4377 -0.7100
 3239SOL     OW21175   0.769   1.302   6.393 -0.5716 -0.4381 -0.1370
 3239SOL    HW121176   0.791   1.243   6.465 -0.9602  0.9042  1.1037
 3239SOL    HW221177   0.858   1.330   6.373 -1.6379  1.7782 -1.7561
 3240SOL     OW21178   1.335   1.016  12.493  0.0531 -0.2511 -0.3377
 3240SOL    HW121179   1.297   0.998  12.579  0.1510  1.0656 -0.0055
 3240SOL    HW221180   1.363   0.930  12.464 -0.1688 -0.7164  0.8369
 3241SOL     OW21181   3.995   3.271  16.339 -0.5835 -0.5695  0.5764
 3241SOL    HW121182   4.073   3.303  16.294 -1.7531  1.8988  0.2873
 3241SOL    HW221183   3.932   3.292  16.270 -2.3722  1.1240  2.7223
 3242SOL     OW21184   3.776   3.817  13.446 -0.2520 -0.5424 -0.5555
 3242SOL    HW121185   3.778   3.722  13.448 -1.8279 -0.6016 -1.5037
 3242SOL    HW221186   3.855   3.830  13.393 -0.5899 -1.9939 -1.4015
 3243SOL     OW21187   1.391   1.744   3.254 -0.7317 -0.3968  0.3015
 3243SOL    HW121188   1.319   1.739   3.316 -0.9202  2.7873  0.3287
 3243SOL    HW221189   1.380   1.830   3.214 -1.5676 -1.5983 -2.0982
 3244SOL     OW21190   0.968   1.701   4.584  0.2167  0.2743  0.1259
 3244SOL    HW121191   1.064   1.705   4.583  0.0994  2.8386 -2.2463
 3244SOL    HW221192   0.945   1.794   4.583 -2.8774 -0.4537  2.7237
 3245SOL     OW21193   2.547   3.578   5.252  0.2362  0.8248  0.0995
 3245SOL    HW121194   2.574   3.504   5.307  2.3093  0.8439 -0.8809
 3245SOL    HW221195   2.612   3.648   5.263 -0.1792  0.5832  4.0638
 3246SOL     OW21196   0.647   2.973  14.454 -0.2168 -0.3678  0.2030
 3246SOL    HW121197   0.601   2.889  14.442  0.6798 -0.6684 -1.2083
 3246SOL    HW221198   0.565   3.022  14.460 -1.6443 -2.6382 -0.4762
 3247SOL     OW21199   1.196   3.915   8.713  0.6806 -0.5977 -0.0384
 3247SOL    HW121200   1.247   3.840   8.683 -1.5574 -2.6962  1.4496
 3247SOL    HW221201   1.260   3.971   8.757 -0.9122 -0.5423  2.2257
 3248SOL     OW21202   1.322   2.178  12.221 -0.0977  0.1493  0.0249
 3248SOL    HW121203   1.363   2.184  12.308  0.1008  1.4730 -0.1485
 3248SOL    HW221204   1.297   2.087  12.209 -1.1250  0.2639  1.2313
 3249SOL     OW21205   1.315   3.239   3.930  0.2130 -0.0730 -0.5010
 3249SOL    HW121206   1.405   3.266   3.944  0.1255 -0.2770  0.5203
 3249SOL    HW221207   1.297   3.233   3.836  0.6114  0.5909 -0.6169
 3250SOL     OW21208   0.302   4.663   4.359 -0.3932  0.1283 -0.4181
 3250SOL    HW121209   0.321   4.587   4.415 -0.4633 -0.7028 -1.5205
 3250SOL    HW221210   0.268   0.005   4.421  0.0902 -0.5734  0.5935
 3251SOL     OW21211   1.241   1.252   9.608  0.2020  0.0037 -0.0701
 3251SOL    HW121212   1.265   1.226   9.697  1.7786  1.7460  0.0202
 3251SOL    HW221213   1.146   1.249   9.621  0.1574 -2.8492 -1.1026
 3252SOL     OW21214   2.389   2.718  17.117 -0.1780  0.6386  0.0513
 3252SOL    HW121215   2.305   2.678  17.138  1.3432 -2.0513  1.0621
 3252SOL    HW221216   2.358   2.808  17.106 -3.2653 -0.1793  2.1162
 3253SOL     OW21217   2.383   0.974   1.348  0.4910  0.0735 -0.0393
 3253SOL    HW121218   2.367   0.913   1.276  0.0072 -0.1377  0.2432
 3253SOL    HW221219   2.421   0.911   1.409  1.7891  1.1534  0.2739
 3254SOL     OW21220   2.442   3.888   8.633 -0.4544  0.5545 -0.2952
 3254SOL    HW121221   2.360   3.897   8.681 -0.1069  2.1371 -0.0096
 3254SOL    HW221222   2.451   3.974   8.591 -0.4397  0.4810 -0.4444
 3255SOL     OW21223   3.436   0.289  14.806  0.0400 -0.4690  0.2796
 3255SOL    HW121224   3.512   0.338  14.837 -1.3311  2.4108 -0.8811
 3255SOL    HW221225   3.404   0.235  14.878 -0.5110 -0.1241  0.2925
 3256SOL     OW21226   0.711   0.256   2.617 -0.4479  0.9749  0.6126
 3256SOL    HW121227   0.719   0.315   2.692  0.5221  1.6523 -0.0149
 3256SOL    HW221228   0.664   0.316   2.560 -2.2872 -0.1999  0.8999
 3257SOL     OW21229   4.379   1.156   4.318 -0.5984  0.1010 -0.0260
 3257SOL    HW121230   4.434   1.180   4.243  0.5130  3.2002  1.7801
 3257SOL    HW221231   4.399   1.233   4.371  0.1792 -0.6153  0.7291
 3258SOL     OW21232   3.502   2.002   8.003  0.8264  0.4713 -0.6441
 3258SOL    HW121233   3.494   2.097   7.994  1.5101  0.5085 -0.8972
 3258SOL    HW221234   3.560   1.993   8.079 -0.7906 -4.6625 -0.0222
 3259SOL     OW21235   4.493   1.794   9.460 -1.0804  0.1631  0.6753
 3259SOL    HW121236   4.482   1.888   9.448 -0.3118 -0.1450 -2.4971
 3259SOL    HW221237   4.584   1.786   9.433 -0.9262  1.3357  0.8689
 3260SOL     OW21238   3.543   4.374   6.170  0.6504 -0.4528 -0.0224
 3260SOL    HW121239   3.486   4.399   6.097  1.8610 -2.3201 -1.6098
 3260SOL    HW221240   3.613   4.438   6.168 -1.2374  1.5205 -3.2025
 3261SOL     OW21241   0.845   2.767  11.088  0.0340 -0.1610  0.1054
 3261SOL    HW121242   0.897   2.712  11.147  0.3842 -0.5768 -0.5873
 3261SOL    HW221243   0.920   2.810  11.047 -0.2972 -0.7519 -1.1272
 3262SOL     OW21244   4.065   2.730   2.232 -0.3386 -0.0023  0.0312
 3262SOL    HW121245   4.058   2.688   2.146 -0.3136 -1.6249  0.8307
 3262SOL    HW221246   4.089   2.820   2.211 -2.1719  0.5245  0.1937
 3263SOL     OW21247   3.331   1.474   8.460  0.0891 -0.0256 -0.4371
 3263SOL    HW121248   3.317   1.401   8.520 -0.4163 -0.1315 -0.6813
 3263SOL    HW221249   3.304   1.548   8.514  0.5664  1.1183 -1.7537
 3264SOL     OW21250   4.271   1.944   8.302 -0.2036  0.7680 -0.4094
 3264SOL    HW121251   4.352   1.958   8.254  1.4125 -3.1130  1.1803
 3264SOL    HW221252   4.286   1.853   8.327  0.2773  0.8271 -0.4928
 3265SOL     OW21253   2.617   3.159   5.519 -0.1608  0.2959 -0.6261
 3265SOL    HW121254   2.584   3.133   5.605  1.2258 -1.4688 -0.6145
 3265SOL    HW221255   2.538   3.180   5.470 -0.6146 -0.0033 -0.0203
 3266SOL     OW21256   3.503   0.124   0.965  0.1258 -0.2678  0.2004
 3266SOL    HW121257   3.486   0.131   0.871 -0.5888  0.1669  0.3551
 3266SOL    HW221258   3.497   0.214   0.997 -0.7873  0.0292 -0.7805
 3267SOL     OW21259   2.409   4.223   6.640 -0.5551  0.1157 -0.2852
 3267SOL    HW121260   2.390   4.285   6.570  0.9000  1.1196  0.1941
 3267SOL    HW221261   2.504   4.216   6.632 -0.5104  1.8244 -1.1793
 3268SOL     OW21262   4.635   2.204   4.158 -0.1454 -0.2239  0.1559
 3268SOL    HW121263   4.619   2.130   4.216 -0.7024 -1.2777 -1.3249
 3268SOL    HW221264   4.699   2.254   4.209 -0.5155 -1.6297  1.9749
 3269SOL     OW21265   2.873   2.203  10.466 -0.4972  0.6093 -0.0926
 3269SOL    HW121266   2.930   2.172  10.537 -0.0285  1.2996 -0.1696
 3269SOL    HW221267   2.816   2.126  10.461  0.8036 -0.3381 -0.3186
 3270SOL     OW21268   3.946   4.502   7.664  0.8154  0.1235  0.1645
 3270SOL    HW121269   3.926   4.480   7.755 -0.0745  1.0816  0.2063
 3270SOL    HW221270   3.864   4.537   7.629 -0.9572 -2.0830  2.0482
 3271SOL     OW21271   3.970   1.220   7.034  0.0950 -0.0731  0.2614
 3271SOL    HW121272   3.933   1.279   7.100  1.7887  0.0114  1.1563
 3271SOL    HW221273   4.062   1.208   7.060  0.7683  3.1086 -0.6496
 3272SOL     OW21274   3.144   0.367   6.934 -1.1531 -0.2137  0.3408
 3272SOL    HW121275   3.114   0.376   6.843 -1.6824  0.2708  0.5594
 3272SOL    HW221276   3.215   0.431   6.939 -0.3907 -0.9825 -0.7853
 3273SOL     OW21277   4.319   4.207   2.379 -0.0509 -0.5404 -0.0475
 3273SOL    HW121278   4.367   4.151   2.317  1.7157  2.5969 -1.4767
 3273SOL    HW221279   4.363   4.291   2.368  0.5219 -0.6928  1.0619
 3274SOL     OW21280   2.376   0.798   8.726 -0.2962 -0.1602 -0.3646
 3274SOL    HW121281   2.328   0.857   8.667 -0.9734  2.0982  2.4576
 3274SOL    HW221282   2.332   0.816   8.809  0.6306  1.9822 -0.3450
 3275SOL     OW21283   4.310   2.317   8.266  0.5495  0.5080 -0.2491
 3275SOL    HW121284   4.229   2.310   8.216  0.0481  0.2156  0.5955
 3275SOL    HW221285   4.361   2.381   8.216  3.1164 -0.4026  1.1981
 3276SOL     OW21286   1.652   3.590  12.495  0.5287 -0.2212 -0.0366
 3276SOL    HW121287   1.579   3.528  12.492  0.7241 -0.4979  1.1009
 3276SOL    HW221288   1.724   3.535  12.524  0.3986  0.3713  1.4000
 3277SOL     OW21289   3.496   4.261   1.239  0.0995 -0.6632  0.4304
 3277SOL    HW121290   3.524   4.286   1.151 -2.5640  0.9704  0.0543
 3277SOL    HW221291   3.561   4.193   1.260  2.7527  1.5550 -0.6075
 3278SOL     OW21292   0.697   1.290   1.765 -0.2221  0.0705 -0.6079
 3278SOL    HW121293   0.697   1.369   1.820 -3.3460  2.2324 -3.6811
 3278SOL    HW221294   0.727   1.324   1.680  0.9017  1.3148  0.2823
 3279SOL     OW21295   3.303   1.634   5.346 -0.3900 -0.2878  0.1721
 3279SOL    HW121296   3.305   1.721   5.307  2.0694 -0.0399  0.8535
 3279SOL    HW221297   3.304   1.649   5.441  2.2056 -2.1359  0.4412
 3280SOL     OW21298   0.575   1.761   5.532  0.4504 -0.7757 -0.0944
 3280SOL    HW121299   0.657   1.724   5.498  0.1146  0.2454 -1.9866
 3280SOL    HW221300   0.551   1.815   5.457  2.6900 -2.6549 -2.1846
 3281SOL     OW21301   4.287   0.905   8.413 -0.0351  0.8892  0.0349
 3281SOL    HW121302   4.327   0.951   8.486  1.3261  0.2288 -0.2928
 3281SOL    HW221303   4.251   0.977   8.361 -1.3495  0.8480  0.8979
 3282SOL     OW21304   3.171   2.055   3.461 -0.5782 -0.8897  0.3863
 3282SOL    HW121305   3.260   2.039   3.430 -1.1290 -0.1621 -1.5327
 3282SOL    HW221306   3.124   1.983   3.420  0.4273 -0.8265 -0.8686
 3283SOL     OW21307   3.060   3.472  16.897 -0.2224  0.2970  0.1840
 3283SOL    HW121308   2.991   3.410  16.876  1.4343 -0.3751 -3.2704
 3283SOL    HW221309   3.118   3.427  16.959 -1.9620 -1.5002  0.5006
 3284SOL     OW21310   3.630   2.531   1.651  0.2138  0.1693 -0.5598
 3284SOL    HW121311   3.559   2.480   1.611 -1.2569  0.5514  1.5436
 3284SOL    HW221312   3.658   2.482   1.729 -1.2726 -0.9243 -0.7074
 3285SOL     OW21313   3.881   4.037  15.889  0.6103 -0.2438 -0.0641
 3285SOL    HW121314   3.811   4.059  15.827 -0.5277  1.1992  1.7258
 3285SOL    HW221315   3.923   3.962  15.845 -0.4689 -0.2341 -1.1103
 3286SOL     OW21316   0.629   3.988   5.593 -0.4443  0.5232  0.3251
 3286SOL    HW121317   0.588   4.064   5.634 -1.7881 -1.3545  2.4498
 3286SOL    HW221318   0.614   4.001   5.499  0.5040 -1.6703 -0.1363
 3287SOL     OW21319   4.205   2.037   2.960 -0.5467  0.6755 -0.2674
 3287SOL    HW121320   4.211   1.961   2.902  0.5016  0.4691  0.1255
 3287SOL    HW221321   4.299   2.054   2.960 -0.4337  0.0400  0.4076
 3288SOL     OW21322   0.933   2.665   5.887 -0.6849  0.0608 -0.1447
 3288SOL    HW121323   0.997   2.643   5.954 -1.2825  0.1499  0.4523
 3288SOL    HW221324   0.943   2.594   5.824  0.2228 -0.5345  0.6673
 3289SOL     OW21325   0.487   3.926   5.344  0.4695 -0.1434  0.3373
 3289SOL    HW121326   0.406   3.926   5.396 -0.3684  0.1684 -0.9559
 3289SOL    HW221327   0.449   3.911   5.257  0.6403 -0.8908  0.3986
 3290SOL     OW21328   2.132   1.774  15.829  0.1620  0.5158  0.1687
 3290SOL    HW121329   2.133   1.866  15.801  1.6346  0.7967  1.1399
 3290SOL    HW221330   2.213   1.772  15.881  0.3489 -0.5983 -0.1683
 3291SOL     OW21331   4.614   0.217   8.045 -0.1190  0.0459 -0.0503
 3291SOL    HW121332   4.544   0.282   8.056 -1.7282 -1.2423 -2.8697
 3291SOL    HW221333   4.594   0.172   7.964  1.3245 -0.4419 -0.1400
 3292SOL     OW21334   3.860   4.317   8.631  0.0111  0.3102 -0.5174
 3292SOL    HW121335   3.848   4.360   8.716  0.2885  0.5707 -0.6108
 3292SOL    HW221336   3.770   4.282   8.629  1.6843 -4.0188 -1.1090
 3293SOL     OW21337   2.284   1.276   6.491  0.2137  0.0563  0.2426
 3293SOL    HW121338   2.248   1.187   6.499 -2.2997  0.9303 -1.5678
 3293SOL    HW221339   2.374   1.252   6.469 -0.0318  0.1419 -0.8129
 3294SOL     OW21340   1.101   2.062   9.527 -0.7147 -0.1550 -0.3236
 3294SOL    HW121341   1.166   2.093   9.465  0.0301 -3.2546 -1.1176
 3294SOL    HW221342   1.131   2.109   9.605  1.6071 -3.1975  0.5978
 3295SOL     OW21343   0.734   3.842   4.941 -0.0429 -0.0287  0.3047
 3295SOL    HW121344   0.746   3.898   5.018 -2.7092 -0.4547  1.0498
 3295SOL    HW221345   0.816   3.840   4.892  0.0593 -0.4833  0.4974
 3296SOL     OW21346   2.157   2.588   8.988  0.3742 -0.4634  0.4416
 3296SOL    HW121347   2.145   2.552   9.075 -1.1441  0.6723  0.7046
 3296SOL    HW221348   2.246   2.622   8.998  1.3034 -3.2533  1.6305
 3297SOL     OW21349   4.566   2.018  14.335  0.2349 -0.0099  0.0393
 3297SOL    HW121350   4.516   2.057  14.263 -1.2460 -1.1351  0.4434
 3297SOL    HW221351   4.633   2.085  14.350 -0.1947  0.0335  1.7963
 3298SOL     OW21352   1.087   1.994   1.281 -0.1803  0.2693 -0.4387
 3298SOL    HW121353   1.107   1.992   1.375 -1.4950 -1.6874 -0.1979
 3298SOL    HW221354   1.028   1.919   1.285 -0.3104  0.4080  0.2633
 3299SOL     OW21355   0.855   0.116   5.035 -0.3542 -0.8089  0.2215
 3299SOL    HW121356   0.879   0.056   5.106 -0.1733 -1.8653 -0.7422
 3299SOL    HW221357   0.926   0.180   5.043 -0.8299 -0.2739  0.1428
 3300SOL     OW21358   3.327   1.528  17.228 -0.1551 -0.3311  0.4676
 3300SOL    HW121359   3.348   1.485  17.145  0.2157  3.3995 -1.3633
 3300SOL    HW221360   3.240   1.562  17.205  0.4564 -0.9648 -2.8072
 3301SOL     OW21361   0.506   0.081   6.664  0.1008 -0.2503  0.2243
 3301SOL    HW121362   0.561   0.158   6.647  1.2913 -1.2417 -0.3940
 3301SOL    HW221363   0.535   0.008   6.609 -2.4409 -1.7041  0.8622
 3302SOL     OW21364   2.611   3.694  17.301  0.0817 -0.0691  0.0106
 3302SOL    HW121365   2.566   3.689  17.385 -2.5659 -1.7220 -1.5363
 3302SOL    HW221366   2.696   3.725  17.332 -0.3670  0.3509  0.8214
 3303SOL     OW21367   4.276   3.938  11.891  0.2625  0.0330 -0.3599
 3303SOL    HW121368   4.212   3.981  11.834  1.5033  0.9452 -1.0812
 3303SOL    HW221369   4.254   3.846  11.877  1.2649 -0.3125  0.2842
 3304SOL     OW21370   3.857   0.462   4.213  0.2558  0.4646  0.2057
 3304SOL    HW121371   3.921   0.465   4.284  0.3895 -1.8773  0.1784
 3304SOL    HW221372   3.813   0.547   4.218 -0.6259 -0.0173  0.5396
 3305SOL     OW21373   4.231   2.051   3.547 -0.5187  0.3360 -0.7808
 3305SOL    HW121374   4.249   1.995   3.472 -1.6256 -1.7336  0.4891
 3305SOL    HW221375   4.300   2.030   3.610 -1.8892 -1.6014  0.0874
 3306SOL     OW21376   0.624   3.172  16.854  0.2307 -0.5354  0.5737
 3306SOL    HW121377   0.688   3.184  16.924 -0.8349 -0.4487  1.5427
 3306SOL    HW221378   0.644   3.083  16.826 -1.5110  0.0043 -2.3522
 3307SOL     OW21379   3.790   0.932  17.137 -0.0822 -0.8072  0.0869
 3307SOL    HW121380   3.876   0.965  17.165  1.2921 -0.3088 -4.7890
 3307SOL    HW221381   3.740   1.011  17.116  1.0939 -0.0069  0.2255
 3308SOL     OW21382   1.448   2.378   3.446  0.2205  0.4554  0.1017
 3308SOL    HW121383   1.430   2.286   3.424  0.3042  0.3957  0.2823
 3308SOL    HW221384   1.366   2.424   3.428  0.3139  0.2588 -0.8435
 3309SOL     OW21385   3.426   0.031   6.059  0.1613 -0.1795 -0.0198
 3309SOL    HW121386   3.421   4.716   6.147 -2.5663  3.2052  1.2449
 3309SOL    HW221387   3.347   4.721   6.016  0.6878 -1.1467 -0.2542
 3310SOL     OW21388   1.964   3.392   1.637 -0.3808 -0.5040  0.2343
 3310SOL    HW121389   1.895   3.427   1.693  0.8650 -1.2222  2.2083
 3310SOL    HW221390   1.985   3.319   1.695 -0.8285 -0.6331  0.2337
 3311SOL     OW21391   1.910   2.276   8.572  0.1177  0.5673  0.2516
 3311SOL    HW121392   1.910   2.191   8.616 -0.0874  0.1564 -0.5389
 3311SOL    HW221393   1.863   2.331   8.635  0.4759  1.7165 -0.4795
 3312SOL     OW21394   2.026   0.714   1.138 -0.0800 -0.3658 -0.0280
 3312SOL    HW121395   1.966   0.724   1.212 -1.1693 -0.3079 -0.9303
 3312SOL    HW221396   1.973   0.746   1.065  1.9679 -0.1900 -1.4299
 3313SOL     OW21397   3.403   2.725   7.211 -0.3898 -0.3850  0.1993
 3313SOL    HW121398   3.478   2.680   7.173  0.3490 -0.6606  1.9672
 3313SOL    HW221399   3.332   2.663   7.193  1.1386 -1.7963 -0.9026
 3314SOL     OW21400   1.085   3.587   6.364 -0.1653  0.2272 -0.3796
 3314SOL    HW121401   1.111   3.678   6.349  2.1472 -0.2679  0.6397
 3314SOL    HW221402   1.108   3.574   6.456  0.7331 -0.8912 -0.7626
 3315SOL     OW21403   1.930   0.991   2.332 -0.0895 -0.8828  0.2038
 3315SOL    HW121404   1.961   1.039   2.409  1.7715 -0.7434 -0.6127
 3315SOL    HW221405   2.020   0.982   2.298  0.0610 -1.4466  0.7627
 3316SOL     OW21406   0.728   3.513  15.373 -0.4865 -0.4833  0.2401
 3316SOL    HW121407   0.727   3.418  15.366 -1.3650 -0.5140  0.7722
 3316SOL    HW221408   0.747   3.533  15.282 -1.2567  0.9668  0.3889
 3317SOL     OW21409   0.114   2.840   2.912 -0.3094 -0.0370 -0.5628
 3317SOL    HW121410   0.106   2.868   3.003 -0.8078  1.5933 -1.1143
 3317SOL    HW221411   0.048   2.771   2.924 -0.2800 -0.2217 -1.4257
 3318SOL     OW21412   3.728   3.630   7.131  0.7366 -0.5562  0.6060
 3318SOL    HW121413   3.698   3.711   7.174  0.8603  0.8880 -2.0148
 3318SOL    HW221414   3.822   3.635   7.150 -0.0467  0.6093  4.1063
 3319SOL     OW21415   0.524   3.107   2.686 -0.6957  0.1304 -0.5058
 3319SOL    HW121416   0.536   3.192   2.728 -0.1904 -0.2218  0.0779
 3319SOL    HW221417   0.558   3.057   2.761 -1.5580 -0.2235 -0.3508
 3320SOL     OW21418   1.004   4.172   3.797  0.0137 -0.0208  1.1882
 3320SOL    HW121419   0.909   4.164   3.784  0.1048  1.3007 -0.2310
 3320SOL    HW221420   1.030   4.080   3.799  0.0687 -0.0578 -1.8866
 3321SOL     OW21421   4.627   2.082   6.945 -0.0722 -0.1657 -0.1848
 3321SOL    HW121422   4.699   2.055   6.888  0.2040 -0.6858  0.4131
 3321SOL    HW221423   4.594   1.996   6.972  0.2600  0.0733  0.9757
 3322SOL     OW21424   1.819   2.539  11.709 -0.5368 -0.0756  0.5768
 3322SOL    HW121425   1.857   2.561  11.793 -1.0346 -1.5913  1.2026
 3322SOL    HW221426   1.830   2.619  11.658  0.7096 -1.3782 -1.2154
 3323SOL     OW21427   1.024   4.720   5.958 -1.0324 -0.1788  0.7322
 3323SOL    HW121428   1.116   0.010   5.936 -0.6554 -1.5707  1.5542
 3323SOL    HW221429   1.029   4.625   5.959 -4.8246 -0.4027  0.0262
 3324SOL     OW21430   0.230   3.946   5.457  0.4914  0.1272 -0.4171
 3324SOL    HW121431   0.257   4.038   5.454 -2.4250  0.9977  0.4535
 3324SOL    HW221432   0.151   3.948   5.511 -0.0908 -1.8182 -1.2094
 3325SOL     OW21433   2.899   0.452   3.516 -0.0843  0.8645  0.2673
 3325SOL    HW121434   2.881   0.358   3.519  0.7759  0.6476 -1.3807
 3325SOL    HW221435   2.813   0.484   3.545 -0.0738 -0.6532  1.9206
 3326SOL     OW21436   3.264   4.476   1.170  0.0870 -0.8175 -0.7844
 3326SOL    HW121437   3.281   4.406   1.234  0.5665 -1.5550 -1.7238
 3326SOL    HW221438   3.199   4.526   1.218  0.0409  0.3527 -2.0791
 3327SOL     OW21439   0.081   0.841   4.785 -0.0337 -0.1116  0.3886
 3327SOL    HW121440   0.005   0.789   4.758  0.6549 -0.7731 -0.2846
 3327SOL    HW221441   0.131   0.848   4.704  0.2559 -2.4063  0.3828
 3328SOL     OW21442   1.497   4.485   4.793  0.5301 -0.4820  0.2274
 3328SOL    HW121443   1.427   4.462   4.855  0.4796 -1.0625 -0.0409
 3328SOL    HW221444   1.539   4.400   4.809 -1.3405 -1.6194 -0.8246
 3329SOL     OW21445   4.173   3.929   8.686 -0.1389  0.1344 -0.0226
 3329SOL    HW121446   4.236   3.999   8.703  1.2755 -0.8834 -1.0475
 3329SOL    HW221447   4.224   3.850   8.667  0.7114  0.6931 -0.0500
 3330SOL     OW21448   3.008   1.558  12.055 -0.2742 -0.3014  0.1254
 3330SOL    HW121449   2.985   1.582  12.145  0.3834  2.0979 -0.3612
 3330SOL    HW221450   3.036   1.643  12.022 -0.5454 -0.2627 -0.0024
 3331SOL     OW21451   0.377   0.681   0.039  0.0524 -0.0694 -0.2556
 3331SOL    HW121452   0.355   0.761   0.086  1.1292  0.7076 -1.0584
 3331SOL    HW221453   0.400   0.628   0.115 -1.6067  0.7073  0.8015
 3332SOL     OW21454   3.290   2.762   4.803  1.0062  0.3560  0.1061
 3332SOL    HW121455   3.323   2.850   4.822 -4.0839  2.4999 -1.0931
 3332SOL    HW221456   3.283   2.772   4.708 -2.7109 -1.7722  0.1352
 3333SOL     OW21457   2.065   1.810   7.723 -0.2417  0.4250  0.2577
 3333SOL    HW121458   2.135   1.873   7.705  1.3572 -0.6307  2.7760
 3333SOL    HW221459   2.120   1.751   7.776  0.5987  1.3599  0.4315
 3334SOL     OW21460   0.201   4.371   2.350 -0.2899 -0.0791 -0.4072
 3334SOL    HW121461   0.274   4.404   2.402  0.1421  1.0715 -1.7391
 3334SOL    HW221462   0.251   4.358   2.270  0.5368 -0.3758  0.1584
 3335SOL     OW21463   0.701   0.948   8.687 -0.1947 -0.7041 -0.7444
 3335SOL    HW121464   0.709   0.900   8.769  0.3355 -0.0501 -0.4139
 3335SOL    HW221465   0.793   0.974   8.685 -1.5584  4.3077  3.1354
 3336SOL     OW21466   3.617   0.521  14.266  0.2961 -0.4019  0.1664
 3336SOL    HW121467   3.538   0.572  14.250 -0.3297 -1.7516 -0.9935
 3336SOL    HW221468   3.676   0.581  14.221  1.9659 -2.3498 -0.2320
 3337SOL     OW21469   2.466   0.874   7.301 -0.5345 -0.8477 -0.6810
 3337SOL    HW121470   2.507   0.892   7.217  0.8050 -3.4731 -0.5946
 3337SOL    HW221471   2.550   0.861   7.346 -1.2996  1.8028  1.5006
 3338SOL     OW21472   4.265   0.643  12.363 -0.4095  0.1880  0.6212
 3338SOL    HW121473   4.210   0.651  12.285  0.7717 -0.6893 -0.3301
 3338SOL    HW221474   4.321   0.565  12.354 -1.2576 -0.3072 -0.4392
 3339SOL     OW21475   0.843   2.643   9.341  0.0010  0.5444  0.0526
 3339SOL    HW121476   0.853   2.645   9.245 -2.0735 -1.5033 -0.2048
 3339SOL    HW221477   0.854   2.550   9.361 -0.1014  0.7802  1.1826
 3340SOL     OW21478   3.787   1.377   0.040 -0.0672 -0.2135  0.2738
 3340SOL    HW121479   3.871   1.392   0.083 -1.2764  2.8840  1.5178
 3340SOL    HW221480   3.757   1.294   0.077 -0.7443  1.4226  3.3905
 3341SOL     OW21481   3.138   4.464   5.476 -0.0914 -0.0642 -0.0753
 3341SOL    HW121482   3.229   4.441   5.494 -0.7305 -0.7254  2.3112
 3341SOL    HW221483   3.144   4.559   5.467 -0.7021 -0.2712 -2.6693
 3342SOL     OW21484   2.557   1.689   6.175 -0.3423 -0.1603 -0.1337
 3342SOL    HW121485   2.628   1.629   6.154  1.6256  1.1269  2.9120
 3342SOL    HW221486   2.477   1.636   6.175 -0.4898  0.0592 -1.3025
 3343SOL     OW21487   1.608   2.310   8.850  0.0463 -0.1272 -0.1795
 3343SOL    HW121488   1.569   2.268   8.774 -0.5145  0.9448 -0.4826
 3343SOL    HW221489   1.665   2.381   8.818  0.6328  0.0522  1.2643
 3344SOL     OW21490   2.118   2.244   1.311 -0.2880  0.1979  0.1900
 3344SOL    HW121491   2.153   2.322   1.353  2.6887 -0.9720 -0.0417
 3344SOL    HW221492   2.185   2.181   1.339  0.2243  0.7614  0.2321
 3345SOL     OW21493   4.191   2.159   7.271  0.7089 -0.5847 -0.5205
 3345SOL    HW121494   4.098   2.160   7.251  0.4903 -0.2390  0.5524
 3345SOL    HW221495   4.211   2.251   7.253 -2.2478 -0.0250 -0.8021
 3346SOL     OW21496   2.599   2.113   7.792  0.2269 -0.5607  0.1740
 3346SOL    HW121497   2.653   2.188   7.768  0.4420 -0.5737  0.6331
 3346SOL    HW221498   2.671   2.070   7.837  1.4275  1.1136 -0.1448
 3347SOL     OW21499   0.058   4.024   3.433  0.1118 -0.1717  0.5264
 3347SOL    HW121500   0.130   4.045   3.374  0.9396 -0.6093  1.3749
 3347SOL    HW221501   0.089   4.074   3.509 -1.6367  0.7748  0.6148
 3348SOL     OW21502   2.837   4.594   4.695  0.4485 -0.1465 -0.0301
 3348SOL    HW121503   2.830   4.499   4.705  1.7822 -0.2254  0.2195
 3348SOL    HW221504   2.919   4.603   4.647  0.1070  0.4344 -0.4899
 3349SOL     OW21505   4.136   2.428   3.886 -0.3963 -0.7844 -0.6231
 3349SOL    HW121506   4.095   2.374   3.818  1.5975 -1.4543 -1.2794
 3349SOL    HW221507   4.137   2.363   3.956  1.3379  0.8388  0.8610
 3350SOL     OW21508   3.836   1.805   7.358 -0.6805  0.0050  0.3909
 3350SOL    HW121509   3.822   1.717   7.393 -0.1865 -0.3872 -0.4002
 3350SOL    HW221510   3.775   1.798   7.285 -0.7957 -0.5288  0.5349
 3351SOL     OW21511   1.443   1.915   5.396  0.0068  0.0694 -0.1335
 3351SOL    HW121512   1.418   1.993   5.347 -0.6127 -0.4801 -0.7032
 3351SOL    HW221513   1.376   1.857   5.359 -0.7351 -0.4814  2.1030
 3352SOL     OW21514   3.966   2.286   4.526 -0.1355  0.5008  0.3753
 3352SOL    HW121515   3.939   2.224   4.459  2.9947  0.0813 -0.5115
 3352SOL    HW221516   3.953   2.371   4.485 -2.2023 -1.1022 -2.3219
 3353SOL     OW21517   2.743   3.582  11.799  0.4919  0.3560 -0.3751
 3353SOL    HW121518   2.816   3.541  11.751 -0.3130 -1.1408 -0.3153
 3353SOL    HW221519   2.696   3.505  11.829  0.0369 -0.1786 -2.4623
 3354SOL     OW21520   2.760   1.532  17.193 -0.2831  0.5751  0.0171
 3354SOL    HW121521   2.762   1.578  17.277  2.5475  0.7202 -0.1089
 3354SOL    HW221522   2.817   1.581  17.133 -0.7807  0.6551 -0.3900
 3355SOL     OW21523   0.949   2.933   9.248 -0.6113  0.3661  0.6699
 3355SOL    HW121524   0.931   2.999   9.315  1.5693  1.6704 -0.0164
 3355SOL    HW221525   1.022   2.889   9.292 -0.9550  0.1957  1.0717
 3356SOL     OW21526   0.770   2.030   2.852 -0.5448  0.1497  0.6382
 3356SOL    HW121527   0.686   2.063   2.883 -0.6114 -0.5876  1.2305
 3356SOL    HW221528   0.833   2.068   2.913 -1.7184 -1.1146  2.6081
 3357SOL     OW21529   2.168   4.221   7.473 -0.0411 -0.7485 -0.0001
 3357SOL    HW121530   2.149   4.314   7.481 -0.4332 -0.8607  0.3550
 3357SOL    HW221531   2.263   4.225   7.465 -0.3288  1.0575 -2.4069
 3358SOL     OW21532   0.101   2.918   0.009 -0.2029  0.2502  0.1566
 3358SOL    HW121533   0.049   2.938   0.087 -0.6489 -2.1705  0.4867
 3358SOL    HW221534   0.060   2.978  17.639  0.2404 -0.7051 -1.0674
 3359SOL     OW21535   2.595   4.434   8.670  0.2848 -0.9893  0.0342
 3359SOL    HW121536   2.631   4.491   8.602  0.1238  0.4208  1.1399
 3359SOL    HW221537   2.653   4.451   8.743  0.5466  0.9120 -0.6080
 3360SOL     OW21538   1.600   3.814   7.687 -0.0361  0.3021  0.1369
 3360SOL    HW121539   1.532   3.881   7.682  1.6599  2.1436  1.5968
 3360SOL    HW221540   1.659   3.829   7.762  0.3907 -0.5591 -0.0291
 3361SOL     OW21541   4.640   3.332   5.761  0.1604 -0.2805 -0.1766
 3361SOL    HW121542   4.683   3.246   5.756  0.1379 -0.2207 -1.2831
 3361SOL    HW221543   4.710   3.370   5.814 -0.4702  0.3653  0.2004
 3362SOL     OW21544   3.384   4.120   3.897  0.3649  0.2337  0.3487
 3362SOL    HW121545   3.432   4.057   3.844 -0.9387  0.1823 -0.7618
 3362SOL    HW221546   3.365   4.191   3.836 -2.5689 -0.7054  0.1968
 3363SOL     OW21547   4.412   0.026   5.393 -0.2177 -0.2541 -0.2380
 3363SOL    HW121548   4.447   0.007   5.480  0.5417  0.1698 -0.4546
 3363SOL    HW221549   4.362   4.667   5.384 -0.8608  0.1951 -0.7778
 3364SOL     OW21550   0.203   0.650   9.182 -0.3475 -0.1651  0.4026
 3364SOL    HW121551   0.154   0.708   9.123  1.1035 -0.1638 -0.8127
 3364SOL    HW221552   0.199   0.700   9.263  1.0902 -2.8998  2.1441
 3365SOL     OW21553   4.206   0.440  13.824 -0.2820  0.0081 -0.5349
 3365SOL    HW121554   4.226   0.409  13.736  0.8952  0.8652 -0.5737
 3365SOL    HW221555   4.256   0.521  13.812  0.2337 -0.8057 -3.8285
 3366SOL     OW21556   3.951   2.039   5.962 -0.2527 -0.5849 -0.0876
 3366SOL    HW121557   3.891   2.111   5.978 -2.2550 -2.1256 -0.7241
 3366SOL    HW221558   3.908   1.957   5.985 -0.9215  0.4648  2.3196
 3367SOL     OW21559   3.013   0.753   5.858  0.2514  0.1282 -0.8231
 3367SOL    HW121560   3.104   0.727   5.871  0.5896  2.3229  1.2320
 3367SOL    HW221561   2.969   0.718   5.936  1.3503  0.3146 -0.1162
 3368SOL     OW21562   3.230   4.249   1.309 -0.4692  0.0187  0.0775
 3368SOL    HW121563   3.320   4.239   1.279 -0.7372 -0.2018 -0.6573
 3368SOL    HW221564   3.203   4.164   1.343 -2.4217  0.3740 -0.5544
 3369SOL     OW21565   3.717   4.318   3.366 -0.3914 -0.3380 -0.2507
 3369SOL    HW121566   3.765   4.306   3.284  0.8693  0.4779  0.3790
 3369SOL    HW221567   3.748   4.232   3.396 -0.9850 -0.2946  0.4840
 3370SOL     OW21568   2.751   4.444  10.415 -0.1609 -0.0523 -0.1130
 3370SOL    HW121569   2.846   4.443  10.401 -0.4531  1.3218 -2.3624
 3370SOL    HW221570   2.739   4.538  10.400  2.4167  0.4870  1.1828
 3371SOL     OW21571   0.719   3.259  12.819  0.2727  0.4244  0.0765
 3371SOL    HW121572   0.642   3.204  12.833  1.2786 -0.6911  1.2987
 3371SOL    HW221573   0.718   3.313  12.898  0.5213  3.4723 -1.9924
 3372SOL     OW21574   4.315   2.247   8.936  0.2096 -0.7790 -0.5593
 3372SOL    HW121575   4.260   2.325   8.932  0.4288 -0.5344  1.4457
 3372SOL    HW221576   4.348   2.233   8.847  1.3722 -2.3681  0.1329
 3373SOL     OW21577   1.441   3.509  14.526  0.1947  0.0843 -0.2422
 3373SOL    HW121578   1.417   3.484  14.615 -0.2702 -0.2907 -0.4765
 3373SOL    HW221579   1.370   3.564  14.493 -0.7178 -0.5780  0.6428
 3374SOL     OW21580   2.299   1.325   0.294 -0.6195 -0.8006  0.2551
 3374SOL    HW121581   2.351   1.273   0.355  2.4694 -0.1753 -1.8747
 3374SOL    HW221582   2.233   1.361   0.353 -1.9982 -0.4219 -1.4912
 3375SOL     OW21583   2.210   0.408   7.116 -0.3140  0.0967  0.5834
 3375SOL    HW121584   2.296   0.427   7.079  0.3853 -0.6301  1.8309
 3375SOL    HW221585   2.181   0.344   7.051  0.2959 -0.1313  0.5321
 3376SOL     OW21586   3.572   4.050   4.905  0.1569 -0.2881  0.1186
 3376SOL    HW121587   3.521   4.096   4.838 -0.6416 -1.1575  0.1151
 3376SOL    HW221588   3.609   4.131   4.940 -0.2774  0.0417 -0.1806
 3377SOL     OW21589   2.370   4.673  13.432 -0.3532  0.6599  0.3264
 3377SOL    HW121590   2.421   4.625  13.499  2.4018  0.8528 -1.6452
 3377SOL    HW221591   2.280   4.645  13.452 -0.9996  1.0045 -2.1698
 3378SOL     OW21592   1.971   3.781   4.189 -0.2940 -0.1412 -0.0850
 3378SOL    HW121593   1.903   3.730   4.233  0.3597 -0.5881  0.3997
 3378SOL    HW221594   1.932   3.793   4.102 -0.1167  0.6619 -0.0464
 3379SOL     OW21595   1.326   0.354   3.880 -0.2469 -0.2301  0.4303
 3379SOL    HW121596   1.399   0.398   3.837  0.4982 -0.0277  1.8891
 3379SOL    HW221597   1.357   0.264   3.869 -1.1886 -0.2506 -2.1388
 3380SOL     OW21598   3.265   4.215   2.384  0.1442  0.3293 -0.4725
 3380SOL    HW121599   3.326   4.287   2.369  0.8815  0.1021  1.4335
 3380SOL    HW221600   3.207   4.221   2.309  1.7622 -1.0247 -1.8584
 3381SOL     OW21601   2.148   3.744   2.736  0.0117  0.1726 -0.1951
 3381SOL    HW121602   2.079   3.776   2.677 -0.6806 -1.0617 -0.0620
 3381SOL    HW221603   2.227   3.795   2.719 -0.1747  0.9156  1.1845
 3382SOL     OW21604   1.319   2.824  14.757 -0.5586 -0.3884 -0.1461
 3382SOL    HW121605   1.297   2.734  14.779  0.8088 -0.5671  0.5038
 3382SOL    HW221606   1.271   2.875  14.822  0.9471 -0.6466  1.1753
 3383SOL     OW21607   2.053   2.951  16.138  0.5722  0.3157 -0.5021
 3383SOL    HW121608   2.027   3.032  16.094  1.9615  1.4984  0.8744
 3383SOL    HW221609   2.043   2.989  16.225  0.1292 -0.9220 -0.0128
 3384SOL     OW21610   2.928   3.958  11.409  0.6043  0.0970 -0.4589
 3384SOL    HW121611   3.006   3.908  11.382  0.1398 -0.4545 -0.7909
 3384SOL    HW221612   2.923   3.938  11.503 -0.1298 -0.2621 -0.5730
 3385SOL     OW21613   4.107   2.167   3.996  0.3568 -0.0425 -0.2173
 3385SOL    HW121614   4.128   2.143   4.086  1.2082 -0.2121 -0.4537
 3385SOL    HW221615   4.122   2.088   3.944  0.3024 -0.0445 -0.2298
 3386SOL     OW21616   1.809   1.486   5.671  0.2927 -0.1066 -0.3088
 3386SOL    HW121617   1.875   1.553   5.653  0.4499 -0.1362  0.1631
 3386SOL    HW221618   1.850   1.405   5.641 -0.6799 -0.7399  0.0754
 3387SOL     OW21619   2.257   1.359   4.177 -0.2064 -0.0197 -0.4803
 3387SOL    HW121620   2.172   1.315   4.180 -0.2455  0.1212  0.5058
 3387SOL    HW221621   2.255   1.409   4.258  0.6035  0.1053 -0.5361
 3388SOL     OW21622   3.524   0.122   8.176 -0.4382  0.3913 -0.6640
 3388SOL    HW121623   3.606   0.127   8.127  0.6583  1.2824  1.2943
 3388SOL    HW221624   3.564   0.097   8.259 -1.5744 -1.6111 -0.7140
 3389SOL     OW21625   2.132   0.362   2.704  0.1626 -0.0995  0.0991
 3389SOL    HW121626   2.119   0.429   2.637  1.9839  0.5037  0.3468
 3389SOL    HW221627   2.046   0.350   2.744 -0.1357 -0.5395 -0.6757
 3390SOL     OW21628   4.063   0.843   6.330  0.1121  0.1529 -0.4816
 3390SOL    HW121629   4.073   0.902   6.256  2.2803 -1.3765 -1.3847
 3390SOL    HW221630   4.000   0.891   6.384  0.8653  0.1867  0.3729
 3391SOL     OW21631   1.919   2.924  14.614 -1.0790  0.0456  0.2190
 3391SOL    HW121632   2.003   2.962  14.590  0.2080 -2.4211  0.7961
 3391SOL    HW221633   1.862   2.993  14.580 -0.4861  0.7814  0.7107
 3392SOL     OW21634   3.211   0.791  11.817 -0.3064  0.3856 -0.2240
 3392SOL    HW121635   3.288   0.841  11.843  0.7134 -1.8025  0.9376
 3392SOL    HW221636   3.200   0.729  11.889  0.9043 -0.5754 -0.8720
 3393SOL     OW21637   4.251   3.419   2.764 -0.0518 -0.0840 -0.2075
 3393SOL    HW121638   4.304   3.387   2.691  0.6225  0.2846  0.1287
 3393SOL    HW221639   4.166   3.410   2.720 -0.9844  2.9466  0.9586
 3394SOL     OW21640   0.279   2.859   2.678  0.2753  0.7242  0.8858
 3394SOL    HW121641   0.318   2.946   2.688  0.4911  0.7131  0.0718
 3394SOL    HW221642   0.233   2.852   2.763  0.3546 -3.0310  0.6087
 3395SOL     OW21643   1.243   1.819   4.603  0.0259 -0.4992  0.1090
 3395SOL    HW121644   1.234   1.914   4.597 -1.9185 -0.7130 -0.4097
 3395SOL    HW221645   1.329   1.802   4.565  0.7589  0.9570  1.0981
 3396SOL     OW21646   2.006   2.066  10.322 -0.1467 -0.2198  0.2997
 3396SOL    HW121647   1.983   1.975  10.301 -0.8467  0.2425 -0.8943
 3396SOL    HW221648   2.065   2.048  10.396 -0.9086 -2.1959  0.4398
 3397SOL     OW21649   0.348   2.675   9.908 -0.4330 -0.3845  0.1099
 3397SOL    HW121650   0.382   2.591   9.938  1.1037  0.1638 -0.0954
 3397SOL    HW221651   0.319   2.703   9.995 -1.1619 -0.9365  0.0469
 3398SOL     OW21652   4.349   4.285  10.703 -0.2634  0.2168 -1.0370
 3398SOL    HW121653   4.416   4.247  10.645 -0.2902 -1.5855  0.1038
 3398SOL    HW221654   4.268   4.268  10.655 -1.2501  2.4639 -0.1350
 3399SOL     OW21655   1.906   1.396  13.287  0.1564 -0.7868 -0.0032
 3399SOL    HW121656   1.956   1.378  13.367 -0.5346 -1.9954  0.1508
 3399SOL    HW221657   1.884   1.307  13.261 -0.0602 -1.2908  1.9095
 3400SOL     OW21658   3.895   4.312  11.128 -0.0907  0.6481  0.2096
 3400SOL    HW121659   3.805   4.342  11.116 -0.8826 -1.0856  1.8833
 3400SOL    HW221660   3.900   4.288  11.220  1.3619 -0.2735 -0.1099
 3401SOL     OW21661   4.254   3.445   4.602 -0.1183 -0.2714  0.2066
 3401SOL    HW121662   4.337   3.481   4.632 -1.1884  2.9458 -0.6618
 3401SOL    HW221663   4.195   3.510   4.641 -0.0502  1.0376 -1.8223
 3402SOL     OW21664   1.161   1.667   3.010  0.2590  0.2519  0.5379
 3402SOL    HW121665   1.117   1.746   3.040 -2.2298 -0.2598 -1.8026
 3402SOL    HW221666   1.136   1.661   2.918 -3.7974  1.6610  1.5707
 3403SOL     OW21667   1.093   2.541   6.775  0.1056 -0.0937  0.3804
 3403SOL    HW121668   1.072   2.485   6.700 -1.1297  1.7517 -0.6692
 3403SOL    HW221669   1.009   2.528   6.818  0.8849  0.3542  2.0188
 3404SOL     OW21670   4.676   4.285  12.264 -0.6442  0.5469 -0.4605
 3404SOL    HW121671   4.661   4.205  12.314  1.3282  0.0625 -0.6718
 3404SOL    HW221672   4.593   4.305  12.221 -2.7944  2.5693  4.5213
 3405SOL     OW21673   0.749   1.400   0.677  0.2540  0.0946 -0.1093
 3405SOL    HW121674   0.755   1.309   0.707  1.2323  0.1657 -0.0816
 3405SOL    HW221675   0.683   1.427   0.741  0.5972  0.4375  0.0980
 3406SOL     OW21676   3.803   3.005  10.461 -0.1717 -0.2470  0.2075
 3406SOL    HW121677   3.719   3.019  10.417 -0.1796  1.1146  0.6651
 3406SOL    HW221678   3.815   2.913  10.438 -0.6996 -0.0023 -1.0694
 3407SOL     OW21679   0.503   0.100   0.416  0.3560  0.4099 -0.0206
 3407SOL    HW121680   0.435   0.116   0.481  0.5863  0.1690  0.2839
 3407SOL    HW221681   0.574   0.141   0.466  0.7985  0.8294 -0.9867
 3408SOL     OW21682   4.357   4.326   3.917 -0.6585  0.2146  0.6705
 3408SOL    HW121683   4.334   4.265   3.847  0.0113  1.8911 -1.0095
 3408SOL    HW221684   4.409   4.268   3.973  0.2637  1.1470  0.7919
 3409SOL     OW21685   2.622   0.107   8.440 -0.3642  0.1671 -0.3254
 3409SOL    HW121686   2.690   0.171   8.461 -0.3948 -0.4501  1.6525
 3409SOL    HW221687   2.570   0.121   8.518  1.8039  0.5539  1.0606
 3410SOL     OW21688   0.589   2.664   4.536 -0.5332  0.3110 -0.2429
 3410SOL    HW121689   0.597   2.616   4.453  0.6282  0.6365 -0.3190
 3410SOL    HW221690   0.577   2.598   4.605 -0.3269  0.7167  0.1822
 3411SOL     OW21691   1.634   1.172   5.418 -0.4616  0.2315 -0.1958
 3411SOL    HW121692   1.578   1.136   5.348 -1.5972  0.7487  0.4438
 3411SOL    HW221693   1.659   1.249   5.367  2.7871 -1.9087 -1.8657
 3412SOL     OW21694   2.229   4.419   8.192  0.4500  0.7610  0.5026
 3412SOL    HW121695   2.166   4.460   8.251 -2.1747 -0.7370 -1.2906
 3412SOL    HW221696   2.191   4.427   8.104  1.6085 -1.4871 -0.2001
 3413SOL     OW21697   0.423   4.380   7.593 -0.8304 -0.0322  0.1439
 3413SOL    HW121698   0.423   4.343   7.505  0.5546 -0.6414  0.4033
 3413SOL    HW221699   0.514   4.411   7.599 -0.3694 -1.3267 -0.2213
 3414SOL     OW21700   4.312   2.422   5.070 -0.6363  0.2992 -0.3063
 3414SOL    HW121701   4.294   2.451   4.981  1.3222  3.5804  0.3519
 3414SOL    HW221702   4.306   2.501   5.125 -0.1394  0.5306 -0.5873
 3415SOL     OW21703   1.688   1.902   1.299 -0.6471  0.1934 -0.1621
 3415SOL    HW121704   1.783   1.911   1.293 -0.5765 -2.0932 -2.6998
 3415SOL    HW221705   1.672   1.991   1.328 -0.7237 -0.3063  1.3390
 3416SOL     OW21706   3.009   3.572  13.717 -0.3076 -0.0512  0.2390
 3416SOL    HW121707   2.999   3.492  13.769 -2.7465 -0.3035 -0.6325
 3416SOL    HW221708   3.009   3.540  13.627 -0.5709 -0.0127  0.2264
 3417SOL     OW21709   0.512   4.512   5.273  0.0823  0.5265 -0.4179
 3417SOL    HW121710   0.497   4.520   5.367  2.3464 -3.0379  0.2610
 3417SOL    HW221711   0.481   4.423   5.260 -1.8764  1.0579  0.7315
 3418SOL     OW21712   3.257   1.507   5.119 -0.1313  0.1634 -0.8326
 3418SOL    HW121713   3.339   1.461   5.099 -1.0543 -1.4658 -0.8031
 3418SOL    HW221714   3.280   1.565   5.192  0.1170 -0.5719 -0.3229
 3419SOL     OW21715   1.133   1.726   3.382  0.3471 -0.3904  0.0118
 3419SOL    HW121716   1.120   1.759   3.293 -0.4717  2.6078  1.2422
 3419SOL    HW221717   1.079   1.788   3.431  1.7285  0.2604  0.7048
 3420SOL     OW21718   2.540   0.307  16.896  0.4303 -0.0331 -0.0294
 3420SOL    HW121719   2.607   0.364  16.858  0.3467  0.7074  0.9311
 3420SOL    HW221720   2.596   0.248  16.947  0.5488 -0.8965 -1.1862
 3421SOL     OW21721   2.952   4.650   0.944 -0.4285 -0.2387 -0.4179
 3421SOL    HW121722   2.904   4.689   1.017 -4.4422 -0.6524 -2.8700
 3421SOL    HW221723   3.043   4.674   0.966 -0.4948 -0.3450 -0.0333
 3422SOL     OW21724   2.653   1.214  11.724 -0.0249  0.4328  0.1557
 3422SOL    HW121725   2.745   1.216  11.750  0.2663  4.4616 -1.1539
 3422SOL    HW221726   2.648   1.198  11.629  0.3091  0.7227  0.0899
 3423SOL     OW21727   0.929   0.016  16.481  0.2796  0.2081  0.0619
 3423SOL    HW121728   0.946   0.070  16.557 -1.8105 -2.0791  2.1582
 3423SOL    HW221729   0.977   0.069  16.417  2.1553  1.3809  2.4486
 3424SOL     OW21730   2.079   0.215  12.199 -0.1576  0.3353  0.3873
 3424SOL    HW121731   2.171   0.205  12.226  0.4536  2.8792 -0.6667
 3424SOL    HW221732   2.092   0.297  12.151 -0.1128  0.0029 -0.1660
 3425SOL     OW21733   3.176   2.765   3.445 -0.1105  0.2871  0.0378
 3425SOL    HW121734   3.242   2.819   3.489 -1.0415  2.5995 -1.3870
 3425SOL    HW221735   3.205   2.682   3.483  2.5786  1.1348 -0.1372
 3426SOL     OW21736   3.512   4.095  14.349  0.6380  0.0827  0.2144
 3426SOL    HW121737   3.457   4.037  14.297  1.0190  0.2484 -0.3695
 3426SOL    HW221738   3.510   4.176  14.298 -1.6803  0.8825  1.5624
 3427SOL     OW21739   0.504   2.343  14.836  0.0724 -0.1555  0.0974
 3427SOL    HW121740   0.503   2.382  14.923 -0.1677 -0.1424  0.0890
 3427SOL    HW221741   0.413   2.342  14.808  0.1374  1.3882 -0.1591
 3428SOL     OW21742   0.449   1.130  10.563 -0.1843 -0.0225  0.6455
 3428SOL    HW121743   0.503   1.110  10.640  0.2933  0.8103  0.5348
 3428SOL    HW221744   0.481   1.218  10.542  0.5885 -0.6210 -0.7152
 3429SOL     OW21745   2.918   3.220   6.358  0.3249 -0.0764 -0.0015
 3429SOL    HW121746   3.003   3.238   6.318 -0.1332  2.1451 -0.0070
 3429SOL    HW221747   2.939   3.197   6.449  2.5371 -0.3013 -0.5768
 3430SOL     OW21748   3.869   0.217   4.596 -0.6035  0.1780 -0.0458
 3430SOL    HW121749   3.906   0.131   4.613 -0.6498  0.0854 -0.4066
 3430SOL    HW221750   3.795   0.196   4.540 -1.5100  0.3780  1.0812
 3431SOL     OW21751   4.191   4.622   5.992 -0.4689 -0.4298 -0.0918
 3431SOL    HW121752   4.186   4.549   6.053  1.2226  0.5288  1.2081
 3431SOL    HW221753   4.188   4.566   5.914  1.0426 -1.8577  0.8906
 3432SOL     OW21754   3.759   2.335   5.644 -0.2773 -0.6560 -0.1661
 3432SOL    HW121755   3.694   2.308   5.579 -0.5105 -0.6408  0.0616
 3432SOL    HW221756   3.808   2.252   5.644  0.0100 -0.4987 -1.2794
 3433SOL     OW21757   1.123   3.522  17.462 -0.4598  0.3159 -1.2187
 3433SOL    HW121758   1.108   3.503  17.370 -2.5310 -1.0066 -0.6088
 3433SOL    HW221759   1.155   3.439  17.498  0.0354  0.6780 -0.8342
 3434SOL     OW21760   0.234   2.470   3.846 -0.2742 -0.1620  0.7586
 3434SOL    HW121761   0.169   2.400   3.847 -0.4830  0.0060 -1.0718
 3434SOL    HW221762   0.304   2.420   3.889  1.8145  0.9337 -1.3496
 3435SOL     OW21763   0.245   2.901   7.541  0.4042  0.1880  0.1263
 3435SOL    HW121764   0.261   2.918   7.634 -1.4215  1.3383  0.2083
 3435SOL    HW221765   0.161   2.855   7.547  0.9648 -0.6201  1.8010
 3436SOL     OW21766   0.791   2.129   5.781  0.6412 -0.1288 -0.1512
 3436SOL    HW121767   0.698   2.123   5.758  0.7230  0.1731 -0.5589
 3436SOL    HW221768   0.835   2.096   5.703 -1.7552 -1.7035 -0.8182
 3437SOL     OW21769   4.414   1.951  16.954 -0.0329  0.1318 -0.3468
 3437SOL    HW121770   4.487   1.989  17.002 -0.4293  0.1138  0.2800
 3437SOL    HW221771   4.388   1.876  17.008 -1.0134  0.4996 -0.2928
 3438SOL     OW21772   2.873   2.822   4.964  0.3989 -0.2162 -0.1306
 3438SOL    HW121773   2.787   2.847   4.996  0.2146 -0.2680 -0.5818
 3438SOL    HW221774   2.909   2.911   4.961 -2.0578  0.7139 -1.9986
 3439SOL     OW21775   1.890   1.188   1.953  0.2022  1.2432  0.7650
 3439SOL    HW121776   1.802   1.173   1.989  0.1044 -1.2099 -0.4767
 3439SOL    HW221777   1.937   1.221   2.030  2.7634  0.5843 -0.5421
 3440SOL     OW21778   4.000   0.195  12.397  0.1449  0.4943 -0.0377
 3440SOL    HW121779   4.093   0.190  12.373  0.1383 -1.9427  0.4351
 3440SOL    HW221780   3.998   0.147  12.480  1.5643  0.4769 -0.0060
 3441SOL     OW21781   0.528   3.594   3.114  0.3706  0.2932  0.3279
 3441SOL    HW121782   0.596   3.549   3.064  0.5330  0.0643  0.7507
 3441SOL    HW221783   0.579   3.605   3.194  1.4876 -1.4971 -0.1343
 3442SOL     OW21784   4.310   4.681  14.604  0.5390  0.0392 -0.2805
 3442SOL    HW121785   4.370   4.614  14.636  1.3246  1.2415  0.7952
 3442SOL    HW221786   4.328   4.689  14.511  0.3272  1.3089 -0.2178
 3443SOL     OW21787   3.947   2.401   8.284 -0.7972 -0.3948 -0.2092
 3443SOL    HW121788   3.982   2.400   8.195 -0.1973  0.3443  0.0226
 3443SOL    HW221789   3.854   2.422   8.269 -1.2104 -2.1808 -0.2361
 3444SOL     OW21790   1.424   1.675   5.959 -0.2684  0.0989 -0.0150
 3444SOL    HW121791   1.437   1.601   5.900  0.0542 -0.2796  0.5321
 3444SOL    HW221792   1.415   1.630   6.043  0.6904 -2.9587 -1.5622
 3445SOL     OW21793   0.407   2.412   6.912  0.2650  0.2470  0.0281
 3445SOL    HW121794   0.460   2.457   6.847 -1.9505  0.3254 -1.7109
 3445SOL    HW221795   0.373   2.349   6.849  0.0269 -0.2168  0.6146
 3446SOL     OW21796   4.399   0.502   2.558 -0.4811 -0.1845  0.1142
 3446SOL    HW121797   4.453   0.423   2.553  0.6417  0.6447 -0.7937
 3446SOL    HW221798   4.363   0.524   2.472 -0.5520  0.8385  0.4131
 3447SOL     OW21799   4.332   2.209  16.893 -0.1387  0.0908 -0.0834
 3447SOL    HW121800   4.337   2.114  16.896 -0.0485  0.1020  0.0823
 3447SOL    HW221801   4.384   2.224  16.972 -1.4926 -2.6807  1.3105
 3448SOL     OW21802   2.668   4.223   5.947  0.0875 -0.5479  0.5551
 3448SOL    HW121803   2.595   4.251   6.002  1.7937  1.6211  1.7372
 3448SOL    HW221804   2.625   4.167   5.882  1.4639  0.7710 -1.4889
 3449SOL     OW21805   2.201   4.340   0.600  0.4655 -0.4492 -0.2189
 3449SOL    HW121806   2.143   4.354   0.675  0.4257  0.2817 -0.3869
 3449SOL    HW221807   2.154   4.290   0.533  2.2643 -2.6508  0.1339
 3450SOL     OW21808   3.599   0.663   4.262 -0.1197  0.3397 -0.6036
 3450SOL    HW121809   3.571   0.596   4.199  0.9415 -0.8976  0.2433
 3450SOL    HW221810   3.518   0.666   4.313  1.7063  1.5922  2.2162
 3451SOL     OW21811   2.942   3.446  12.018  0.1361 -0.2314  0.2098
 3451SOL    HW121812   2.847   3.447  12.030  0.1960  0.3341  0.6112
 3451SOL    HW221813   2.978   3.535  12.022 -2.7701  0.9531 -0.2083
 3452SOL     OW21814   2.984   2.888   0.858  0.1175  0.4524 -0.0646
 3452SOL    HW121815   3.054   2.892   0.793  0.9955 -0.7524  0.7734
 3452SOL    HW221816   2.995   2.794   0.875 -1.5038  0.4862  1.1579
 3453SOL     OW21817   1.698   0.474   5.296 -0.4824  0.1279  0.0755
 3453SOL    HW121818   1.684   0.541   5.229 -2.5060  0.3916  0.7419
 3453SOL    HW221819   1.652   0.399   5.259 -1.0885  1.1819 -1.2993
 3454SOL     OW21820   3.938   0.326   9.284 -0.3514 -0.0926  0.0397
 3454SOL    HW121821   3.975   0.238   9.274 -1.8372 -0.6448 -0.7318
 3454SOL    HW221822   3.922   0.340   9.377  1.4990  1.4197  0.1213
 3455SOL     OW21823   1.818   4.037   2.903  0.3353  0.0735 -0.3341
 3455SOL    HW121824   1.830   3.949   2.867  1.7131  0.3394 -0.5291
 3455SOL    HW221825   1.801   4.085   2.822  3.1596  0.3036 -0.7779
 3456SOL     OW21826   2.259   1.998   7.678  0.0386 -0.0658  0.1728
 3456SOL    HW121827   2.271   1.956   7.593  2.4715  0.9299  0.0292
 3456SOL    HW221828   2.187   2.060   7.664 -0.6027 -0.9221 -0.3069
 3457SOL     OW21829   1.254   0.257   9.104  0.8284 -0.2444 -0.2585
 3457SOL    HW121830   1.208   0.203   9.040 -0.2951 -0.1317  0.4589
 3457SOL    HW221831   1.326   0.298   9.056  1.5182 -2.0193 -0.7403
 3458SOL     OW21832   2.033   0.448   6.439  0.0100 -0.2610  0.3523
 3458SOL    HW121833   2.008   0.374   6.495 -0.2700 -0.9095 -0.6418
 3458SOL    HW221834   1.962   0.505   6.470  0.6767  0.6688  0.1458
 3459SOL     OW21835   1.976   4.101   4.596 -0.1270  0.3475  0.0010
 3459SOL    HW121836   2.048   4.116   4.657  0.3344 -0.2695 -0.3862
 3459SOL    HW221837   2.004   4.013   4.570  0.6507  0.2395  1.2343
 3460SOL     OW21838   4.404   0.587   8.208 -0.0211 -0.0210  0.4118
 3460SOL    HW121839   4.472   0.652   8.225  1.9955 -1.6235 -1.6278
 3460SOL    HW221840   4.341   0.593   8.280  1.0301 -1.6291  1.4595
 3461SOL     OW21841   2.146   4.332  16.657 -0.9401  0.0145  0.4627
 3461SOL    HW121842   2.164   4.345  16.564 -2.3732 -0.4409  0.1370
 3461SOL    HW221843   2.066   4.384  16.657 -0.0785  1.3426 -0.0263
 3462SOL     OW21844   0.750   3.250   8.371  0.1250 -0.0826  0.0316
 3462SOL    HW121845   0.744   3.165   8.415 -0.8554  0.7503  1.4776
 3462SOL    HW221846   0.711   3.228   8.287  0.6174 -1.8973  0.2711
 3463SOL     OW21847   0.217   2.272   3.314 -0.6864  0.6219 -0.1430
 3463SOL    HW121848   0.223   2.246   3.406  1.9438 -1.9047 -1.0430
 3463SOL    HW221849   0.308   2.286   3.286 -1.1743 -0.9807 -2.4743
 3464SOL     OW21850   4.360   0.504   4.439 -0.3040  0.0716  0.1940
 3464SOL    HW121851   4.389   0.413   4.431 -0.6785  0.0640 -1.0890
 3464SOL    HW221852   4.354   0.528   4.347  1.9369  1.7248  0.4672
 3465SOL     OW21853   3.034   3.699  12.890 -0.0193  0.0893 -0.0159
 3465SOL    HW121854   3.075   3.689  12.976 -0.4547  1.2342  0.3250
 3465SOL    HW221855   2.949   3.665  12.917 -0.2590  0.5611 -0.1666
 3466SOL     OW21856   2.344   4.031   9.510 -1.0669 -0.3079  0.3761
 3466SOL    HW121857   2.288   4.093   9.557  0.9426  1.0173  1.0182
 3466SOL    HW221858   2.328   4.058   9.419 -0.0025 -0.4634  0.1338
 3467SOL     OW21859   0.427   3.030  15.372 -0.5536  0.2115  0.0976
 3467SOL    HW121860   0.473   2.947  15.375  1.3826  1.2515 -0.8155
 3467SOL    HW221861   0.501   3.088  15.356 -0.0982 -0.7717 -1.3739
 3468SOL     OW21862   2.979   2.159   6.599 -0.3373 -0.1017 -0.2776
 3468SOL    HW121863   3.061   2.125   6.635 -1.0169 -1.5690 -0.1232
 3468SOL    HW221864   2.973   2.242   6.645  1.6373 -1.0597  1.7195
 3469SOL     OW21865   1.551   1.336   9.224  0.3801 -0.1975 -0.3542
 3469SOL    HW121866   1.537   1.365   9.315  0.2531  0.9355 -0.7295
 3469SOL    HW221867   1.589   1.251   9.247  1.5770  0.2134 -0.8208
 3470SOL     OW21868   1.752   0.077   0.722 -0.2788 -0.3565 -0.2940
 3470SOL    HW121869   1.784   0.153   0.674  1.7657 -0.6759  0.5530
 3470SOL    HW221870   1.700   0.026   0.660 -0.4715  1.1348 -1.3550
 3471SOL     OW21871   4.332   2.710   5.199 -0.0308  0.0885  0.5107
 3471SOL    HW121872   4.306   2.775   5.134  0.2316  1.5356  1.8361
 3471SOL    HW221873   4.314   2.750   5.285  3.0850  1.8771  0.3398
 3472SOL     OW21874   2.068   3.004  12.859  0.1658  0.2182  0.0932
 3472SOL    HW121875   1.990   2.970  12.902 -1.2272  1.3715 -1.5588
 3472SOL    HW221876   2.073   3.085  12.910  4.3726 -1.2558  2.1007
 3473SOL     OW21877   2.545   0.323   9.665 -0.4038 -0.4474 -0.5762
 3473SOL    HW121878   2.496   0.262   9.721  1.2364 -1.0288  0.2386
 3473SOL    HW221879   2.504   0.407   9.687  0.7766 -0.1443  0.4308
 3474SOL     OW21880   0.193   3.860   4.380 -0.1951 -0.5323  0.5614
 3474SOL    HW121881   0.277   3.905   4.376 -1.0560  0.9935 -0.4249
 3474SOL    HW221882   0.223   3.770   4.370  0.0002 -0.3637 -0.3106
 3475SOL     OW21883   0.068   3.430   3.481 -0.2100  0.0434 -0.8499
 3475SOL    HW121884   0.039   3.448   3.392 -1.6062  1.5054 -0.1026
 3475SOL    HW221885   4.716   3.385   3.521  1.6187 -0.6574  1.7999
 3476SOL     OW21886   0.157   0.771   2.845 -0.2281 -0.3027 -0.2789
 3476SOL    HW121887   0.176   0.791   2.937  0.0619 -0.2588 -0.3474
 3476SOL    HW221888   0.243   0.740   2.818  0.5062  0.9077  0.6807
 3477SOL     OW21889   4.255   3.111   4.084  0.3923 -0.2902  0.0313
 3477SOL    HW121890   4.285   3.196   4.052  1.1757  0.5541  3.0360
 3477SOL    HW221891   4.166   3.129   4.114  0.1182  0.5733 -1.2728
 3478SOL     OW21892   3.280   3.387   3.408  0.2949  0.0851 -0.3464
 3478SOL    HW121893   3.282   3.349   3.320 -0.1618 -0.8514  0.0487
 3478SOL    HW221894   3.238   3.473   3.398 -0.5987 -0.3701 -0.5018
 3479SOL     OW21895   1.220   1.022   8.160 -0.2116 -1.0010  0.4096
 3479SOL    HW121896   1.208   1.114   8.186 -1.3520 -0.9713 -0.2208
 3479SOL    HW221897   1.209   0.973   8.242  3.4981 -0.7008  1.0945
 3480SOL     OW21898   2.294   0.141   8.540 -0.0168 -0.9338  0.0688
 3480SOL    HW121899   2.371   0.157   8.596 -0.1938 -1.5480  0.4917
 3480SOL    HW221900   2.263   0.059   8.580 -0.9049 -0.8959 -0.5485
 3481SOL     OW21901   0.338   0.722   1.393  0.1930 -0.0891  0.5411
 3481SOL    HW121902   0.359   0.699   1.484  1.4405 -1.0850  0.0083
 3481SOL    HW221903   0.243   0.721   1.388  0.3132 -1.0893 -1.3524
 3482SOL     OW21904   3.097   0.946   8.897 -0.2424 -0.0880  0.1018
 3482SOL    HW121905   3.040   0.884   8.850 -1.9618  2.2937 -0.9111
 3482SOL    HW221906   3.035   1.012   8.926 -0.0916  0.5089 -0.9473
 3483SOL     OW21907   0.400   0.987   7.382 -0.2289 -0.5135  0.0196
 3483SOL    HW121908   0.462   0.988   7.455 -0.4139  1.9410  0.1393
 3483SOL    HW221909   0.441   1.030   7.307 -1.1110  1.7774  0.8480
 3484SOL     OW21910   2.773   4.210   6.884  0.1051  0.2172  1.0950
 3484SOL    HW121911   2.838   4.157   6.931 -0.5014 -0.5172  1.1000
 3484SOL    HW221912   2.788   4.293   6.929 -3.0686  0.2994  2.0456
 3485SOL     OW21913   1.815   3.067  14.294 -0.5495  0.3271 -0.5281
 3485SOL    HW121914   1.723   3.065  14.269  0.0146 -2.2085 -2.3026
 3485SOL    HW221915   1.820   3.092  14.386 -0.0104  4.4523 -1.6668
 3486SOL     OW21916   1.441   2.909  16.901 -0.2953  0.5471 -0.0588
 3486SOL    HW121917   1.418   3.001  16.905  1.4539  1.0586 -1.6415
 3486SOL    HW221918   1.354   2.870  16.908 -1.8695  4.2789  0.7632
 3487SOL     OW21919   4.479   2.800   5.763 -0.5498  0.2665  0.0458
 3487SOL    HW121920   4.389   2.788   5.730 -0.3532 -2.6239  0.5886
 3487SOL    HW221921   4.467   2.827   5.854 -1.9776  2.9323 -0.9154
 3488SOL     OW21922   4.039   3.961   5.120 -0.1471  0.0793 -0.3980
 3488SOL    HW121923   4.015   3.955   5.027  2.6794  1.2773 -1.2045
 3488SOL    HW221924   4.096   4.038   5.121  1.7185 -1.2901 -0.5899
 3489SOL     OW21925   3.084   3.500   3.021  0.1765  0.1466  0.4998
 3489SOL    HW121926   3.175   3.495   2.990 -0.1133  2.3959 -0.7150
 3489SOL    HW221927   3.095   3.510   3.116  0.0615 -1.2077  0.6479
 3490SOL     OW21928   2.425   2.287   2.387 -0.4371 -0.2082  0.2542
 3490SOL    HW121929   2.508   2.309   2.344  0.1663 -0.4818  1.2689
 3490SOL    HW221930   2.412   2.195   2.366 -1.7755 -0.0563  0.4390
 3491SOL     OW21931   2.595   0.025  10.123  0.0674  0.1978  0.3701
 3491SOL    HW121932   2.527   0.084  10.091  0.1018  0.2734  0.4370
 3491SOL    HW221933   2.596   4.680  10.054  0.8767 -0.6596  1.2293
 3492SOL     OW21934   3.209   0.493   2.623 -0.0155 -0.2261  0.9692
 3492SOL    HW121935   3.122   0.515   2.657 -0.2815  1.2541 -0.6834
 3492SOL    HW221936   3.202   0.408   2.580  0.5484 -0.8678  2.1264
 3493SOL     OW21937   0.228   4.247   3.112  0.1054 -0.0767  0.2255
 3493SOL    HW121938   0.160   4.234   3.178  0.7310 -0.2651  0.8452
 3493SOL    HW221939   0.186   4.302   3.047 -0.9520 -1.6516 -0.4295
 3494SOL     OW21940   2.757   0.018   3.738  0.4104  0.4048 -0.2946
 3494SOL    HW121941   2.666   4.711   3.745  0.9694 -0.4731  3.2298
 3494SOL    HW221942   2.746   0.108   3.770  2.0500  0.3991  0.3050
 3495SOL     OW21943   3.492   3.287  16.626  0.0258  0.3518  0.0369
 3495SOL    HW121944   3.579   3.306  16.591  0.0759  3.4905  1.9391
 3495SOL    HW221945   3.505   3.193  16.634  0.6366  0.4328 -0.0498
 3496SOL     OW21946   0.672   1.134  11.586  0.1929  0.0167 -0.2810
 3496SOL    HW121947   0.752   1.090  11.614 -0.2578  0.9496  2.4680
 3496SOL    HW221948   0.610   1.116  11.657  1.4246  1.5307  1.1771
 3497SOL     OW21949   0.331   4.087  16.469 -0.0621 -0.2417  0.3890
 3497SOL    HW121950   0.245   4.066  16.506  0.0756  0.5844  1.2047
 3497SOL    HW221951   0.365   3.999  16.455 -0.6417 -0.2247 -1.0348
 3498SOL     OW21952   1.310   0.531   8.372 -0.2148  1.1730 -0.4991
 3498SOL    HW121953   1.222   0.503   8.344 -0.9995  1.0488  2.0422
 3498SOL    HW221954   1.368   0.514   8.299 -0.8635 -2.3256 -0.2218
 3499SOL     OW21955   4.455   3.803   2.606 -0.2245 -0.5053 -0.2061
 3499SOL    HW121956   4.467   3.815   2.512 -1.1171  0.3653 -0.2010
 3499SOL    HW221957   4.546   3.778   2.622  0.3988  2.3574  0.7208
 3500SOL     OW21958   3.265   2.059  16.846 -0.2925  0.4008  0.0774
 3500SOL    HW121959   3.296   2.148  16.832 -0.6719 -0.1067 -3.9861
 3500SOL    HW221960   3.245   2.030  16.757 -0.3912 -1.1527  0.6058
 3501SOL     OW21961   2.885   2.588   1.121 -0.1512  0.0725  0.3761
 3501SOL    HW121962   2.937   2.576   1.042 -0.4753  0.0516  0.1651
 3501SOL    HW221963   2.912   2.674   1.154  1.6678 -0.2991 -0.1317
 3502SOL     OW21964   4.413   2.559   9.310 -0.2532  0.1995 -0.6784
 3502SOL    HW121965   4.406   2.632   9.248 -1.7465  1.2176  0.7018
 3502SOL    HW221966   4.473   2.597   9.374 -1.0483 -1.6041  1.1171
 3503SOL     OW21967   3.061   1.363  17.413  0.0249 -0.2001  0.4402
 3503SOL    HW121968   3.069   1.429  17.344 -1.8934 -1.8579 -1.3524
 3503SOL    HW221969   2.985   1.395  17.464  1.7132  0.6390  2.4490
 3504SOL     OW21970   1.552   3.447   7.002  0.3241 -0.1607  0.6903
 3504SOL    HW121971   1.541   3.484   7.090 -4.0028  0.4534 -0.1213
 3504SOL    HW221972   1.636   3.489   6.983  0.3832 -0.4760  0.2685
 3505SOL     OW21973   1.632   2.753   4.942 -0.6034  0.2437 -0.4883
 3505SOL    HW121974   1.704   2.691   4.956 -0.5658  0.4257  0.1273
 3505SOL    HW221975   1.552   2.714   4.977  0.3506 -1.0216  0.2788
 3506SOL     OW21976   2.911   2.467   4.003  0.1028  0.0672 -0.1922
 3506SOL    HW121977   2.973   2.421   3.946  2.3279  0.9068  1.5410
 3506SOL    HW221978   2.928   2.411   4.079 -0.4834 -1.1197 -0.9367
 3507SOL     OW21979   3.468   3.163   6.303 -0.2931  0.8014 -0.4171
 3507SOL    HW121980   3.507   3.189   6.220 -1.1593  2.1198 -0.4044
 3507SOL    HW221981   3.525   3.216   6.359 -1.0642  0.8725  0.3134
 3508SOL     OW21982   1.678   4.391   6.218  0.3890 -0.6334 -0.1152
 3508SOL    HW121983   1.608   4.455   6.202 -0.4101 -1.6999 -0.8146
 3508SOL    HW221984   1.669   4.380   6.313  0.8995 -2.6568 -0.3208
 3509SOL     OW21985   3.557   4.059   4.097  0.5455  0.1526  0.2403
 3509SOL    HW121986   3.500   4.091   4.027 -0.6268 -0.4576  0.9090
 3509SOL    HW221987   3.638   4.100   4.067  0.3817  2.5909  3.1464
 3510SOL     OW21988   4.417   2.671   3.413 -0.1774 -0.1792 -0.2517
 3510SOL    HW121989   4.509   2.680   3.436 -0.4430 -0.5815  0.9738
 3510SOL    HW221990   4.365   2.731   3.468  0.7084  1.2691 -0.9905
 3511SOL     OW21991   3.380   3.111   6.866  0.2595  0.5442 -0.4951
 3511SOL    HW121992   3.426   3.122   6.783  1.4148  2.5340  0.3886
 3511SOL    HW221993   3.452   3.114   6.928  0.1847  1.0828 -0.4273
 3512SOL     OW21994   2.064   4.443  10.042  0.5436 -0.4943  0.0174
 3512SOL    HW121995   1.980   4.445  10.089  1.0404  2.5277  0.7930
 3512SOL    HW221996   2.045   4.407   9.956 -2.3968 -0.8648  0.8025
 3513SOL     OW21997   0.126   1.332   3.458 -0.2539  0.0069 -0.5029
 3513SOL    HW121998   0.179   1.411   3.458  0.4670 -0.4684 -0.4683
 3513SOL    HW221999   0.197   1.270   3.439  0.9767  1.2171  0.1497
 3514SOL     OW22000   3.942   0.528   8.904  0.0416  0.1243  0.0255
 3514SOL    HW122001   3.992   0.448   8.919  0.6452  0.3022 -1.1054
 3514SOL    HW222002   3.954   0.547   8.811 -2.0390 -1.3051 -0.5191
 3515SOL     OW22003   3.938   2.981   1.005 -0.3123 -0.0672 -0.3147
 3515SOL    HW122004   3.919   2.888   1.014 -2.8267  0.4876  0.0982
 3515SOL    HW222005   3.961   3.007   1.094 -0.7634  1.2099 -0.5747
 3516SOL     OW22006   4.380   0.768   4.538 -0.2799  0.0104  0.3517
 3516SOL    HW122007   4.370   0.678   4.506 -0.7376 -0.5196  2.0241
 3516SOL    HW222008   4.337   0.820   4.470  0.2998 -1.4060 -1.1098
 3517SOL     OW22009   1.767   0.210   7.420  0.2405  0.2259  0.2474
 3517SOL    HW122010   1.831   0.212   7.349  0.1154 -0.0200  0.1260
 3517SOL    HW222011   1.755   0.304   7.431  1.2262  0.2958  0.6940
 3518SOL     OW22012   2.271   3.696   2.083  0.6408 -0.2809 -0.2462
 3518SOL    HW122013   2.218   3.619   2.105 -0.3445  0.7195  0.8935
 3518SOL    HW222014   2.253   3.729   1.995 -0.3298  1.0234  0.4340
 3519SOL     OW22015   4.666   4.585   4.524  0.0104 -0.3647 -0.2008
 3519SOL    HW122016   4.646   4.511   4.467 -0.4339 -1.3715  1.2624
 3519SOL    HW222017   0.007   4.545   4.585 -0.7742  0.0483  0.8750
 3520SOL     OW22018   0.607   4.027  15.789 -0.0763 -0.1318 -0.5618
 3520SOL    HW122019   0.669   3.955  15.781  0.5162  0.2913  0.2604
 3520SOL    HW222020   0.626   4.056  15.878 -1.0043 -0.1344 -0.3565
 3521SOL     OW22021   1.586   4.692   6.338 -0.3406 -0.0111 -0.0312
 3521SOL    HW122022   1.518   4.628   6.319 -0.1481  0.0577 -0.9788
 3521SOL    HW222023   1.549   0.052   6.307 -0.3159 -0.2015 -0.5719
 3522SOL     OW22024   3.954   1.953   4.985 -0.4218  0.1475  0.7164
 3522SOL    HW122025   3.892   1.975   5.055  0.7106 -0.2600  1.8308
 3522SOL    HW222026   4.027   2.006   5.015 -0.8881  1.6445 -0.7631
 3523SOL     OW22027   3.709   0.437  11.586  0.1094 -0.0242 -0.0772
 3523SOL    HW122028   3.748   0.432  11.499 -1.0764  3.2083 -0.8203
 3523SOL    HW222029   3.616   0.452  11.565  0.0762 -0.7941 -0.4889
 3524SOL     OW22030   3.220   0.638  11.586  0.2209  1.0335  0.7817
 3524SOL    HW122031   3.211   0.693  11.664 -0.6932  3.3371 -0.9547
 3524SOL    HW222032   3.152   0.571  11.591 -0.2929  1.6028  1.2438
 3525SOL     OW22033   0.314   4.260   9.407 -0.0081  0.2520  0.0101
 3525SOL    HW122034   0.320   4.166   9.387 -1.7178  0.4460 -1.3625
 3525SOL    HW222035   0.402   4.277   9.441 -0.5301 -0.3494  1.6873
 3526SOL     OW22036   4.284   3.712   6.991 -0.1801  0.3378  0.1577
 3526SOL    HW122037   4.271   3.806   6.995  0.2844  0.4749 -1.5379
 3526SOL    HW222038   4.201   3.683   6.953  0.9989 -1.3181 -1.1659
 3527SOL     OW22039   3.505   0.481   2.147  0.5704  0.4109  0.2088
 3527SOL    HW122040   3.601   0.488   2.152  0.6518 -1.5882  1.5538
 3527SOL    HW222041   3.499   0.386   2.145  2.8196  0.2789 -0.7555
 3528SOL     OW22042   0.658   0.083   7.924  0.1530  0.0803 -0.1012
 3528SOL    HW122043   0.734   0.026   7.914 -0.0737 -0.0898 -0.8635
 3528SOL    HW222044   0.587   0.031   7.960  1.0183  0.3212  1.9449
 3529SOL     OW22045   0.786   4.185   6.031  0.1434  0.1926 -0.1213
 3529SOL    HW122046   0.753   4.121   5.969  2.5007 -1.0889 -0.0413
 3529SOL    HW222047   0.787   4.129   6.109  0.6215 -0.2283 -0.4378
 3530SOL     OW22048   3.244   0.086  14.103 -0.3262  0.4465  0.0295
 3530SOL    HW122049   3.163   0.133  14.121 -0.1024 -0.1056  2.5282
 3530SOL    HW222050   3.304   0.162  14.105  0.8513 -0.4826 -0.0253
 3531SOL     OW22051   3.497   1.073   4.710 -0.5928 -0.0155  0.2593
 3531SOL    HW122052   3.570   1.079   4.649 -1.6299 -2.5388 -1.2346
 3531SOL    HW222053   3.430   1.046   4.647  0.4610 -0.5061 -0.6511
 3532SOL     OW22054   0.602   3.617   5.090  0.1706 -0.4621  0.2864
 3532SOL    HW122055   0.665   3.615   5.162  0.4002 -0.4208  0.0873
 3532SOL    HW222056   0.657   3.573   5.026 -2.0402 -3.1466  0.2564
 3533SOL     OW22057   1.276   3.725   1.745 -0.2998 -0.0028  0.2426
 3533SOL    HW122058   1.242   3.643   1.781 -1.0553  0.3359  0.3058
 3533SOL    HW222059   1.195   3.776   1.738  0.5338  1.4818  1.5263
 3534SOL     OW22060   0.068   1.945   4.893  0.2754  0.0637  0.3756
 3534SOL    HW122061   0.023   2.026   4.871 -2.7702 -1.9544 -0.8951
 3534SOL    HW222062   0.030   1.929   4.980  0.0866 -2.1926 -0.1090
 3535SOL     OW22063   0.032   1.172   5.540  0.5645  0.4032  0.5882
 3535SOL    HW122064   0.090   1.242   5.570  0.1378  0.1649  1.9892
 3535SOL    HW222065   0.045   1.115   5.616 -1.4171  0.0920  0.7188
 3536SOL     OW22066   1.070   0.951  10.416  0.6614  0.5805  0.5327
 3536SOL    HW122067   1.010   0.904  10.475 -0.0786  1.8121  0.7846
 3536SOL    HW222068   1.010   1.010  10.369  0.5846 -0.5296 -0.7596
 3537SOL     OW22069   2.992   2.150   9.721 -0.1770  0.1783 -0.0305
 3537SOL    HW122070   3.083   2.134   9.747  0.8853  2.8243 -2.0158
 3537SOL    HW222071   2.943   2.129   9.801 -2.0806 -1.4877 -1.6379
 3538SOL     OW22072   4.044   4.148   2.984 -0.0467  0.5154  0.2425
 3538SOL    HW122073   4.008   4.169   2.897 -0.2633 -0.4016  0.1092
 3538SOL    HW222074   4.134   4.126   2.962 -1.3531 -2.0316 -2.5639
 3539SOL     OW22075   1.899   1.864   4.270 -0.2964 -0.2762 -0.3768
 3539SOL    HW122076   1.875   1.838   4.181 -2.1059  2.1764 -0.5794
 3539SOL    HW222077   1.989   1.890   4.248  0.6143 -1.3477  2.0752
 3540SOL     OW22078   1.110   4.036   5.486 -0.0806 -0.0290 -0.2992
 3540SOL    HW122079   1.030   3.999   5.522  0.1445 -0.6921 -0.4742
 3540SOL    HW222080   1.094   4.031   5.391  1.4559 -0.1525 -0.5602
 3541SOL     OW22081   1.413   1.220  10.820  0.4220 -0.4363  0.2445
 3541SOL    HW122082   1.454   1.299  10.784 -0.1927  0.9388  2.5651
 3541SOL    HW222083   1.354   1.198  10.747  0.7639 -1.0290  0.1447
 3542SOL     OW22084   2.270   3.755   7.572  0.0733 -0.1411  0.3184
 3542SOL    HW122085   2.209   3.783   7.504  1.8058  0.8111 -0.8496
 3542SOL    HW222086   2.209   3.712   7.632  0.6945 -0.7052  0.5430
 3543SOL     OW22087   3.854   1.745   7.730 -0.4418  0.3133 -1.1044
 3543SOL    HW122088   3.884   1.799   7.656 -0.0543  2.1089  0.3592
 3543SOL    HW222089   3.763   1.772   7.741 -0.7969 -0.6591 -1.7269
 3544SOL     OW22090   4.269   2.423   4.785  0.1626  0.1258  0.5404
 3544SOL    HW122091   4.179   2.446   4.761  1.0601  1.3146 -1.6979
 3544SOL    HW222092   4.323   2.470   4.721 -0.0384  0.8666  0.9074
 3545SOL     OW22093   1.430   1.577   1.148  0.3924  0.6785 -0.1222
 3545SOL    HW122094   1.516   1.552   1.115  0.7361  0.9025  0.6126
 3545SOL    HW222095   1.389   1.631   1.080  0.9027  1.3860  0.1261
 3546SOL     OW22096   4.246   2.446   5.874 -0.2460  0.9418  0.0943
 3546SOL    HW122097   4.279   2.485   5.793  0.6898 -0.9712 -0.4502
 3546SOL    HW222098   4.155   2.422   5.854 -0.0818  1.0245 -0.7655
 3547SOL     OW22099   2.838   2.467  10.563 -0.3037  0.0215  0.0760
 3547SOL    HW122100   2.810   2.376  10.577  1.4576 -0.3421  1.2161
 3547SOL    HW222101   2.930   2.451  10.541 -0.1516  0.7183  0.2063
 3548SOL     OW22102   4.621   3.059   4.533  0.2677  0.0695 -0.1681
 3548SOL    HW122103   4.624   3.057   4.437 -0.5460  1.4548 -0.2283
 3548SOL    HW222104   4.537   3.105   4.539  0.9374  1.4676 -1.3362
 3549SOL     OW22105   1.335   2.999   8.625 -0.0317  0.5164 -0.1672
 3549SOL    HW122106   1.382   3.043   8.696 -0.3212 -3.5396  2.4936
 3549SOL    HW222107   1.281   2.933   8.667  1.7413  0.5195  2.1212
 3550SOL     OW22108   0.384   4.719   9.006 -0.3903  0.0022  0.4093
 3550SOL    HW122109   0.301   4.683   8.972 -0.3283 -1.0833  1.3826
 3550SOL    HW222110   0.359   0.029   9.093  0.3421 -2.0932  1.3944
 3551SOL     OW22111   4.669   3.863  10.608  0.0292 -0.0489  0.4781
 3551SOL    HW122112   4.634   3.774  10.610  0.1158 -0.0730  0.9482
 3551SOL    HW222113   0.040   3.854  10.589 -0.0816 -1.6300  0.7059
 3552SOL     OW22114   3.373   2.653   4.183 -0.1531 -0.6612 -0.1736
 3552SOL    HW122115   3.293   2.655   4.131 -0.8845  3.2401  1.0942
 3552SOL    HW222116   3.380   2.560   4.204  1.5713 -0.5825 -0.3958
 3553SOL     OW22117   0.934   3.516  14.445  0.5172  0.1197  0.3351
 3553SOL    HW122118   0.842   3.516  14.419  0.1027 -0.5930  1.7806
 3553SOL    HW222119   0.958   3.606  14.423  0.5835 -0.4843 -2.0146
 3554SOL     OW22120   4.103   2.600   3.586  0.3119 -0.3115 -0.2345
 3554SOL    HW122121   4.146   2.679   3.553 -0.7309  0.4925  0.3251
 3554SOL    HW222122   4.060   2.623   3.668 -1.5066 -0.1717 -1.2220
 3555SOL     OW22123   3.632   3.567   2.865 -0.2765 -0.4582  0.1187
 3555SOL    HW122124   3.706   3.628   2.872 -0.5076 -0.1539 -0.0874
 3555SOL    HW222125   3.647   3.540   2.774  0.8223  0.5888 -0.0051
 3556SOL     OW22126   4.686   3.384   8.261  0.1231  0.3252  0.0892
 3556SOL    HW122127   4.718   3.405   8.348  2.5297  1.5709 -1.0982
 3556SOL    HW222128   4.592   3.383   8.276  0.1503 -0.9396  0.1960
 3557SOL     OW22129   1.975   2.224   7.255  0.0222  0.2811 -0.4966
 3557SOL    HW122130   2.038   2.160   7.290  0.3240 -0.5173 -2.5152
 3557SOL    HW222131   2.018   2.305   7.281  0.4359  0.2467 -1.0742
 3558SOL     OW22132   1.110   3.217  13.572 -0.0470  0.5398 -0.5046
 3558SOL    HW122133   1.033   3.255  13.530 -0.7677 -0.0908  0.2556
 3558SOL    HW222134   1.086   3.124  13.578 -1.0102  0.8638  0.6870
 3559SOL     OW22135   0.963   2.589   8.917  0.7033  0.8824 -0.3700
 3559SOL    HW122136   1.056   2.587   8.898  0.6879  0.1105 -0.3725
 3559SOL    HW222137   0.921   2.633   8.843  1.7889  1.2100 -0.7819
 3560SOL     OW22138   3.683   4.691   5.292  0.0459  0.4340  0.4366
 3560SOL    HW122139   3.635   0.014   5.361 -0.3267 -2.4121  2.0875
 3560SOL    HW222140   3.612   4.644   5.248  1.5403  1.3176 -2.9591
 3561SOL     OW22141   2.738   1.987   1.236 -0.5357 -0.1366 -0.3312
 3561SOL    HW122142   2.827   1.952   1.248 -0.0228  1.1583 -0.3241
 3561SOL    HW222143   2.720   1.965   1.145  0.7671 -1.4829 -0.2586
 3562SOL     OW22144   1.410   1.347   7.161 -0.0993 -0.6184  0.4080
 3562SOL    HW122145   1.473   1.416   7.141 -0.6918 -0.7249 -1.8471
 3562SOL    HW222146   1.470   1.273   7.170  2.2446  1.0000 -1.6982
 3563SOL     OW22147   3.899   1.826   1.881  0.0700  0.0757  0.2882
 3563SOL    HW122148   3.864   1.844   1.968 -1.5519  1.8667 -0.7310
 3563SOL    HW222149   3.948   1.909   1.879 -1.5886  1.0291 -1.0547
 3564SOL     OW22150   3.429   4.578   5.176 -0.3222  0.0521  0.7267
 3564SOL    HW122151   3.340   4.613   5.173 -0.7508 -1.1690 -0.8294
 3564SOL    HW222152   3.424   4.505   5.114  0.3094  0.3057  0.3755
 3565SOL     OW22153   0.494   0.215   8.229  0.3444 -0.5095 -0.4561
 3565SOL    HW122154   0.455   0.214   8.141 -1.6277 -1.0030  0.4261
 3565SOL    HW222155   0.549   0.292   8.219 -1.7077  0.9862 -0.1552
 3566SOL     OW22156   3.514   2.357   2.214  0.1180  0.1322 -0.5614
 3566SOL    HW122157   3.424   2.336   2.190  0.1161 -0.0791 -0.3646
 3566SOL    HW222158   3.513   2.324   2.304 -1.2774  1.5657 -0.0393
 3567SOL     OW22159   1.652   1.168   3.024  0.3200 -0.1335  0.1150
 3567SOL    HW122160   1.562   1.197   3.010  1.0200  1.7964 -0.4428
 3567SOL    HW222161   1.684   1.149   2.935 -0.8309 -0.6201 -0.1923
 3568SOL     OW22162   3.770   0.158   3.139  0.4689  0.2413 -0.2407
 3568SOL    HW122163   3.680   0.155   3.106  0.4179 -0.7966 -0.0027
 3568SOL    HW222164   3.775   0.234   3.198  0.5806  0.6227 -0.7344
 3569SOL     OW22165   1.015   3.102  13.066 -0.1027  0.0753  0.3139
 3569SOL    HW122166   0.929   3.137  13.041 -0.2727 -1.2146 -0.8970
 3569SOL    HW222167   0.985   3.039  13.131 -0.7114 -0.7311 -0.7576
 3570SOL     OW22168   1.209   2.931   6.008  0.1812 -0.0142 -0.3221
 3570SOL    HW122169   1.261   2.936   6.089  3.5123 -0.1451 -2.4801
 3570SOL    HW222170   1.189   2.838   6.006 -1.2039  0.2402  1.2536
 3571SOL     OW22171   1.695   1.910  15.665 -0.0401  0.0364  0.6334
 3571SOL    HW122172   1.649   1.875  15.588 -1.9279  1.4275  1.1114
 3571SOL    HW222173   1.704   1.826  15.708  0.3788 -1.1019 -1.6697
 3572SOL     OW22174   3.028   2.124   7.090  0.0557  0.1335 -0.3671
 3572SOL    HW122175   2.984   2.047   7.054  1.4968 -1.5101  1.3824
 3572SOL    HW222176   3.036   2.177   7.011 -0.1504  0.4760 -0.1615
 3573SOL     OW22177   1.242   0.267   5.162  0.2752  0.0051 -0.5991
 3573SOL    HW122178   1.158   0.283   5.119 -0.3435  0.5249  0.7815
 3573SOL    HW222179   1.208   0.231   5.245  1.2782 -0.5424 -0.4284
 3574SOL     OW22180   4.072   4.392   8.218  0.3742  0.0772 -0.6318
 3574SOL    HW122181   3.990   4.434   8.246  1.5095  0.6043  1.9419
 3574SOL    HW222182   4.082   4.320   8.280  0.8721 -0.7412 -1.6754
 3575SOL     OW22183   0.318   0.510   8.304 -0.1122  0.4181  0.0054
 3575SOL    HW122184   0.413   0.501   8.304 -0.2577 -1.1879  0.5921
 3575SOL    HW222185   0.311   0.549   8.217 -1.0977  0.3871  0.0677
 3576SOL     OW22186   1.924   1.000  17.447  0.3399 -0.1721  0.1345
 3576SOL    HW122187   1.936   1.092  17.426 -2.8642  0.1119 -0.5506
 3576SOL    HW222188   2.005   0.966  17.410  0.6915  0.7312  0.0769
 3577SOL     OW22189   2.040   2.973  11.696 -0.3574  0.5059  0.5989
 3577SOL    HW122190   2.044   3.032  11.771  1.8582 -0.7135  1.4288
 3577SOL    HW222191   2.132   2.955  11.675 -0.8194  0.5841 -1.5477
 3578SOL     OW22192   0.481   1.878   7.710 -0.5992  0.4940 -0.4342
 3578SOL    HW122193   0.456   1.954   7.762 -1.0273  0.1281 -0.1030
 3578SOL    HW222194   0.518   1.828   7.782  0.5896  0.4693 -1.0599
 3579SOL     OW22195   0.126   1.755   8.814  0.1580  0.4192  0.0980
 3579SOL    HW122196   0.129   1.821   8.745  1.0542  0.5495  0.2535
 3579SOL    HW222197   0.215   1.736   8.844 -1.4596 -4.6590  1.5465
 3580SOL     OW22198   0.145   0.860  12.981  0.1303  0.3113 -0.0417
 3580SOL    HW122199   0.200   0.783  12.969 -1.3204 -0.7153 -0.1335
 3580SOL    HW222200   0.136   0.867  13.076  0.7427 -0.7669  0.0885
 3581SOL     OW22201   0.105   2.960   3.185 -0.4236 -0.5039  0.2686
 3581SOL    HW122202   0.131   2.963   3.277 -2.4240  1.7492  0.7768
 3581SOL    HW222203   0.156   3.034   3.152 -2.6866 -0.3268 -2.8775
 3582SOL     OW22204   1.680   2.703  13.086 -0.3432 -0.2073 -0.4102
 3582SOL    HW122205   1.614   2.682  13.021  0.3840  2.7368 -2.1078
 3582SOL    HW222206   1.754   2.648  13.059 -0.9121 -1.3469  0.4018
 3583SOL     OW22207   0.953   0.804   8.963  0.6009  0.2919 -0.1675
 3583SOL    HW122208   0.957   0.871   8.895 -0.8564  0.5469 -0.0116
 3583SOL    HW222209   1.004   0.849   9.030  0.5077 -0.1508  0.2044
 3584SOL     OW22210   4.006   4.318   1.358  0.5987 -0.0020 -0.3640
 3584SOL    HW122211   4.100   4.318   1.339  0.6383  0.5049 -0.1732
 3584SOL    HW222212   3.999   4.223   1.351  0.4815  0.0809 -1.4540
 3585SOL     OW22213   0.621   0.248  16.904 -0.1466  0.0626  0.1163
 3585SOL    HW122214   0.611   0.212  16.992 -0.2443 -0.1973 -0.0010
 3585SOL    HW222215   0.672   0.329  16.914 -2.4680  1.4727  0.5759
 3586SOL     OW22216   2.162   4.380   0.218  0.2820 -0.3898 -0.0521
 3586SOL    HW122217   2.199   4.401   0.132 -1.2164  3.4271  0.2001
 3586SOL    HW222218   2.068   4.398   0.221  0.0997 -1.5930  1.3425
 3587SOL     OW22219   3.288   0.275   5.014 -0.0497  0.2698  0.0418
 3587SOL    HW122220   3.236   0.277   5.094 -0.2209 -0.7417 -0.0426
 3587SOL    HW222221   3.211   0.270   4.957  0.0501 -3.0570  0.2056
 3588SOL     OW22222   4.342   0.017   7.025 -0.1332  0.8848  0.3439
 3588SOL    HW122223   4.436   0.018   7.040 -0.2821 -4.2317  1.5643
 3588SOL    HW222224   4.348   4.657   6.976 -0.3961  0.3552  1.1989
 3589SOL     OW22225   1.334   2.552   5.655 -0.3217  0.0947  0.2899
 3589SOL    HW122226   1.259   2.507   5.616  1.3507 -1.3448 -1.2496
 3589SOL    HW222227   1.333   2.636   5.609  1.7846 -0.0388 -0.0183
 3590SOL     OW22228   3.234   0.650   6.272  0.0119 -0.7507 -0.2304
 3590SOL    HW122229   3.182   0.714   6.320  1.0101  0.3669 -0.6517
 3590SOL    HW222230   3.284   0.707   6.214 -0.3605  0.5405  0.7342
 3591SOL     OW22231   4.313   1.117   5.736  0.0499  0.8265 -0.0094
 3591SOL    HW122232   4.299   1.122   5.830  0.1659 -1.0933  0.0962
 3591SOL    HW222233   4.223   1.118   5.703  0.3774  0.2884 -0.9097
 3592SOL     OW22234   0.612   4.555   9.061 -0.1172  0.0330  0.0692
 3592SOL    HW122235   0.551   4.628   9.045  0.6725  0.7073  0.1605
 3592SOL    HW222236   0.556   4.496   9.111 -0.1549  0.1681  0.1850
 3593SOL     OW22237   0.650   1.867   6.743 -0.1885 -0.1679  0.0615
 3593SOL    HW122238   0.645   1.776   6.716  1.6230  0.0061 -0.8417
 3593SOL    HW222239   0.563   1.873   6.783 -0.6777 -1.6137 -0.7891
 3594SOL     OW22240   3.159   2.968   8.062  0.4089 -0.2379  0.1405
 3594SOL    HW122241   3.182   3.017   7.983  0.5514  1.5549  1.2859
 3594SOL    HW222242   3.244   2.965   8.107  0.4453  0.3773  0.1048
 3595SOL     OW22243   3.004   2.724  17.094  0.5716  0.0317 -0.2717
 3595SOL    HW122244   3.065   2.737  17.022  2.0497  0.3318  1.0279
 3595SOL    HW222245   2.965   2.642  17.065 -0.8121  0.0166  1.6586
 3596SOL     OW22246   1.916   2.724   0.875  0.1190 -0.0054 -0.5808
 3596SOL    HW122247   1.950   2.791   0.816 -0.4165 -0.7205 -1.6841
 3596SOL    HW222248   1.901   2.778   0.953  0.0042  0.5202 -0.9639
 3597SOL     OW22249   3.569   2.561   7.005  0.5494 -0.1898  0.7173
 3597SOL    HW122250   3.642   2.506   7.032  1.5562  0.5380 -0.5237
 3597SOL    HW222251   3.582   2.566   6.911  0.5479  0.9353  0.7749
 3598SOL     OW22252   0.704   4.155  12.090  0.8489  0.4960  0.1590
 3598SOL    HW122253   0.748   4.215  12.029 -1.2681 -1.2778 -3.1607
 3598SOL    HW222254   0.623   4.206  12.093 -0.4851 -1.5200 -2.0383
 3599SOL     OW22255   0.981   4.014  10.852 -0.0128 -0.3706  0.2953
 3599SOL    HW122256   1.033   4.044  10.778 -0.0023 -0.3948  0.2931
 3599SOL    HW222257   0.891   4.010  10.820  0.7446 -1.0733 -1.6998
 3600SOL     OW22258   0.674   0.818   8.938 -0.0222  0.3832  0.6917
 3600SOL    HW122259   0.591   0.783   8.972 -0.3336  2.4447  2.0853
 3600SOL    HW222260   0.738   0.796   9.006  3.2242  0.5272 -2.3139
 3601SOL     OW22261   3.317   2.381   4.278 -0.2464  0.2726 -0.3926
 3601SOL    HW122262   3.274   2.351   4.198 -0.0821 -0.8614 -0.0535
 3601SOL    HW222263   3.390   2.319   4.288  0.4576  1.3891  1.3478
 3602SOL     OW22264   3.414   3.505   4.583  0.4361 -0.0826  0.0507
 3602SOL    HW122265   3.422   3.588   4.536  0.5372 -0.0101  0.1979
 3602SOL    HW222266   3.403   3.452   4.504  1.2020 -1.3705  0.8232
 3603SOL     OW22267   3.300   3.177  16.369  0.4516 -0.3827  0.4090
 3603SOL    HW122268   3.277   3.111  16.304  1.5152 -0.8044  0.4781
 3603SOL    HW222269   3.250   3.149  16.446 -0.5357 -0.6485 -0.3296
 3604SOL     OW22270   1.782   0.556   6.937  0.5539  0.1167 -0.2231
 3604SOL    HW122271   1.746   0.601   7.013  0.7560 -0.3876  0.1766
 3604SOL    HW222272   1.784   0.628   6.875 -1.8506  0.2336 -0.1514
 3605SOL     OW22273   0.918   3.546  13.242 -0.4752  0.5967  0.6452
 3605SOL    HW122274   0.895   3.582  13.157  2.7046  1.4780  0.1570
 3605SOL    HW222275   0.995   3.495  13.218  0.3528  1.4881  1.4348
 3606SOL     OW22276   0.229   3.578   2.429  0.0883 -0.0721 -0.6719
 3606SOL    HW122277   0.200   3.487   2.430  1.0718 -0.3759  1.6453
 3606SOL    HW222278   0.319   3.571   2.397  0.0209  1.0386 -1.1046
 3607SOL     OW22279   2.488   2.302   2.679  0.2163 -0.3470 -0.1593
 3607SOL    HW122280   2.455   2.280   2.592  0.5377 -0.0399 -0.3580
 3607SOL    HW222281   2.420   2.256   2.729  1.9364 -1.8453  0.7894
 3608SOL     OW22282   1.162   3.999   1.336  0.7057 -0.4381  0.3140
 3608SOL    HW122283   1.205   4.074   1.296 -2.9244  1.0849 -0.7313
 3608SOL    HW222284   1.121   4.049   1.407 -1.0490 -1.0213 -0.2861
 3609SOL     OW22285   3.787   1.214   7.507 -0.4952  0.0606 -0.0224
 3609SOL    HW122286   3.702   1.244   7.475 -0.2967 -0.1509 -0.7471
 3609SOL    HW222287   3.833   1.195   7.426  1.1182  1.2398  0.6209
 3610SOL     OW22288   0.243   1.456   9.564 -0.3690  0.4404 -0.2234
 3610SOL    HW122289   0.311   1.406   9.609 -0.9957 -1.2984 -1.2080
 3610SOL    HW222290   0.237   1.541   9.608 -1.6070 -0.1742  0.7648
 3611SOL     OW22291   0.676   2.907   7.663  0.0758 -0.1641 -0.3871
 3611SOL    HW122292   0.655   2.924   7.571 -1.3835  0.3312  0.0288
 3611SOL    HW222293   0.604   2.849   7.687  0.0214 -0.5036 -1.3956
 3612SOL     OW22294   2.550   0.502   0.934  0.1904 -0.4731 -0.4295
 3612SOL    HW122295   2.555   0.539   0.845 -0.0283 -1.6281 -0.9240
 3612SOL    HW222296   2.619   0.437   0.923  0.9487  0.0492  1.3904
 3613SOL     OW22297   2.871   1.622   7.277 -0.7700 -0.4113  0.1101
 3613SOL    HW122298   2.790   1.656   7.239 -1.5107 -2.1963  0.0881
 3613SOL    HW222299   2.893   1.693   7.337 -2.0282 -0.5884  0.7580
 3614SOL     OW22300   0.799   0.071   8.967 -0.2016  0.1577 -0.0702
 3614SOL    HW122301   0.723   0.118   8.933 -0.5947 -0.3079  0.1646
 3614SOL    HW222302   0.811   4.719   8.909 -0.2856  0.1892 -0.1280
 3615SOL     OW22303   1.255   2.809   7.654 -0.0155 -0.6125 -0.0306
 3615SOL    HW122304   1.337   2.784   7.612 -0.3236 -0.5994 -0.6434
 3615SOL    HW222305   1.219   2.722   7.672 -1.9645 -0.0540 -1.1760
 3616SOL     OW22306   3.076   3.849   6.225  0.0371  0.4849 -0.0633
 3616SOL    HW122307   3.050   3.941   6.237  1.4043  1.0134 -1.2611
 3616SOL    HW222308   3.042   3.806   6.304  0.1917  0.4947  0.0085
 3617SOL     OW22309   0.015   0.070   6.605 -0.2153 -0.5188 -0.0180
 3617SOL    HW122310   4.707   0.033   6.523 -0.6015  1.2891 -0.6921
 3617SOL    HW222311   0.107   0.094   6.597 -0.7056  0.7577 -1.6371
 3618SOL     OW22312   4.047   4.453   2.463 -0.0510  0.2204  0.4924
 3618SOL    HW122313   4.131   4.431   2.503 -0.2540  1.0482  1.3598
 3618SOL    HW222314   4.064   4.417   2.376  1.5456  0.7718  0.5904
 3619SOL     OW22315   0.594   2.736  10.924 -0.1975 -0.1633 -0.6874
 3619SOL    HW122316   0.635   2.772  11.002 -0.8404 -0.9910  0.0440
 3619SOL    HW222317   0.668   2.746  10.865  1.8933 -1.3432  1.7009
 3620SOL     OW22318   0.863   3.523  17.536 -0.1807  0.0831  0.3146
 3620SOL    HW122319   0.955   3.539  17.514  0.6121 -0.6635  3.0149
 3620SOL    HW222320   0.843   3.603  17.585  0.1894  1.1777 -1.3456
 3621SOL     OW22321   1.326   2.120   9.331 -0.3857 -0.3291 -0.1715
 3621SOL    HW122322   1.372   2.123   9.415 -2.6595 -1.7822  1.1153
 3621SOL    HW222323   1.332   2.210   9.299 -2.4206 -0.5950 -1.3024
 3622SOL     OW22324   3.925   3.262   1.147  0.2402  0.4170 -0.6184
 3622SOL    HW122325   3.934   3.181   1.197 -0.8640  0.1407 -0.8666
 3622SOL    HW222326   3.842   3.292   1.184  0.2960 -0.9963  0.6443
 3623SOL     OW22327   4.248   4.120  12.724  0.4440  0.8261  0.0946
 3623SOL    HW122328   4.230   4.145  12.633 -2.5585 -0.2360  0.3709
 3623SOL    HW222329   4.205   4.196  12.763 -1.0165  0.6916 -1.2288
 3624SOL     OW22330   2.395   1.759   5.072  0.0464  0.2638 -0.6465
 3624SOL    HW122331   2.365   1.681   5.119  1.0027  0.5753  0.4854
 3624SOL    HW222332   2.405   1.716   4.987 -0.2170  1.7879 -1.4560
 3625SOL     OW22333   1.040   1.494   1.463  0.1857 -0.0925  0.3055
 3625SOL    HW122334   1.084   1.431   1.406  1.0490  2.3259 -1.7173
 3625SOL    HW222335   1.103   1.566   1.458 -1.2068  1.0012 -1.7547
 3626SOL     OW22336   3.471   1.036   5.273 -0.6456 -0.4520 -0.2292
 3626SOL    HW122337   3.507   1.003   5.356 -1.9555 -2.1731 -0.3590
 3626SOL    HW222338   3.520   0.986   5.208  2.1071  1.2428  0.5241
 3627SOL     OW22339   1.362   2.489   4.056  0.0285  0.1375 -0.1326
 3627SOL    HW122340   1.333   2.516   3.969  1.2929  0.8239 -0.3520
 3627SOL    HW222341   1.282   2.505   4.106 -0.7560  0.4287 -1.4849
 3628SOL     OW22342   3.638   4.533   3.994  0.5402 -0.1404 -0.4174
 3628SOL    HW122343   3.657   4.622   3.963  0.1465  0.0878 -0.0046
 3628SOL    HW222344   3.691   4.477   3.938  3.3487  0.7548  1.3183
 3629SOL     OW22345   0.832   1.168   4.357  0.1826 -0.1122  0.7002
 3629SOL    HW122346   0.826   1.109   4.433 -2.8562 -0.7056 -0.0058
 3629SOL    HW222347   0.918   1.209   4.368  0.5493  0.1103 -2.9172
 3630SOL     OW22348   3.702   0.889   2.428  0.3572 -0.4208  0.1517
 3630SOL    HW122349   3.773   0.947   2.399  1.8573 -0.7382  3.2337
 3630SOL    HW222350   3.666   0.869   2.341 -1.8360  3.2110  0.2263
 3631SOL     OW22351   3.261   3.705   8.629 -0.4085 -0.3172  0.0206
 3631SOL    HW122352   3.259   3.788   8.582  1.8029 -0.6678 -0.6616
 3631SOL    HW222353   3.244   3.732   8.720  0.8474 -0.0101  0.1730
 3632SOL     OW22354   3.440   3.759  14.884  0.5526 -0.2506  0.2410
 3632SOL    HW122355   3.528   3.756  14.920 -0.3973 -1.4922  2.4520
 3632SOL    HW222356   3.431   3.667  14.860  0.6216  0.0464 -0.9339
 3633SOL     OW22357   2.196   2.036  16.345 -0.5498  0.1437 -0.5056
 3633SOL    HW122358   2.221   2.051  16.436 -1.0235 -0.8394 -0.2213
 3633SOL    HW222359   2.101   2.031  16.351 -0.3000 -3.5329  0.2321
 3634SOL     OW22360   1.977   1.844   8.194 -0.0021 -0.5175  0.0539
 3634SOL    HW122361   1.912   1.913   8.180  2.3944  1.1712 -2.8720
 3634SOL    HW222362   2.063   1.886   8.184 -0.3344  0.3383  0.7244
 3635SOL     OW22363   4.021   2.288   6.450  0.2355  0.3848  0.6197
 3635SOL    HW122364   4.025   2.344   6.527 -2.5488  2.1491 -0.4968
 3635SOL    HW222365   4.049   2.206   6.489 -0.5683 -0.6265 -0.8964
 3636SOL     OW22366   3.677   4.281   6.429 -0.1682  0.0889  0.0684
 3636SOL    HW122367   3.751   4.229   6.400  0.3346  0.6512  0.3404
 3636SOL    HW222368   3.607   4.232   6.387  0.7523 -1.5127  0.4230
 3637SOL     OW22369   1.986   4.135   0.519  0.1849 -0.2676 -0.0857
 3637SOL    HW122370   1.922   4.088   0.464  0.2837 -0.4497 -0.0450
 3637SOL    HW222371   1.931   4.147   0.596  0.1048 -0.9414 -0.0317
 3638SOL     OW22372   4.496   2.077   0.156  0.1003 -0.4837 -0.8198
 3638SOL    HW122373   4.494   2.014   0.228 -0.9055  1.3145  0.7199
 3638SOL    HW222374   4.467   2.156   0.201 -1.0246 -1.7981  0.7609
 3639SOL     OW22375   0.025   0.708  14.433  0.5889  0.5120 -0.2668
 3639SOL    HW122376   0.010   0.755  14.515 -1.0113 -0.6720  0.1336
 3639SOL    HW222377   0.031   0.621  14.475 -0.0530  0.3119 -0.5931
 3640SOL     OW22378   2.453   4.638  17.624 -0.4125 -0.1120 -0.0996
 3640SOL    HW122379   2.464   4.671   0.021 -2.4746 -0.9989  0.4878
 3640SOL    HW222380   2.536   4.601  17.595 -0.1761 -1.7168  2.6780
 3641SOL     OW22381   3.672   1.846   3.014  0.1158 -0.1140  0.1165
 3641SOL    HW122382   3.691   1.774   2.954 -2.7234  0.4761 -1.5014
 3641SOL    HW222383   3.581   1.830   3.039 -0.3167 -0.2579 -1.5403
 3642SOL     OW22384   1.258   1.624  12.295  0.0741  0.4615  0.0584
 3642SOL    HW122385   1.261   1.624  12.390 -0.5719  0.0058  0.0821
 3642SOL    HW222386   1.234   1.533  12.275  2.4944 -0.7315  2.6331
 3643SOL     OW22387   1.955   3.640   1.063 -0.0086  0.3579  0.6965
 3643SOL    HW122388   1.954   3.650   0.968 -2.6257  0.5482  0.7302
 3643SOL    HW222389   2.017   3.705   1.093  1.2111 -0.6299  0.3126
 3644SOL     OW22390   3.230   2.162   8.856 -0.1014  0.7641  0.0325
 3644SOL    HW122391   3.277   2.235   8.895 -1.0875  1.9722 -1.0392
 3644SOL    HW222392   3.147   2.204   8.833 -1.4597 -3.0966 -2.1777
 3645SOL     OW22393   2.170   0.644   8.982 -0.1362  0.1937 -0.2496
 3645SOL    HW122394   2.208   0.558   8.965  0.4099  0.3533  0.1770
 3645SOL    HW222395   2.086   0.619   9.021  0.6088 -0.4271  0.9204
 3646SOL     OW22396   1.804   1.285   2.691 -0.5634  0.3343  0.1912
 3646SOL    HW122397   1.787   1.336   2.770  0.1506  0.2724  0.3859
 3646SOL    HW222398   1.825   1.198   2.726  0.0367  0.5115  0.2600
 3647SOL     OW22399   0.923   1.132  10.062  0.0848  0.4766 -0.0202
 3647SOL    HW122400   0.836   1.097  10.041 -0.0244  0.8585 -0.1929
 3647SOL    HW222401   0.933   1.203  10.000  0.7211  1.6010  1.3664
 3648SOL     OW22402   2.385   3.885   6.428  0.5141 -0.0165  0.0374
 3648SOL    HW122403   2.440   3.845   6.495 -0.3283 -0.2818  0.5687
 3648SOL    HW222404   2.380   3.809   6.370 -3.2680 -0.0968  0.4684
 3649SOL     OW22405   2.981   2.291   8.818 -0.2891 -0.7239  0.1166
 3649SOL    HW122406   3.003   2.358   8.754 -0.5147 -1.0397 -0.2867
 3649SOL    HW222407   2.918   2.345   8.866  0.4462 -0.1012  0.3721
 3650SOL     OW22408   3.935   1.695   2.195  0.6378  0.3363 -0.1234
 3650SOL    HW122409   3.921   1.782   2.158 -0.0696  1.5931  3.0906
 3650SOL    HW222410   3.851   1.707   2.241 -0.8962 -5.1627 -1.5262
 3651SOL     OW22411   2.274   3.453   3.698 -0.7601  0.2374 -0.1241
 3651SOL    HW122412   2.203   3.420   3.643 -0.3663 -3.5391  1.6611
 3651SOL    HW222413   2.350   3.398   3.679  1.5271  3.2330  0.2709
 3652SOL     OW22414   4.699   0.351   5.175 -0.0531  0.0941  0.2515
 3652SOL    HW122415   0.010   0.262   5.165  0.5970  0.4820 -1.0522
 3652SOL    HW222416   4.694   0.389   5.087  1.4076 -0.5188 -0.0886
 3653SOL     OW22417   2.355   2.722   6.372 -0.3020 -0.0970  0.6179
 3653SOL    HW122418   2.347   2.630   6.396 -1.7312 -0.7900 -2.5361
 3653SOL    HW222419   2.299   2.756   6.442 -0.5532 -0.5613  0.6417
 3654SOL     OW22420   4.451   4.247   6.864  0.3169  0.1619 -0.1594
 3654SOL    HW122421   4.421   4.244   6.773 -1.7182 -0.6741  0.5366
 3654SOL    HW222422   4.545   4.260   6.853  0.6062 -1.7503  0.1075
 3655SOL     OW22423   1.388   1.401   2.471  0.0430 -0.0796 -0.1003
 3655SOL    HW122424   1.391   1.419   2.377  1.3705 -0.7867 -0.1865
 3655SOL    HW222425   1.364   1.309   2.464 -1.6960  0.2423  1.5458
 3656SOL     OW22426   4.155   3.406   1.128  1.1857 -0.1299 -0.3909
 3656SOL    HW122427   4.065   3.374   1.128  1.1315  0.0208 -2.1196
 3656SOL    HW222428   4.152   3.479   1.189 -2.9432 -0.8214  0.2131
 3657SOL     OW22429   4.594   4.015   3.158  0.0593  0.0536 -0.0455
 3657SOL    HW122430   4.677   3.984   3.120  1.0315  0.2705  1.9184
 3657SOL    HW222431   4.537   3.950   3.116  0.5490 -0.4011 -0.0076
 3658SOL     OW22432   3.110   1.413   0.145 -0.0281  0.4101 -0.6015
 3658SOL    HW122433   3.020   1.386   0.163  1.1000 -3.0485 -0.1234
 3658SOL    HW222434   3.135   1.430   0.236  0.5090  1.3931 -0.9329
 3659SOL     OW22435   3.257   4.663   2.589 -0.5974  0.4380 -0.3390
 3659SOL    HW122436   3.317   4.667   2.663 -0.7795  1.6042 -0.2652
 3659SOL    HW222437   3.312   4.616   2.526 -1.1774  0.1030 -0.6036
 3660SOL     OW22438   3.028   4.357   9.903  0.2660  0.2072  0.0161
 3660SOL    HW122439   2.976   4.408   9.966  0.9037  0.0292  0.6893
 3660SOL    HW222440   3.044   4.280   9.958  0.4890  0.3084  0.0954
 3661SOL     OW22441   2.123   0.612  17.654 -0.1868  0.7477 -0.5174
 3661SOL    HW122442   2.137   0.652  17.568  2.3008 -1.3697 -1.0800
 3661SOL    HW222443   2.156   0.687   0.013  1.8837 -1.5301  1.5685
 3662SOL     OW22444   3.496   1.589   2.685  0.6341  0.1780  0.4296
 3662SOL    HW122445   3.450   1.615   2.764  1.1687  1.2414  0.3975
 3662SOL    HW222446   3.447   1.634   2.615  1.3752  1.4702  0.7415
 3663SOL     OW22447   0.627   3.482   5.594  0.2960  0.1648  0.3836
 3663SOL    HW122448   0.610   3.403   5.645 -0.7924  0.8794  1.1206
 3663SOL    HW222449   0.698   3.457   5.534  0.1642 -0.7003  0.5851
 3664SOL     OW22450   1.334   3.850   0.786 -0.1113  0.3685 -0.0437
 3664SOL    HW122451   1.280   3.923   0.816 -1.4496 -0.7072  0.1872
 3664SOL    HW222452   1.341   3.785   0.855  0.0361 -0.7734 -1.1286
 3665SOL     OW22453   0.721   1.320   8.543  0.6841  0.5469  0.2494
 3665SOL    HW122454   0.793   1.381   8.557 -0.6792  1.5607  2.8014
 3665SOL    HW222455   0.708   1.294   8.634 -1.5461  0.4536 -0.0859
 3666SOL     OW22456   4.386   0.963   7.312 -0.3368 -0.3194  0.3222
 3666SOL    HW122457   4.328   0.931   7.243  0.9543  0.0323 -0.9124
 3666SOL    HW222458   4.450   0.892   7.314  0.9014  0.7941 -0.2735
 3667SOL     OW22459   3.311   0.391   4.682  0.7405 -0.3707  0.0421
 3667SOL    HW122460   3.373   0.333   4.726 -0.3724  1.1728  3.6271
 3667SOL    HW222461   3.223   0.367   4.712  0.7041  2.3627  2.1138
 3668SOL     OW22462   2.033   4.549   2.901 -0.4326  0.6409 -0.3960
 3668SOL    HW122463   2.028   4.594   2.985  0.6172 -1.3041  0.7018
 3668SOL    HW222464   2.035   4.628   2.847  0.9717  0.4454 -0.6300
 3669SOL     OW22465   4.570   1.084  12.394  0.5044 -0.6178  0.0114
 3669SOL    HW122466   4.545   1.132  12.314  0.2070  0.3025  0.6627
 3669SOL    HW222467   4.508   1.011  12.395 -0.6877  0.3914  0.3765
 3670SOL     OW22468   3.361   3.011   3.925 -0.0111  0.0541 -0.1366
 3670SOL    HW122469   3.366   2.915   3.918  1.5791  0.2001 -0.8223
 3670SOL    HW222470   3.450   3.040   3.906  0.1175  0.5763  1.3172
 3671SOL     OW22471   3.309   2.415   7.664  0.0852  0.0612  0.3397
 3671SOL    HW122472   3.237   2.455   7.615  0.2409 -0.7167 -0.5134
 3671SOL    HW222473   3.325   2.492   7.720 -2.1186 -0.2588  1.4110
 3672SOL     OW22474   0.924   2.156   3.029 -0.1441  0.1838  0.3806
 3672SOL    HW122475   0.868   2.124   3.100  1.3395 -0.0189  1.4734
 3672SOL    HW222476   0.998   2.191   3.079  0.0390  0.7431 -0.2734
 3673SOL     OW22477   0.843   3.677   2.625 -0.1904  0.4506 -0.2334
 3673SOL    HW122478   0.899   3.694   2.701  0.2945 -1.2868 -0.2031
 3673SOL    HW222479   0.801   3.763   2.625  1.1561  1.1119  1.3545
 3674SOL     OW22480   2.718   0.724   3.461  0.3011  0.4993  0.2249
 3674SOL    HW122481   2.702   0.640   3.505  2.9195 -0.1261  0.0168
 3674SOL    HW222482   2.636   0.770   3.479  1.7466  3.4445 -0.7136
 3675SOL     OW22483   0.294   2.582   1.946  0.1754 -0.0368 -0.1605
 3675SOL    HW122484   0.247   2.619   2.021  0.0055  0.4295 -0.4970
 3675SOL    HW222485   0.322   2.666   1.910 -2.4666  1.5983  1.5347
 3676SOL     OW22486   1.552   1.959   4.899 -0.4332  0.1310  0.0316
 3676SOL    HW122487   1.484   2.022   4.922  0.2606  0.7501  0.3873
 3676SOL    HW222488   1.561   1.991   4.809  2.0394  0.9996  0.5876
 3677SOL     OW22489   2.202   0.609   1.404 -0.0331  0.0693  0.0669
 3677SOL    HW122490   2.245   0.535   1.447  0.1924  0.8169  1.1346
 3677SOL    HW222491   2.163   0.560   1.332 -1.7154 -0.1173  1.1004
 3678SOL     OW22492   3.054   2.682  15.096 -0.0236  0.0777  0.1665
 3678SOL    HW122493   3.119   2.627  15.052  0.3116  0.3747  0.2916
 3678SOL    HW222494   3.105   2.763  15.097  1.2905 -0.7008 -2.2419
 3679SOL     OW22495   3.302   2.540   3.572 -0.8259  0.3439  0.0182
 3679SOL    HW122496   3.252   2.458   3.571 -0.9322  0.4019  0.5387
 3679SOL    HW222497   3.306   2.557   3.666 -0.6824  0.8567 -0.0854
 3680SOL     OW22498   4.173   0.636   3.274 -0.1304  0.1924  0.6870
 3680SOL    HW122499   4.100   0.583   3.307  2.0240 -2.8892  0.5164
 3680SOL    HW222500   4.217   0.662   3.355  1.7636  1.0940 -0.6378
 3681SOL     OW22501   0.767   2.486   4.003 -0.1265  0.8162 -0.2008
 3681SOL    HW122502   0.851   2.532   4.011 -0.7164  1.6695  0.9049
 3681SOL    HW222503   0.723   2.539   3.936 -1.4037 -0.0276 -0.0249
 3682SOL     OW22504   4.320   2.659  16.200 -0.0890 -0.5077  0.0259
 3682SOL    HW122505   4.234   2.644  16.238  0.5760 -0.5974  1.4801
 3682SOL    HW222506   4.368   2.620  16.273  0.5998 -0.5584 -0.4440
 3683SOL     OW22507   1.514   1.264   6.510  0.3324 -0.0344 -0.1584
 3683SOL    HW122508   1.538   1.172   6.521  0.9002  0.1559  0.1568
 3683SOL    HW222509   1.504   1.275   6.415 -0.6225 -2.5395 -0.3525
 3684SOL     OW22510   0.659   1.838   5.832 -0.0244  0.0196 -0.2805
 3684SOL    HW122511   0.600   1.822   5.759 -0.6611 -1.1901  0.4906
 3684SOL    HW222512   0.647   1.932   5.845 -1.4250 -0.0933 -0.8299
 3685SOL     OW22513   2.730   3.049   6.195 -0.4975  0.3670 -0.4630
 3685SOL    HW122514   2.697   3.131   6.233 -0.1715  1.1502 -1.8433
 3685SOL    HW222515   2.770   3.018   6.276 -0.0417  0.1861 -0.7573
 3686SOL     OW22516   3.410   0.795   3.018  0.6529  0.0724  0.3094
 3686SOL    HW122517   3.332   0.742   3.034  2.1763 -3.1864 -2.9283
 3686SOL    HW222518   3.402   0.812   2.924 -0.5404 -0.3354  0.3291
 3687SOL     OW22519   0.269   1.513  17.235  0.0612 -0.4336  0.2523
 3687SOL    HW122520   0.362   1.497  17.216 -0.4470 -0.3107 -2.3878
 3687SOL    HW222521   0.228   1.520  17.149  0.1985 -0.9471  0.1456
 3688SOL     OW22522   4.696   1.505   5.953 -0.0916  0.1305  0.1042
 3688SOL    HW122523   4.722   1.478   5.864  0.0744 -0.6546  0.3887
 3688SOL    HW222524   4.722   1.421   5.991 -0.6171  0.8601  2.0424
 3689SOL     OW22525   1.027   0.414  10.059 -0.0946  0.6622  0.4513
 3689SOL    HW122526   1.101   0.359  10.033 -0.7765 -0.8547  1.7074
 3689SOL    HW222527   1.059   0.499  10.027  3.2800 -0.0607  1.8712
 3690SOL     OW22528   0.693   4.300   7.775  0.5452  0.1198  0.3021
 3690SOL    HW122529   0.669   4.223   7.723 -1.0671  0.7818  0.0689
 3690SOL    HW222530   0.714   4.367   7.711  0.4954  0.8963  1.1063
 3691SOL     OW22531   2.213   2.308   8.580 -0.5953 -0.2505 -0.0444
 3691SOL    HW122532   2.129   2.267   8.602 -1.2581  1.6055  0.8942
 3691SOL    HW222533   2.234   2.248   8.509  0.5886  1.2727 -0.9775
 3692SOL     OW22534   2.450   0.586  12.890 -0.4186 -0.4825 -0.2185
 3692SOL    HW122535   2.504   0.617  12.816 -0.3786  0.7008  0.2968
 3692SOL    HW222536   2.369   0.573  12.841 -0.7701  0.0907  0.2021
 3693SOL     OW22537   3.404   2.039   6.952 -0.2680 -0.7767  0.2064
 3693SOL    HW122538   3.409   1.960   6.899 -0.7561  0.2622 -1.4028
 3693SOL    HW222539   3.351   2.091   6.891  1.1533  1.7890  1.1958
 3694SOL     OW22540   1.785   0.949   5.822 -0.2115  0.1126  0.0310
 3694SOL    HW122541   1.816   1.038   5.803  0.3039  0.4452  2.4993
 3694SOL    HW222542   1.860   0.932   5.878 -1.1131  1.7820  1.7512
 3695SOL     OW22543   3.853   3.780  11.562  0.2590 -0.1421  0.1707
 3695SOL    HW122544   3.938   3.757  11.599  0.4054 -1.9099 -1.2828
 3695SOL    HW222545   3.875   3.869  11.536  0.1737  0.4060  1.9532
 3696SOL     OW22546   4.192   2.026   2.027  0.2273 -0.1496 -0.1553
 3696SOL    HW122547   4.181   1.969   1.951  1.3268 -0.4567 -0.0828
 3696SOL    HW222548   4.272   1.982   2.057  0.8433  0.1331 -1.4126
 3697SOL     OW22549   2.195   2.736   2.781 -0.4072 -0.3782 -0.1638
 3697SOL    HW122550   2.137   2.774   2.715  0.0965  0.3502 -0.1880
 3697SOL    HW222551   2.179   2.642   2.781 -2.5551 -0.0067 -2.6075
 3698SOL     OW22552   3.196   1.152  10.834  0.2883  0.0428 -0.2647
 3698SOL    HW122553   3.273   1.121  10.788  0.2049  1.5592 -1.4108
 3698SOL    HW222554   3.230   1.182  10.918 -1.7668 -0.5588  0.7985
 3699SOL     OW22555   2.126   3.766   3.487 -0.5464 -0.1410 -0.4982
 3699SOL    HW122556   2.151   3.818   3.411  0.1830 -0.1064 -0.2382
 3699SOL    HW222557   2.072   3.702   3.441 -0.9720  0.4592 -0.8256
 3700SOL     OW22558   1.486   3.669   8.786  0.0696  0.3335  0.2943
 3700SOL    HW122559   1.495   3.707   8.874 -1.8094  2.5770 -0.4628
 3700SOL    HW222560   1.453   3.743   8.734 -1.3170 -0.3298  0.2145
 3701SOL     OW22561   2.693   2.713   8.582  0.3106 -0.5417 -0.5106
 3701SOL    HW122562   2.742   2.762   8.516  1.7059  1.2330  1.8683
 3701SOL    HW222563   2.716   2.768   8.656  0.8894 -2.6869  0.8955
 3702SOL     OW22564   2.138   3.936   0.705  0.3092 -0.2907  0.3233
 3702SOL    HW122565   2.215   3.900   0.661  0.7518  0.3877  0.5411
 3702SOL    HW222566   2.121   4.007   0.643  0.0978  2.2216  3.2036
 3703SOL     OW22567   3.447   1.804   4.862 -0.1206  0.3001  0.5624
 3703SOL    HW122568   3.458   1.870   4.930 -2.1063 -2.7003  3.8048
 3703SOL    HW222569   3.479   1.723   4.903  2.1616  0.1302 -1.5692
 3704SOL     OW22570   3.963   2.600   3.290  0.5284  0.3051  0.2154
 3704SOL    HW122571   4.018   2.678   3.298 -1.1414  1.5207 -0.1076
 3704SOL    HW222572   4.024   2.535   3.326 -1.5208 -1.5187  0.3520
 3705SOL     OW22573   3.395   0.844  10.027  0.8811 -0.8215 -0.0392
 3705SOL    HW122574   3.476   0.894  10.040  1.0609 -0.3044 -3.2045
 3705SOL    HW222575   3.348   0.874  10.105  0.8559  1.8959 -1.0919
 3706SOL     OW22576   0.177   3.464  14.109 -0.0435  0.0352 -0.8071
 3706SOL    HW122577   0.149   3.415  14.187  2.4085  0.0140  0.0624
 3706SOL    HW222578   0.142   3.398  14.049 -1.1081 -2.2575  2.3644
 3707SOL     OW22579   2.062   2.652  13.000  0.6920  0.8141 -0.3412
 3707SOL    HW122580   1.991   2.594  13.028  0.2485  0.9759 -1.1445
 3707SOL    HW222581   2.062   2.707  13.078  3.2671 -1.2310  1.0668
 3708SOL     OW22582   2.851   2.427   6.524 -0.0276  0.5673 -0.3907
 3708SOL    HW122583   2.775   2.483   6.540 -0.9586 -0.5884 -0.7318
 3708SOL    HW222584   2.913   2.499   6.521  0.4966  0.1020 -0.7336
 3709SOL     OW22585   0.714   2.392  17.414 -0.0004  0.2173 -0.6873
 3709SOL    HW122586   0.752   2.350  17.337  1.2495  1.7238 -0.8933
 3709SOL    HW222587   0.766   2.472  17.420  2.6623 -1.6599  0.8740
 3710SOL     OW22588   3.929   2.161  17.062  0.8263  0.2918  0.3064
 3710SOL    HW122589   3.915   2.249  17.026  2.2264  1.5278  2.8089
 3710SOL    HW222590   4.017   2.164  17.098  0.3431 -3.0650  1.7260
 3711SOL     OW22591   0.662   2.060   3.504 -0.4167 -0.0861  0.3658
 3711SOL    HW122592   0.706   2.015   3.576  1.3472  1.9195  0.5728
 3711SOL    HW222593   0.594   2.108   3.552 -2.2130 -1.7941 -0.4826
 3712SOL     OW22594   1.335   0.942  10.254 -0.0239 -0.1710 -0.4831
 3712SOL    HW122595   1.348   0.908  10.342 -0.5898  1.5057  0.2491
 3712SOL    HW222596   1.244   0.972  10.250 -0.3030 -1.0048 -0.3284
 3713SOL     OW22597   0.328   0.553   3.918  0.1657  0.0655 -0.7039
 3713SOL    HW122598   0.291   0.464   3.911  0.3271 -0.0082 -0.6220
 3713SOL    HW222599   0.267   0.600   3.975 -3.5210  0.0321 -4.6481
 3714SOL     OW22600   0.370   1.613   5.978 -0.2264  0.2290  0.0428
 3714SOL    HW122601   0.410   1.538   6.021  1.5381  0.2185 -1.5748
 3714SOL    HW222602   0.369   1.586   5.886 -2.0209 -1.3571  0.5510
 3715SOL     OW22603   0.958   2.309  13.739  0.7403  0.6070  0.1835
 3715SOL    HW122604   0.946   2.225  13.785 -0.3473 -1.0535 -3.1364
 3715SOL    HW222605   0.869   2.339  13.718  0.8389 -1.2047 -2.8609
 3716SOL     OW22606   3.571   1.152   2.852  0.5175 -0.0444 -0.8177
 3716SOL    HW122607   3.559   1.079   2.791 -2.9509  0.1862 -0.3941
 3716SOL    HW222608   3.596   1.217   2.785  1.3710  0.5104  0.0367
 3717SOL     OW22609   1.903   2.036  12.369 -0.2322 -0.0809  0.3575
 3717SOL    HW122610   1.993   2.022  12.338 -0.6072 -0.0127 -0.7699
 3717SOL    HW222611   1.898   2.002  12.458  1.8431 -0.4203  0.3493
 3718SOL     OW22612   2.564   2.343  16.097  0.1687  0.0935 -0.0770
 3718SOL    HW122613   2.520   2.259  16.087 -1.3389  0.9007 -0.2377
 3718SOL    HW222614   2.649   2.306  16.073  0.9354  1.0300  1.2026
 3719SOL     OW22615   0.687   4.188   4.979  0.2659  0.6162 -0.1400
 3719SOL    HW122616   0.686   4.156   5.069  1.2320  1.4978  0.1756
 3719SOL    HW222617   0.737   4.268   4.993  0.1443  0.9498 -1.6044
 3720SOL     OW22618   3.483   2.675   3.433  0.1452  0.0265  0.1262
 3720SOL    HW122619   3.567   2.631   3.451  0.1082 -0.1930 -0.2427
 3720SOL    HW222620   3.420   2.618   3.478  0.0009 -1.4719 -1.9725
 3721SOL     OW22621   0.631   2.873   4.829 -0.2449 -0.0376  0.2700
 3721SOL    HW122622   0.549   2.823   4.826  0.3152 -0.9769  0.6231
 3721SOL    HW222623   0.679   2.832   4.756  1.1874  2.4759 -0.1784
 3722SOL     OW22624   3.187   0.819   4.987  0.0403 -0.2697  0.2276
 3722SOL    HW122625   3.192   0.737   5.037  2.8839 -0.4816 -0.4566
 3722SOL    HW222626   3.167   0.871   5.065 -2.0751 -1.9748  0.8609
 3723SOL     OW22627   3.552   3.293   6.056  0.0099 -0.2161  0.0942
 3723SOL    HW122628   3.493   3.237   6.005 -0.2082 -1.0419  1.2605
 3723SOL    HW222629   3.525   3.374   6.012  0.1071  0.0380  0.5035
 3724SOL     OW22630   1.660   2.695   7.504  0.4228  0.2476 -0.6886
 3724SOL    HW122631   1.731   2.631   7.499  0.7934  0.8555 -3.4521
 3724SOL    HW222632   1.594   2.656   7.561  0.9293  0.3272 -0.0473
 3725SOL     OW22633   1.572   1.090   5.049  0.0872  0.5608 -0.0538
 3725SOL    HW122634   1.550   1.004   5.012 -0.4306  0.1282  1.2302
 3725SOL    HW222635   1.504   1.099   5.117  0.0127 -0.2459 -0.0195
 3726SOL     OW22636   4.654   1.601  15.652 -0.2191  0.2399  0.8196
 3726SOL    HW122637   4.665   1.530  15.588  2.4846  0.1963  1.3111
 3726SOL    HW222638   0.018   1.641  15.665  0.1367  0.1613 -1.2870
 3727SOL     OW22639   1.941   0.567   5.341 -0.2751  0.4936 -0.0751
 3727SOL    HW122640   1.849   0.542   5.346  0.6186 -2.5430  0.8397
 3727SOL    HW222641   1.969   0.500   5.279  2.5057  1.1914  0.4288
 3728SOL     OW22642   0.895   0.333   8.991  0.5789  0.0630 -0.5944
 3728SOL    HW122643   0.908   0.339   8.897  2.9449 -0.4616 -0.3165
 3728SOL    HW222644   0.853   0.247   8.997  1.4980 -0.4047 -0.7758
 3729SOL     OW22645   1.471   0.992   8.801 -0.4240 -0.2044 -0.3498
 3729SOL    HW122646   1.525   0.944   8.739  1.9021  0.8903  0.8431
 3729SOL    HW222647   1.461   0.923   8.867  2.1475  1.0151  1.3264
 3730SOL     OW22648   3.874   4.579   2.288 -0.4460 -0.2241 -0.4295
 3730SOL    HW122649   3.912   4.579   2.375 -1.0529 -2.4004 -0.1631
 3730SOL    HW222650   3.933   4.644   2.249 -2.8067  2.1041 -0.1482
 3731SOL     OW22651   1.942   0.019   3.097  0.2330 -0.5463  0.4763
 3731SOL    HW122652   1.920   4.689   3.173 -0.9346  0.2605  0.6967
 3731SOL    HW222653   1.892   0.101   3.099  0.8945 -0.0885 -1.2723
 3732SOL     OW22654   3.669   1.208  11.405 -0.4126  0.3422 -0.1402
 3732SOL    HW122655   3.713   1.284  11.441  0.6223 -0.0531 -0.5397
 3732SOL    HW222656   3.704   1.144  11.467 -2.1236 -0.9277 -0.4742
 3733SOL     OW22657   3.858   3.536  16.458  0.0605 -0.3504  0.3218
 3733SOL    HW122658   3.941   3.549  16.414  0.5831  1.9559  1.9707
 3733SOL    HW222659   3.802   3.492  16.394  0.7602  1.2223 -1.3745
 3734SOL     OW22660   4.555   0.011   7.591  0.0137  0.5515  0.5956
 3734SOL    HW122661   4.563   4.700   7.501 -0.1169 -1.6478  1.4196
 3734SOL    HW222662   4.522   0.101   7.586 -2.9087 -0.5560  0.2503
 3735SOL     OW22663   4.692   4.443  13.180  0.9233  0.3863  0.1407
 3735SOL    HW122664   4.700   4.507  13.110  0.4873  0.1896 -0.0899
 3735SOL    HW222665   4.715   4.365  13.128 -1.0283  0.4457 -0.8217
 3736SOL     OW22666   1.897   3.692  13.177 -0.1022  0.0821 -0.5064
 3736SOL    HW122667   1.886   3.774  13.225 -0.4778  0.8585 -1.9140
 3736SOL    HW222668   1.833   3.640  13.224 -1.0741  0.9269 -0.9090
 3737SOL     OW22669   2.610   1.573  14.602  0.3846  0.3262  0.1715
 3737SOL    HW122670   2.672   1.646  14.601  1.6278 -0.7370 -0.1482
 3737SOL    HW222671   2.541   1.615  14.550 -0.6562 -0.9618  0.5093
 3738SOL     OW22672   0.031   1.348   2.004 -0.1840 -0.6355  0.5320
 3738SOL    HW122673   0.117   1.315   1.981  0.3711  1.3820 -0.2968
 3738SOL    HW222674   0.004   1.288   2.074  0.4829 -0.9910  0.4779
 3739SOL     OW22675   4.186   2.811  15.021  0.2846 -0.0313 -0.5862
 3739SOL    HW122676   4.272   2.787  15.056 -0.3645  0.0781  1.0759
 3739SOL    HW222677   4.158   2.881  15.079 -1.9200  0.2576 -2.0388
 3740SOL     OW22678   2.237   3.274   7.951  0.1047  0.2212  0.3772
 3740SOL    HW122679   2.181   3.282   8.029 -1.1244 -0.8952 -0.3813
 3740SOL    HW222680   2.198   3.340   7.894 -1.1114  0.4904  1.5236
 3741SOL     OW22681   3.725   1.657   8.044  0.6338  0.1447 -0.0805
 3741SOL    HW122682   3.666   1.665   7.969  0.6585 -0.5980 -0.1746
 3741SOL    HW222683   3.776   1.578   8.032  0.6745  0.2192 -0.4118
 3742SOL     OW22684   2.148   1.392   7.170  0.0901 -0.2294 -0.0962
 3742SOL    HW122685   2.053   1.406   7.165  0.4624  2.3333 -0.4397
 3742SOL    HW222686   2.186   1.444   7.099 -2.8776  3.3060  0.8828
 3743SOL     OW22687   3.269   0.373   3.681  0.3756 -0.4188  0.0364
 3743SOL    HW122688   3.332   0.303   3.702 -2.3320 -3.0306 -0.4985
 3743SOL    HW222689   3.192   0.351   3.732  0.6193  1.8177  1.3344
 3744SOL     OW22690   4.129   2.827   2.677  0.1900  0.2368 -0.9169
 3744SOL    HW122691   4.137   2.810   2.771  1.5974 -0.9659 -1.2516
 3744SOL    HW222692   4.157   2.918   2.677  0.0714  0.2721 -0.1989
 3745SOL     OW22693   2.141   0.536   1.907  0.1667 -0.0036 -0.2375
 3745SOL    HW122694   2.180   0.485   1.836 -0.3653  0.1430 -0.6292
 3745SOL    HW222695   2.221   0.574   1.944  0.2344  0.6829 -1.1014
 3746SOL     OW22696   3.658   4.636   5.958 -0.1703  0.4295 -0.0484
 3746SOL    HW122697   3.582   4.689   5.981  1.3557  2.0004  1.3562
 3746SOL    HW222698   3.667   4.656   5.864  1.0423 -1.4555 -0.3196
 3747SOL     OW22699   2.552   2.112   3.599 -0.2169 -0.3029 -0.1721
 3747SOL    HW122700   2.633   2.079   3.638 -0.8233  0.3520  1.6236
 3747SOL    HW222701   2.508   2.150   3.675  0.0454 -1.0664  0.3667
 3748SOL     OW22702   3.973   1.488  14.894 -0.3132 -0.6057 -0.1890
 3748SOL    HW122703   4.018   1.520  14.816  1.8714 -0.3591  1.1592
 3748SOL    HW222704   4.047   1.441  14.932  1.5442  0.9303 -1.8700
 3749SOL     OW22705   2.990   0.033  14.973 -0.1337  0.0453 -0.4845
 3749SOL    HW122706   2.950   0.031  15.059 -0.6320  0.5910 -0.7060
 3749SOL    HW222707   2.974   0.125  14.953  0.3147 -0.0538 -1.3051
 3750SOL     OW22708   3.989   0.939  12.622 -0.3736  0.3262  0.3954
 3750SOL    HW122709   3.946   0.853  12.629 -0.8934  0.5040 -0.6853
 3750SOL    HW222710   4.082   0.916  12.621 -0.2649  0.7672  0.3457
 3751SOL     OW22711   4.295   1.500   4.704  0.3394  0.6649 -0.0181
 3751SOL    HW122712   4.206   1.482   4.734 -0.1734  0.5644 -1.6262
 3751SOL    HW222713   4.350   1.439   4.754 -1.4431 -1.1886 -0.2986
 3752SOL     OW22714   4.666   1.347   2.503 -0.1432  0.3571  0.5918
 3752SOL    HW122715   4.583   1.394   2.516 -0.9976 -0.9094 -0.2778
 3752SOL    HW222716   0.007   1.411   2.536 -0.3618  1.8237 -1.8433
 3753SOL     OW22717   1.910   0.378   2.840  0.1390 -0.0911  0.2881
 3753SOL    HW122718   1.826   0.405   2.802  0.3094 -0.3705 -0.2843
 3753SOL    HW222719   1.889   0.408   2.928  1.6430 -1.9428  1.2641
 3754SOL     OW22720   3.086   2.564   6.984  0.1382 -0.5638  0.2160
 3754SOL    HW122721   3.151   2.494   6.988  0.4571 -0.2172  1.0198
 3754SOL    HW222722   3.117   2.618   7.057  0.3219  0.0798 -0.3359
 3755SOL     OW22723   3.138   3.087  14.314 -0.1906  0.3114 -0.6663
 3755SOL    HW122724   3.086   3.042  14.247 -2.7417 -0.5381  1.8529
 3755SOL    HW222725   3.223   3.089  14.270  0.2958  0.1110  0.2661
 3756SOL     OW22726   1.143   4.419   7.285  0.3220  0.3472  0.6366
 3756SOL    HW122727   1.194   4.346   7.320 -1.6568 -1.9051 -1.1941
 3756SOL    HW222728   1.170   4.489   7.345  3.5641  0.7536 -1.3408
 3757SOL     OW22729   2.506   1.401   9.384 -0.3648  0.3457 -0.2991
 3757SOL    HW122730   2.504   1.379   9.477 -0.6822  0.6298 -0.2374
 3757SOL    HW222731   2.419   1.365   9.370 -0.0170 -0.6983  0.2182
 3758SOL     OW22732   3.061   4.226   5.659  0.0733  0.1791  0.1378
 3758SOL    HW122733   3.050   4.136   5.690  3.5480  0.8530  3.3030
 3758SOL    HW222734   3.005   4.227   5.582 -0.9552 -3.4313  0.8385
 3759SOL     OW22735   3.659   1.741   7.135 -0.2916 -0.3552 -0.4413
 3759SOL    HW122736   3.653   1.648   7.114  2.4276 -0.3433 -1.2759
 3759SOL    HW222737   3.582   1.759   7.189  0.9257  1.9238  0.5834
 3760SOL     OW22738   1.037   0.223  11.674 -0.1130 -0.8897 -0.2885
 3760SOL    HW122739   1.046   0.316  11.654 -0.1851 -1.5328 -3.4544
 3760SOL    HW222740   0.947   0.219  11.704  0.4040 -1.1718  1.2256
 3761SOL     OW22741   2.738   0.683   8.093 -0.6001 -0.6290  0.1554
 3761SOL    HW122742   2.713   0.603   8.140 -1.9438 -0.0331  0.4453
 3761SOL    HW222743   2.660   0.692   8.039 -0.8836  3.0680  1.2240
 3762SOL     OW22744   1.908   2.316  10.272  0.3397  0.0331  0.7596
 3762SOL    HW122745   1.825   2.321  10.320 -0.4248  0.5704 -0.6171
 3762SOL    HW222746   1.953   2.233  10.285  0.2589 -0.1135  0.0916
 3763SOL     OW22747   1.635   2.169   1.348 -0.2951 -0.8479 -0.8782
 3763SOL    HW122748   1.575   2.227   1.301  0.9826  0.3702 -0.9931
 3763SOL    HW222749   1.694   2.230   1.392 -2.0885  0.1652  0.1102
 3764SOL     OW22750   1.749   4.522   6.754  0.2843 -0.0588 -0.5606
 3764SOL    HW122751   1.752   4.526   6.658 -0.9796 -0.0210 -0.6071
 3764SOL    HW222752   1.655   4.537   6.765  0.7087  1.6503  0.7642
 3765SOL     OW22753   0.430   2.342   1.947 -0.2248 -0.3170 -0.7878
 3765SOL    HW122754   0.379   2.418   1.921  0.4985  0.0231 -1.2161
 3765SOL    HW222755   0.427   2.350   2.043  1.0882 -0.9645 -0.6852
 3766SOL     OW22756   0.150   4.653   2.123  0.4861  0.0821 -0.1912
 3766SOL    HW122757   0.148   4.589   2.051 -3.8793  0.4222 -0.3814
 3766SOL    HW222758   0.153   0.012   2.072  1.4346  0.5945  0.6851
 3767SOL     OW22759   3.528   4.509   2.014 -0.4006 -0.1822  0.3196
 3767SOL    HW122760   3.438   4.541   2.012 -0.2892  0.0463 -1.0271
 3767SOL    HW222761   3.535   4.472   1.926 -1.5216 -0.4415  0.3328
 3768SOL     OW22762   1.421   3.497   3.474 -0.1618  0.5674  0.3651
 3768SOL    HW122763   1.366   3.540   3.539  0.7487  2.4279 -0.0854
 3768SOL    HW222764   1.479   3.571   3.456 -0.2879  0.5258 -0.2356
 3769SOL     OW22765   4.241   0.283   7.721  0.3829  0.0172  0.2568
 3769SOL    HW122766   4.303   0.345   7.759  2.1308  0.3899 -3.1797
 3769SOL    HW222767   4.158   0.322   7.748  0.8798  1.4597 -0.3136
 3770SOL     OW22768   0.586   3.410  12.425 -0.0482 -0.5266  0.1219
 3770SOL    HW122769   0.673   3.372  12.429  0.3773  0.7617  3.5783
 3770SOL    HW222770   0.606   3.504  12.420 -1.1781 -0.2578  0.6179
 3771SOL     OW22771   2.643   1.169  11.434 -0.3324  0.0475 -0.0315
 3771SOL    HW122772   2.682   1.155  11.348 -2.0539  0.9014 -0.9520
 3771SOL    HW222773   2.562   1.118  11.431 -0.2723 -0.0402 -0.1412
 3772SOL     OW22774   4.188   0.550   9.208 -0.5315 -0.0906 -0.1050
 3772SOL    HW122775   4.127   0.478   9.190  0.5105 -1.1328  0.5690
 3772SOL    HW222776   4.126   0.624   9.212 -1.8772 -1.2162  0.0106
 3773SOL     OW22777   4.344   0.308   9.163  0.4533  0.4015  0.2952
 3773SOL    HW122778   4.275   0.277   9.104  0.4597 -0.3911  0.7037
 3773SOL    HW222779   4.331   0.403   9.167 -2.2967  0.0374  0.1740
 3774SOL     OW22780   2.299   4.530  11.136  0.2517 -0.2064 -0.3622
 3774SOL    HW122781   2.300   4.534  11.040  0.7015  1.2765 -0.2966
 3774SOL    HW222782   2.301   4.438  11.163 -2.8634  0.1950  1.2755
 3775SOL     OW22783   3.047   2.127   9.466  0.2039  0.0303  0.6202
 3775SOL    HW122784   2.975   2.160   9.412  1.3372  0.3806 -0.6710
 3775SOL    HW222785   3.016   2.123   9.557 -2.8280 -0.0905 -0.4362
 3776SOL     OW22786   1.709   0.828  15.183  0.0572  0.1619  0.4317
 3776SOL    HW122787   1.619   0.828  15.150  0.1753 -0.1059  0.1031
 3776SOL    HW222788   1.707   0.902  15.243  1.3180  0.9044 -0.4521
 3777SOL     OW22789   3.065   1.876   2.522 -0.5223 -0.5154  0.2441
 3777SOL    HW122790   3.030   1.964   2.536  0.3699 -0.3465  1.4369
 3777SOL    HW222791   2.999   1.838   2.464 -0.1951  1.5509 -1.4704
 3778SOL     OW22792   2.350   1.227   5.528  0.7856  0.3048 -0.0910
 3778SOL    HW122793   2.411   1.286   5.482 -0.8736  0.8552 -1.6067
 3778SOL    HW222794   2.350   1.274   5.612 -0.4248 -1.5515  0.9352
 3779SOL     OW22795   0.842   4.583   6.756 -0.3686 -0.3019  0.6189
 3779SOL    HW122796   0.747   4.585   6.766 -0.2721  0.8888  1.2890
 3779SOL    HW222797   0.862   4.671   6.725  0.6343 -0.5149  0.6611
 3780SOL     OW22798   3.269   3.326  15.488  0.1292 -0.5251  0.1947
 3780SOL    HW122799   3.356   3.365  15.494 -0.0242 -0.2300  0.5073
 3780SOL    HW222800   3.245   3.321  15.581 -1.6723  2.6251 -0.1230
 3781SOL     OW22801   1.297   2.645  10.593  0.8090 -0.0511 -0.3481
 3781SOL    HW122802   1.370   2.680  10.541  1.4945 -0.4329  0.3660
 3781SOL    HW222803   1.312   2.690  10.676 -0.9863  1.3506 -0.7708
 3782SOL     OW22804   4.607   4.591   0.463 -0.4307 -0.0083  0.0046
 3782SOL    HW122805   4.645   4.563   0.547 -1.1448 -0.1599  0.2801
 3782SOL    HW222806   4.566   4.506   0.445 -2.5048  0.9222  0.3467
 3783SOL     OW22807   4.198   1.126   6.029 -0.8683 -0.4486  0.2275
 3783SOL    HW122808   4.122   1.068   6.029 -0.6135 -0.7754 -0.6786
 3783SOL    HW222809   4.212   1.108   6.122 -0.3138  0.1224  0.2546
 3784SOL     OW22810   0.887   1.003   9.714 -0.0321  0.1141 -0.1471
 3784SOL    HW122811   0.860   1.025   9.625 -1.9153  2.9972  1.1553
 3784SOL    HW222812   0.806   1.009   9.765 -0.7298 -1.2749 -1.0860
 3785SOL     OW22813   4.027   0.060   8.384 -0.0960 -0.3870 -0.7591
 3785SOL    HW122814   3.993   4.694   8.373 -2.4449  0.2138  1.7255
 3785SOL    HW222815   4.122   0.046   8.385  0.0322  0.4726  0.2033
 3786SOL     OW22816   3.475   3.899  13.713  0.2013 -0.3893 -0.0094
 3786SOL    HW122817   3.439   3.973  13.762  0.3194 -1.3429  1.4930
 3786SOL    HW222818   3.522   3.862  13.788  0.3697  1.6888  0.9115
 3787SOL     OW22819   1.826   4.158   6.709  0.0362  0.2358  0.1693
 3787SOL    HW122820   1.735   4.174   6.683 -0.0642  0.4466  0.6547
 3787SOL    HW222821   1.841   4.213   6.786 -1.3533  0.4878  0.2602
 3788SOL     OW22822   1.848   1.939   3.466  0.2020 -0.3082 -0.0457
 3788SOL    HW122823   1.845   1.844   3.462 -3.3524 -0.2409  1.2143
 3788SOL    HW222824   1.924   1.966   3.415 -0.4582  0.0157 -0.8584
 3789SOL     OW22825   2.148   3.023   3.996  0.0827  0.6400 -0.0271
 3789SOL    HW122826   2.152   3.010   3.901 -0.8301  0.4554 -0.0443
 3789SOL    HW222827   2.209   3.096   4.005  0.9387 -0.4419  2.9504
 3790SOL     OW22828   0.950   1.473   0.909 -0.7936 -0.1916 -0.2026
 3790SOL    HW122829   0.864   1.447   0.944 -0.2952  0.4073  1.4622
 3790SOL    HW222830   0.930   1.551   0.858 -0.4840 -1.3686 -2.1019
 3791SOL     OW22831   2.813   3.347   6.131  0.2837 -0.0959 -0.3049
 3791SOL    HW122832   2.831   3.311   6.218 -0.0722 -0.1320 -0.2475
 3791SOL    HW222833   2.803   3.439   6.153  1.4791 -0.0343  0.0016
 3792SOL     OW22834   3.592   4.668   7.514 -0.3810  0.0739  0.3187
 3792SOL    HW122835   3.535   0.015   7.480 -1.6818 -0.8993  0.4957
 3792SOL    HW222836   3.678   4.687   7.477 -0.6085  0.5806  0.0454
 3793SOL     OW22837   2.147   4.155   2.007  0.2976  0.2238 -0.2698
 3793SOL    HW122838   2.242   4.162   2.019  0.0791  2.3752  0.2584
 3793SOL    HW222839   2.146   4.071   1.961 -1.9897  0.8207 -1.2681
 3794SOL     OW22840   4.632   2.790   2.389  0.7350  0.5755 -0.2596
 3794SOL    HW122841   4.570   2.840   2.443 -1.4148 -2.5751  0.2025
 3794SOL    HW222842   4.702   2.762   2.447 -0.5229  0.6404  1.3014
 3795SOL     OW22843   3.580   3.098  15.749  0.1163  0.1472 -0.1885
 3795SOL    HW122844   3.524   3.051  15.811 -0.3925  2.8335  1.3824
 3795SOL    HW222845   3.599   3.175  15.803 -0.2539 -0.3600  0.6628
 3796SOL     OW22846   1.883   3.540   2.409  0.0358 -0.2018  0.7139
 3796SOL    HW122847   1.972   3.518   2.381 -0.2918 -0.2925 -0.2426
 3796SOL    HW222848   1.851   3.450   2.415  0.1243 -0.2786  0.0404
 3797SOL     OW22849   3.643   3.305   6.465  0.2555 -0.2448  0.0215
 3797SOL    HW122850   3.731   3.315   6.430  0.6346 -1.7339  0.5711
 3797SOL    HW222851   3.643   3.383   6.522  1.1724 -0.5318  0.4054
 3798SOL     OW22852   3.275   0.083   3.173 -0.2286 -0.1227  0.2997
 3798SOL    HW122853   3.246   0.131   3.096 -2.8035  0.8128  1.8367
 3798SOL    HW222854   3.335   0.022   3.131  2.0220  2.8691 -0.8221
 3799SOL     OW22855   2.567   2.563  17.316  0.0106 -0.0520  0.4891
 3799SOL    HW122856   2.592   2.607  17.234  0.4953 -2.8039 -0.8235
 3799SOL    HW222857   2.623   2.486  17.308 -0.1842 -0.1258 -0.1772
 3800SOL     OW22858   2.733   2.005   9.881  0.0047  0.1547 -0.0540
 3800SOL    HW122859   2.777   1.948   9.945 -0.8823 -1.2014 -0.6598
 3800SOL    HW222860   2.672   1.945   9.838 -0.7301  1.4734 -0.8230
 3801SOL     OW22861   1.880   1.639  14.756  0.5042 -0.2401 -0.1159
 3801SOL    HW122862   1.918   1.715  14.712 -0.5694  0.0570 -0.5431
 3801SOL    HW222863   1.805   1.686  14.792  2.8874  3.6031 -0.1722
 3802SOL     OW22864   1.759   0.749   3.630 -0.1519  0.2931 -0.2943
 3802SOL    HW122865   1.715   0.674   3.590 -0.2790  0.0048  0.3850
 3802SOL    HW222866   1.718   0.826   3.589 -1.1184 -0.2404 -0.3268
 3803SOL     OW22867   0.204   2.404   5.007  0.3639 -0.1014  0.0946
 3803SOL    HW122868   0.222   2.497   4.993 -0.2285 -0.0014  0.0150
 3803SOL    HW222869   0.114   2.403   4.973  0.9101  2.9163 -1.4387
 3804SOL     OW22870   1.175   1.133   3.440 -0.1372  0.4896  0.6751
 3804SOL    HW122871   1.086   1.137   3.474  0.2517  1.4234  1.5672
 3804SOL    HW222872   1.228   1.132   3.519 -2.1505 -0.5117  2.0101
 3805SOL     OW22873   0.702   3.672   4.141  0.7860 -0.1768  0.5706
 3805SOL    HW122874   0.699   3.674   4.045 -1.3325 -1.2630  0.6020
 3805SOL    HW222875   0.660   3.588   4.160  0.4628 -0.5398 -1.7358
 3806SOL     OW22876   3.988   4.516  16.999 -0.3132 -0.1331 -0.2517
 3806SOL    HW122877   4.036   4.515  17.082  0.6148 -0.1177 -0.7945
 3806SOL    HW222878   3.935   4.441  17.029 -0.5815 -0.4774 -1.5850
 3807SOL     OW22879   2.364   4.307   1.517  0.6404 -0.3102 -0.0353
 3807SOL    HW122880   2.395   4.339   1.432 -0.1364  0.4261 -0.0357
 3807SOL    HW222881   2.403   4.374   1.574  1.5488 -0.9927  0.1541
 3808SOL     OW22882   0.391   1.629   5.692  0.1939 -0.2378  0.6152
 3808SOL    HW122883   0.464   1.680   5.658 -0.5397  0.8907  0.7239
 3808SOL    HW222884   0.320   1.664   5.638  1.4756  1.6434  0.1560
 3809SOL     OW22885   2.737   0.327   6.810 -0.3800  0.4479  0.2971
 3809SOL    HW122886   2.706   0.271   6.739 -0.0868 -0.0183  0.5288
 3809SOL    HW222887   2.740   0.262   6.880  0.0400 -2.4731 -2.4270
 3810SOL     OW22888   1.938   4.473   8.933  0.0618 -0.3038  0.1359
 3810SOL    HW122889   1.987   4.535   8.880 -2.0916 -0.8109 -2.4256
 3810SOL    HW222890   1.848   4.487   8.903  0.0741 -1.8025 -0.6079
 3811SOL     OW22891   2.859   4.049   5.292  1.1080 -0.2577  0.1460
 3811SOL    HW122892   2.909   4.129   5.307 -1.4768  1.1162  1.2985
 3811SOL    HW222893   2.792   4.051   5.361  2.1132  0.1231  1.1198
 3812SOL     OW22894   1.164   4.708   7.306 -0.0121 -0.7461  0.1645
 3812SOL    HW122895   1.199   0.072   7.329  2.6255 -1.2747 -1.8287
 3812SOL    HW222896   1.219   4.687   7.231 -0.3510  1.6781 -0.7489
 3813SOL     OW22897   3.371   1.629   0.528 -0.2461 -0.4377 -0.2322
 3813SOL    HW122898   3.332   1.653   0.444 -1.2720  1.1336  0.6876
 3813SOL    HW222899   3.442   1.692   0.544 -2.1767  1.1689  2.1070
 3814SOL     OW22900   2.129   0.648  16.930  0.6762  0.2063 -0.2008
 3814SOL    HW122901   2.184   0.608  16.863 -0.7815 -2.3615  0.1186
 3814SOL    HW222902   2.046   0.618  16.894 -0.3151 -0.1834  2.3828
 3815SOL     OW22903   0.877   4.613   8.468  0.3017 -0.3280  0.0983
 3815SOL    HW122904   0.831   4.593   8.387  1.5573 -0.9894 -0.4604
 3815SOL    HW222905   0.957   4.640   8.423  0.3016 -1.2040 -0.4450
 3816SOL     OW22906   0.777   0.125  16.124  0.1416 -0.3053 -0.2562
 3816SOL    HW122907   0.746   0.096  16.210 -1.7913 -1.8697 -1.5047
 3816SOL    HW222908   0.714   0.082  16.066 -0.8215  0.9773 -0.1567
 3817SOL     OW22909   3.875   1.480   6.809 -0.4381  0.0813 -0.0500
 3817SOL    HW122910   3.938   1.428   6.759  1.4415  0.1471  2.2368
 3817SOL    HW222911   3.923   1.491   6.891 -0.0553 -0.1795 -0.2423
 3818SOL     OW22912   4.692   0.621   0.874  0.4079  0.2694  0.4925
 3818SOL    HW122913   4.655   0.534   0.857 -0.9583  0.7763  0.8701
 3818SOL    HW222914   4.688   0.610   0.969 -0.3473 -5.2734 -0.1425
 3819SOL     OW22915   1.443   0.224   2.431  0.6060 -0.0161  0.0833
 3819SOL    HW122916   1.534   0.226   2.458 -0.6095  0.8726  4.1058
 3819SOL    HW222917   1.407   0.297   2.481 -0.8231  0.3779 -1.5165
 3820SOL     OW22918   4.552   1.077   6.043  0.3493 -0.3273  0.0943
 3820SOL    HW122919   4.481   1.054   6.102 -0.5720  0.5881 -0.6674
 3820SOL    HW222920   4.585   0.993   6.011  2.1830  1.3601 -2.5374
 3821SOL     OW22921   4.693   1.850   5.348  0.3700  0.1180  0.0198
 3821SOL    HW122922   0.015   1.779   5.303 -1.9134  0.0350 -2.1170
 3821SOL    HW222923   4.629   1.808   5.405  0.9242  0.7339  1.0974
 3822SOL     OW22924   0.997   0.815  14.736  0.3507  0.0968 -0.0434
 3822SOL    HW122925   1.040   0.734  14.710 -0.1694 -0.0621 -0.4198
 3822SOL    HW222926   1.058   0.884  14.714 -0.5786  0.3783 -1.7437
 3823SOL     OW22927   2.349   4.285   2.338 -0.5200 -0.1912 -0.7552
 3823SOL    HW122928   2.289   4.351   2.304 -0.9818 -0.7078 -0.9509
 3823SOL    HW222929   2.302   4.207   2.309 -1.2614 -0.0683  0.1233
 3824SOL     OW22930   2.118   3.735  12.149 -0.0830 -0.2301 -0.5282
 3824SOL    HW122931   2.079   3.783  12.076 -0.8664  0.3437  0.2596
 3824SOL    HW222932   2.105   3.789  12.227 -0.6612 -2.3503  0.8740
 3825SOL     OW22933   4.043   4.074  13.269 -0.2896 -0.4677 -0.2686
 3825SOL    HW122934   4.037   4.121  13.352 -1.9170  2.7190 -2.1901
 3825SOL    HW222935   4.021   3.983  13.287 -1.7529 -0.5511 -2.4390
 3826SOL     OW22936   2.079   1.206  15.784  0.4219 -0.1650  0.1687
 3826SOL    HW122937   2.022   1.217  15.860  0.9472 -2.5113  0.9259
 3826SOL    HW222938   2.124   1.125  15.809 -2.2081 -1.8236 -0.4060
 3827SOL     OW22939   0.882   3.258   7.405  0.1760  0.7179  0.2320
 3827SOL    HW122940   0.899   3.346   7.437 -2.0111  2.1228 -2.4615
 3827SOL    HW222941   0.860   3.205   7.482 -2.0541  1.6854  0.2587
 3828SOL     OW22942   2.182   1.400   7.686  0.5311 -0.0568  0.3593
 3828SOL    HW122943   2.212   1.454   7.759  1.7000 -0.5035  0.2157
 3828SOL    HW222944   2.134   1.328   7.727 -0.7206 -0.5815 -2.0026
 3829SOL     OW22945   0.939   4.043  15.923 -0.0844 -0.0524  0.5938
 3829SOL    HW122946   0.869   4.100  15.955 -2.0891 -0.8625 -2.3675
 3829SOL    HW222947   0.949   3.966  15.978 -0.3422  0.7863  1.8328
 3830SOL     OW22948   0.623   0.378  16.199  0.6627  0.0784  0.0903
 3830SOL    HW122949   0.620   0.289  16.164  1.1715  0.7798 -1.7621
 3830SOL    HW222950   0.697   0.420  16.154  0.9116  1.3327  1.7030
 3831SOL     OW22951   0.584   3.504   9.186 -0.1116 -0.3024  0.1891
 3831SOL    HW122952   0.525   3.569   9.146  1.8959  0.9326 -0.7280
 3831SOL    HW222953   0.542   3.479   9.268  0.6913 -2.1822  0.0149
 3832SOL     OW22954   4.241   3.898  10.572  0.8110 -0.5775  0.1545
 3832SOL    HW122955   4.239   3.829  10.638 -0.7789  0.6737  1.4237
 3832SOL    HW222956   4.172   3.864  10.514  0.7480 -0.3473  0.0935
 3833SOL     OW22957   0.852   1.841   8.772  0.0996 -0.5212 -0.3330
 3833SOL    HW122958   0.850   1.930   8.807 -1.7515  0.6159 -3.3753
 3833SOL    HW222959   0.910   1.791   8.829  1.5755 -0.6643 -1.9829
 3834SOL     OW22960   4.531   0.556  11.267  0.0589  0.0988 -0.1471
 3834SOL    HW122961   4.590   0.584  11.337  0.1912  2.4296 -1.1971
 3834SOL    HW222962   4.560   0.599  11.187 -2.2622 -1.1240 -1.6554
 3835SOL     OW22963   0.226   1.390   0.038  0.0945 -1.0708 -0.0316
 3835SOL    HW122964   0.151   1.430  17.686  0.0115 -1.1599  0.0297
 3835SOL    HW222965   0.254   1.343  17.651  0.3556  0.0668 -0.6270
 3836SOL     OW22966   4.296   2.685   3.173  0.5476  0.1970 -0.1828
 3836SOL    HW122967   4.230   2.726   3.229 -0.1553 -1.7039  0.3933
 3836SOL    HW222968   4.349   2.653   3.245  1.0490  1.1705 -0.1192
 3837SOL     OW22969   3.017   4.015   8.773  0.1178 -0.0538 -0.2557
 3837SOL    HW122970   3.100   3.984   8.738  0.8239  0.3082  1.1017
 3837SOL    HW222971   2.953   3.969   8.719  0.0349 -1.5749  1.1047
 3838SOL     OW22972   2.457   3.960   3.411 -0.2182  0.9504 -0.1142
 3838SOL    HW122973   2.480   3.993   3.324  0.1501  0.2130 -0.2926
 3838SOL    HW222974   2.378   3.912   3.385  0.8224 -0.6566 -0.2699
 3839SOL     OW22975   2.467   2.964   2.025  0.0516 -0.4177  0.2211
 3839SOL    HW122976   2.557   2.966   2.057  0.7616  2.0598 -1.9483
 3839SOL    HW222977   2.442   2.871   2.025 -1.1559 -0.0860 -2.0973
 3840SOL     OW22978   2.301   4.323   2.667  0.2214  0.4092  0.0914
 3840SOL    HW122979   2.344   4.308   2.583  1.1180 -2.3060  1.0216
 3840SOL    HW222980   2.250   4.398   2.638 -0.8760 -1.3366 -2.4293
 3841SOL     OW22981   4.627   0.783   8.209  0.1921 -0.2820  0.2125
 3841SOL    HW122982   4.691   0.818   8.272 -0.1040 -0.5630  0.6639
 3841SOL    HW222983   4.664   0.828   8.133  3.0861  0.8718  2.2777
 3842SOL     OW22984   1.191   2.378  11.439  0.2783  0.0795 -0.1236
 3842SOL    HW122985   1.229   2.299  11.401 -0.9161  0.1530 -1.4626
 3842SOL    HW222986   1.157   2.343  11.521 -0.4540  0.1911 -0.3750
 3843SOL     OW22987   3.676   1.373   2.677  0.1340 -0.3790  0.4502
 3843SOL    HW122988   3.604   1.435   2.661  0.3396 -0.2689 -0.0643
 3843SOL    HW222989   3.759   1.421   2.671 -0.1618  0.3039  1.8700
 3844SOL     OW22990   1.259   1.152   1.782 -0.0663 -0.3523 -0.0254
 3844SOL    HW122991   1.348   1.144   1.747 -0.2622  1.2430 -0.9091
 3844SOL    HW222992   1.243   1.062   1.810  0.3564 -1.2215 -2.6268
 3845SOL     OW22993   4.010   0.287   3.752 -0.3658 -0.4849 -0.4958
 3845SOL    HW122994   4.054   0.240   3.822 -1.9811 -1.3767 -0.0821
 3845SOL    HW222995   3.951   0.343   3.803  1.2331  2.4384 -1.8552
 3846SOL     OW22996   0.494   4.157   0.936  0.7207  0.0412 -0.1739
 3846SOL    HW122997   0.513   4.133   0.846  0.8576  0.8589 -0.3610
 3846SOL    HW222998   0.451   4.241   0.921 -0.7343 -0.8498 -1.0041
 3847SOL     OW22999   0.666   2.132  13.097  0.0858  0.4956  0.1414
 3847SOL    HW123000   0.743   2.082  13.074  1.4196  2.9913 -0.8672
 3847SOL    HW223001   0.633   2.093  13.178 -1.1909  2.4109  0.5568
 3848SOL     OW23002   4.463   2.602   8.987  0.2952 -0.0000 -0.2121
 3848SOL    HW123003   4.527   2.541   8.950  1.4396 -0.0117  1.8195
 3848SOL    HW223004   4.380   2.554   8.991  0.3898  0.1999  3.3743
 3849SOL     OW23005   2.957   4.028  10.351 -0.0770  0.2491  0.0021
 3849SOL    HW123006   2.928   3.952  10.300  1.0227 -1.3985  1.8170
 3849SOL    HW223007   2.998   3.985  10.426 -0.1868  1.8819  0.9747
 3850SOL     OW23008   0.383   2.951   6.862  0.1119  0.3853  0.1063
 3850SOL    HW123009   0.382   2.976   6.955  0.6735 -1.1457  0.5347
 3850SOL    HW223010   0.356   3.029   6.814 -0.0684 -1.0421 -2.1177
 3851SOL     OW23011   4.675   2.604  12.920  0.0507  0.1198 -0.1956
 3851SOL    HW123012   4.674   2.539  12.990 -0.2378  1.3545  0.9448
 3851SOL    HW223013   4.594   2.643  12.952  1.4258  3.1358 -0.2905
 3852SOL     OW23014   1.798   0.182   6.468  0.8159 -0.3275  0.8205
 3852SOL    HW123015   1.774   0.218   6.553 -1.8100 -2.3131  0.9476
 3852SOL    HW223016   1.890   0.158   6.482  0.8978  0.0640  0.9325
 3853SOL     OW23017   0.743   1.703   3.724  0.4540  0.0969  0.3271
 3853SOL    HW123018   0.723   1.688   3.816 -1.9262 -0.9244 -0.3681
 3853SOL    HW223019   0.760   1.797   3.712  4.4676 -0.5575  0.6961
 3854SOL     OW23020   1.547   2.165   9.081 -0.2826 -0.1494 -0.3688
 3854SOL    HW123021   1.591   2.220   9.016 -0.3206 -0.2395 -0.4710
 3854SOL    HW223022   1.469   2.146   9.029  0.6609 -1.8765 -1.1741
 3855SOL     OW23023   0.784   4.702  16.940  0.1791 -0.0041 -0.3300
 3855SOL    HW123024   0.754   0.045  17.003  0.5700  1.1742 -1.3726
 3855SOL    HW223025   0.705   4.651  16.925  0.7040 -0.6243 -0.9828
 3856SOL     OW23026   2.735   2.388   8.051  0.2614  0.0322  0.4904
 3856SOL    HW123027   2.787   2.452   8.100 -0.9390  0.2101  1.5259
 3856SOL    HW223028   2.801   2.319   8.048 -0.4409 -0.5494 -1.2842
 3857SOL     OW23029   4.684   4.109   7.630  0.3127  0.5812 -0.3059
 3857SOL    HW123030   0.013   4.054   7.571 -0.0568 -0.3419  0.2342
 3857SOL    HW223031   4.661   4.045   7.697 -2.1762  1.6848 -0.1017
 3858SOL     OW23032   2.445   3.709   9.244  0.0238 -0.2433  0.0090
 3858SOL    HW123033   2.354   3.719   9.270 -0.3047  0.7371 -1.4678
 3858SOL    HW223034   2.455   3.619   9.215 -1.1199 -0.9389  1.8245
 3859SOL     OW23035   0.107   0.300   4.251 -0.1647  0.4202 -0.3938
 3859SOL    HW123036   0.100   0.207   4.273 -1.6103  0.3885 -0.9659
 3859SOL    HW223037   0.151   0.293   4.167 -1.5069 -2.4526 -0.8843
 3860SOL     OW23038   1.714   4.561   3.653 -0.2380 -0.6898  0.0735
 3860SOL    HW123039   1.688   4.552   3.562 -1.6432  3.0617  0.0843
 3860SOL    HW223040   1.714   4.657   3.652  1.6488 -0.6981 -1.8075
 3861SOL     OW23041   4.408   4.601  13.115 -0.2867  0.3082  0.1174
 3861SOL    HW123042   4.313   4.601  13.127 -0.2863 -0.0524  0.1075
 3861SOL    HW223043   4.438   4.647  13.194 -0.9691  0.6679  0.1688
 3862SOL     OW23044   2.628   3.606   4.313  0.2930  0.0493 -0.3946
 3862SOL    HW123045   2.558   3.569   4.260 -0.5964  1.1204  0.0333
 3862SOL    HW223046   2.592   3.583   4.399  1.1129 -0.8216 -0.2812
 3863SOL     OW23047   4.561   1.844   2.625 -0.8031  0.4085 -0.2375
 3863SOL    HW123048   4.511   1.835   2.544 -1.8414  2.3505  0.1892
 3863SOL    HW223049   4.484   1.828   2.680  2.1405  0.3404  3.8742
 3864SOL     OW23050   1.309   1.217   0.818 -0.3587  0.2347  0.9534
 3864SOL    HW123051   1.329   1.297   0.769 -0.5653 -1.2072 -1.4978
 3864SOL    HW223052   1.380   1.161   0.787  1.2910  3.0475 -0.4363
 3865SOL     OW23053   0.616   1.059  11.026  0.2819  0.4090  0.1922
 3865SOL    HW123054   0.619   1.136  11.083  1.1046 -0.2842  1.0813
 3865SOL    HW223055   0.645   0.990  11.086  2.5131  0.6317 -0.6486
 3866SOL     OW23056   2.057   2.763   1.570  0.3824  0.6320  0.2328
 3866SOL    HW123057   2.076   2.857   1.579  1.7615  0.2162  1.4153
 3866SOL    HW223058   2.127   2.720   1.618 -1.3150 -0.5058  1.7088
 3867SOL     OW23059   0.026   3.207   2.081  0.2877  0.3018 -0.0170
 3867SOL    HW123060   4.662   3.211   2.121 -0.6386  0.8781 -2.0628
 3867SOL    HW223061   0.061   3.119   2.095 -0.4094  0.0784  0.3022
 3868SOL     OW23062   3.129   3.834  14.865  0.5476 -0.1778  0.3470
 3868SOL    HW123063   3.163   3.900  14.806  0.0110  0.6222  0.9387
 3868SOL    HW223064   3.148   3.880  14.946  2.3253 -0.3185  0.0004
 3869SOL     OW23065   2.873   0.736   6.847 -0.2902 -0.2164  0.0180
 3869SOL    HW123066   2.901   0.777   6.929  0.3862  0.4363 -0.5488
 3869SOL    HW223067   2.830   0.812   6.808  0.1607  0.9835  1.8586
 3870SOL     OW23068   1.294   1.721   6.698 -0.7618 -0.2164 -0.6619
 3870SOL    HW123069   1.290   1.685   6.787  0.1039 -0.0969 -0.5718
 3870SOL    HW223070   1.361   1.787   6.713  2.0461 -3.1123 -0.3319
 3871SOL     OW23071   1.308   0.007   5.636 -0.2250  0.5760 -0.2951
 3871SOL    HW123072   1.354   4.715   5.552  0.8570 -1.1469  0.5839
 3871SOL    HW223073   1.337   0.093   5.667 -1.4736  1.1517 -0.7424
 3872SOL     OW23074   1.487   4.264   1.672  0.4824 -0.1516 -0.0640
 3872SOL    HW123075   1.428   4.189   1.681  0.9154 -0.0998  3.2578
 3872SOL    HW223076   1.426   4.319   1.623  0.9591  0.6004  0.1968
 3873SOL     OW23077   2.232   4.614   3.811  0.1647 -0.2263  0.0322
 3873SOL    HW123078   2.191   4.700   3.818 -1.3891 -1.0968  1.6949
 3873SOL    HW223079   2.179   4.566   3.749 -0.4556 -2.3335  2.1760
 3874SOL     OW23080   2.478   4.286  14.913 -0.0927  0.1985  0.8451
 3874SOL    HW123081   2.397   4.259  14.870  0.6379 -1.1753  0.3242
 3874SOL    HW223082   2.433   4.318  14.992 -0.2135  0.8536  0.5028
 3875SOL     OW23083   2.133   2.943   3.750 -0.4100 -0.4609 -0.2640
 3875SOL    HW123084   2.070   2.872   3.734  0.9182 -1.4980 -0.8685
 3875SOL    HW223085   2.127   2.987   3.665  2.3678  0.4640  0.0066
 3876SOL     OW23086   1.751   3.266  15.748 -0.2795 -0.2786  0.0546
 3876SOL    HW123087   1.661   3.267  15.713  0.1058  1.1757 -0.9226
 3876SOL    HW223088   1.792   3.215  15.679 -0.2898 -0.3275  0.0845
 3877SOL     OW23089   1.224   3.891  15.862  0.0621 -0.2430 -0.0855
 3877SOL    HW123090   1.307   3.885  15.910  0.8869 -1.7088 -1.7126
 3877SOL    HW223091   1.168   3.867  15.937 -0.1608  0.1275 -0.1322
 3878SOL     OW23092   0.639   3.652   7.900 -0.2535  0.2255 -0.2467
 3878SOL    HW123093   0.550   3.622   7.880 -0.5169  0.2098  0.9588
 3878SOL    HW223094   0.634   3.738   7.858  3.5461  0.8525  0.6186
 3879SOL     OW23095   4.443   4.065   2.161  0.1065  0.7026 -0.7053
 3879SOL    HW123096   4.510   4.002   2.133 -0.5069  0.0003 -0.5943
 3879SOL    HW223097   4.389   4.070   2.082  0.6797  0.0606 -1.1400
 3880SOL     OW23098   1.208   4.196  15.981  0.5684  0.1193  0.0961
 3880SOL    HW123099   1.235   4.214  15.891  0.8788 -2.1862 -0.2734
 3880SOL    HW223100   1.174   4.107  15.970 -0.3263  0.3567  0.8585
 3881SOL     OW23101   3.070   0.623   3.783 -0.4555 -0.4800  0.7293
 3881SOL    HW123102   3.073   0.696   3.844  1.6731 -1.1917  1.4899
 3881SOL    HW223103   2.990   0.579   3.813 -0.1218  1.3109  4.2648
 3882SOL     OW23104   0.154   0.433  15.486  0.3673 -0.0074  0.4796
 3882SOL    HW123105   0.127   0.459  15.574 -2.2663 -2.3435  0.3543
 3882SOL    HW223106   0.098   0.358  15.465  1.9342 -1.0497  0.0388
 3883SOL     OW23107   1.606   3.044   4.090  0.6768 -0.4208  0.9227
 3883SOL    HW123108   1.670   3.058   4.021 -0.3805 -0.8539 -0.1405
 3883SOL    HW223109   1.563   3.129   4.096 -1.3258 -1.4433  0.9858
 3884SOL     OW23110   2.729   0.247   0.877  0.0907 -0.0389 -0.1899
 3884SOL    HW123111   2.703   0.246   0.785 -0.5474  2.1434 -0.0287
 3884SOL    HW223112   2.706   0.156   0.894 -1.8852  0.1206 -2.0255
 3885SOL     OW23113   0.163   3.180   4.532 -0.3979 -0.8282 -0.2627
 3885SOL    HW123114   0.079   3.160   4.574  0.5178  1.4546  2.5844
 3885SOL    HW223115   0.142   3.212   4.444 -2.7339 -0.0473  0.5758
 3886SOL     OW23116   0.610   2.938   6.342 -0.0150 -0.2458 -0.0317
 3886SOL    HW123117   0.637   3.026   6.315  0.7144 -0.2501  0.6843
 3886SOL    HW223118   0.518   2.939   6.315 -0.2742  0.6215  0.8765
 3887SOL     OW23119   4.598   1.848  12.687 -0.3202 -0.2110  0.2231
 3887SOL    HW123120   4.601   1.766  12.736 -1.4409 -0.6160 -0.4013
 3887SOL    HW223121   4.506   1.853  12.663 -0.5399 -3.0410  0.4578
 3888SOL     OW23122   2.059   1.311   3.639 -0.0974  0.2556 -0.0335
 3888SOL    HW123123   2.095   1.277   3.721  0.5184 -4.4339 -2.2508
 3888SOL    HW223124   1.974   1.267   3.631  0.0303 -0.1427  0.7320
 3889SOL     OW23125   1.390   3.597   2.317 -0.0210 -0.0469  0.5569
 3889SOL    HW123126   1.448   3.645   2.257  1.4933 -0.6213  1.5777
 3889SOL    HW223127   1.450   3.545   2.371  1.4814  1.1553  0.0602
 3890SOL     OW23128   3.025   3.614   8.537 -0.3944 -0.0273  0.5633
 3890SOL    HW123129   3.104   3.619   8.591 -0.1810 -0.7163  0.3061
 3890SOL    HW223130   2.988   3.700   8.558  1.2014  0.9373 -0.6176
 3891SOL     OW23131   0.008   2.607   6.710 -0.2177  0.9427  0.2938
 3891SOL    HW123132   4.647   2.603   6.664  0.1203 -0.7690 -0.1549
 3891SOL    HW223133   0.043   2.680   6.660  2.7315 -1.3510 -1.0520
 3892SOL     OW23134   1.356   3.705  16.594 -0.2081  0.1634  0.2711
 3892SOL    HW123135   1.445   3.740  16.594 -0.5735  1.0989 -1.8648
 3892SOL    HW223136   1.318   3.786  16.559 -3.6178 -2.6029 -2.4504
 3893SOL     OW23137   4.136   0.189   4.900  0.0142  0.5417 -0.4359
 3893SOL    HW123138   4.150   0.096   4.881 -1.4304  0.6805 -2.2054
 3893SOL    HW223139   4.155   0.229   4.815 -1.8809 -0.1857 -1.1948
 3894SOL     OW23140   3.073   2.676  12.097 -0.3319 -0.3476  0.4816
 3894SOL    HW123141   3.013   2.748  12.077 -0.8267 -1.3299 -1.5252
 3894SOL    HW223142   3.053   2.614  12.027  3.1684  1.3788 -2.0217
 3895SOL     OW23143   1.789   2.793  15.488  0.0130 -0.0837 -0.1145
 3895SOL    HW123144   1.819   2.838  15.567 -1.3194  1.0627 -0.2570
 3895SOL    HW223145   1.694   2.801  15.491  0.0890  0.5785  0.6357
 3896SOL     OW23146   3.187   0.239   2.983 -0.1913  0.3935 -0.0087
 3896SOL    HW123147   3.093   0.244   2.968 -0.3083  0.6133  0.8045
 3896SOL    HW223148   3.208   0.324   2.944  0.3775  0.1174 -0.3105
 3897SOL     OW23149   2.459   3.895  11.630 -0.3882  0.1472  0.5687
 3897SOL    HW123150   2.390   3.888  11.564 -0.4685  1.5649  0.5019
 3897SOL    HW223151   2.538   3.921  11.582 -0.6514 -0.2091 -0.0563
 3898SOL     OW23152   2.482   3.016   6.726 -0.4878  0.2635 -0.2939
 3898SOL    HW123153   2.507   2.930   6.760  1.7310  0.6189 -1.0200
 3898SOL    HW223154   2.462   3.053   6.812  0.0482 -0.1873  0.0278
 3899SOL     OW23155   0.286   1.711   2.637  0.1008  0.4744 -0.1548
 3899SOL    HW123156   0.309   1.774   2.706  0.6921 -0.6837  0.7152
 3899SOL    HW223157   0.215   1.763   2.600 -0.2498 -0.4139 -0.7342
 3900SOL     OW23158   1.927   2.597   5.942  0.1163  0.1737  0.0863
 3900SOL    HW123159   2.016   2.566   5.963  0.8185  2.0470 -0.1316
 3900SOL    HW223160   1.926   2.560   5.853  1.0057 -1.8800  0.9252
 3901SOL     OW23161   2.742   4.629  12.693 -0.0926  0.2313 -0.4270
 3901SOL    HW123162   2.792   4.664  12.767  1.0786  0.0156 -1.1147
 3901SOL    HW223163   2.796   4.656  12.619  1.7581  2.8310  1.8721
 3902SOL     OW23164   1.972   1.707  17.227 -0.5649 -0.1671 -0.0977
 3902SOL    HW123165   2.034   1.697  17.299 -0.1072  1.2117 -0.2947
 3902SOL    HW223166   1.994   1.798  17.208 -0.6242  0.7778  4.2643
 3903SOL     OW23167   1.424   1.738   2.774 -0.2906 -0.1169 -0.2566
 3903SOL    HW123168   1.396   1.657   2.816  0.9808 -1.1674 -1.4390
 3903SOL    HW223169   1.385   1.723   2.688 -2.0114  0.7391  0.3739
 3904SOL     OW23170   4.111   0.214   2.053 -0.1391 -0.6307 -0.6480
 3904SOL    HW123171   4.022   0.246   2.039  0.1105  0.1255 -0.5020
 3904SOL    HW223172   4.117   0.150   1.982  0.0076  1.2118 -2.2892
 3905SOL     OW23173   1.366   2.319   4.706 -0.4791  0.2514  0.1406
 3905SOL    HW123174   1.412   2.323   4.622  0.0156 -1.1567  0.3636
 3905SOL    HW223175   1.295   2.375   4.672 -0.4220  1.8730  2.6860
 3906SOL     OW23176   2.102   0.708   2.167  0.5939  0.5520  0.5901
 3906SOL    HW123177   2.165   0.665   2.224 -0.3701 -1.3011  0.2504
 3906SOL    HW223178   2.149   0.791   2.163 -1.2081  1.4358 -2.3076
 3907SOL     OW23179   1.193   2.023   2.060 -0.0703  0.4501 -0.1991
 3907SOL    HW123180   1.287   2.028   2.040 -0.3882  3.9540 -0.8645
 3907SOL    HW223181   1.191   2.079   2.138  1.8337  0.6148 -0.2540
 3908SOL     OW23182   1.201   0.002   9.196 -0.2671 -0.2294 -0.5042
 3908SOL    HW123183   1.114   0.031   9.167 -0.4225 -2.0841 -1.8612
 3908SOL    HW223184   1.245   0.072   9.245  0.5270 -3.1777  3.0450
 3909SOL     OW23185   1.754   3.755   6.252 -0.6921  0.2861 -0.0434
 3909SOL    HW123186   1.691   3.712   6.193 -2.4729  1.9458  0.6396
 3909SOL    HW223187   1.757   3.837   6.203  1.4528 -0.3966 -1.0407
 3910SOL     OW23188   0.307   2.335   4.582  0.2203  0.6104 -0.5484
 3910SOL    HW123189   0.367   2.322   4.655 -0.2756  1.3624 -0.0085
 3910SOL    HW223190   0.270   2.416   4.616  1.5835  1.5095 -1.1974
 3911SOL     OW23191   4.321   0.922  15.090  0.0171 -0.0520  0.0117
 3911SOL    HW123192   4.258   0.931  15.019  0.0126 -0.9175 -0.0934
 3911SOL    HW223193   4.298   0.992  15.151 -0.1954 -0.8317  0.8278
 3912SOL     OW23194   0.156   4.258  16.184 -0.4978  0.6982 -0.5274
 3912SOL    HW123195   0.195   4.191  16.127 -0.5231  0.4360 -0.2339
 3912SOL    HW223196   0.074   4.263  16.134  0.3347  1.0061 -1.8761
 3913SOL     OW23197   2.807   0.287   4.877 -0.9587  0.1322  0.0364
 3913SOL    HW123198   2.799   0.193   4.895  1.1170  0.2336  1.4848
 3913SOL    HW223199   2.759   0.316   4.955  0.9269 -0.5867  1.4686
 3914SOL     OW23200   0.557   0.198   8.880 -0.1698 -0.4388 -0.1039
 3914SOL    HW123201   0.533   0.229   8.793  1.8362 -2.9366 -1.5311
 3914SOL    HW223202   0.483   0.140   8.900 -1.8963  0.4681 -3.9986
 3915SOL     OW23203   1.133   0.803   5.163 -0.7208  0.3030 -0.0803
 3915SOL    HW123204   1.129   0.853   5.082 -0.7538  0.0051 -0.2589
 3915SOL    HW223205   1.039   0.812   5.179 -0.2168  0.1508  2.9939
 3916SOL     OW23206   2.671   0.960  10.093  0.0087  0.1000  0.0156
 3916SOL    HW123207   2.674   1.010  10.011  1.7850  0.7996  0.4934
 3916SOL    HW223208   2.609   0.890  10.075 -0.2950  0.8704 -1.9671
 3917SOL     OW23209   0.574   4.094   7.594  0.0299  0.5263 -0.1062
 3917SOL    HW123210   0.597   4.147   7.518 -0.3188 -0.5899 -0.9961
 3917SOL    HW223211   0.478   4.092   7.594  0.0554 -0.8733 -1.4596
 3918SOL     OW23212   2.238   0.366   7.389  0.3983 -0.1353 -0.1561
 3918SOL    HW123213   2.298   0.436   7.362  2.1850 -1.0696  1.3633
 3918SOL    HW223214   2.199   0.359   7.302  1.1000  1.9294 -0.6294
 3919SOL     OW23215   0.349   0.238   5.158 -0.0584  0.4938 -0.5224
 3919SOL    HW123216   0.441   0.235   5.130  0.7180 -0.1178  2.1127
 3919SOL    HW223217   0.309   0.185   5.089 -2.0522  2.5362 -0.9199
 3920SOL     OW23218   3.662   2.025   5.367 -0.0951  0.2164 -0.4664
 3920SOL    HW123219   3.612   2.023   5.449  0.6977  1.2724  0.0321
 3920SOL    HW223220   3.736   1.972   5.398 -1.1440 -1.5521 -0.9582
 3921SOL     OW23221   0.597   0.984  15.578 -0.2637 -0.0459 -0.2317
 3921SOL    HW123222   0.564   0.897  15.602 -0.5815 -0.0745 -0.7852
 3921SOL    HW223223   0.684   0.990  15.618  0.4597 -0.2528 -1.7787
 3922SOL     OW23224   0.031   0.848  12.725 -0.0645 -0.0371  0.8446
 3922SOL    HW123225   0.053   0.840  12.818  1.5406  0.0063  0.4613
 3922SOL    HW223226   4.668   0.891  12.734  0.6580  1.9627 -1.9360
 3923SOL     OW23227   4.205   2.593   6.159 -0.5053 -0.6038  0.1538
 3923SOL    HW123228   4.176   2.653   6.091 -0.8954 -0.9637  0.0064
 3923SOL    HW223229   4.243   2.516   6.117  0.5291  0.6578 -1.2278
 3924SOL     OW23230   1.628   1.002   2.448  0.0385  0.9112 -0.2732
 3924SOL    HW123231   1.713   1.040   2.469 -0.0913  0.8842  0.2975
 3924SOL    HW223232   1.569   1.063   2.493  1.5527  2.4225 -0.3212
 3925SOL     OW23233   4.012   4.646   7.203  0.2194  0.2325  0.0478
 3925SOL    HW123234   4.044   4.599   7.126  0.0672  1.3048 -0.6670
 3925SOL    HW223235   4.050   4.591   7.271  2.3723  1.3906 -0.2130
 3926SOL     OW23236   1.712   4.378   1.613 -0.0460 -0.1919 -0.0279
 3926SOL    HW123237   1.694   4.427   1.533 -4.3660  0.4691  1.3784
 3926SOL    HW223238   1.642   4.313   1.620 -0.8438  0.2858 -3.5339
 3927SOL     OW23239   0.716   0.627   9.180  0.2011  0.5020  0.7093
 3927SOL    HW123240   0.672   0.571   9.244  0.4134 -0.0710  0.3492
 3927SOL    HW223241   0.701   0.571   9.104  0.4216  1.6766 -0.2053
 3928SOL     OW23242   3.042   0.935   4.763 -0.3798  0.0445 -0.2264
 3928SOL    HW123243   3.078   0.901   4.845 -1.4351 -0.7605 -0.1090
 3928SOL    HW223244   2.987   1.001   4.806  0.2270 -0.1724  0.8887
 3929SOL     OW23245   3.615   3.571   4.758 -0.0936 -0.5157  0.0474
 3929SOL    HW123246   3.665   3.490   4.747  0.5929 -0.1607  0.5762
 3929SOL    HW223247   3.569   3.555   4.676  0.7056 -0.7644 -0.3596
 3930SOL     OW23248   4.164   4.403   6.154  0.0685  0.3508 -0.4164
 3930SOL    HW123249   4.205   4.319   6.137  0.9746  0.4970  0.9967
 3930SOL    HW223250   4.158   4.399   6.250  1.9222  2.8133 -0.1773
 3931SOL     OW23251   0.535   1.217   9.294  0.2213  0.1503  0.4097
 3931SOL    HW123252   0.457   1.212   9.239  0.2357 -1.0242  0.4836
 3931SOL    HW223253   0.534   1.125   9.321  2.5556 -0.3688 -1.3898
 3932SOL     OW23254   0.260   2.757   0.397  0.3046  0.0232 -0.0212
 3932SOL    HW123255   0.340   2.748   0.449 -0.7761  0.1238  1.6794
 3932SOL    HW223256   0.241   2.840   0.439  1.3902  0.2119  0.1014
 3933SOL     OW23257   0.945   0.559   6.665 -0.2732 -0.0454 -0.0769
 3933SOL    HW123258   0.987   0.496   6.606  0.7670  0.3618  0.2158
 3933SOL    HW223259   1.008   0.631   6.677  1.5680 -2.0261  2.3423
 3934SOL     OW23260   2.857   1.510   3.861  0.5621 -0.1756 -0.2643
 3934SOL    HW123261   2.894   1.486   3.945 -1.7306 -1.4262  0.3869
 3934SOL    HW223262   2.809   1.430   3.838  2.0913 -0.5465 -2.1421
 3935SOL     OW23263   2.384   0.548  16.734  0.1285  0.5722 -0.0804
 3935SOL    HW123264   2.369   0.471  16.679  0.9126 -0.8805  1.7415
 3935SOL    HW223265   2.447   0.601  16.686  1.1245  0.0484  0.6504
 3936SOL     OW23266   2.324   4.362  15.112  0.0243  0.3975 -0.5549
 3936SOL    HW123267   2.332   4.268  15.129 -0.5418  0.4226 -0.1248
 3936SOL    HW223268   2.322   4.402  15.199  0.9842 -0.2353 -0.2455
 3937SOL     OW23269   1.861   2.423   5.695 -0.0441 -0.2375  0.1442
 3937SOL    HW123270   1.804   2.402   5.621  0.6699 -2.6041  0.2563
 3937SOL    HW223271   1.833   2.354   5.755 -0.3856 -1.0772 -0.9825
 3938SOL     OW23272   4.056   0.774  14.104  0.4631 -0.1601 -0.2181
 3938SOL    HW123273   4.090   0.737  14.186 -0.1805  0.5947  0.3907
 3938SOL    HW223274   3.965   0.746  14.114  0.2604  0.3351 -0.6845
 3939SOL     OW23275   2.517   0.113   6.032  0.2249  0.2619 -0.2494
 3939SOL    HW123276   2.533   0.167   5.954 -1.4219 -0.6320 -1.2228
 3939SOL    HW223277   2.607   0.100   6.061 -0.2018  0.3228  1.0574
 3940SOL     OW23278   4.039   1.457   4.797 -0.8077 -0.3793  0.4955
 3940SOL    HW123279   4.036   1.552   4.810  2.3315 -0.0991 -1.0327
 3940SOL    HW223280   4.049   1.442   4.890  3.5458 -1.4315 -0.1553
 3941SOL     OW23281   2.561   3.058   2.647 -0.3597  0.3658  0.0440
 3941SOL    HW123282   2.611   3.007   2.712 -0.5460  0.0557 -0.0608
 3941SOL    HW223283   2.632   3.094   2.594 -1.3310  1.8315 -0.2498
 3942SOL     OW23284   1.529   1.170   2.667 -0.2376  0.0509 -0.4935
 3942SOL    HW123285   1.495   1.257   2.689  0.4004 -0.0313  0.8155
 3942SOL    HW223286   1.622   1.192   2.660 -0.3007  0.3457 -0.4014
 3943SOL     OW23287   3.658   3.850   7.275  0.5228  0.3351  0.2623
 3943SOL    HW123288   3.581   3.846   7.331  0.5348  0.2518  0.2724
 3943SOL    HW223289   3.674   3.944   7.260  1.0476  0.1738 -0.2056
 3944SOL     OW23290   0.358   1.061  13.166  0.2536 -0.1088  0.0693
 3944SOL    HW123291   0.387   1.028  13.082  0.9732  0.3039  0.1509
 3944SOL    HW223292   0.421   1.026  13.229  0.2468 -2.4988 -1.2900
 3945SOL     OW23293   0.629   4.679   4.533  0.2498  0.5759  0.0769
 3945SOL    HW123294   0.688   4.609   4.505 -1.5392  0.4006 -3.2329
 3945SOL    HW223295   0.547   4.631   4.531 -0.6845  2.2518 -2.1147
 3946SOL     OW23296   2.476   2.245   5.052 -0.2104 -0.0871 -0.3422
 3946SOL    HW123297   2.461   2.165   5.103 -2.1212  0.5163  0.0364
 3946SOL    HW223298   2.392   2.292   5.056 -0.5449 -0.8086  1.2128
 3947SOL     OW23299   0.301   1.375   5.325 -0.6397  0.2883  0.4273
 3947SOL    HW123300   0.289   1.344   5.414  1.9856 -0.4638  0.5091
 3947SOL    HW223301   0.393   1.400   5.332 -0.7046  0.7589 -0.3007
 3948SOL     OW23302   1.705   2.819   2.981 -0.4876  0.0457 -0.3202
 3948SOL    HW123303   1.698   2.812   3.076 -1.1984  0.6297 -0.3396
 3948SOL    HW223304   1.673   2.732   2.955 -0.8285 -0.4932  1.9289
 3949SOL     OW23305   0.527   2.881   9.340  0.4913  0.4617  0.2115
 3949SOL    HW123306   0.478   2.806   9.307  2.0129 -0.6369  0.4341
 3949SOL    HW223307   0.549   2.846   9.427  1.3896  0.3374 -0.0627
 3950SOL     OW23308   0.463   0.530   0.629 -0.0312 -0.4381 -0.1440
 3950SOL    HW123309   0.495   0.446   0.663  0.1946  0.2381  1.3044
 3950SOL    HW223310   0.380   0.534   0.677  0.9504  0.1441  1.4954
 3951SOL     OW23311   1.599   4.295   2.254  0.0224 -0.2738  0.8694
 3951SOL    HW123312   1.561   4.335   2.176  0.3792  0.9004  1.2998
 3951SOL    HW223313   1.521   4.258   2.296  0.1749 -0.5228  0.9384
 3952SOL     OW23314   1.642   0.370  10.198  0.4612  0.7131 -0.0977
 3952SOL    HW123315   1.579   0.438  10.221 -0.4749 -1.2902  3.3013
 3952SOL    HW223316   1.653   0.323  10.281  1.1000  0.0984 -0.5316
 3953SOL     OW23317   3.573   2.683  12.017  0.0172 -0.1698 -0.2106
 3953SOL    HW123318   3.659   2.725  12.011 -0.3055  0.3509 -1.1753
 3953SOL    HW223319   3.576   2.639  12.102  1.1975 -0.4575 -0.4049
 3954SOL     OW23320   2.346   0.266   0.709 -0.0653  0.3220 -0.3385
 3954SOL    HW123321   2.314   0.176   0.712 -0.9777  0.6507 -0.2071
 3954SOL    HW223322   2.282   0.308   0.653 -0.7830 -0.2880  0.0299
 3955SOL     OW23323   1.153   3.438   5.571 -0.1060  0.3211  0.3718
 3955SOL    HW123324   1.182   3.374   5.635 -2.0261  0.4075  1.3222
 3955SOL    HW223325   1.127   3.373   5.505  0.5699  1.8163 -1.3644
 3956SOL     OW23326   1.317   1.523  15.018  0.5746  0.3469 -0.3234
 3956SOL    HW123327   1.294   1.600  14.966 -0.5939  0.4646  0.3745
 3956SOL    HW223328   1.413   1.514  15.016  0.5646  1.1927 -3.9146
 3957SOL     OW23329   0.365   1.735   4.322  0.0501  0.2604 -0.0500
 3957SOL    HW123330   0.278   1.700   4.340  0.2173 -1.3781 -2.3640
 3957SOL    HW223331   0.416   1.662   4.356  2.0599  1.2739 -0.9074
 3958SOL     OW23332   2.199   2.360   4.990  0.4786 -0.4636 -0.0002
 3958SOL    HW123333   2.122   2.368   5.046  0.0932  0.6483 -0.6727
 3958SOL    HW223334   2.164   2.308   4.917  0.3810  1.2917 -1.2233
 3959SOL     OW23335   3.799   4.470   6.088  0.4181 -0.5102  0.2099
 3959SOL    HW123336   3.765   4.543   6.037  0.2477 -0.0712  0.9551
 3959SOL    HW223337   3.881   4.507   6.122  0.4436 -0.8867  0.5725
 3960SOL     OW23338   1.131   3.636  13.037  0.5315 -1.0525  0.2720
 3960SOL    HW123339   1.130   3.541  13.043 -0.4274 -1.2925 -3.6006
 3960SOL    HW223340   1.040   3.664  13.030  0.4419 -1.7583 -1.4271
 3961SOL     OW23341   3.245   1.377  17.615 -0.1344  0.5055 -0.1606
 3961SOL    HW123342   3.180   1.362  17.546 -2.8386  2.6704  1.9743
 3961SOL    HW223343   3.189   1.370   0.000 -0.1785  0.1561 -0.2250
 3962SOL     OW23344   3.503   2.998  16.646 -0.2651 -0.1729 -0.5635
 3962SOL    HW123345   3.592   3.002  16.681 -0.6098  1.0777  0.1839
 3962SOL    HW223346   3.512   2.932  16.578 -1.4658 -1.5123  0.5751
 3963SOL     OW23347   1.199   1.142   8.815  0.1500 -0.5381  0.6905
 3963SOL    HW123348   1.270   1.093   8.857  1.0412 -0.2839 -0.5031
 3963SOL    HW223349   1.224   1.143   8.722 -1.8856 -1.5294  0.1363
 3964SOL     OW23350   2.653   2.782   8.007  0.0578 -0.4884 -0.1996
 3964SOL    HW123351   2.687   2.708   7.957  1.6067  0.3090 -0.3100
 3964SOL    HW223352   2.696   2.848   7.953  0.8810 -2.8769 -2.4460
 3965SOL     OW23353   3.717   1.630   2.853 -0.1677  0.2147 -0.6030
 3965SOL    HW123354   3.635   1.616   2.805 -0.5316  0.0222  0.0757
 3965SOL    HW223355   3.745   1.540   2.866  0.5212  0.7688  1.6531
 3966SOL     OW23356   0.876   0.026   8.176  0.2730  0.0499  0.0825
 3966SOL    HW123357   0.784   0.007   8.163  0.9926 -2.1515 -1.8293
 3966SOL    HW223358   0.882   0.110   8.132 -0.7572  1.7857  3.2447
 3967SOL     OW23359   4.375   1.574   9.395 -0.5914  0.3237 -0.4340
 3967SOL    HW123360   4.283   1.600   9.391 -0.2882  1.4896  0.0164
 3967SOL    HW223361   4.416   1.660   9.397 -1.1356  0.6786 -4.6754
 3968SOL     OW23362   2.296   0.009   3.063  0.2059  0.6327 -0.1896
 3968SOL    HW123363   2.318   4.679   2.986 -1.1062  0.4058 -0.4084
 3968SOL    HW223364   2.223   0.063   3.034  0.2705  1.0862  0.4974
 3969SOL     OW23365   3.072   3.743   4.958 -0.5403  0.2615 -0.1394
 3969SOL    HW123366   3.049   3.650   4.947  2.8132 -0.4862 -0.8423
 3969SOL    HW223367   3.164   3.742   4.983 -1.3504  1.3631  2.9996
 3970SOL     OW23368   1.810   3.773   0.587  0.3275 -0.5425 -0.3081
 3970SOL    HW123369   1.898   3.801   0.614 -0.6818 -0.5528  2.9402
 3970SOL    HW223370   1.792   3.711   0.657  0.3638 -0.1391  0.0619
 3971SOL     OW23371   0.817   3.770   6.991  0.3860 -0.0052 -0.0789
 3971SOL    HW123372   0.874   3.846   7.003  2.3311 -1.5573  0.4325
 3971SOL    HW223373   0.856   3.737   6.910  0.1085 -1.1700  0.2668
 3972SOL     OW23374   1.044   4.170  15.710 -0.3218  0.1849 -0.3628
 3972SOL    HW123375   1.014   4.117  15.636  1.0688 -0.8939 -0.1535
 3972SOL    HW223376   1.003   4.130  15.787  1.6008  1.0580  1.1085
 3973SOL     OW23377   3.789   2.384  16.588 -0.2179  0.5798  0.5317
 3973SOL    HW123378   3.855   2.433  16.636 -1.5628  1.2969  1.6423
 3973SOL    HW223379   3.728   2.455  16.567 -1.3818  0.2963  2.9489
 3974SOL     OW23380   2.629   2.365  16.983 -0.1194  0.4494  0.0675
 3974SOL    HW123381   2.720   2.345  16.963 -0.5184 -0.5937 -0.6929
 3974SOL    HW223382   2.628   2.348  17.078  0.7425 -0.4559 -0.0762
 3975SOL     OW23383   4.207   1.587  15.980 -0.6641  0.3906  0.3546
 3975SOL    HW123384   4.228   1.581  15.887 -0.2952 -0.8872  0.5250
 3975SOL    HW223385   4.228   1.680  15.986 -1.1512  0.6348 -1.6517
 3976SOL     OW23386   3.854   0.935  15.555 -0.4471  0.0309 -0.0348
 3976SOL    HW123387   3.872   1.019  15.512 -1.5700  1.3053  1.9931
 3976SOL    HW223388   3.938   0.890  15.556 -0.2226  0.4482 -0.3702
 3977SOL     OW23389   2.327   1.739  13.893 -0.0908  0.2353 -0.3745
 3977SOL    HW123390   2.251   1.770  13.944 -0.8959 -1.4227 -0.5566
 3977SOL    HW223391   2.394   1.790  13.937 -0.8620  0.9500 -0.0245
 3978SOL     OW23392   4.074   0.658  10.318 -0.1215 -0.0474  0.2209
 3978SOL    HW123393   4.085   0.679  10.411  1.0127 -1.4615  0.4068
 3978SOL    HW223394   4.159   0.694  10.290 -0.1801  0.0992  0.2298
 3979SOL     OW23395   0.357   0.533   4.598  0.2022 -0.2974 -0.1965
 3979SOL    HW123396   0.402   0.537   4.514  0.9179 -1.0112  0.1572
 3979SOL    HW223397   0.272   0.493   4.577 -0.2409  0.0939  0.8386
 3980SOL     OW23398   2.734   4.145  10.483 -0.6571 -0.1002  0.5501
 3980SOL    HW123399   2.820   4.151  10.442 -0.9716  0.5674 -0.0025
 3980SOL    HW223400   2.694   4.065  10.450 -1.3399 -0.5481  2.4564
 3981SOL     OW23401   2.247   1.581  10.381 -0.3874  0.0182 -0.0141
 3981SOL    HW123402   2.273   1.502  10.429 -0.6013 -0.4809 -0.7217
 3981SOL    HW223403   2.159   1.558  10.351 -0.2743  0.4149 -0.6563
 3982SOL     OW23404   1.389   3.606   4.592 -0.0731 -0.3905 -0.2102
 3982SOL    HW123405   1.314   3.582   4.538 -0.5688  0.0723  0.2832
 3982SOL    HW223406   1.431   3.524   4.620  0.2565  0.1003  0.7083
 3983SOL     OW23407   3.944   3.776  10.887 -0.0290 -0.6228  0.0235
 3983SOL    HW123408   3.976   3.777  10.977 -0.5303 -0.5185  0.1988
 3983SOL    HW223409   4.025   3.759  10.839  0.6959 -0.3626  1.1491
 3984SOL     OW23410   2.997   3.801   5.244 -0.1934 -0.3354 -0.3231
 3984SOL    HW123411   2.976   3.891   5.219  1.5198  0.5221  1.4075
 3984SOL    HW223412   3.073   3.786   5.189  0.0983  0.2294 -0.0724
 3985SOL     OW23413   0.756   1.342   2.812 -0.2767  0.0716  0.5154
 3985SOL    HW123414   0.792   1.420   2.771 -2.4405  1.2091  0.7901
 3985SOL    HW223415   0.834   1.327   2.865  1.1296 -0.3584 -1.6809
 3986SOL     OW23416   0.519   3.414   3.721 -0.7052  0.3825 -0.3191
 3986SOL    HW123417   0.455   3.477   3.687  1.5409  3.3322  0.8593
 3986SOL    HW223418   0.522   3.348   3.652 -3.0035 -0.3747  0.3046
 3987SOL     OW23419   0.723   1.027   7.888  0.5224  0.5770  0.1931
 3987SOL    HW123420   0.745   0.979   7.967 -0.9999 -1.6262 -0.7246
 3987SOL    HW223421   0.640   0.986   7.862  0.7738  0.0956  0.1517
 3988SOL     OW23422   3.470   1.495   3.925 -0.5817 -0.1907 -0.1381
 3988SOL    HW123423   3.543   1.464   3.978 -1.0671 -2.1834 -0.6456
 3988SOL    HW223424   3.508   1.526   3.843  1.5819 -0.1552  0.8795
 3989SOL     OW23425   3.197   1.774  14.457  0.0776 -0.0352 -0.2637
 3989SOL    HW123426   3.211   1.858  14.413 -0.2701  0.7023  1.0487
 3989SOL    HW223427   3.154   1.727  14.385 -1.5044  1.2884 -0.1792
 3990SOL     OW23428   3.427   2.959   0.435 -0.1081 -0.4395  0.0127
 3990SOL    HW123429   3.485   3.032   0.456  0.8742 -0.8033 -1.4849
 3990SOL    HW223430   3.408   2.920   0.521 -1.8213  1.0743  0.3268
 3991SOL     OW23431   3.775   0.506   5.743  0.2337 -0.1440  0.3898
 3991SOL    HW123432   3.833   0.543   5.677 -0.7146  0.8685  0.1124
 3991SOL    HW223433   3.830   0.508   5.821  1.4496 -0.7770 -0.4632
 3992SOL     OW23434   1.569   3.256   3.487  0.0811  1.2830 -0.2379
 3992SOL    HW123435   1.539   3.173   3.449  2.2319 -0.2616  1.4006
 3992SOL    HW223436   1.512   3.323   3.449  0.3734  3.2420  2.8044
 3993SOL     OW23437   0.609   3.977   5.902  0.7081 -0.4910 -0.0110
 3993SOL    HW123438   0.515   3.960   5.915  0.2931  1.1407 -0.8892
 3993SOL    HW223439   0.601   3.970   5.807  3.0261  0.7933 -0.3059
 3994SOL     OW23440   1.338   1.613  12.845 -0.2466  0.2226  0.4748
 3994SOL    HW123441   1.350   1.539  12.905 -0.9778 -0.0292  0.3140
 3994SOL    HW223442   1.354   1.683  12.908 -0.3972 -0.1920  0.9686
 3995SOL     OW23443   1.194   3.527  15.243 -0.4469 -0.1831 -0.1772
 3995SOL    HW123444   1.147   3.542  15.161  0.0787  1.1113 -0.2456
 3995SOL    HW223445   1.237   3.446  15.218 -0.9725 -1.3400  2.6336
 3996SOL     OW23446   0.239   3.382   6.458 -0.1662  0.0022 -0.1568
 3996SOL    HW123447   0.157   3.388   6.506  0.4187  1.7883  0.5876
 3996SOL    HW223448   0.222   3.440   6.384 -1.8132  0.1095  0.2959
 3997SOL     OW23449   2.199   4.116   7.107 -0.1974 -0.3518 -0.1901
 3997SOL    HW123450   2.121   4.078   7.066 -0.4312 -1.0277  0.8694
 3997SOL    HW223451   2.229   4.178   7.040 -1.4539 -0.2253 -0.6487
 3998SOL     OW23452   1.323   0.722   2.984  0.3489  0.3485  0.1189
 3998SOL    HW123453   1.297   0.785   3.051 -1.3286  1.3614 -1.5013
 3998SOL    HW223454   1.328   0.767   2.900  0.1825 -1.0559 -0.6333
 3999SOL     OW23455   3.010   4.281   5.288  0.0882  0.1659 -0.5380
 3999SOL    HW123456   2.931   4.333   5.302 -0.7413 -0.8322 -1.5719
 3999SOL    HW223457   3.069   4.321   5.352  0.7586 -0.0876 -1.0038
 4000SOL     OW23458   4.105   2.759   7.407  0.0288 -0.2362  0.0334
 4000SOL    HW123459   4.130   2.837   7.457  0.7896  0.6137 -1.6983
 4000SOL    HW223460   4.152   2.761   7.324 -1.2881 -1.1694 -0.7354
 4001SOL     OW23461   0.837   4.328   5.711 -0.4217  0.2261  0.4528
 4001SOL    HW123462   0.915   4.281   5.740 -0.6689 -0.2190  0.3864
 4001SOL    HW223463   0.871   4.413   5.682  0.8056 -0.8989 -1.4168
 4002SOL     OW23464   0.968   2.138  13.228 -0.0184  0.3166  0.5830
 4002SOL    HW123465   0.964   2.123  13.134  1.0913 -0.5120  0.6607
 4002SOL    HW223466   0.879   2.167  13.245 -0.2928 -0.6319  0.7671
 4003SOL     OW23467   2.009   3.505   7.876 -0.5328  0.0789  0.2098
 4003SOL    HW123468   2.006   3.587   7.828  1.5924  0.1839  0.2450
 4003SOL    HW223469   1.917   3.480   7.886 -0.6292 -0.0420 -1.0033
 4004SOL     OW23470   1.709   1.104   2.200 -0.7318 -0.1943 -0.4206
 4004SOL    HW123471   1.684   1.021   2.241 -0.0287 -0.7951 -1.1953
 4004SOL    HW223472   1.797   1.115   2.234 -0.2766 -0.5504 -1.4763
 4005SOL     OW23473   0.505   0.168   0.148  0.4525 -0.6466  0.2300
 4005SOL    HW123474   0.526   0.193   0.238  2.2151 -1.8946  0.1783
 4005SOL    HW223475   0.460   0.085   0.168 -0.1361 -0.8035 -1.7094
 4006SOL     OW23476   2.240   1.746   5.698  0.0447  0.1434  0.4314
 4006SOL    HW123477   2.297   1.816   5.667  0.7966 -0.6685 -0.0531
 4006SOL    HW223478   2.235   1.773   5.789  0.9102  0.3148  0.4249
 4007SOL     OW23479   1.284   2.433   2.140 -0.1142  0.5339  0.2570
 4007SOL    HW123480   1.215   2.465   2.082 -1.5085 -0.5091  1.3402
 4007SOL    HW223481   1.328   2.375   2.077 -1.0008 -1.0584  1.1128
 4008SOL     OW23482   2.737   2.830   2.829  0.2052  0.2947 -0.1238
 4008SOL    HW123483   2.757   2.737   2.835  0.3258  0.3104 -0.2812
 4008SOL    HW223484   2.824   2.865   2.809 -0.2525  1.2692 -0.4159
 4009SOL     OW23485   3.975   3.222   7.943 -0.2946  0.0911 -0.0846
 4009SOL    HW123486   3.932   3.241   8.027  2.3222 -1.3953  1.5929
 4009SOL    HW223487   4.011   3.137   7.971  1.4010  0.2856 -1.7267
 4010SOL     OW23488   0.065   1.616   5.262 -0.3773  0.6795 -0.0918
 4010SOL    HW123489   0.087   1.585   5.175  0.3937 -0.7549  0.6200
 4010SOL    HW223490   0.006   1.543   5.282 -0.0630  0.6166  0.6149
 4011SOL     OW23491   4.721   0.312   8.876 -0.7990 -0.2569  0.6512
 4011SOL    HW123492   4.708   0.273   8.789  0.0298  1.1549 -0.0995
 4011SOL    HW223493   0.092   0.333   8.875 -1.3231  2.1152  2.4781
 4012SOL     OW23494   4.556   1.861   8.438  0.4435  0.5574  0.1430
 4012SOL    HW123495   4.462   1.846   8.426  0.8773  0.0632 -2.4738
 4012SOL    HW223496   4.587   1.771   8.427 -2.4345 -0.3449 -0.7095
 4013SOL     OW23497   2.643   0.621  14.786 -0.3424  0.2188 -0.2192
 4013SOL    HW123498   2.684   0.624  14.872  1.4997 -1.8005 -1.0207
 4013SOL    HW223499   2.667   0.532  14.762 -1.1386 -0.6615  2.2629
 4014SOL     OW23500   1.930   4.592   3.794 -0.5739  0.0622 -0.1730
 4014SOL    HW123501   1.898   4.556   3.711  0.0722 -1.5180  0.2680
 4014SOL    HW223502   1.865   4.569   3.861 -0.5809  0.5541 -0.0059
 4015SOL     OW23503   3.086   3.051   8.657 -0.5385  0.3296  0.9165
 4015SOL    HW123504   3.125   3.001   8.585 -1.1739  1.6693 -0.3697
 4015SOL    HW223505   3.090   2.980   8.721  0.8683  0.0022  0.4812
 4016SOL     OW23506   2.835   3.836  14.951 -0.2805  0.7536  0.6670
 4016SOL    HW123507   2.903   3.782  14.911 -1.7279 -0.9669  0.5338
 4016SOL    HW223508   2.829   3.789  15.034  0.4915  1.3371  1.0464
 4017SOL     OW23509   0.541   2.955  17.205  0.6975 -0.0256 -0.1383
 4017SOL    HW123510   0.515   3.047  17.211 -0.9940 -0.5605  0.6037
 4017SOL    HW223511   0.496   2.922  17.283  0.1336  3.5996  1.0947
 4018SOL     OW23512   2.998   2.339   6.850  0.8343 -0.5116 -0.2467
 4018SOL    HW123513   3.007   2.428   6.884  2.1536 -0.4577 -0.7449
 4018SOL    HW223514   3.070   2.337   6.787  1.5653 -0.2486  0.5835
 4019SOL     OW23515   0.412   4.624   2.211  0.3610 -0.0397 -0.0421
 4019SOL    HW123516   0.327   4.629   2.167  0.9264  0.6565 -1.0733
 4019SOL    HW223517   0.397   4.668   2.294  1.5205 -0.1267  0.2132
 4020SOL     OW23518   0.403   3.257   7.860  0.4332 -0.1204 -0.0800
 4020SOL    HW123519   0.458   3.226   7.789 -0.7818  2.5412 -2.2228
 4020SOL    HW223520   0.394   3.347   7.826  2.8114  0.5650  1.0921
 4021SOL     OW23521   1.264   1.400   1.282  0.2201  0.5626 -0.2424
 4021SOL    HW123522   1.206   1.448   1.224  1.3561 -1.0816 -2.7364
 4021SOL    HW223523   1.344   1.441   1.249  0.2428  2.2754  1.9680
 4022SOL     OW23524   1.490   0.085  14.222  0.0933 -0.3106 -0.4821
 4022SOL    HW123525   1.477   0.036  14.141 -1.5392 -1.9044  0.7407
 4022SOL    HW223526   1.528   0.022  14.284 -2.7091 -1.9750 -0.4868
 4023SOL     OW23527   2.561   2.712   6.809 -0.1143  0.0920 -0.0153
 4023SOL    HW123528   2.504   2.682   6.880 -0.3577  0.1962 -0.1639
 4023SOL    HW223529   2.650   2.705   6.843 -0.6726 -2.8027  0.8425
 4024SOL     OW23530   3.727   4.087  14.059  0.1136  0.6994 -0.0231
 4024SOL    HW123531   3.745   4.072  14.152 -1.7152  2.1993  0.5652
 4024SOL    HW223532   3.807   4.051  14.019  0.0271 -0.7753  1.1266
 4025SOL     OW23533   2.667   0.574   3.690  0.3379  0.2674 -0.4894
 4025SOL    HW123534   2.633   0.642   3.748  1.1643 -0.6077  1.0262
 4025SOL    HW223535   2.599   0.510   3.711 -0.4342  0.9680 -0.8416
 4026SOL     OW23536   0.825   2.179   6.986 -0.5994 -0.0096 -0.3291
 4026SOL    HW123537   0.737   2.159   7.020 -0.0352 -1.3807  0.3197
 4026SOL    HW223538   0.848   2.105   6.930  0.5520  1.1625 -1.3878
 4027SOL     OW23539   1.996   0.373   4.798 -0.1710 -0.6228  0.5823
 4027SOL    HW123540   2.050   0.331   4.865  0.3766 -1.2547 -0.2452
 4027SOL    HW223541   2.045   0.455   4.801  0.4839 -0.8380 -3.9755
 4028SOL     OW23542   4.241   1.771  10.278  0.4498  0.0826  0.2065
 4028SOL    HW123543   4.156   1.797  10.313 -0.4523 -0.1941 -1.7534
 4028SOL    HW223544   4.287   1.855  10.273 -1.4061  1.0995  0.1450
 4029SOL     OW23545   0.629   3.460  16.899  0.2667  0.5483 -0.3556
 4029SOL    HW123546   0.685   3.424  16.830  1.3240  1.4638  0.0203
 4029SOL    HW223547   0.685   3.459  16.977 -0.2582 -1.4108 -0.0240
 4030SOL     OW23548   2.098   1.112   9.086 -0.2596 -0.1722  0.6336
 4030SOL    HW123549   2.063   1.199   9.067 -1.0424 -0.9354 -1.3494
 4030SOL    HW223550   2.109   1.125   9.180 -0.3389 -0.3349  0.6649
 4031SOL     OW23551   1.970   1.611  12.548 -0.8144  0.0843  0.0547
 4031SOL    HW123552   1.981   1.677  12.615 -1.4945 -1.0674  1.2977
 4031SOL    HW223553   1.967   1.663  12.468  1.9142  0.8060  0.4129
 4032SOL     OW23554   2.639   1.272   2.539  0.2871 -0.4224  0.6311
 4032SOL    HW123555   2.644   1.318   2.623  0.3517  0.2824  0.2361
 4032SOL    HW223556   2.713   1.211   2.539  0.5863 -0.0604  0.3534
 4033SOL     OW23557   3.707   1.932   6.955  0.2894 -0.2835  0.8230
 4033SOL    HW123558   3.636   1.981   6.997 -0.3134  1.8289 -2.6888
 4033SOL    HW223559   3.682   1.839   6.955 -1.7362  0.2642  1.4174
 4034SOL     OW23560   2.234   2.092   6.661  0.3030  0.1625  0.4453
 4034SOL    HW123561   2.271   2.004   6.658 -2.7313 -1.1616  1.2932
 4034SOL    HW223562   2.231   2.101   6.756  0.5563 -3.0894  0.7616
 4035SOL     OW23563   1.448   0.089  10.735  0.3151 -0.5807 -0.3423
 4035SOL    HW123564   1.450   0.018  10.671  0.2027 -0.5474 -0.3846
 4035SOL    HW223565   1.447   0.034  10.812  0.1794  1.8098  1.3634
 4036SOL     OW23566   4.490   1.604   7.310  0.5150  0.6551  0.3483
 4036SOL    HW123567   4.493   1.599   7.215  0.2594  2.8011  0.2262
 4036SOL    HW223568   4.480   1.516   7.346 -0.1948  0.5472 -0.1287
 4037SOL     OW23569   3.764   1.137  17.553 -0.1992  0.6542  0.2557
 4037SOL    HW123570   3.797   1.227  17.552 -1.4205  1.0974  0.5035
 4037SOL    HW223571   3.784   1.107  17.642  1.5168  1.6639  0.2220
 4038SOL     OW23572   2.825   4.553  17.521 -0.4642 -0.3906 -0.0904
 4038SOL    HW123573   2.824   4.637  17.567 -0.4112 -0.2229 -0.3953
 4038SOL    HW223574   2.899   4.561  17.461  0.4059 -0.3730  0.9881
 4039SOL     OW23575   0.433   1.383   7.979 -0.7768 -0.8574  0.3451
 4039SOL    HW123576   0.361   1.383   7.917 -1.1465  0.7434  0.7746
 4039SOL    HW223577   0.504   1.346   7.926 -0.5750 -2.0149  1.4188
 4040SOL     OW23578   4.517   2.802   3.009  0.3324  0.1390 -0.0953
 4040SOL    HW123579   4.426   2.786   3.036  0.0069  1.2194 -0.5571
 4040SOL    HW223580   4.566   2.752   3.074  1.0801  0.8150 -0.1441
 4041SOL     OW23581   1.462   1.764   1.350  0.1656 -0.1007 -0.3728
 4041SOL    HW123582   1.541   1.816   1.337 -0.1961  1.2457  2.9880
 4041SOL    HW223583   1.461   1.702   1.276  1.3562  1.1452 -1.4393
 4042SOL     OW23584   0.291   2.037   2.416 -0.1411 -0.5916  0.1532
 4042SOL    HW123585   0.301   2.037   2.321 -4.0328 -3.2730 -0.2833
 4042SOL    HW223586   0.215   1.978   2.422 -0.5482 -0.0332  0.5641
 4043SOL     OW23587   4.698   0.470  12.576  0.2037 -0.5185  0.2891
 4043SOL    HW123588   0.023   0.394  12.543  1.8671  0.6023  0.0805
 4043SOL    HW223589   0.042   0.535  12.598 -0.8984  1.0896 -1.1460
 4044SOL     OW23590   3.595   1.326   5.474  0.6374  0.4228 -0.2153
 4044SOL    HW123591   3.614   1.397   5.413  2.5527  0.6637  0.6750
 4044SOL    HW223592   3.574   1.372   5.556 -0.5793  0.8926 -0.7849
 4045SOL     OW23593   1.337   2.852  13.533 -0.4591 -0.4826 -0.0559
 4045SOL    HW123594   1.383   2.842  13.616 -0.8738  1.6919  0.4456
 4045SOL    HW223595   1.376   2.936  13.506  0.3886 -0.3176  1.6897
 4046SOL     OW23596   1.854   3.964   5.125 -0.4012 -0.0514 -0.4082
 4046SOL    HW123597   1.775   3.997   5.166  0.3381  1.4599 -0.2139
 4046SOL    HW223598   1.900   4.042   5.094 -0.8545  0.5184  0.3518
 4047SOL     OW23599   4.659   0.587   1.165  0.3457  0.4610  0.5446
 4047SOL    HW123600   4.700   0.649   1.225 -0.6514 -0.2547  1.9661
 4047SOL    HW223601   4.567   0.607   1.181  0.1806  0.4958 -0.4659
 4048SOL     OW23602   2.215   2.475   7.186  0.2109 -0.1430  0.1159
 4048SOL    HW123603   2.130   2.461   7.146  0.2292 -1.0102  0.3771
 4048SOL    HW223604   2.269   2.426   7.124  0.9626  0.9014 -0.0539
 4049SOL     OW23605   4.123   0.704  15.233  0.5592  0.3070 -0.1036
 4049SOL    HW123606   4.139   0.792  15.266  1.2934 -0.0393  0.4615
 4049SOL    HW223607   4.029   0.688  15.246  0.8005  1.3666  2.7590
 4050SOL     OW23608   0.395   2.672   9.236 -0.2354  0.6337  0.1803
 4050SOL    HW123609   0.383   2.580   9.259  0.8833  0.3857 -0.2312
 4050SOL    HW223610   0.371   2.671   9.144  3.4955 -2.6131 -0.7677
 4051SOL     OW23611   4.213   2.113   7.838  0.2534  0.3613  0.1449
 4051SOL    HW123612   4.290   2.058   7.847  1.0577  1.2059 -1.4469
 4051SOL    HW223613   4.158   2.037   7.855 -0.9860  1.5533  1.4132
 4052SOL     OW23614   3.734   3.582   4.177 -0.3684  0.3009 -0.7183
 4052SOL    HW123615   3.700   3.671   4.172 -0.0129  0.5324  0.8033
 4052SOL    HW223616   3.686   3.545   4.251  2.0909 -1.7861 -0.1773
 4053SOL     OW23617   2.613   4.178   0.353 -0.0751  0.0185  0.1030
 4053SOL    HW123618   2.537   4.209   0.402  1.3920  1.3767  1.5260
 4053SOL    HW223619   2.605   4.219   0.267 -2.2708  0.5513  0.5662
 4054SOL     OW23620   4.557   2.812   7.935  0.5027 -0.0890 -0.2769
 4054SOL    HW123621   4.636   2.796   7.882  0.1887  3.2739 -1.7775
 4054SOL    HW223622   4.595   2.877   7.994  0.1529 -0.2401  0.1069
 4055SOL     OW23623   3.452   2.886  14.569 -0.2318  0.0897  0.8225
 4055SOL    HW123624   3.476   2.824  14.637  3.0375  0.4373 -0.0010
 4055SOL    HW223625   3.513   2.955  14.595  1.5984 -0.7873 -1.1741
 4056SOL     OW23626   3.765   2.542   7.808 -0.0818 -0.7759  0.0531
 4056SOL    HW123627   3.750   2.549   7.714  0.7831 -1.9108 -0.1647
 4056SOL    HW223628   3.810   2.459   7.795  1.5750  0.6775 -3.4968
 4057SOL     OW23629   0.931   2.435   1.587  0.0968 -0.3359 -0.2213
 4057SOL    HW123630   0.999   2.369   1.576  0.5760 -0.1644  1.6783
 4057SOL    HW223631   0.860   2.391   1.541 -0.5382  1.3520 -0.8662
 4058SOL     OW23632   3.272   1.237  13.875  0.1965  0.3823  0.2536
 4058SOL    HW123633   3.291   1.164  13.816  1.8678  1.9200 -1.0892
 4058SOL    HW223634   3.213   1.286  13.817  0.1101  0.5756  0.5043
 4059SOL     OW23635   1.020   1.437   7.668  0.0378 -0.1708 -0.1789
 4059SOL    HW123636   1.085   1.482   7.614 -0.3583 -0.0009 -0.5110
 4059SOL    HW223637   0.940   1.488   7.660 -1.0350 -2.0409 -1.4031
 4060SOL     OW23638   0.286   2.672   3.188  0.0388 -0.1343 -0.1710
 4060SOL    HW123639   0.235   2.678   3.269  0.8917  1.2778  0.2493
 4060SOL    HW223640   0.216   2.637   3.132 -0.0409 -1.8498  0.9722
 4061SOL     OW23641   3.135   4.665   4.173  0.6973 -0.2294 -0.4280
 4061SOL    HW123642   3.164   4.687   4.085  1.0551 -1.2317 -0.5584
 4061SOL    HW223643   3.172   0.012   4.228  2.2715 -1.2173 -0.2372
 4062SOL     OW23644   1.347   4.058   8.888  0.0832 -0.4035 -0.0731
 4062SOL    HW123645   1.312   4.144   8.912 -1.6480 -1.0526 -0.3087
 4062SOL    HW223646   1.411   4.032   8.954  0.6926  0.8924 -0.1421
 4063SOL     OW23647   1.020   1.289   2.948  0.5716  0.5046  0.0501
 4063SOL    HW123648   1.068   1.242   3.016  1.8954  1.4551 -0.2307
 4063SOL    HW223649   0.980   1.360   2.998 -0.6105 -1.2572  1.6001
 4064SOL     OW23650   0.232   0.640   2.304 -1.0522  0.5100 -0.1529
 4064SOL    HW123651   0.166   0.572   2.317 -1.0751  1.0122  2.3588
 4064SOL    HW223652   0.195   0.706   2.364 -2.5890 -1.1419  0.7154
 4065SOL     OW23653   0.212   3.261   2.640  0.1921  0.0506 -0.2022
 4065SOL    HW123654   0.172   3.208   2.570  1.7961  0.5091 -1.4641
 4065SOL    HW223655   0.304   3.248   2.618  0.7889  0.6111  1.9859
 4066SOL     OW23656   4.180   3.364  16.146 -0.3196  0.7860  0.1143
 4066SOL    HW123657   4.166   3.309  16.068 -3.3390  1.9465 -0.1695
 4066SOL    HW223658   4.194   3.446  16.100  0.5724  0.5704  0.0050
 4067SOL     OW23659   2.213   1.836   5.941  0.3825  0.3901 -0.0281
 4067SOL    HW123660   2.227   1.814   6.033  1.2792 -0.2979 -0.3304
 4067SOL    HW223661   2.118   1.848   5.937  0.2655 -0.3616  0.4878
 4068SOL     OW23662   4.007   4.023  12.742 -0.0763 -0.3318  0.3507
 4068SOL    HW123663   4.100   4.041  12.737 -0.5101  1.5676 -0.6596
 4068SOL    HW223664   3.964   4.061  12.818 -0.7680 -1.9726  0.7872
 4069SOL     OW23665   1.945   3.738  12.906  0.1485 -0.4678 -0.0095
 4069SOL    HW123666   2.011   3.801  12.935 -0.0057 -0.3107  0.0006
 4069SOL    HW223667   1.909   3.708  12.990 -0.2133  1.3080  0.4633
 4070SOL     OW23668   0.689   4.436   7.557  0.6967  0.6664  0.2891
 4070SOL    HW123669   0.720   4.506   7.500  1.4089 -0.4397 -0.6815
 4070SOL    HW223670   0.703   4.357   7.506 -0.8387 -0.1611  1.1516
 4071SOL     OW23671   0.769   0.011  13.697  0.4761  0.2598  0.8116
 4071SOL    HW123672   0.714   0.079  13.736  2.2137  1.0801  1.8195
 4071SOL    HW223673   0.787   0.053  13.614 -2.4344 -1.8758 -0.9130
 4072SOL     OW23674   4.394   3.725   4.091  0.0717 -0.3711 -0.5448
 4072SOL    HW123675   4.423   3.816   4.099  0.9079 -0.7067  0.2345
 4072SOL    HW223676   4.314   3.729   4.038  0.7481  0.0764 -1.5477
 4073SOL     OW23677   1.429   1.720   3.866 -0.4460 -0.0569  0.3442
 4073SOL    HW123678   1.521   1.710   3.840 -0.0195  1.6529  1.2286
 4073SOL    HW223679   1.389   1.734   3.781  1.0222 -0.8415 -0.4877
 4074SOL     OW23680   2.930   4.539   7.753  0.3404  0.6633 -0.0673
 4074SOL    HW123681   2.931   4.629   7.787 -1.2981  1.4922 -2.1897
 4074SOL    HW223682   2.837   4.516   7.751  0.2830  0.7614  1.7707
 4075SOL     OW23683   0.592   0.846   6.793 -0.0923 -0.2537 -0.2722
 4075SOL    HW123684   0.572   0.935   6.822 -0.9131 -0.4618 -0.2005
 4075SOL    HW223685   0.518   0.828   6.737 -0.2043  0.5312 -0.3789
 4076SOL     OW23686   1.447   2.934   5.368 -0.8445  0.0422 -0.4302
 4076SOL    HW123687   1.452   2.923   5.463  0.8947 -1.0479 -0.6445
 4076SOL    HW223688   1.352   2.942   5.362 -0.9785  0.7568  2.4853
 4077SOL     OW23689   3.159   1.629  16.798  0.2368 -0.0316  0.1411
 4077SOL    HW123690   3.225   1.574  16.841 -0.1022 -0.0160  0.6758
 4077SOL    HW223691   3.211   1.689  16.745  0.2470  1.6573  2.0923
 4078SOL     OW23692   1.353   0.889   1.201 -0.1502 -0.1272  0.2701
 4078SOL    HW123693   1.269   0.906   1.159 -1.1251 -2.1539  1.3714
 4078SOL    HW223694   1.396   0.974   1.204 -1.0939  0.3065  1.3092
 4079SOL     OW23695   2.138   2.536   8.430 -0.2254  0.0557  0.5683
 4079SOL    HW123696   2.171   2.511   8.344 -2.3521  0.4977 -0.3852
 4079SOL    HW223697   2.159   2.457   8.480 -0.6845  0.0625  0.7675
 4080SOL     OW23698   3.715   4.226  11.632 -0.1002  0.7525  0.1493
 4080SOL    HW123699   3.694   4.273  11.551 -0.3816  0.0887 -0.1676
 4080SOL    HW223700   3.637   4.185  11.670  1.6570 -1.4804  1.3354
 4081SOL     OW23701   0.804   0.446   8.465  0.0152 -0.3338 -0.0833
 4081SOL    HW123702   0.842   0.478   8.546  1.5412 -3.3999  0.4222
 4081SOL    HW223703   0.750   0.373   8.497  2.0673 -1.5080  0.7159
 4082SOL     OW23704   0.036   2.026  15.102 -0.1743 -0.4940 -0.0208
 4082SOL    HW123705   0.088   2.004  15.179  2.7427  0.2274 -1.7970
 4082SOL    HW223706   0.103   2.063  15.045 -1.6386  1.4448 -0.4825
 4083SOL     OW23707   3.560   1.304  15.394 -0.3708 -0.2821 -0.1343
 4083SOL    HW123708   3.514   1.321  15.476 -0.6537 -1.6517 -0.0153
 4083SOL    HW223709   3.507   1.356  15.333  0.3643  1.3823  0.6179
 4084SOL     OW23710   3.320   1.134   1.397 -0.1909  0.1543 -0.5306
 4084SOL    HW123711   3.306   1.108   1.488 -0.0123  0.5074 -0.3994
 4084SOL    HW223712   3.389   1.086   1.352  0.3834  0.6711 -0.1936
 4085SOL     OW23713   4.185   1.873   4.785 -0.6084  0.4909  0.1182
 4085SOL    HW123714   4.142   1.824   4.715  0.0970  0.3612 -0.2223
 4085SOL    HW223715   4.167   1.960   4.749 -1.8450  0.5343  0.8378
 4086SOL     OW23716   0.144   0.645   8.466 -0.4052 -1.0180  0.1497
 4086SOL    HW123717   0.199   0.590   8.410  0.1537 -0.2340 -0.0616
 4086SOL    HW223718   0.165   0.724   8.418 -1.9340 -0.5688  0.2182
 4087SOL     OW23719   4.187   2.381   0.665 -0.2224  0.6256  0.2454
 4087SOL    HW123720   4.167   2.398   0.757  0.9317  1.0295  0.4268
 4087SOL    HW223721   4.168   2.468   0.629 -2.0703 -0.2478 -0.9082
 4088SOL     OW23722   3.130   4.686   7.514  0.0587  0.4767  0.3678
 4088SOL    HW123723   3.192   4.641   7.457  2.7624  3.0029  1.2861
 4088SOL    HW223724   3.122   4.638   7.596 -1.5187 -1.2893 -0.8442
 4089SOL     OW23725   0.349   3.114  14.078 -0.1473  0.2173  0.2322
 4089SOL    HW123726   0.364   3.119  14.172 -0.9822 -0.7437  0.4170
 4089SOL    HW223727   0.254   3.106  14.077  0.0638 -2.0430 -0.9320
 4090SOL     OW23728   1.544   1.429   7.663  0.1958 -0.3015 -0.0599
 4090SOL    HW123729   1.618   1.483   7.691  1.6579 -0.5224 -3.4269
 4090SOL    HW223730   1.591   1.364   7.610 -2.8023 -0.7897 -2.1308
 4091SOL     OW23731   3.903   4.151  10.392 -0.3500  0.6238 -0.2652
 4091SOL    HW123732   3.866   4.063  10.406 -2.8802  1.8427  0.7415
 4091SOL    HW223733   3.968   4.141  10.323 -1.2982 -0.3018 -1.0274
 4092SOL     OW23734   1.572   0.653   6.380 -0.2773  0.4420 -0.2270
 4092SOL    HW123735   1.506   0.585   6.391  2.1497 -1.6380  1.3387
 4092SOL    HW223736   1.637   0.620   6.441 -0.8777 -0.4920 -0.1009
 4093SOL     OW23737   1.567   0.476   8.173 -0.1983  0.1124 -0.0431
 4093SOL    HW123738   1.639   0.413   8.165 -1.8271 -1.8704  0.8183
 4093SOL    HW223739   1.615   0.551   8.208  0.9238 -0.4145 -0.4469
 4094SOL     OW23740   0.526   3.823   6.936  0.1031 -0.4389 -0.2660
 4094SOL    HW123741   0.622   3.826   6.933  0.1515 -1.0145  0.6448
 4094SOL    HW223742   0.510   3.834   7.030 -1.3700 -1.5946 -0.3950
 4095SOL     OW23743   3.107   3.862   5.802  0.1813 -0.3703  0.0334
 4095SOL    HW123744   3.142   3.861   5.713 -1.3709 -1.5842 -0.5731
 4095SOL    HW223745   3.181   3.822   5.847  1.4725  0.7933 -1.0361
 4096SOL     OW23746   0.352   3.828   6.524  0.0683  0.4216  0.5601
 4096SOL    HW123747   0.373   3.770   6.598  1.5628 -1.9429 -1.7137
 4096SOL    HW223748   0.337   3.760   6.459  0.7340  0.8145 -0.0094
 4097SOL     OW23749   0.580   1.527   3.562  0.3423 -0.1150  0.4428
 4097SOL    HW123750   0.580   1.589   3.489 -0.4431  1.0493  1.4362
 4097SOL    HW223751   0.627   1.581   3.625 -0.0669  0.3201  0.3759
 4098SOL     OW23752   2.478   0.173   4.916  0.6889  0.2023 -0.0101
 4098SOL    HW123753   2.464   0.149   4.824 -1.5723 -0.4579  0.5146
 4098SOL    HW223754   2.516   0.092   4.948 -0.8105 -0.7740 -0.7020
 4099SOL     OW23755   3.060   3.186  16.959  0.0294  0.1815  0.0433
 4099SOL    HW123756   2.985   3.216  16.908 -0.0213 -0.1530 -0.0781
 4099SOL    HW223757   3.021   3.111  17.005  2.5473 -0.5524  1.0038
 4100SOL     OW23758   1.752   4.610  12.812 -0.3234  0.0146  0.0857
 4100SOL    HW123759   1.764   4.650  12.725 -1.1153 -0.8649 -0.4230
 4100SOL    HW223760   1.659   4.630  12.823 -0.4954  0.1517 -1.5238
 4101SOL     OW23761   3.750   0.566   2.713 -0.2593  0.1843 -0.4833
 4101SOL    HW123762   3.793   0.519   2.642  1.6364  2.0841 -0.5787
 4101SOL    HW223763   3.663   0.584   2.677 -0.0096  1.3539 -0.5014
 4102SOL     OW23764   0.525   3.751   1.325  0.3928 -0.0796 -0.2519
 4102SOL    HW123765   0.595   3.809   1.293 -0.4123  2.5416  2.7018
 4102SOL    HW223766   0.575   3.673   1.349 -1.7625 -1.5487 -0.6316
 4103SOL     OW23767   1.347   1.416  13.177  0.2920  0.2067  0.7758
 4103SOL    HW123768   1.342   1.348  13.110  1.0545 -1.5273  2.4873
 4103SOL    HW223769   1.256   1.436  13.198 -0.0716 -0.9983  0.3717
 4104SOL     OW23770   0.010   1.408   7.493 -0.2943  0.3445  0.2651
 4104SOL    HW123771   0.054   1.437   7.413  0.5518  1.0354  0.9763
 4104SOL    HW223772   0.032   1.315   7.486 -0.3900  0.3518 -0.1078
 4105SOL     OW23773   2.177   0.159   7.040  0.3118 -0.0195  0.4532
 4105SOL    HW123774   2.250   0.155   7.101 -1.3194  0.6773  2.4210
 4105SOL    HW223775   2.191   0.077   6.991  0.9440 -0.1919  0.9246
 4106SOL     OW23776   3.137   3.200  15.886  0.2297 -0.0675  1.0783
 4106SOL    HW123777   3.088   3.282  15.888  0.3941  0.0953 -0.8793
 4106SOL    HW223778   3.102   3.157  15.808 -1.2636  1.4175  0.9321
 4107SOL     OW23779   2.383   4.336   4.635 -0.3757  0.3224 -0.5937
 4107SOL    HW123780   2.438   4.412   4.617 -2.1246  1.0442 -2.7788
 4107SOL    HW223781   2.345   4.319   4.549 -0.1757  2.0628 -1.0249
 4108SOL     OW23782   2.491   0.764   9.738  0.1017 -0.0340  0.3296
 4108SOL    HW123783   2.490   0.750   9.644  2.1998 -1.7307  0.5859
 4108SOL    HW223784   2.562   0.827   9.748  0.8779 -0.7286 -0.9743
 4109SOL     OW23785   1.869   0.332   7.738 -0.8279 -0.2745 -0.5377
 4109SOL    HW123786   1.833   0.368   7.657  0.4062 -0.3238 -1.1084
 4109SOL    HW223787   1.922   0.407   7.768  0.9617 -1.8688  0.2823
 4110SOL     OW23788   2.007   2.565  16.387 -0.3927  0.2368  0.6301
 4110SOL    HW123789   1.971   2.534  16.470 -1.8422  0.5524  0.1215
 4110SOL    HW223790   1.940   2.606  16.333  0.1000  0.0321 -0.1312
 4111SOL     OW23791   1.161   0.561   5.003  0.3722 -0.3128 -0.0387
 4111SOL    HW123792   1.170   0.592   4.913  4.1507  1.0614  0.8081
 4111SOL    HW223793   1.190   0.636   5.055  0.2968 -1.1240  1.1739
 4112SOL     OW23794   3.889   2.872   7.873 -0.2936  0.6557 -0.2554
 4112SOL    HW123795   3.872   2.965   7.858 -0.6896  0.5741 -0.2908
 4112SOL    HW223796   3.819   2.825   7.827  0.7069 -0.1696 -0.9701
 4113SOL     OW23797   0.681   4.435   9.957  0.6525 -0.0306  0.4050
 4113SOL    HW123798   0.587   4.420   9.943  0.3055  1.3298  1.2309
 4113SOL    HW223799   0.676   4.531   9.955  0.5627 -0.0477 -0.0591
 4114SOL     OW23800   0.596   0.730  17.600 -0.1378  0.3308 -0.3682
 4114SOL    HW123801   0.655   0.681  17.656  2.0313  1.3981 -1.7199
 4114SOL    HW223802   0.515   0.725  17.650  1.8267 -0.6087  2.6990
 4115SOL     OW23803   4.214   2.923   4.996 -0.1797 -0.0500  0.3602
 4115SOL    HW123804   4.195   3.014   4.973 -0.8581 -0.2848 -0.0097
 4115SOL    HW223805   4.128   2.882   4.997  1.1305 -2.6789  3.9245
 4116SOL     OW23806   0.262   0.281   3.413 -0.2769  0.4118 -0.3778
 4116SOL    HW123807   0.259   0.273   3.317 -1.4676  0.6413 -0.3527
 4116SOL    HW223808   0.237   0.192   3.437  0.8562  0.0971 -0.3375
 4117SOL     OW23809   2.533   0.272   9.380 -0.3988  0.3886 -0.2043
 4117SOL    HW123810   2.572   0.289   9.466 -2.6136 -0.3349  0.9453
 4117SOL    HW223811   2.494   0.188   9.404 -0.7875  0.4632 -0.5857
 4118SOL     OW23812   1.691   1.590   9.698  0.2709  0.3612 -0.1010
 4118SOL    HW123813   1.621   1.533   9.728  1.6570 -0.2671  1.8800
 4118SOL    HW223814   1.656   1.674   9.730 -0.1363  0.0464  0.2696
 4119SOL     OW23815   4.376   4.628   6.418 -0.6964  0.6612 -0.5638
 4119SOL    HW123816   4.327   4.708   6.400 -0.8561  0.5474 -0.6328
 4119SOL    HW223817   4.468   4.645   6.397 -0.3208  0.5395  0.9633
 4120SOL     OW23818   4.033   0.592   5.657  0.1613  0.2186  0.1693
 4120SOL    HW123819   4.033   0.595   5.562  2.2727  1.8709  0.2165
 4120SOL    HW223820   4.109   0.536   5.675  0.2490  0.7198  1.3826
 4121SOL     OW23821   4.388   0.576  13.523 -0.3159  0.2895 -0.5625
 4121SOL    HW123822   4.343   0.620  13.595  0.0869  0.0947 -0.1936
 4121SOL    HW223823   4.385   0.489  13.563 -0.5893  0.3776 -0.3918
 4122SOL     OW23824   4.654   2.664   6.371 -0.4346  0.2277 -0.1409
 4122SOL    HW123825   4.589   2.595   6.358 -2.1969  1.7991  0.2847
 4122SOL    HW223826   4.602   2.710   6.437 -1.3096 -0.2332 -0.5105
 4123SOL     OW23827   2.375   0.331   3.439 -0.2425  0.4448 -0.3558
 4123SOL    HW123828   2.370   0.425   3.421  0.1490  0.1786 -1.8648
 4123SOL    HW223829   2.345   0.295   3.355  0.0940 -1.3629  0.2882
 4124SOL     OW23830   0.398   3.247   8.123 -0.3599  0.1518 -0.4542
 4124SOL    HW123831   0.404   3.251   8.028  2.2349  0.4854 -0.2922
 4124SOL    HW223832   0.335   3.313   8.151  0.2996 -0.1163  1.6951
 4125SOL     OW23833   3.745   0.110  10.399 -0.0302 -0.3694 -0.4856
 4125SOL    HW123834   3.740   0.075  10.488 -0.9962 -1.3044 -0.9122
 4125SOL    HW223835   3.839   0.131  10.398 -0.2052  0.5452  3.9042
 4126SOL     OW23836   4.288   2.691   5.609  0.0479  0.0633  0.0059
 4126SOL    HW123837   4.217   2.751   5.584 -0.5957 -0.2789  1.0320
 4126SOL    HW223838   4.240   2.610   5.592  3.1480 -1.6369 -0.5229
 4127SOL     OW23839   3.666   0.895  17.446  0.1636 -0.4386  0.7830
 4127SOL    HW123840   3.740   0.848  17.482 -0.7636 -0.4187  2.7396
 4127SOL    HW223841   3.676   0.984  17.480  1.0415  0.1117 -0.9148
 4128SOL     OW23842   2.829   2.766  16.049  0.4261 -0.0013  0.5306
 4128SOL    HW123843   2.756   2.777  15.989 -0.2144  3.0877  1.8611
 4128SOL    HW223844   2.833   2.857  16.079 -2.1452  0.5399 -0.7732
 4129SOL     OW23845   4.646   3.943   5.130 -0.5660  1.4497 -0.4893
 4129SOL    HW123846   4.559   3.903   5.131 -0.1899  0.7071  1.1476
 4129SOL    HW223847   4.682   3.930   5.217 -0.8611 -0.9441 -0.7230
 4130SOL     OW23848   4.709   2.231   6.695 -0.0600  0.5863  0.0576
 4130SOL    HW123849   0.025   2.196   6.615 -2.0865 -2.0002  0.2232
 4130SOL    HW223850   0.056   2.223   6.761  0.2078  0.4361 -0.2377
 4131SOL     OW23851   4.603   2.266  11.147 -0.0604  0.6080 -0.2843
 4131SOL    HW123852   4.692   2.247  11.177 -0.1829  1.9492  0.9337
 4131SOL    HW223853   4.581   2.322  11.222 -0.8378 -1.8038  1.3158
 4132SOL     OW23854   3.459   1.409  15.169  0.7793  0.3564 -0.4074
 4132SOL    HW123855   3.497   1.331  15.128 -0.6125 -0.9910  0.8513
 4132SOL    HW223856   3.427   1.458  15.094  0.0739  2.0811  1.0084
 4133SOL     OW23857   1.515   1.742  12.550  0.0724  0.2723  0.4531
 4133SOL    HW123858   1.421   1.756  12.562  0.3195  0.2984  2.4019
 4133SOL    HW223859   1.529   1.783  12.465  0.0050  0.1201  0.3706
 4134SOL     OW23860   3.507   3.261   4.151  0.0724  0.3912  0.6259
 4134SOL    HW123861   3.420   3.229   4.127  1.0029  0.1465 -2.4413
 4134SOL    HW223862   3.538   3.285   4.064  0.2547 -0.8047  0.3567
 4135SOL     OW23863   1.052   4.587   3.933  0.5397 -0.2103 -0.0148
 4135SOL    HW123864   1.083   4.549   4.015  0.4016  0.2222  0.2363
 4135SOL    HW223865   1.137   4.608   3.895  1.2112  0.3638  1.8278
 4136SOL     OW23866   4.654   0.443   5.651  0.0612  0.1431  0.0628
 4136SOL    HW123867   4.717   0.409   5.714  0.0835 -2.9342 -1.6203
 4136SOL    HW223868   4.706   0.452   5.571  0.0307 -3.7442 -0.3826
 4137SOL     OW23869   3.843   0.297   5.290 -0.0558 -0.4219 -0.0502
 4137SOL    HW123870   3.852   0.232   5.221 -0.2076  2.1551 -2.5150
 4137SOL    HW223871   3.933   0.307   5.319  0.2155  0.3413 -1.1562
 4138SOL     OW23872   2.571   1.845   0.783 -0.4989  0.6718  0.1659
 4138SOL    HW123873   2.659   1.829   0.750 -1.0474  1.3332 -1.6361
 4138SOL    HW223874   2.602   1.873   0.869  4.4853  1.0925 -1.7790
 4139SOL     OW23875   2.821   0.263   7.233 -0.3976  0.0818  0.2428
 4139SOL    HW123876   2.846   0.223   7.316 -0.9848  0.8647  0.7884
 4139SOL    HW223877   2.874   0.211   7.172  0.9771  0.6258  0.9748
 4140SOL     OW23878   4.448   3.654   3.607  0.0085 -0.2838  0.5844
 4140SOL    HW123879   4.442   3.749   3.611  1.6028 -0.1722  0.3803
 4140SOL    HW223880   4.542   3.648   3.629  0.6773  1.3782 -1.8984
 4141SOL     OW23881   1.554   4.298   8.588 -0.2283  0.4546  0.0641
 4141SOL    HW123882   1.569   4.280   8.681 -1.4960 -0.8600  0.0122
 4141SOL    HW223883   1.641   4.336   8.571  0.7691 -2.6499 -1.6681
 4142SOL     OW23884   4.438   2.267   4.007 -0.2036 -0.3580 -0.5211
 4142SOL    HW123885   4.517   2.251   4.059  0.4680 -2.4154 -2.1686
 4142SOL    HW223886   4.377   2.273   4.080 -0.1531  0.4312 -0.5400
 4143SOL     OW23887   0.697   2.991  11.269  0.3025 -0.2108 -0.2706
 4143SOL    HW123888   0.726   2.990  11.178  0.0246  0.5147 -0.3640
 4143SOL    HW223889   0.782   2.993  11.312  0.8597  0.8091 -1.4275
 4144SOL     OW23890   0.783   1.981   3.741 -0.3595  0.3345  0.2123
 4144SOL    HW123891   0.860   2.029   3.774 -1.7499  0.2339  3.6376
 4144SOL    HW223892   0.714   2.037   3.777 -0.5476 -0.2005  0.6811
 4145SOL     OW23893   3.066   1.977   4.577  0.0563 -0.5393 -0.0546
 4145SOL    HW123894   3.127   1.915   4.616  1.0491 -0.7022 -1.8506
 4145SOL    HW223895   2.987   1.939   4.617 -0.1289 -0.7175 -0.5783
 4146SOL     OW23896   1.548   2.421   7.286 -0.4210  0.0977  0.5517
 4146SOL    HW123897   1.453   2.424   7.276 -0.5429 -0.2080  1.7263
 4146SOL    HW223898   1.561   2.348   7.346 -0.1787 -0.6436 -0.4053
 4147SOL     OW23899   1.549   3.656   9.076  0.5791  0.1699 -0.0701
 4147SOL    HW123900   1.455   3.668   9.091  0.4305  0.5068 -1.3303
 4147SOL    HW223901   1.565   3.562   9.066  1.4556  0.4005 -0.7937
 4148SOL     OW23902   1.206   2.101   4.640  0.4470  0.0793 -0.4050
 4148SOL    HW123903   1.237   2.172   4.696  0.3611  1.2116 -1.7813
 4148SOL    HW223904   1.115   2.129   4.636  0.7561  1.0332 -0.7819
 4149SOL     OW23905   1.048   0.660   7.209 -0.2560 -0.1793  1.1254
 4149SOL    HW123906   0.996   0.583   7.184 -0.2713  0.8189 -1.8645
 4149SOL    HW223907   0.974   0.718   7.225 -0.7792 -0.1179 -1.5293
 4150SOL     OW23908   3.990   3.722   8.394 -0.1544 -0.0124 -0.2082
 4150SOL    HW123909   3.908   3.747   8.437  0.2518  2.2962 -0.7632
 4150SOL    HW223910   4.010   3.794   8.334 -0.6366  0.1860 -0.1306
 4151SOL     OW23911   1.251   2.718  13.302  0.0307 -0.2215 -0.4356
 4151SOL    HW123912   1.280   2.764  13.381  1.6915 -5.8633  2.1706
 4151SOL    HW223913   1.172   2.668  13.320  0.8972 -1.8428 -1.1631
 4152SOL     OW23914   4.152   0.603   3.929  0.2662 -0.2816 -0.0031
 4152SOL    HW123915   4.149   0.658   3.850  2.5399 -0.9089 -0.5389
 4152SOL    HW223916   4.154   0.670   3.997  1.8534  0.3648 -0.7024
 4153SOL     OW23917   1.129   1.289   1.030  0.3077 -0.2494 -0.9856
 4153SOL    HW123918   1.202   1.297   0.969  0.2137 -0.9285 -1.1905
 4153SOL    HW223919   1.072   1.355   0.993  0.3707 -0.7810 -2.0157
 4154SOL     OW23920   2.538   0.378   4.085 -0.1239  0.7822  0.2674
 4154SOL    HW123921   2.458   0.409   4.126 -1.1401 -0.6670 -0.6104
 4154SOL    HW223922   2.521   0.286   4.065  0.5798  0.5480  0.7548
 4155SOL     OW23923   3.313   1.714   8.068 -0.5379 -0.3294  0.3848
 4155SOL    HW123924   3.265   1.669   8.137  0.3549 -0.0105  1.2069
 4155SOL    HW223925   3.345   1.791   8.115 -0.8612  1.3476 -2.1237
 4156SOL     OW23926   1.077   1.850  11.763 -0.2827  0.4350  0.6167
 4156SOL    HW123927   1.002   1.819  11.713  0.9760 -0.3764 -0.7577
 4156SOL    HW223928   1.117   1.896  11.689  2.7129 -0.0234  1.9495
 4157SOL     OW23929   1.395   3.554   9.980 -0.1700  0.2698  0.0435
 4157SOL    HW123930   1.382   3.647   9.964  0.6862  0.3845  0.0224
 4157SOL    HW223931   1.451   3.548  10.058 -0.6624 -0.6247  0.3409
 4158SOL     OW23932   4.132   0.718  13.561 -0.5592  0.2998 -0.7153
 4158SOL    HW123933   4.071   0.792  13.553  0.2802  1.0208 -0.3976
 4158SOL    HW223934   4.064   0.652  13.576  0.3552 -0.8698 -1.7815
 4159SOL     OW23935   2.719   2.459   5.578  0.5912  0.1310 -0.4571
 4159SOL    HW123936   2.663   2.496   5.509  0.1665 -0.2927 -0.3430
 4159SOL    HW223937   2.663   2.443   5.653  1.3585  0.1770  0.1230
 4160SOL     OW23938   2.498   1.792  12.597 -0.1757 -0.2655 -0.0455
 4160SOL    HW123939   2.552   1.812  12.521 -0.0025  0.7161  0.3358
 4160SOL    HW223940   2.408   1.789  12.563 -0.6147 -0.4510  1.1218
 4161SOL     OW23941   0.650   1.419   7.328  0.0248 -0.4875 -0.5353
 4161SOL    HW123942   0.743   1.407   7.309  0.5210  1.5593  0.5811
 4161SOL    HW223943   0.634   1.512   7.317  0.3297 -0.4103 -0.3124
 4162SOL     OW23944   4.634   1.835   7.538  0.1214 -0.5109 -0.0472
 4162SOL    HW123945   4.624   1.805   7.448 -0.7917  0.0957 -0.1463
 4162SOL    HW223946   4.631   1.930   7.531  1.6860 -0.3132  1.9081
 4163SOL     OW23947   4.495   0.381   0.908  0.2420  0.5739  0.0206
 4163SOL    HW123948   4.423   0.344   0.960 -1.2044  2.5636 -0.5587
 4163SOL    HW223949   4.451   0.419   0.832  1.1660  1.8074  0.1058
 4164SOL     OW23950   3.066   1.671   6.055  0.2976  0.6691  0.1374
 4164SOL    HW123951   3.076   1.765   6.034 -2.1268  0.8336 -0.2043
 4164SOL    HW223952   3.087   1.674   6.148 -2.6141  0.1064  0.7763
 4165SOL     OW23953   3.907   3.701   5.998  0.1532  0.2256  0.3723
 4165SOL    HW123954   3.905   3.767   6.068 -0.2458  0.3352  0.2567
 4165SOL    HW223955   3.917   3.752   5.918  0.4529  0.5396  0.6101
 4166SOL     OW23956   2.521   1.836   9.793 -0.2390  0.1563  0.1197
 4166SOL    HW123957   2.496   1.820   9.702 -1.1225 -0.1489  0.4095
 4166SOL    HW223958   2.549   1.747   9.814  0.7356  0.4177 -0.1088
 4167SOL     OW23959   3.056   2.843   4.251 -0.5691 -0.0272 -0.0863
 4167SOL    HW123960   3.057   2.769   4.191 -0.0776 -1.3845  1.5864
 4167SOL    HW223961   2.972   2.820   4.291  0.5571 -0.2023  2.1698
 4168SOL     OW23962   3.734   4.510   3.709 -0.2287  0.3098  0.8326
 4168SOL    HW123963   3.721   4.416   3.717 -3.0538  0.4879 -1.6905
 4168SOL    HW223964   3.642   4.536   3.713 -0.2239  0.3469  0.7047
 4169SOL     OW23965   1.386   4.550   0.743  0.8776  0.1719  0.1397
 4169SOL    HW123966   1.359   4.469   0.786  1.0699 -0.1741 -0.3913
 4169SOL    HW223967   1.409   4.520   0.655  1.7054  0.6423  0.1962
 4170SOL     OW23968   0.822   4.083   6.932  0.6671 -0.3524 -0.6762
 4170SOL    HW123969   0.779   4.070   7.017  1.6164  2.3726  0.2092
 4170SOL    HW223970   0.836   4.177   6.926 -0.0859 -0.3462 -2.4200
 4171SOL     OW23971   3.499   4.098  11.006 -0.2929 -0.6839 -0.3513
 4171SOL    HW123972   3.570   4.124  10.947 -1.1378 -0.2187 -1.1672
 4171SOL    HW223973   3.529   4.147  11.082 -3.2160  0.3049  0.1376
 4172SOL     OW23974   4.118   4.384   4.010 -0.1727  0.1991 -0.5700
 4172SOL    HW123975   4.213   4.386   4.008 -0.1015 -0.8320  1.3348
 4172SOL    HW223976   4.107   4.313   4.074  1.1693  0.0003 -0.5637
 4173SOL     OW23977   3.940   3.176  15.849 -0.2802  0.2148 -0.0706
 4173SOL    HW123978   3.952   3.093  15.802  0.4233  0.4373 -0.2821
 4173SOL    HW223979   4.012   3.179  15.912 -0.7286 -1.8363  0.5409
 4174SOL     OW23980   1.253   2.963   2.767  0.7397 -0.4055 -0.4046
 4174SOL    HW123981   1.212   3.044   2.797  2.2182  0.9563 -1.9662
 4174SOL    HW223982   1.289   2.983   2.680 -0.4749  1.5346 -0.4712
 4175SOL     OW23983   4.444   0.722   4.196 -0.2581 -0.2493 -0.5563
 4175SOL    HW123984   4.491   0.654   4.245 -1.5319  0.0810  1.1308
 4175SOL    HW223985   4.477   0.703   4.109 -1.8196 -1.2124 -0.9393
 4176SOL     OW23986   3.258   2.164   4.762 -0.3592  0.2317  0.3765
 4176SOL    HW123987   3.338   2.114   4.779 -0.0040  0.2125 -1.3100
 4176SOL    HW223988   3.239   2.136   4.672 -1.4059  1.4904  0.1963
 4177SOL     OW23989   0.598   2.397  11.771 -1.0517 -0.9288  0.3326
 4177SOL    HW123990   0.571   2.343  11.846  0.4998 -1.9606  0.1477
 4177SOL    HW223991   0.688   2.393  11.801 -0.9323 -2.0038 -0.1640
 4178SOL     OW23992   3.905   4.081   6.726 -0.7026 -0.9307  0.0141
 4178SOL    HW123993   3.906   4.024   6.803 -0.9090 -1.5237 -0.4328
 4178SOL    HW223994   3.971   4.046   6.667 -0.6309  0.2223 -0.5951
 4179SOL     OW23995   4.453   0.579   3.230 -0.1925 -0.1123  0.2279
 4179SOL    HW123996   4.371   0.626   3.215  0.2285 -0.0387 -1.9072
 4179SOL    HW223997   4.488   0.569   3.141  0.6437  0.4404  0.4955
 4180SOL     OW23998   2.860   3.065   1.877  0.3705  0.1314 -0.4348
 4180SOL    HW123999   2.939   3.033   1.921  0.6575  0.7056 -0.5319
 4180SOL    HW224000   2.823   3.111   1.953  0.8323 -0.6329  0.2562
 4181SOL     OW24001   0.960   4.290   4.418 -0.0703  0.0562 -0.1590
 4181SOL    HW124002   1.043   4.298   4.372 -0.0282  0.5079 -0.0101
 4181SOL    HW224003   0.942   4.196   4.410 -1.6669  0.4191 -0.9143
 4182SOL     OW24004   3.305   2.320   6.257 -0.0230 -0.6162 -0.5120
 4182SOL    HW124005   3.361   2.331   6.335  0.5662 -0.4308 -0.9580
 4182SOL    HW224006   3.235   2.264   6.290 -1.0545  1.2129  0.3812
 4183SOL     OW24007   4.197   3.068   2.715 -0.1306 -0.5769  0.3398
 4183SOL    HW124008   4.266   3.078   2.781  0.8052  1.4767 -0.9369
 4183SOL    HW224009   4.225   3.124   2.642 -0.3298  0.7143  1.2408
 4184SOL     OW24010   3.231   2.238   5.327  0.3847 -0.1148 -0.3547
 4184SOL    HW124011   3.144   2.205   5.305  0.1701  0.5376 -0.4697
 4184SOL    HW224012   3.246   2.182   5.403  0.5306  1.1784  0.5716
 4185SOL     OW24013   3.517   1.224   7.933 -0.2950  0.0918  0.0793
 4185SOL    HW124014   3.453   1.282   7.892  0.8796  0.8233 -0.7514
 4185SOL    HW224015   3.589   1.231   7.870  1.0984  0.9252  1.7770
 4186SOL     OW24016   3.967   2.442   5.837  0.3030  0.5748  0.6828
 4186SOL    HW124017   3.907   2.436   5.763  0.5561  0.4357  0.4896
 4186SOL    HW224018   3.926   2.381   5.898  0.8757 -0.9363 -0.4615
 4187SOL     OW24019   1.519   3.793   1.890 -0.1127  0.4776  0.2863
 4187SOL    HW124020   1.470   3.768   1.812  2.6133  2.0801 -1.9280
 4187SOL    HW224021   1.502   3.888   1.891 -2.1541  0.1218 -0.2367
 4188SOL     OW24022   1.810   2.269   5.424 -0.5675 -0.2591 -0.1401
 4188SOL    HW124023   1.782   2.225   5.344  1.6764 -0.3280 -0.8813
 4188SOL    HW224024   1.731   2.297   5.470  1.0005  0.1966  2.2948
 4189SOL     OW24025   2.279   2.815   4.223  0.7859  0.4741  0.2147
 4189SOL    HW124026   2.347   2.881   4.231  1.1009  0.2666 -0.7233
 4189SOL    HW224027   2.216   2.855   4.164 -1.6560 -0.9096  1.8818
 4190SOL     OW24028   0.923   1.191   5.418 -0.2020  0.1179  0.1818
 4190SOL    HW124029   0.839   1.161   5.453 -0.2232 -0.5421 -0.4512
 4190SOL    HW224030   0.983   1.184   5.492 -0.3513  1.6880  0.4423
 4191SOL     OW24031   0.845   4.026   3.469 -0.4112 -0.0001  0.9859
 4191SOL    HW124032   0.907   4.070   3.410 -0.5647  0.1418  0.9276
 4191SOL    HW224033   0.898   3.981   3.534  0.4204  1.5411  1.3917
 4192SOL     OW24034   0.774   2.122   6.669  0.5343  0.3740 -0.4454
 4192SOL    HW124035   0.842   2.096   6.731  0.8687  1.9346 -0.1563
 4192SOL    HW224036   0.717   2.045   6.675 -0.0587  0.7108 -1.6789
 4193SOL     OW24037   4.369   0.313   2.081  0.8407  0.2613 -0.3700
 4193SOL    HW124038   4.368   0.340   1.989  2.0451 -0.4182 -0.5916
 4193SOL    HW224039   4.280   0.279   2.089  2.1011 -2.4938  1.6720
 4194SOL     OW24040   0.446   3.305   6.791  0.1263  0.1830  0.2234
 4194SOL    HW124041   0.486   3.314   6.877  0.1940 -1.2973  0.3621
 4194SOL    HW224042   0.506   3.354   6.735  2.8227  0.1006  3.1052
 4195SOL     OW24043   3.527   2.053  15.030  0.5584  0.1346  0.6249
 4195SOL    HW124044   3.571   1.972  15.057 -0.4695 -1.0192 -1.1594
 4195SOL    HW224045   3.570   2.057  14.944  0.9337 -1.6680  0.7247
 4196SOL     OW24046   4.228   3.561   3.748  0.2162 -0.3753 -0.5134
 4196SOL    HW124047   4.225   3.468   3.725  1.0520 -0.0764 -1.7861
 4196SOL    HW224048   4.312   3.580   3.707 -0.4878  0.2782 -1.6201
 4197SOL     OW24049   2.221   2.529   1.442 -0.3103 -0.4497 -0.1036
 4197SOL    HW124050   2.171   2.549   1.521  0.0867 -1.8958  0.5024
 4197SOL    HW224051   2.272   2.455   1.475  1.1697 -0.1668 -1.7502
 4198SOL     OW24052   3.772   0.281   7.775  0.3209  0.4074 -0.3467
 4198SOL    HW124053   3.789   0.372   7.797  3.1747  0.3076 -2.0588
 4198SOL    HW224054   3.689   0.285   7.728  0.3161  0.5287 -0.3267
 4199SOL     OW24055   3.467   0.056   5.456  0.3461 -0.6520  0.5120
 4199SOL    HW124056   3.461   0.151   5.455 -0.2124 -0.6865 -1.1786
 4199SOL    HW224057   3.374   0.033   5.446  0.2139  0.0863 -0.0194
 4200SOL     OW24058   2.488   3.257   7.205  0.2490 -0.0639  0.1796
 4200SOL    HW124059   2.506   3.333   7.260 -5.7413  1.0814  0.5122
 4200SOL    HW224060   2.394   3.255   7.221  0.4294  1.8846  1.4554
 4201SOL     OW24061   3.997   2.711   5.010 -0.0800  0.2305  0.6966
 4201SOL    HW124062   4.050   2.674   4.939  1.0604  1.0744  1.1146
 4201SOL    HW224063   4.037   2.657   5.078 -0.9227  1.4520  2.1590
 4202SOL     OW24064   1.806   3.868   6.915 -0.5902 -0.1492 -0.2963
 4202SOL    HW124065   1.827   3.777   6.932 -0.2488  0.1264  0.7772
 4202SOL    HW224066   1.751   3.856   6.839 -1.0033  3.4836 -0.6023
 4203SOL     OW24067   2.757   3.598   6.278  0.2544  0.0986 -0.3722
 4203SOL    HW124068   2.770   3.692   6.260  0.9359 -0.0822 -0.8320
 4203SOL    HW224069   2.689   3.595   6.346  0.4475  1.6951 -0.1103
 4204SOL     OW24070   0.487   0.306   3.551 -0.3449 -0.4386 -0.3558
 4204SOL    HW124071   0.415   0.290   3.490  0.0608  0.1770 -1.0057
 4204SOL    HW224072   0.536   0.224   3.547 -1.9349 -1.4231  0.3289
 4205SOL     OW24073   0.263   0.108   4.898  0.0821 -0.5438  0.5288
 4205SOL    HW124074   0.314   0.056   4.835 -1.4777  0.9618 -1.9745
 4205SOL    HW224075   0.185   0.121   4.844 -0.0283 -1.5981  0.4215
 4206SOL     OW24076   3.437   1.184  16.928 -0.1095  0.5027 -0.2427
 4206SOL    HW124077   3.520   1.159  16.967 -1.5038 -0.8247  1.8599
 4206SOL    HW224078   3.429   1.092  16.903  2.1367  0.3400 -0.3233
 4207SOL     OW24079   3.064   1.631  14.248  0.0013  0.0824 -0.3708
 4207SOL    HW124080   3.114   1.554  14.277  2.0870  1.6863  0.3252
 4207SOL    HW224081   3.021   1.586  14.175 -2.2631  0.0809  0.9584
 4208SOL     OW24082   0.836   3.408   2.749 -0.0939 -0.3502  0.0632
 4208SOL    HW124083   0.826   3.488   2.697  1.3647 -0.4233 -0.3179
 4208SOL    HW224084   0.929   3.393   2.737  0.5240  3.9762 -0.6264
 4209SOL     OW24085   1.694   1.170   8.996 -0.4648  0.4330 -0.2535
 4209SOL    HW124086   1.711   1.264   8.990  2.1839 -0.0065  0.4859
 4209SOL    HW224087   1.694   1.145   9.088 -1.4236 -0.6819 -0.5607
 4210SOL     OW24088   3.975   1.414   5.413 -0.1512  0.0183  0.1409
 4210SOL    HW124089   3.938   1.371   5.336 -0.5148 -0.3497  0.5246
 4210SOL    HW224090   3.995   1.337   5.466 -2.1981 -0.9073 -0.4218
 4211SOL     OW24091   0.069   1.657  16.259  0.1180  0.0997  0.0968
 4211SOL    HW124092   0.079   1.642  16.353 -0.2236 -1.9472 -0.2079
 4211SOL    HW224093   0.155   1.644  16.219 -0.0412 -0.4795 -0.0570
 4212SOL     OW24094   2.353   0.192  10.913 -0.2659  0.0685 -0.2162
 4212SOL    HW124095   2.274   0.200  10.966  0.0492  4.2773 -0.3872
 4212SOL    HW224096   2.429   0.170  10.967  0.2257 -0.1971 -1.0067
 4213SOL     OW24097   0.364   4.195   5.505  0.2591  0.1373 -0.3929
 4213SOL    HW124098   0.424   4.246   5.560 -1.9964  0.3797  1.8171
 4213SOL    HW224099   0.393   4.224   5.418 -1.3437  0.7968 -0.7092
 4214SOL     OW24100   1.729   0.339   3.778 -0.4626  0.0853 -0.3272
 4214SOL    HW124101   1.681   0.394   3.840  2.1539  1.9986  0.0245
 4214SOL    HW224102   1.813   0.383   3.773 -0.6307  0.4008 -0.4073
 4215SOL     OW24103   0.963   2.067   2.381 -0.1906  0.5613 -0.3369
 4215SOL    HW124104   0.944   2.037   2.470 -0.8235  1.5808 -0.1264
 4215SOL    HW224105   0.871   2.084   2.358 -0.7531  1.2935  2.4400
 4216SOL     OW24106   4.276   1.501   4.412 -0.3082  0.2340 -0.1054
 4216SOL    HW124107   4.265   1.520   4.505  2.6696  0.4010  0.2047
 4216SOL    HW224108   4.269   1.405   4.410  2.9129  0.0356 -0.8771
 4217SOL     OW24109   0.296   2.129   8.820 -0.3502  0.1590 -0.9305
 4217SOL    HW124110   0.250   2.179   8.887  0.0867 -0.3640 -0.2388
 4217SOL    HW224111   0.344   2.063   8.870 -1.5336  0.9553  1.2764
 4218SOL     OW24112   0.824   4.608  14.768 -0.2989 -0.3588 -0.2646
 4218SOL    HW124113   0.754   4.658  14.809 -0.5801 -0.1810 -0.9582
 4218SOL    HW224114   0.835   4.541  14.836 -1.3189  0.9439  1.1686
 4219SOL     OW24115   1.676   3.556   5.932  0.2209 -0.0778  0.0177
 4219SOL    HW124116   1.619   3.577   6.005 -1.4235 -1.3560 -0.9152
 4219SOL    HW224117   1.668   3.462   5.918 -0.4699 -0.0670  0.3486
 4220SOL     OW24118   1.029   0.862   8.340 -0.4673 -0.2016 -0.2907
 4220SOL    HW124119   1.045   0.797   8.409  0.7961  3.1456  2.5576
 4220SOL    HW224120   0.978   0.928   8.387 -0.6780 -0.2780 -0.4119
 4221SOL     OW24121   2.642   1.458   9.075  0.0784 -0.0163 -0.0534
 4221SOL    HW124122   2.703   1.486   9.007 -1.7227 -0.1574 -1.7114
 4221SOL    HW224123   2.633   1.538   9.126  1.9712  0.6139 -0.6991
 4222SOL     OW24124   1.529   1.732   2.051 -0.9503 -0.1569 -0.2131
 4222SOL    HW124125   1.550   1.751   2.143 -1.3968 -1.5599  0.1773
 4222SOL    HW224126   1.470   1.658   2.067  0.5662 -1.9114 -2.7214
 4223SOL     OW24127   3.120   1.490   2.607 -0.4893 -0.6121  0.4010
 4223SOL    HW124128   3.181   1.422   2.577  0.5779  0.9399 -0.9993
 4223SOL    HW224129   3.129   1.480   2.701  0.0165 -0.6827  0.3451
 4224SOL     OW24130   2.994   1.107   0.177  0.0294  0.0217 -0.0335
 4224SOL    HW124131   2.948   1.155   0.107 -1.2787 -0.8423  0.2441
 4224SOL    HW224132   3.050   1.053   0.121 -0.4477 -0.4544 -0.0514
 4225SOL     OW24133   3.369   0.329  14.241 -0.1557 -0.0731 -0.3815
 4225SOL    HW124134   3.436   0.395  14.260  0.1857 -0.0912 -1.5039
 4225SOL    HW224135   3.348   0.356  14.152 -1.3940  1.6329  0.4162
 4226SOL     OW24136   3.287   2.171   2.555 -0.4391 -0.3109  0.0390
 4226SOL    HW124137   3.261   2.212   2.638  0.0533 -2.3855  1.2066
 4226SOL    HW224138   3.314   2.082   2.576 -0.1020 -0.4999 -1.2237
 4227SOL     OW24139   1.908   3.351   1.049 -0.1389  0.4393  0.1714
 4227SOL    HW124140   1.914   3.376   0.957  0.0425 -0.0478  0.0477
 4227SOL    HW224141   1.991   3.383   1.083 -0.0597  1.3114 -0.8632
 4228SOL     OW24142   0.465   3.791   7.549  0.4181  0.2393  0.3272
 4228SOL    HW124143   0.507   3.873   7.573  1.4533 -0.7828  2.0513
 4228SOL    HW224144   0.400   3.788   7.620 -0.8491 -1.1850 -0.9011
 4229SOL     OW24145   0.835   1.356   9.263 -0.1147  0.0835  0.1805
 4229SOL    HW124146   0.902   1.302   9.222 -0.2199 -1.0325  1.4996
 4229SOL    HW224147   0.761   1.295   9.262 -0.0162 -0.0135 -1.7684
 4230SOL     OW24148   3.990   4.593   5.680 -0.4826 -0.3450  0.5290
 4230SOL    HW124149   4.076   4.558   5.702  0.5368 -0.2267 -3.2323
 4230SOL    HW224150   3.939   4.513   5.668 -1.0617  0.1705 -0.5242
 4231SOL     OW24151   3.775   1.048   4.607  0.1329  0.3118  0.4975
 4231SOL    HW124152   3.731   0.970   4.641 -0.4772  1.1169  1.5535
 4231SOL    HW224153   3.822   1.003   4.536 -0.7251 -1.7371  1.2134
 4232SOL     OW24154   0.039   4.495   0.661  0.1492 -0.3065  0.0567
 4232SOL    HW124155   0.050   4.401   0.645  2.1346  0.2249 -1.6978
 4232SOL    HW224156   0.130   4.521   0.670  0.1252 -0.7512  1.4993
 4233SOL     OW24157   0.498   3.280   3.456  0.1784  0.2614  0.1386
 4233SOL    HW124158   0.580   3.327   3.440  0.7685 -0.9743 -0.4774
 4233SOL    HW224159   0.451   3.328   3.388  1.5882  1.4955  0.0274
 4234SOL     OW24160   1.595   4.280  11.799 -0.6922 -0.3478 -0.0007
 4234SOL    HW124161   1.689   4.283  11.781 -0.9789  0.0372 -1.4025
 4234SOL    HW224162   1.595   4.282  11.895  4.9506  1.6810 -0.0580
 4235SOL     OW24163   3.482   0.067   0.161  0.1219 -0.5261  0.2334
 4235SOL    HW124164   3.492   0.051   0.255  1.7755  0.7108  0.2645
 4235SOL    HW224165   3.522   0.154   0.159  2.4610 -1.6023  0.4024
 4236SOL     OW24166   1.200   2.454   7.649  0.3042 -0.2681  0.7535
 4236SOL    HW124167   1.177   2.412   7.566  0.1371  2.9747 -0.8401
 4236SOL    HW224168   1.171   2.393   7.717  0.4935 -0.7074  0.4398
 4237SOL     OW24169   4.499   2.570  13.265  0.5378  0.6384  0.3339
 4237SOL    HW124170   4.536   2.492  13.225 -1.4060  1.2396 -2.6715
 4237SOL    HW224171   4.550   2.567  13.346  0.9663 -1.4532 -0.0238
 4238SOL     OW24172   0.958   0.799   2.202 -0.0465  0.0607 -0.1933
 4238SOL    HW124173   0.914   0.884   2.197 -2.6165 -1.3526 -1.6271
 4238SOL    HW224174   0.889   0.734   2.184  1.2233 -1.6844  1.2217
 4239SOL     OW24175   1.018   0.443   2.808  0.4615  0.1627  0.6026
 4239SOL    HW124176   0.972   0.461   2.726 -1.6100  0.8859  1.9257
 4239SOL    HW224177   0.952   0.451   2.877 -1.2929 -2.2755 -0.8066
 4240SOL     OW24178   4.323   2.860   6.339  0.3454 -0.2771  0.3862
 4240SOL    HW124179   4.390   2.851   6.271 -0.3463  1.3880 -0.4870
 4240SOL    HW224180   4.284   2.772   6.341 -0.1111 -0.0641  0.8769
 4241SOL     OW24181   1.773   3.479   1.779  0.0433 -0.3807  0.0640
 4241SOL    HW124182   1.833   3.538   1.824  1.3003 -0.9122 -0.9084
 4241SOL    HW224183   1.719   3.539   1.728  0.0545 -0.5355 -0.1322
 4242SOL     OW24184   1.103   4.667  10.703  0.0318 -0.5384 -0.2762
 4242SOL    HW124185   1.114   0.011  10.636 -1.1684  0.8712  0.9094
 4242SOL    HW224186   1.017   4.693  10.735  0.5740  2.0823 -0.9374
 4243SOL     OW24187   1.242   1.705  12.606  0.5358 -0.6043  0.0653
 4243SOL    HW124188   1.161   1.725  12.653 -0.4529 -1.7777 -1.1466
 4243SOL    HW224189   1.284   1.648  12.670 -0.3585  0.6838  1.7892
 4244SOL     OW24190   4.049   1.773  15.814 -0.0642 -0.4363  0.6840
 4244SOL    HW124191   4.112   1.841  15.839 -0.3103  0.5206 -1.3327
 4244SOL    HW224192   4.095   1.729  15.744  2.7012  3.1606  0.2448
 4245SOL     OW24193   3.354   1.553   6.321  0.5832 -0.3103  0.7043
 4245SOL    HW124194   3.428   1.575   6.264  0.0547  0.3533  0.2619
 4245SOL    HW224195   3.401   1.538   6.402  1.3770 -1.8984 -0.0440
 4246SOL     OW24196   2.542   3.517   2.366 -0.5544 -0.4820  0.4428
 4246SOL    HW124197   2.548   3.514   2.461  1.5268 -0.9096  0.2937
 4246SOL    HW224198   2.566   3.610   2.355 -0.4868 -0.6045 -0.5107
 4247SOL     OW24199   0.997   4.013   8.444 -0.1669 -0.3299 -0.1039
 4247SOL    HW124200   1.089   4.010   8.472 -0.2477  2.8775  0.4393
 4247SOL    HW224201   0.997   4.084   8.380  1.3331 -1.6960 -1.6294
 4248SOL     OW24202   3.152   4.466   1.527  0.0427 -0.3311 -0.1044
 4248SOL    HW124203   3.144   4.525   1.453  1.0770 -0.2785 -0.1680
 4248SOL    HW224204   3.242   4.435   1.519 -0.0721 -0.9780  1.0583
 4249SOL     OW24205   4.289   2.433   7.222 -0.2260  0.7965  0.1922
 4249SOL    HW124206   4.347   2.509   7.216 -0.8249  1.3819  1.9561
 4249SOL    HW224207   4.351   2.382   7.170 -0.4521 -1.1576  1.8299
 4250SOL     OW24208   3.060   4.640  15.600 -0.3655 -0.4111  0.1176
 4250SOL    HW124209   3.023   4.692  15.529 -1.4759  0.4593  1.3308
 4250SOL    HW224210   3.010   4.682  15.670  0.6170  0.3276  0.3615
 4251SOL     OW24211   4.628   0.951   4.270 -0.0009  0.1710 -0.3598
 4251SOL    HW124212   4.575   0.878   4.238 -0.4876  1.6233 -2.7898
 4251SOL    HW224213   4.561   1.001   4.317  0.4761  0.6048 -0.1454
 4252SOL     OW24214   3.424   3.139   5.861 -0.3350  0.3348 -0.5785
 4252SOL    HW124215   3.333   3.160   5.839 -2.2395 -5.1682  2.0539
 4252SOL    HW224216   3.410   3.047   5.883  1.6900  0.4053  0.9881
 4253SOL     OW24217   1.971   0.055   5.251  0.3699  0.0625  0.2638
 4253SOL    HW124218   2.014   4.703   5.292 -2.4374 -0.9745  1.3088
 4253SOL    HW224219   2.042   0.116   5.270  2.1432 -1.3058 -1.8937
 4254SOL     OW24220   1.805   1.233   0.441 -0.2038  0.1868 -0.4383
 4254SOL    HW124221   1.745   1.160   0.456 -1.8005  1.8632  1.2996
 4254SOL    HW224222   1.742   1.302   0.460  0.6749  1.0833 -0.7853
 4255SOL     OW24223   3.040   3.478   4.349 -0.0947 -0.5513 -0.5869
 4255SOL    HW124224   2.948   3.488   4.325  0.3564  1.7122 -1.3373
 4255SOL    HW224225   3.044   3.497   4.442  1.5197 -3.4291 -0.0789
 4256SOL     OW24226   1.385   1.715  10.909  0.3362  0.5681 -0.0030
 4256SOL    HW124227   1.343   1.740  10.827 -0.0428 -2.7264 -0.8110
 4256SOL    HW224228   1.335   1.643  10.946  1.4014  0.2570  0.8307
 4257SOL     OW24229   1.452   1.511  11.947  0.0134 -0.0479  0.2362
 4257SOL    HW124230   1.440   1.604  11.965 -1.0639  0.1289 -1.4009
 4257SOL    HW224231   1.448   1.467  12.032 -1.6439 -0.0961  0.1364
 4258SOL     OW24232   4.263   3.664   8.016 -0.5394 -0.1795 -0.4858
 4258SOL    HW124233   4.339   3.649   8.071 -0.0604  1.5743 -0.6777
 4258SOL    HW224234   4.244   3.571   8.003 -0.3331 -0.4062  0.7667
 4259SOL     OW24235   2.335   3.108   9.920  0.5327 -0.6375  0.4389
 4259SOL    HW124236   2.250   3.084   9.957  0.2666 -0.4603 -0.0584
 4259SOL    HW224237   2.338   3.039   9.854 -0.8968  1.0608 -1.3986
 4260SOL     OW24238   3.521   0.551   8.249 -0.1787  0.6025  0.0388
 4260SOL    HW124239   3.594   0.492   8.267 -1.3354 -0.9280 -0.3335
 4260SOL    HW224240   3.561   0.624   8.203  0.8529 -1.0602 -1.6565
 4261SOL     OW24241   1.730   1.998   3.716  0.2071  0.5535  0.2622
 4261SOL    HW124242   1.750   1.992   3.623  3.4401 -0.4962  1.0239
 4261SOL    HW224243   1.723   1.905   3.738  0.3731  0.5650  0.3660
 4262SOL     OW24244   4.684   2.732   7.713  0.3723  0.4297  0.3543
 4262SOL    HW124245   4.676   2.640   7.687 -1.6369  0.9632 -0.9725
 4262SOL    HW224246   4.596   2.763   7.693  1.3808  2.8032 -0.3163
 4263SOL     OW24247   0.044   3.230   9.438  0.2062 -0.2669  0.6766
 4263SOL    HW124248   4.684   3.183   9.455  0.2628 -1.0372 -1.1674
 4263SOL    HW224249   0.014   3.321   9.435  1.6985  0.1564 -1.3222
 4264SOL     OW24250   0.184   4.417  13.399 -0.5706 -0.2668  0.0203
 4264SOL    HW124251   0.117   4.413  13.331 -0.6633 -0.3839  0.1173
 4264SOL    HW224252   0.258   4.448  13.348  0.9402  0.6755  2.7730
 4265SOL     OW24253   2.264   1.839  10.260 -0.6865  0.6485 -0.0141
 4265SOL    HW124254   2.172   1.864  10.267 -1.3624 -1.7160 -0.4275
 4265SOL    HW224255   2.274   1.750  10.292  1.9723  0.7461 -0.5279
 4266SOL     OW24256   3.212   2.575  16.161  0.7267  0.0433  0.6870
 4266SOL    HW124257   3.296   2.621  16.166  0.8459  0.1653 -2.4464
 4266SOL    HW224258   3.149   2.646  16.170  1.0028  0.2083  1.2695
 4267SOL     OW24259   3.900   1.428   8.044 -0.3567  0.0275  0.0454
 4267SOL    HW124260   3.843   1.354   8.063 -0.5914  0.6068  1.5569
 4267SOL    HW224261   3.975   1.416   8.103  0.2128  2.8274 -0.1067
 4268SOL     OW24262   3.087   2.205   5.701  0.0158 -0.2505  0.3614
 4268SOL    HW124263   3.134   2.212   5.784 -0.1743  1.1232  0.3562
 4268SOL    HW224264   3.142   2.151   5.644 -1.1656 -1.5918  0.5040
 4269SOL     OW24265   1.226   0.120   6.513 -0.7031  0.1470 -1.1087
 4269SOL    HW124266   1.161   0.050   6.519  0.9867 -1.4569 -1.4386
 4269SOL    HW224267   1.220   0.138   6.419  1.2582  0.5246 -1.1613
 4270SOL     OW24268   2.532   1.386   2.935  0.6028 -0.0993  0.3393
 4270SOL    HW124269   2.579   1.394   2.852  1.3355  0.1271  0.7711
 4270SOL    HW224270   2.602   1.412   2.995  0.2710  1.1288  0.1958
 4271SOL     OW24271   1.180   0.765   4.132  0.1357  0.0775  0.2271
 4271SOL    HW124272   1.153   0.697   4.070  0.4154  1.7459 -1.7527
 4271SOL    HW224273   1.138   0.845   4.099 -0.7919 -0.5441 -0.1031
 4272SOL     OW24274   1.964   2.062   5.710 -0.8589 -0.2596 -0.4026
 4272SOL    HW124275   1.909   2.122   5.760 -2.0256  0.0989 -2.1133
 4272SOL    HW224276   1.923   1.978   5.734 -1.9554  0.4532  0.2048
 4273SOL     OW24277   1.032   1.915  12.463 -0.4765  0.1385 -0.5253
 4273SOL    HW124278   0.988   1.832  12.481 -0.4324  0.3810  0.6871
 4273SOL    HW224279   1.087   1.902  12.385 -0.3607 -4.7969  0.3951
 4274SOL     OW24280   2.064   3.703   6.587 -0.9327  0.4367  0.0898
 4274SOL    HW124281   2.072   3.685   6.493 -2.3498 -3.8765  0.8218
 4274SOL    HW224282   2.015   3.785   6.583  2.3084  2.2451 -3.2587
 4275SOL     OW24283   3.260   3.188   2.219  0.4426  0.2963  0.4607
 4275SOL    HW124284   3.194   3.239   2.265  0.7817 -0.7045  2.0510
 4275SOL    HW224285   3.334   3.250   2.223  0.0818  0.7990 -0.6080
 4276SOL     OW24286   1.375   2.505   0.346  0.4833  0.0499  0.1454
 4276SOL    HW124287   1.282   2.487   0.365  0.3970 -0.6768 -0.9299
 4276SOL    HW224288   1.394   2.418   0.310  0.4587  0.8983 -1.9062
 4277SOL     OW24289   0.361   4.556  16.468  0.2494  0.0997 -0.2739
 4277SOL    HW124290   0.291   4.492  16.455  0.5888 -0.5721  1.1864
 4277SOL    HW224291   0.427   4.500  16.510 -2.0728 -1.2901  1.4658
 4278SOL     OW24292   0.811   0.827   4.932 -0.2459  0.0525  0.6218
 4278SOL    HW124293   0.724   0.866   4.919  0.7226  1.2638 -2.1316
 4278SOL    HW224294   0.860   0.906   4.911  0.4259 -0.4736  0.2096
 4279SOL     OW24295   0.236   1.884   8.015  0.7270  0.4931  0.0341
 4279SOL    HW124296   0.194   1.813   7.967 -0.0607  1.5112 -0.7772
 4279SOL    HW224297   0.219   1.866   8.107  1.4044 -2.1412 -0.3594
 4280SOL     OW24298   4.046   2.240   4.887 -0.3796 -0.1928  0.2100
 4280SOL    HW124299   4.102   2.229   4.963 -1.1789 -0.2819  0.7888
 4280SOL    HW224300   4.106   2.222   4.815 -0.5644  0.4189 -0.1016
 4281SOL     OW24301   1.465   2.355  11.895 -0.2852 -0.2424  0.7733
 4281SOL    HW124302   1.501   2.375  11.809 -3.8969 -1.4751 -1.0623
 4281SOL    HW224303   1.546   2.378  11.941  0.2319 -2.0919  0.7916
 4282SOL     OW24304   0.607   1.798   8.677  0.7647  0.1600 -0.4201
 4282SOL    HW124305   0.701   1.815   8.687  0.7747  0.6440 -1.3241
 4282SOL    HW224306   0.595   1.733   8.746  3.9207 -1.4682 -1.4245
 4283SOL     OW24307   1.857   3.358  15.380 -0.0453 -0.1313  0.0720
 4283SOL    HW124308   1.931   3.399  15.424  0.0291 -1.9238  1.6468
 4283SOL    HW224309   1.910   3.305  15.320  0.5225 -0.5612  0.9549
 4284SOL     OW24310   2.336   0.601   3.419  0.1485 -0.1601  0.3021
 4284SOL    HW124311   2.346   0.691   3.387  0.5849 -0.6993 -1.0906
 4284SOL    HW224312   2.265   0.624   3.479 -0.5441  0.7803 -0.8796
 4285SOL     OW24313   1.227   2.989  10.508 -0.3184  0.7059 -0.1950
 4285SOL    HW124314   1.290   2.917  10.505 -0.1932  0.8219 -0.3741
 4285SOL    HW224315   1.156   2.950  10.457 -0.3575 -0.7360  0.9850
 4286SOL     OW24316   1.686   1.497  10.344  0.3100  0.0743 -0.2090
 4286SOL    HW124317   1.633   1.487  10.265  0.0287  2.1415 -0.2861
 4286SOL    HW224318   1.621   1.492  10.414  0.1965  0.0449 -0.3147
 4287SOL     OW24319   1.153   0.932   9.107  0.5438  0.4376 -0.2035
 4287SOL    HW124320   1.176   0.867   9.174  1.6613  1.3701  0.3056
 4287SOL    HW224321   1.234   0.981   9.119  0.7021  0.6754 -2.1929
 4288SOL     OW24322   3.793   1.627  12.276  0.3014 -0.1218  0.0312
 4288SOL    HW124323   3.733   1.686  12.321 -0.0155  2.4585 -3.8668
 4288SOL    HW224324   3.739   1.604  12.201  0.4534  1.5997 -0.5821
 4289SOL     OW24325   2.596   2.931  14.792  0.3480 -0.7777  0.1480
 4289SOL    HW124326   2.510   2.964  14.767  0.3025 -0.5980  0.5511
 4289SOL    HW224327   2.578   2.837  14.797  2.6495 -1.2768 -0.8331
 4290SOL     OW24328   2.852   1.894   4.723 -0.0474 -0.5030  0.1940
 4290SOL    HW124329   2.815   1.972   4.764  0.1936 -0.1565 -0.2489
 4290SOL    HW224330   2.835   1.824   4.786  0.0187  0.0855  0.8601
 4291SOL     OW24331   2.517   0.072  11.108 -0.3705 -0.2852 -0.2171
 4291SOL    HW124332   2.578   0.132  11.150 -0.7951 -0.3506  0.4903
 4291SOL    HW224333   2.575   4.720  11.090  1.2921  1.4193 -1.9354
 4292SOL     OW24334   1.201   2.215   1.865  0.7164 -0.5369 -0.1509
 4292SOL    HW124335   1.267   2.248   1.926  0.8636 -0.9224 -0.1008
 4292SOL    HW224336   1.168   2.140   1.915  0.1469  0.7403  1.3955
 4293SOL     OW24337   1.928   1.654   3.030  0.0428 -0.0137  0.2333
 4293SOL    HW124338   1.895   1.576   3.075  1.4645 -0.5519  0.3363
 4293SOL    HW224339   1.966   1.616   2.951 -0.8945  2.1799 -1.2694
 4294SOL     OW24340   4.465   4.104  12.428 -0.3648 -0.0576 -0.2560
 4294SOL    HW124341   4.381   4.150  12.429 -0.8558 -0.9618 -0.5795
 4294SOL    HW224342   4.439   4.015  12.405 -0.4721 -0.2689  0.6576
 4295SOL     OW24343   3.416   4.404   8.181 -0.1239  0.1159  0.1886
 4295SOL    HW124344   3.494   4.364   8.142 -0.1457 -0.6026  0.8733
 4295SOL    HW224345   3.457   4.436   8.261 -2.3087 -0.7745  1.6567
 4296SOL     OW24346   0.600   0.591   3.872 -0.2489  0.4203 -0.6051
 4296SOL    HW124347   0.507   0.573   3.888 -0.1919 -0.4715 -1.2794
 4296SOL    HW224348   0.598   0.600   3.776 -0.3460 -3.1104 -0.9332
 4297SOL     OW24349   0.580   3.590   5.855 -0.3246  0.0061 -0.0741
 4297SOL    HW124350   0.506   3.638   5.820 -0.2165  1.5861  1.8549
 4297SOL    HW224351   0.617   3.549   5.776  0.0297 -1.1144  0.6615
 4298SOL     OW24352   3.122   0.644   3.006  0.0610 -0.1537  0.1708
 4298SOL    HW124353   3.040   0.596   3.014 -1.2262  1.6539 -2.2945
 4298SOL    HW224354   3.175   0.565   3.002  0.2911  0.0828 -1.3671
 4299SOL     OW24355   1.642   4.156   3.544 -0.4249  0.0166 -0.5011
 4299SOL    HW124356   1.653   4.067   3.579 -0.1980  0.3510  0.2762
 4299SOL    HW224357   1.664   4.148   3.451  0.3036  0.0184 -0.3306
 4300SOL     OW24358   3.504   0.732   5.261  0.2086 -0.3132  0.0058
 4300SOL    HW124359   3.566   0.762   5.194  0.8189 -1.7714 -0.0997
 4300SOL    HW224360   3.525   0.638   5.259 -2.3486 -0.8753  0.1312
 4301SOL     OW24361   2.930   3.401  11.041  0.5076 -0.8951  0.3349
 4301SOL    HW124362   2.839   3.426  11.020  0.5095 -0.1546  1.2561
 4301SOL    HW224363   2.971   3.487  11.038 -1.7988  0.1795 -0.6340
 4302SOL     OW24364   0.100   0.044   7.377 -0.6139  0.1346  0.5233
 4302SOL    HW124365   0.036   0.112   7.394  1.2948  2.3093 -1.0608
 4302SOL    HW224366   0.060   4.683   7.402 -0.6712 -0.9211 -3.0668
 4303SOL     OW24367   0.067   3.560   4.279 -0.6776 -0.1028 -0.2888
 4303SOL    HW124368   0.033   3.561   4.189 -2.7971 -1.5933  0.4887
 4303SOL    HW224369   0.162   3.569   4.270 -0.4532 -1.4022  0.9031
 4304SOL     OW24370   2.482   2.358   8.109  0.3954 -0.1146  0.1441
 4304SOL    HW124371   2.577   2.357   8.111  0.3326 -3.1861  2.1112
 4304SOL    HW224372   2.458   2.314   8.028  0.5862 -0.2389  0.1539
 4305SOL     OW24373   1.152   1.028   7.480 -0.4176 -0.2963 -0.5615
 4305SOL    HW124374   1.189   1.116   7.470  1.4925 -0.8403  1.7737
 4305SOL    HW224375   1.087   1.035   7.549  0.2640 -3.7283  0.4273
 4306SOL     OW24376   1.993   0.229  17.169  0.4298 -0.5630 -0.3189
 4306SOL    HW124377   1.991   0.252  17.076  0.8158  1.9998  0.3084
 4306SOL    HW224378   2.068   0.170  17.178  0.9433  0.0312 -0.7198
 4307SOL     OW24379   0.344   2.365   2.245 -0.1578  0.2638  0.3284
 4307SOL    HW124380   0.309   2.275   2.244 -1.7576  0.8913  0.2760
 4307SOL    HW224381   0.271   2.423   2.223 -0.9429 -1.1995 -0.9488
 4308SOL     OW24382   3.935   2.912   5.837  0.0497 -0.0432 -0.1762
 4308SOL    HW124383   3.892   2.993   5.864 -1.6849 -0.8942 -0.3714
 4308SOL    HW224384   3.870   2.885   5.771  2.3233 -0.3410 -2.2948
 4309SOL     OW24385   3.876   1.507   2.024 -0.1786  0.7382  0.1450
 4309SOL    HW124386   3.944   1.528   1.961 -0.4886  1.3878  0.0333
 4309SOL    HW224387   3.884   1.582   2.083  0.1424  2.8017 -2.5686
 4310SOL     OW24388   0.357   3.569   5.196  0.4427 -0.2640  0.0259
 4310SOL    HW124389   0.441   3.577   5.151  0.2117  0.5877 -0.2585
 4310SOL    HW224390   0.371   3.500   5.261 -0.0860 -1.6420 -1.3189
 4311SOL     OW24391   1.464   2.092  11.808  0.0759  0.7361  0.7247
 4311SOL    HW124392   1.548   2.073  11.767 -1.0407 -2.2616 -0.2117
 4311SOL    HW224393   1.476   2.182  11.839 -0.4575 -0.0257  3.1817
 4312SOL     OW24394   1.937   2.932   8.772  0.1020 -0.3908  0.1325
 4312SOL    HW124395   1.970   2.880   8.845  2.5404 -1.2066 -1.5217
 4312SOL    HW224396   1.951   2.874   8.697  1.5474  0.1224 -0.0062
 4313SOL     OW24397   2.217   3.183   3.442  0.3088  0.4330  0.4743
 4313SOL    HW124398   2.255   3.098   3.420 -0.4238  0.0592  0.6745
 4313SOL    HW224399   2.224   3.218   3.353  0.1885  0.7471  0.5871
 4314SOL     OW24400   3.856   4.282  17.060 -0.3122  0.8401  0.1407
 4314SOL    HW124401   3.763   4.279  17.035 -0.4137 -0.0040  0.6164
 4314SOL    HW224402   3.894   4.195  17.055  1.0146  1.4013  0.3864
 4315SOL     OW24403   2.380   0.517   9.776 -0.3844 -0.5353  0.3623
 4315SOL    HW124404   2.406   0.606   9.752  2.1257 -1.2448  0.4641
 4315SOL    HW224405   2.402   0.513   9.869  2.1649 -0.1849 -0.2220
 4316SOL     OW24406   0.816   2.225   7.806  0.1692 -0.0543 -0.3258
 4316SOL    HW124407   0.729   2.187   7.791 -0.0135 -0.9149  2.8906
 4316SOL    HW224408   0.793   2.312   7.839  0.7465 -0.7705  1.9849
 4317SOL     OW24409   4.007   4.019  11.710 -0.8992  0.0709  0.3510
 4317SOL    HW124410   3.994   4.023  11.615  2.4210 -1.2333 -0.1389
 4317SOL    HW224411   3.931   3.973  11.746 -1.4550  0.9229  0.2653
 4318SOL     OW24412   3.304   1.387  12.962  0.5530 -0.7134 -0.0639
 4318SOL    HW124413   3.256   1.329  12.904  2.3291 -1.4191 -0.8173
 4318SOL    HW224414   3.277   1.470  12.924 -0.8660 -0.6647  1.0515
 4319SOL     OW24415   1.781   3.165   8.816  0.1080  0.1680  0.0436
 4319SOL    HW124416   1.789   3.070   8.811 -2.2371  0.0700 -2.0054
 4319SOL    HW224417   1.716   3.185   8.749 -0.7128  1.4245  1.2060
 4320SOL     OW24418   0.632   2.544   4.258  0.3402  0.5596  0.1883
 4320SOL    HW124419   0.571   2.471   4.266  0.9643  0.2874  2.4024
 4320SOL    HW224420   0.675   2.529   4.174 -0.0717 -0.5276  0.1744
 4321SOL     OW24421   2.816   1.624  14.387  0.0727  0.0062  0.0290
 4321SOL    HW124422   2.887   1.669  14.341  1.5813 -0.5902  1.7935
 4321SOL    HW224423   2.865   1.569  14.448 -0.5494 -1.8109 -1.1211
 4322SOL     OW24424   3.624   0.775  13.482  0.0417 -0.1449  0.4025
 4322SOL    HW124425   3.566   0.699  13.480 -1.0840  0.7099  0.5688
 4322SOL    HW224426   3.702   0.731  13.516 -0.5063 -1.4365  0.0066
 4323SOL     OW24427   3.490   1.186   8.413 -0.1727  0.4920 -0.0361
 4323SOL    HW124428   3.424   1.196   8.481  2.1325 -2.8778  2.6771
 4323SOL    HW224429   3.442   1.232   8.344 -0.3976  0.4047  0.0651
 4324SOL     OW24430   2.299   0.346  17.053  0.2144 -0.2724 -0.0560
 4324SOL    HW124431   2.375   0.353  16.996  0.5386 -0.4724  0.3450
 4324SOL    HW224432   2.324   0.277  17.114 -1.2609 -0.8697 -0.1134
 4325SOL     OW24433   3.680   3.420   7.902 -0.1052 -0.0829 -0.1005
 4325SOL    HW124434   3.601   3.380   7.939 -0.7300 -0.0898 -1.4353
 4325SOL    HW224435   3.721   3.462   7.978  0.8754  1.2090 -1.3447
 4326SOL     OW24436   0.048   1.044   8.528  0.1242 -0.2782  0.5280
 4326SOL    HW124437   0.133   1.022   8.491 -0.0759  1.1235 -0.7741
 4326SOL    HW224438   4.709   1.054   8.455  2.2168  0.4977 -1.1394
 4327SOL     OW24439   4.555   4.209  15.487  0.1739 -0.4669  0.1128
 4327SOL    HW124440   4.484   4.273  15.481  0.3700 -0.4115 -1.4667
 4327SOL    HW224441   4.507   4.130  15.461  1.0117 -0.3119 -1.9050
 4328SOL     OW24442   0.983   3.884   6.424 -0.4481  0.4046 -0.2289
 4328SOL    HW124443   0.911   3.836   6.465 -0.3439  0.2956 -0.1758
 4328SOL    HW224444   1.004   3.945   6.494 -1.5427  0.6365 -0.1023
 4329SOL     OW24445   4.581   1.647  13.216  0.0024  0.1768  0.2242
 4329SOL    HW124446   4.601   1.576  13.156  1.0331  0.9155 -0.3034
 4329SOL    HW224447   4.486   1.654  13.208 -0.0488  1.1915  1.6543
 4330SOL     OW24448   2.604   2.142   5.520  0.1274 -0.2379  0.0445
 4330SOL    HW124449   2.653   2.214   5.560 -3.5327  2.4236 -0.2266
 4330SOL    HW224450   2.518   2.174   5.493 -1.3985 -4.9772 -0.6925
 4331SOL     OW24451   3.194   4.629   7.144  0.0551  0.2051 -0.4954
 4331SOL    HW124452   3.256   4.699   7.123 -0.7544  1.1542  0.3182
 4331SOL    HW224453   3.242   4.577   7.207 -1.3601 -0.9033 -0.3323
 4332SOL     OW24454   1.252   0.049   3.161  0.0750  0.2944  0.1064
 4332SOL    HW124455   1.221   0.027   3.249 -0.2236 -3.2060 -0.8792
 4332SOL    HW224456   1.248   0.144   3.161  0.9186  0.3297  1.7997
 4333SOL     OW24457   2.901   3.763   7.152 -0.1090  0.0465  0.2903
 4333SOL    HW124458   2.875   3.839   7.204  0.5046  0.4712 -0.0165
 4333SOL    HW224459   2.836   3.756   7.082 -1.5783  2.0495  1.4607
 4334SOL     OW24460   2.432   3.001   0.724 -0.5805 -0.0417  0.2950
 4334SOL    HW124461   2.407   3.083   0.683 -2.8779 -0.0422  1.6819
 4334SOL    HW224462   2.343   2.969   0.738 -1.0037  1.8505  1.9446
 4335SOL     OW24463   2.978   3.055   4.086 -0.1013 -0.0693  0.2419
 4335SOL    HW124464   3.040   3.005   4.138 -1.7945 -2.1979  0.1882
 4335SOL    HW224465   2.888   3.027   4.106  0.4388 -1.7681  0.2719
 4336SOL     OW24466   1.560   1.835   9.287 -0.6265  0.5251  0.1801
 4336SOL    HW124467   1.550   1.746   9.254  1.6223 -0.4887  2.2785
 4336SOL    HW224468   1.514   1.811   9.367 -0.1531  1.2332  0.6632
 4337SOL     OW24469   0.076   0.931  12.465 -0.3631  0.4750  0.3911
 4337SOL    HW124470   0.084   0.920  12.559  0.2124  1.6018  0.4636
 4337SOL    HW224471   4.711   0.970  12.456 -0.8674 -0.7444 -0.0293
 4338SOL     OW24472   3.460   3.426   7.440 -0.0632 -0.1238  0.3045
 4338SOL    HW124473   3.505   3.427   7.524  1.6981 -0.9939 -0.6237
 4338SOL    HW224474   3.534   3.417   7.380 -0.8780  1.0855 -0.8896
 4339SOL     OW24475   2.718   1.688   1.021  0.0363  0.4479 -0.3294
 4339SOL    HW124476   2.788   1.638   0.978  0.9763  1.0742  0.4611
 4339SOL    HW224477   2.748   1.778   1.009 -1.3777  1.1493  1.4133
 4340SOL     OW24478   0.578   2.632   0.024  0.1281 -0.1590 -0.2354
 4340SOL    HW124479   0.569   2.727   0.026  0.8393 -0.0752 -0.8125
 4340SOL    HW224480   0.505   2.616   0.084 -0.8382 -1.7923 -1.8195
 4341SOL     OW24481   2.035   1.932   4.877 -1.0567 -0.3564 -0.1177
 4341SOL    HW124482   2.069   2.020   4.861  2.1808 -1.1318  2.4329
 4341SOL    HW224483   1.950   1.953   4.916 -1.5378  0.0175 -1.3853
 4342SOL     OW24484   0.778   0.709   3.147 -0.4885 -0.7953 -0.2587
 4342SOL    HW124485   0.873   0.706   3.163 -0.4021 -0.8205 -0.7769
 4342SOL    HW224486   0.773   0.795   3.106 -0.8585 -0.2052  1.0221
 4343SOL     OW24487   3.591   0.834   8.802 -0.0275 -0.0998 -0.0965
 4343SOL    HW124488   3.508   0.856   8.844  1.5108  0.3696  2.6268
 4343SOL    HW224489   3.564   0.752   8.759 -0.4396  1.4890 -2.8948
 4344SOL     OW24490   0.361   1.630   7.027  0.4921  0.0117 -0.9457
 4344SOL    HW124491   0.440   1.576   7.028  2.1086  2.4445  2.1379
 4344SOL    HW224492   0.352   1.647   7.121 -1.3280 -0.7567 -0.9835
 4345SOL     OW24493   2.619   1.018   3.846  0.3553 -0.1561  0.2315
 4345SOL    HW124494   2.662   1.034   3.762  1.6078  2.2852  1.3458
 4345SOL    HW224495   2.558   1.091   3.855  0.7109 -0.0754  2.0562
 4346SOL     OW24496   1.660   3.644   6.491  0.3352  0.2081  0.1928
 4346SOL    HW124497   1.720   3.668   6.421 -1.1238 -0.7359 -1.3918
 4346SOL    HW224498   1.578   3.655   6.442  1.2483 -1.5035 -1.7029
 4347SOL     OW24499   3.483   4.548  10.893 -0.7809  0.0864  0.5600
 4347SOL    HW124500   3.446   4.508  10.815  2.5044  1.3779 -1.6521
 4347SOL    HW224501   3.402   4.556  10.943 -0.4984 -2.0787  1.3758
 4348SOL     OW24502   2.360   3.876  12.265 -0.0301  0.4675  0.2558
 4348SOL    HW124503   2.361   3.835  12.351  2.6586 -2.7893 -1.3025
 4348SOL    HW224504   2.308   3.812  12.216  1.9239  0.5311 -1.8909
 4349SOL     OW24505   3.210   0.061  16.014  0.0809 -0.3666  0.2470
 4349SOL    HW124506   3.295   0.026  15.989  1.8523  3.1476  1.4147
 4349SOL    HW224507   3.156   4.715  15.974  1.5411 -1.2614 -0.1785
 4350SOL     OW24508   2.256   0.056  11.226 -0.0547 -0.1107  0.4676
 4350SOL    HW124509   2.321   0.093  11.168  0.2252  1.0879  1.5551
 4350SOL    HW224510   2.267   4.692  11.185 -1.3691  0.5626 -1.3090
 4351SOL     OW24511   3.092   1.003   7.837 -0.1111 -0.1300 -0.4235
 4351SOL    HW124512   3.097   1.058   7.915 -0.8363  0.1727 -0.5938
 4351SOL    HW224513   3.016   0.952   7.866  0.8979 -0.9360  0.8149
 4352SOL     OW24514   3.658   0.123  15.072 -0.3279  0.2398 -0.5455
 4352SOL    HW124515   3.563   0.117  15.082 -0.3121 -1.4398 -1.3198
 4352SOL    HW224516   3.673   0.148  14.981  3.0091  1.3947  0.3040
 4353SOL     OW24517   1.490   0.793   8.986 -0.1622 -0.0222 -0.0403
 4353SOL    HW124518   1.580   0.762   8.989  0.1585  0.9906  0.5480
 4353SOL    HW224519   1.486   0.829   9.074  0.0816  0.4754 -0.2369
 4354SOL     OW24520   3.574   3.766   4.472 -0.6108  0.1512  0.2651
 4354SOL    HW124521   3.651   3.816   4.443 -0.3020 -0.8073 -0.5698
 4354SOL    HW224522   3.511   3.834   4.496  0.4055  1.4581 -0.7410
 4355SOL     OW24523   3.896   0.130   5.069 -0.0380  0.5397  0.9453
 4355SOL    HW124524   3.988   0.152   5.054  0.2085  0.6479  2.7087
 4355SOL    HW224525   3.861   0.206   5.022 -1.2782 -0.9172 -0.4951
 4356SOL     OW24526   4.479   2.515  16.719 -0.1837  0.1521  0.6928
 4356SOL    HW124527   4.550   2.578  16.704  0.3064 -0.2738  1.1977
 4356SOL    HW224528   4.530   2.434  16.729  1.3512  1.0476  0.1798
 4357SOL     OW24529   4.534   2.308  17.665  0.0113  0.1386  0.0065
 4357SOL    HW124530   4.502   2.334   0.060 -2.7972 -1.5855 -0.4969
 4357SOL    HW224531   4.510   2.215  17.672  0.1844  0.1218  0.3960
 4358SOL     OW24532   0.357   3.012   2.389  0.5109 -0.1412  0.1660
 4358SOL    HW124533   0.376   2.985   2.299  0.5596  0.1808  0.0802
 4358SOL    HW224534   0.388   2.935   2.437  3.4644  0.9498 -0.0076
 4359SOL     OW24535   1.994   3.267   3.154  0.2382 -0.1777  0.4551
 4359SOL    HW124536   1.966   3.335   3.092  0.0467 -0.2899  0.4171
 4359SOL    HW224537   1.906   3.247   3.187 -0.2853  1.6673  0.1833
 4360SOL     OW24538   4.647   2.705  16.622 -0.1052  0.4495  0.6035
 4360SOL    HW124539   4.657   2.800  16.620  2.8236  0.1411  0.4799
 4360SOL    HW224540   4.660   2.683  16.530  1.2713  1.6143  0.5133
 4361SOL     OW24541   3.755   2.491   5.315  0.5223  0.3228  0.2903
 4361SOL    HW124542   3.705   2.422   5.359  2.9898 -0.0067  2.5831
 4361SOL    HW224543   3.801   2.445   5.244 -0.9053  1.3274 -1.2918
 4362SOL     OW24544   2.403   1.983   5.697  0.3984 -0.5954 -0.1877
 4362SOL    HW124545   2.488   2.023   5.712  0.1276  0.1418 -0.5822
 4362SOL    HW224546   2.357   2.037   5.761 -0.6553 -0.0791 -1.3836
 4363SOL     OW24547   1.591   4.352   9.099  0.7285 -0.0372  0.3139
 4363SOL    HW124548   1.632   4.314   9.176  0.5316 -0.4879  0.1957
 4363SOL    HW224549   1.619   4.289   9.032 -0.4188 -0.4285  0.2049
 4364SOL     OW24550   1.306   3.875   7.750 -0.3298 -0.1929 -0.7624
 4364SOL    HW124551   1.265   3.819   7.816  1.4208 -0.7009 -0.0974
 4364SOL    HW224552   1.248   3.950   7.743  0.2710  0.2976 -0.5232
 4365SOL     OW24553   3.985   4.706   2.555  0.1005 -0.1262 -0.1455
 4365SOL    HW124554   4.027   4.625   2.525  0.0344 -0.1369 -0.2107
 4365SOL    HW224555   4.045   0.053   2.527 -0.8976  1.3257  1.3105
 4366SOL     OW24556   3.707   2.635   8.764 -0.6558  0.5906 -0.6022
 4366SOL    HW124557   3.695   2.566   8.829  0.4522  0.8045 -0.1730
 4366SOL    HW224558   3.731   2.597   8.679 -1.5658 -1.3943  0.0250
 4367SOL     OW24559   1.980   2.217   6.771  0.4945  0.2028 -0.4604
 4367SOL    HW124560   1.902   2.267   6.793 -0.8367 -1.4074 -1.5427
 4367SOL    HW224561   2.017   2.218   6.859 -1.8767 -1.7675  0.5453
 4368SOL     OW24562   4.523   3.238   5.994 -0.3017 -0.0738  0.2071
 4368SOL    HW124563   4.607   3.245   6.040 -0.1742 -2.0399  0.2712
 4368SOL    HW224564   4.531   3.300   5.922 -0.8979  0.0943  0.2914
 4369SOL     OW24565   3.097   2.052   2.802 -0.3718 -0.7199 -0.1575
 4369SOL    HW124566   3.011   2.079   2.833 -0.3905  1.1098 -1.7564
 4369SOL    HW224567   3.147   2.134   2.809  1.9601 -2.1605  0.2816
 4370SOL     OW24568   2.924   4.598   2.824  0.1972 -0.5366 -0.2288
 4370SOL    HW124569   2.839   4.579   2.864  0.4725  0.1786  0.6951
 4370SOL    HW224570   2.976   4.585   2.903 -0.4093 -0.9872  0.1010
 4371SOL     OW24571   1.196   0.773  16.624 -0.2823 -0.3662  0.0589
 4371SOL    HW124572   1.237   0.859  16.636 -2.5530  0.6656  0.5231
 4371SOL    HW224573   1.120   0.805  16.574 -0.1230  1.5956  1.0651
 4372SOL     OW24574   4.191   1.293   2.431 -0.2834 -0.3774 -0.1071
 4372SOL    HW124575   4.138   1.238   2.374  1.1041 -2.5749  0.7194
 4372SOL    HW224576   4.205   1.225   2.497  2.6988 -1.5327 -1.9586
 4373SOL     OW24577   3.775   0.211   7.130 -0.0973  0.1226 -0.5763
 4373SOL    HW124578   3.734   0.279   7.183 -0.9982 -0.1051 -0.9780
 4373SOL    HW224579   3.862   0.203   7.169 -0.7543 -0.6705  0.7186
 4374SOL     OW24580   1.620   2.038   4.639 -0.1807  0.0096 -0.1798
 4374SOL    HW124581   1.614   2.078   4.553  0.8293  0.4100 -0.0660
 4374SOL    HW224582   1.658   1.954   4.614  0.1941  0.3188 -0.6362
 4375SOL     OW24583   4.516   4.006   0.921 -0.0703 -0.2615 -0.2920
 4375SOL    HW124584   4.527   3.931   0.980 -0.1629 -1.9969 -2.4676
 4375SOL    HW224585   4.426   3.989   0.895 -0.5185  3.0595 -0.8731
 4376SOL     OW24586   3.716   1.063   8.576  0.1925  0.6207  0.2617
 4376SOL    HW124587   3.659   1.106   8.512  0.9504  0.6404 -0.4024
 4376SOL    HW224588   3.748   1.146   8.613 -1.1512  0.4682  1.8099
 4377SOL     OW24589   2.613   3.825   9.873  0.0741 -0.1861  0.0489
 4377SOL    HW124590   2.657   3.869   9.946 -2.6163  0.9930  0.9616
 4377SOL    HW224591   2.536   3.881   9.863  2.8987  3.6973  0.1249
 4378SOL     OW24592   3.107   3.818   2.007  0.3516  0.0347  0.1271
 4378SOL    HW124593   3.119   3.741   2.063  0.1258  0.5436  0.8760
 4378SOL    HW224594   3.085   3.874   2.082  0.4289  0.3385 -0.0759
 4379SOL     OW24595   3.795   1.515   7.486  0.4096 -0.3311  0.2323
 4379SOL    HW124596   3.846   1.491   7.564 -0.3604 -1.5294  0.3661
 4379SOL    HW224597   3.729   1.562   7.537  1.1751 -0.7805  1.6374
 4380SOL     OW24598   2.290   4.318   6.412  0.2768  0.0697  0.5465
 4380SOL    HW124599   2.207   4.274   6.394 -0.1135  1.0872 -0.1362
 4380SOL    HW224600   2.354   4.263   6.367 -1.3271  0.9368 -2.7900
 4381SOL     OW24601   2.170   1.904   9.974  0.0608 -0.1743 -0.3184
 4381SOL    HW124602   2.156   1.883  10.067 -1.9768  2.9045  0.0661
 4381SOL    HW224603   2.207   1.991   9.986 -2.0549  0.5627  0.8946
 4382SOL     OW24604   3.585   4.003   5.970 -0.0874  0.1295 -0.2445
 4382SOL    HW124605   3.609   3.943   6.039 -1.0011 -0.0085 -0.0457
 4382SOL    HW224606   3.497   3.975   5.946  0.1593 -2.0518  1.4770
 4383SOL     OW24607   0.603   2.799   3.376  0.4090 -0.0294  0.2233
 4383SOL    HW124608   0.536   2.836   3.318 -2.1231 -3.0498  1.1897
 4383SOL    HW224609   0.617   2.875   3.433 -0.5643 -0.0640  0.5174
 4384SOL     OW24610   2.183   4.535  14.931 -0.1050  0.2894  0.0517
 4384SOL    HW124611   2.224   4.518  14.846  1.7064  1.5361  0.6725
 4384SOL    HW224612   2.233   4.476  14.987 -0.0118  0.2442 -0.0797
 4385SOL     OW24613   4.072   3.862   8.079  0.1184  0.1251  0.1632
 4385SOL    HW124614   4.013   3.828   8.012 -0.0305 -3.2080  1.9457
 4385SOL    HW224615   4.134   3.789   8.071 -1.4195 -1.3904  1.9693
 4386SOL     OW24616   1.598   1.227   8.487  0.1451 -0.2184  0.0508
 4386SOL    HW124617   1.642   1.149   8.453 -2.7472 -0.7061 -2.5473
 4386SOL    HW224618   1.666   1.243   8.553 -1.4958  2.6091  1.0664
 4387SOL     OW24619   1.427   2.498   6.355 -0.2489  0.0080  0.6542
 4387SOL    HW124620   1.337   2.513   6.328 -0.0602 -0.7198 -0.3873
 4387SOL    HW224621   1.478   2.534   6.282 -0.4678 -0.0953  0.4516
 4388SOL     OW24622   0.633   3.572   1.943  0.0279 -0.1496 -0.0368
 4388SOL    HW124623   0.715   3.583   1.894 -0.2329  2.6949  0.1833
 4388SOL    HW224624   0.575   3.635   1.901 -0.9212 -0.8456  0.2180
 4389SOL     OW24625   2.560   1.909   9.472 -0.5565 -0.1052  0.3157
 4389SOL    HW124626   2.613   1.832   9.455  1.2624  1.2398 -0.1637
 4389SOL    HW224627   2.490   1.873   9.527 -0.3479  0.6391  1.0613
 4390SOL     OW24628   3.437   4.622   7.820  0.0021  0.4219  0.1163
 4390SOL    HW124629   3.432   4.661   7.907 -2.4656 -1.2841  0.7270
 4390SOL    HW224630   3.348   4.589   7.808  0.1256  0.7021 -1.6439
 4391SOL     OW24631   2.232   0.024   1.820  0.4228 -0.4736 -0.3209
 4391SOL    HW124632   2.181   0.079   1.761 -0.5789 -1.7394 -0.6398
 4391SOL    HW224633   2.227   4.656   1.789  2.4242 -1.6354  2.7682
 4392SOL     OW24634   0.028   3.843   5.637 -0.3673 -0.3058  0.4056
 4392SOL    HW124635   0.044   3.752   5.612  0.5674  0.6994 -2.7726
 4392SOL    HW224636   4.677   3.829   5.696  0.1829 -1.5466  0.8008
 4393SOL     OW24637   3.020   0.380  11.374 -0.0767  0.0650 -0.8282
 4393SOL    HW124638   2.963   0.426  11.435  1.9636  1.3304  0.1602
 4393SOL    HW224639   3.052   0.306  11.425 -0.8447  0.8641  0.8122
 4394SOL     OW24640   3.387   4.251   7.261  0.0988 -0.0154  0.2185
 4394SOL    HW124641   3.453   4.182   7.251  0.6875  0.2152  2.4487
 4394SOL    HW224642   3.435   4.329   7.230  2.7767 -2.4478 -1.7288
 4395SOL     OW24643   3.902   0.382   2.472  0.5608 -0.5026  0.3089
 4395SOL    HW124644   3.952   0.331   2.535 -2.5431 -0.4155  2.8857
 4395SOL    HW224645   3.964   0.449   2.442 -1.9876  1.9030  0.3257
 4396SOL     OW24646   0.288   1.484   4.127  0.1671 -0.7055  0.6146
 4396SOL    HW124647   0.243   1.462   4.045  1.4700  0.4776 -0.4112
 4396SOL    HW224648   0.247   1.568   4.146  2.5129 -0.3990  4.3040
 4397SOL     OW24649   0.067   3.420  13.012 -0.2692 -0.4052  0.8085
 4397SOL    HW124650   0.020   3.489  12.964  0.8432 -1.1482 -1.3718
 4397SOL    HW224651   0.091   3.470  13.090  0.5781 -0.3076  0.4885
 4398SOL     OW24652   3.193   3.374  12.496 -0.4677  0.1886  0.5002
 4398SOL    HW124653   3.133   3.433  12.541  1.8163  1.4733  1.8795
 4398SOL    HW224654   3.174   3.289  12.536  0.6095  0.6488  1.9804
 4399SOL     OW24655   0.039   4.383   3.858 -0.0164 -0.0621  0.1525
 4399SOL    HW124656   4.683   4.434   3.839 -0.9176 -1.2622  0.6463
 4399SOL    HW224657   0.100   4.450   3.890 -0.9739  0.3780  1.0590
 4400SOL     OW24658   3.743   3.535   6.113  0.6578 -0.1907  0.3598
 4400SOL    HW124659   3.812   3.583   6.069  1.0658  0.3934  1.6422
 4400SOL    HW224660   3.767   3.443   6.099  2.8992  0.4123  0.3944
 4401SOL     OW24661   3.842   0.650  15.574 -0.3618  0.2910 -0.4101
 4401SOL    HW124662   3.795   0.725  15.537 -0.5278  0.2731 -0.2331
 4401SOL    HW224663   3.932   0.681  15.567 -0.0219 -0.3006  1.2959
 4402SOL     OW24664   1.902   1.398   9.373  0.4538 -0.1247  0.1406
 4402SOL    HW124665   1.899   1.426   9.464  0.6633  0.0653  0.0903
 4402SOL    HW224666   1.855   1.315   9.381 -2.5566  1.5943  0.1166
 4403SOL     OW24667   3.549   0.635  13.215  0.1284 -0.2967  0.4493
 4403SOL    HW124668   3.457   0.614  13.200  0.3024 -0.9555  0.3371
 4403SOL    HW224669   3.551   0.731  13.217  1.5680 -0.2906 -1.2548
 4404SOL     OW24670   3.219   4.524   6.884 -0.1107  0.3072  0.3481
 4404SOL    HW124671   3.232   4.566   6.969 -1.4932  0.6685  0.3855
 4404SOL    HW224672   3.308   4.496   6.863 -0.7189 -1.0272 -0.4314
 4405SOL     OW24673   3.055   2.119   4.017 -0.1209  0.6319 -0.1053
 4405SOL    HW124674   3.143   2.158   4.014 -0.1176  0.5184 -1.4116
 4405SOL    HW224675   3.011   2.190   4.062  0.5925  0.5738  0.6955
 4406SOL     OW24676   0.827   2.378   3.690  0.1250  0.1737 -0.6576
 4406SOL    HW124677   0.749   2.339   3.651  0.7353 -1.9137  0.2064
 4406SOL    HW224678   0.793   2.467   3.703  0.2608  0.1626 -0.2223
 4407SOL     OW24679   2.020   2.622   3.404  0.1015 -0.0966 -0.0470
 4407SOL    HW124680   2.040   2.568   3.480  0.3459 -1.4455 -1.0814
 4407SOL    HW224681   2.021   2.556   3.335 -0.3281 -1.2669  1.0623
 4408SOL     OW24682   0.743   2.093  16.665 -0.1657 -0.4393 -0.2056
 4408SOL    HW124683   0.667   2.130  16.619  1.0575  1.1190 -0.9614
 4408SOL    HW224684   0.694   2.093  16.748 -2.1988  0.5940 -1.3888
 4409SOL     OW24685   2.240   2.872   5.919 -0.3089 -0.1587 -0.2132
 4409SOL    HW124686   2.251   2.846   6.010 -2.4214  0.3846  0.1997
 4409SOL    HW224687   2.257   2.790   5.871  1.2333 -1.3791  2.4299
 4410SOL     OW24688   1.625   1.691   6.531 -0.1551  0.6559  0.0513
 4410SOL    HW124689   1.696   1.737   6.575 -0.5330  2.5856 -1.3711
 4410SOL    HW224690   1.577   1.764   6.493 -0.0685  0.1953 -0.9392
 4411SOL     OW24691   1.920   1.485   9.629  0.3969  0.2324 -0.1883
 4411SOL    HW124692   1.969   1.561   9.662  1.9998 -1.5708  1.5790
 4411SOL    HW224693   1.835   1.504   9.670  1.4665  1.3837  1.5182
 4412SOL     OW24694   2.292   1.158   8.656 -0.3582 -0.1897  0.0351
 4412SOL    HW124695   2.336   1.164   8.571 -0.5860  0.7312 -0.0260
 4412SOL    HW224696   2.202   1.143   8.627  0.3370  0.5112 -2.4723
 4413SOL     OW24697   4.006   3.891   6.981  0.2439  0.2841 -0.2774
 4413SOL    HW124698   3.969   3.872   7.067 -0.0970 -0.5485 -0.6100
 4413SOL    HW224699   4.010   3.802   6.947  0.3784 -0.2141  1.0358
 4414SOL     OW24700   2.361   2.625   6.089 -0.2765 -0.1020  0.0583
 4414SOL    HW124701   2.368   2.593   6.178  1.2625 -0.3090 -0.1519
 4414SOL    HW224702   2.449   2.659   6.072 -0.4940  1.3787  1.8624
 4415SOL     OW24703   0.382   0.562   6.742  0.2333 -1.0061 -0.3781
 4415SOL    HW124704   0.476   0.563   6.722  0.4836 -2.3898  0.7494
 4415SOL    HW224705   0.343   0.508   6.672  0.2403 -2.0305  0.4111
 4416SOL     OW24706   0.306   3.630   4.559 -0.2607 -0.3646 -0.0921
 4416SOL    HW124707   0.226   3.624   4.611 -0.3065 -0.3239 -0.1576
 4416SOL    HW224708   0.374   3.675   4.610 -1.7341  0.1002  1.4574
 4417SOL     OW24709   2.404   1.627   4.812  0.1185 -0.3060  0.6446
 4417SOL    HW124710   2.422   1.534   4.796  0.3677  0.4819 -3.5621
 4417SOL    HW224711   2.367   1.644   4.726  1.2195  0.1307  0.2568
 4418SOL     OW24712   2.945   1.253  12.616 -0.0156 -0.5674 -0.4070
 4418SOL    HW124713   2.997   1.176  12.593 -0.7548 -0.6866 -1.6909
 4418SOL    HW224714   2.924   1.243  12.709 -1.0254  1.0127 -0.4603
 4419SOL     OW24715   3.030   3.448   4.859 -0.9870 -0.4788 -0.1012
 4419SOL    HW124716   3.062   3.481   4.775  0.4026 -0.5583  0.4088
 4419SOL    HW224717   3.083   3.371   4.876 -0.4393 -0.0192  0.2877
 4420SOL     OW24718   3.135   3.652   7.258  0.4920 -0.2719  0.1557
 4420SOL    HW124719   3.188   3.729   7.278 -0.6488  1.5505 -3.6772
 4420SOL    HW224720   3.057   3.692   7.219  1.3616  2.3111  1.0878
 4421SOL     OW24721   3.869   1.866   5.460  0.0558  0.3941  0.0776
 4421SOL    HW124722   3.888   1.806   5.388  0.1799  1.0532 -0.4385
 4421SOL    HW224723   3.953   1.859   5.504  0.9908  1.9309 -1.4614
 4422SOL     OW24724   3.918   4.308  15.111 -0.0282 -0.1687 -0.6009
 4422SOL    HW124725   3.894   4.282  15.022 -0.0457  1.3822 -1.0623
 4422SOL    HW224726   4.013   4.297  15.111  0.1372  1.1630  1.4140
 4423SOL     OW24727   0.579   2.192   8.436  0.1568 -0.2878  0.1004
 4423SOL    HW124728   0.506   2.221   8.491  0.5196  2.1609 -0.7164
 4423SOL    HW224729   0.646   2.239   8.485  0.9320 -0.1881 -1.0678
 4424SOL     OW24730   1.879   2.934  13.056 -0.6954 -0.3284 -0.0003
 4424SOL    HW124731   1.786   2.953  13.060 -0.1019  2.5839 -0.1256
 4424SOL    HW224732   1.866   2.839  13.053  0.8036 -0.5549  0.4559
 4425SOL     OW24733   4.340   1.101   2.243  0.0432  0.2372 -0.2650
 4425SOL    HW124734   4.266   1.141   2.197 -0.6448  1.0172  1.5192
 4425SOL    HW224735   4.398   1.080   2.170 -0.3558  0.6419 -0.6961
 4426SOL     OW24736   0.353   0.971   3.694  0.1422 -0.3282 -0.2840
 4426SOL    HW124737   0.326   0.972   3.785 -0.5913 -3.6619 -0.4743
 4426SOL    HW224738   0.352   0.878   3.675 -0.9666 -0.7780  2.0639
 4427SOL     OW24739   2.534   0.950   4.109  0.0255  0.4007  0.1784
 4427SOL    HW124740   2.584   0.968   4.030 -1.0072  0.4384 -0.4556
 4427SOL    HW224741   2.579   0.872   4.142  1.6617  0.4162 -2.0462
 4428SOL     OW24742   2.079   3.031  13.639 -0.3248  0.6929 -0.4888
 4428SOL    HW124743   2.034   3.091  13.580  1.2116  1.5263 -0.7881
 4428SOL    HW224744   2.029   2.953  13.613 -0.9005  1.3277 -1.2630
 4429SOL     OW24745   0.733   4.365   4.181  0.4451  0.4879 -0.0759
 4429SOL    HW124746   0.792   4.306   4.134 -1.4865  0.8120 -2.9224
 4429SOL    HW224747   0.774   4.450   4.196  0.9036 -0.4246  3.8537
 4430SOL     OW24748   2.556   1.363  13.884 -0.6533 -0.2774  0.2094
 4430SOL    HW124749   2.554   1.360  13.979 -1.9065 -0.0105  0.1937
 4430SOL    HW224750   2.551   1.268  13.869  1.9935 -0.1916 -1.2401
 4431SOL     OW24751   3.524   0.065   3.047 -0.0468 -0.5383  0.7230
 4431SOL    HW124752   3.559   4.712   2.999  2.2565  1.0565 -0.0813
 4431SOL    HW224753   3.519   0.131   2.977  1.9929 -1.8065 -0.5957
 4432SOL     OW24754   3.078   0.505   7.585 -0.3836 -0.4956 -0.2486
 4432SOL    HW124755   3.153   0.556   7.554  1.2456 -2.0912  1.0791
 4432SOL    HW224756   3.111   0.477   7.670 -1.2409 -0.1650  0.1824
 4433SOL     OW24757   0.532   1.823   0.096 -0.5544  0.2666 -0.0588
 4433SOL    HW124758   0.461   1.760   0.103 -0.5934  0.1088 -1.9891
 4433SOL    HW224759   0.596   1.774   0.148 -0.8050 -1.4693 -1.4193
 4434SOL     OW24760   0.221   2.779  13.957 -0.0691  0.4013  0.6619
 4434SOL    HW124761   0.287   2.792  14.025  1.5779 -0.2934 -0.8075
 4434SOL    HW224762   0.172   2.703  13.987 -1.2629 -0.2094 -2.7841
 4435SOL     OW24763   1.321   3.266   6.753 -0.0824 -0.7916  0.3226
 4435SOL    HW124764   1.308   3.209   6.678  0.3291 -0.3768 -0.0641
 4435SOL    HW224765   1.241   3.318   6.751 -0.2268 -1.0822 -1.6544
 4436SOL     OW24766   2.069   0.012   8.662  0.4459  0.0258  0.0292
 4436SOL    HW124767   1.991   0.036   8.612  1.2561  1.2717 -0.6266
 4436SOL    HW224768   2.080   0.078   8.730 -2.3564 -0.9645  1.4599
 4437SOL     OW24769   1.031   4.448   3.402  0.0377  0.0497 -0.0730
 4437SOL    HW124770   1.080   4.531   3.407  0.3716 -0.1380 -0.2545
 4437SOL    HW224771   1.052   4.423   3.492  2.3052 -0.8369 -0.8477
 4438SOL     OW24772   1.041   4.509   9.314 -0.2287  0.3030 -0.6221
 4438SOL    HW124773   0.997   4.486   9.232  0.1679  0.9457 -1.0097
 4438SOL    HW224774   1.089   4.588   9.291  1.9125 -0.5438  0.9142
 4439SOL     OW24775   0.169   1.405  11.713 -0.8833  0.3933  0.2884
 4439SOL    HW124776   0.132   1.442  11.633 -1.3359  0.2142  0.4138
 4439SOL    HW224777   0.206   1.487  11.745  0.3123  0.7681 -2.0891
 4440SOL     OW24778   1.329   4.285   0.797  0.0992  0.1161 -0.0216
 4440SOL    HW124779   1.295   4.258   0.882 -0.3686 -0.1396 -0.2912
 4440SOL    HW224780   1.265   4.238   0.743 -0.5633 -0.2090  1.0508
 4441SOL     OW24781   3.046   4.222  17.248  0.2936  0.4178  0.6558
 4441SOL    HW124782   3.131   4.234  17.206 -1.1769 -0.8749 -2.6863
 4441SOL    HW224783   3.025   4.132  17.224  0.3785  0.2903  1.0501
 4442SOL     OW24784   4.302   4.133   8.780  0.1888 -0.2829  0.5166
 4442SOL    HW124785   4.269   4.219   8.806 -0.1954  0.6766 -3.2575
 4442SOL    HW224786   4.388   4.163   8.753 -0.1038  2.1895  2.3234
 4443SOL     OW24787   2.405   2.265   0.244  0.4113  0.8507 -0.8858
 4443SOL    HW124788   2.384   2.301   0.158  0.5784  0.7238 -0.9806
 4443SOL    HW224789   2.315   2.265   0.278 -0.0776  0.1301 -2.1580
 4444SOL     OW24790   3.960   3.621   2.772  0.1128 -0.6049 -0.1750
 4444SOL    HW124791   4.010   3.671   2.707 -1.6227  3.1405  1.3302
 4444SOL    HW224792   4.003   3.634   2.857  2.8909 -2.1072 -1.3443
 4445SOL     OW24793   4.713   1.072   2.605 -0.3553  0.1176 -0.3675
 4445SOL    HW124794   4.690   1.152   2.558 -1.3938 -1.5820 -2.7732
 4445SOL    HW224795   4.634   1.023   2.630  1.3490 -1.3371  2.1694
 4446SOL     OW24796   0.187   1.709  15.755  0.0844 -0.1721  0.0430
 4446SOL    HW124797   0.230   1.736  15.836 -0.0252  0.7321 -0.2026
 4446SOL    HW224798   0.254   1.652  15.716  0.2092 -1.6928  2.4212
 4447SOL     OW24799   1.639   2.635   5.258 -0.1150 -0.6040 -0.2483
 4447SOL    HW124800   1.636   2.548   5.219 -1.6753 -1.5929  2.0393
 4447SOL    HW224801   1.569   2.682   5.212 -0.3160  0.1127  0.7731
 4448SOL     OW24802   3.734   1.589   4.313  0.8944  0.0496  0.7096
 4448SOL    HW124803   3.808   1.606   4.256  1.3591  1.8740  1.8453
 4448SOL    HW224804   3.689   1.673   4.299 -2.2999 -1.6917  0.5449
 4449SOL     OW24805   2.929   4.698   3.127  0.4371 -0.7689 -0.0095
 4449SOL    HW124806   2.934   0.060   3.082 -0.1297 -0.9502 -0.4180
 4449SOL    HW224807   2.839   4.670   3.114 -0.6170  3.1120 -1.1073
 4450SOL     OW24808   0.404   2.635   3.741 -0.2495  0.1460  0.1857
 4450SOL    HW124809   0.354   2.572   3.792 -1.0587  1.7543  1.3704
 4450SOL    HW224810   0.413   2.593   3.655  2.4077  1.5023 -0.1840
 4451SOL     OW24811   1.219   1.134   7.053  0.1135 -0.5413  0.0108
 4451SOL    HW124812   1.264   1.104   6.974  2.3417 -0.6869  1.3282
 4451SOL    HW224813   1.279   1.201   7.086  0.4694 -0.1980 -1.3678
 4452SOL     OW24814   0.200   1.198   7.399  0.0857  0.0622  0.3674
 4452SOL    HW124815   0.273   1.140   7.375 -0.9904 -1.5023  0.8247
 4452SOL    HW224816   0.142   1.128   7.429 -1.1243  1.0433  0.2699
 4453SOL     OW24817   1.468   1.717   8.558  0.0176 -0.4195 -0.7452
 4453SOL    HW124818   1.446   1.636   8.512  1.1471 -1.0923 -0.1136
 4453SOL    HW224819   1.528   1.682   8.624  1.6113 -2.6157 -3.3694
 4454SOL     OW24820   0.565   0.889   3.309  0.3620  0.3020  0.0717
 4454SOL    HW124821   0.639   0.901   3.368  0.2216 -1.6213  0.6506
 4454SOL    HW224822   0.499   0.929   3.365  0.8928 -0.9288  1.5699
 4455SOL     OW24823   3.683   2.564   4.918 -0.5724 -0.2247  0.8914
 4455SOL    HW124824   3.669   2.658   4.908  1.2643 -0.0790 -0.3789
 4455SOL    HW224825   3.657   2.536   4.830  0.1790  1.9165 -0.0046
 4456SOL     OW24826   3.627   2.730   5.259  0.3524 -0.0158  0.6351
 4456SOL    HW124827   3.667   2.645   5.277 -0.3699 -0.9000 -1.9259
 4456SOL    HW224828   3.553   2.690   5.214 -1.0501  1.1790  1.8923
 4457SOL     OW24829   0.736   4.161   3.753  0.5664  0.1921  0.1304
 4457SOL    HW124830   0.721   4.144   3.660 -1.6305 -0.7103  0.6493
 4457SOL    HW224831   0.650   4.199   3.774  0.1200 -1.3450  1.1015
 4458SOL     OW24832   1.989   0.160  10.507  0.0553  0.6395  0.6774
 4458SOL    HW124833   2.051   0.217  10.553  0.1194  0.4547  0.8210
 4458SOL    HW224834   2.043   0.104  10.450 -1.0044 -0.5961  0.8896
 4459SOL     OW24835   0.058   4.080   5.789 -0.0083 -0.6930  0.7272
 4459SOL    HW124836   0.037   3.996   5.748 -0.7688 -1.2530  2.2827
 4459SOL    HW224837   4.689   4.104   5.804 -0.2444 -1.3258  0.2928
 4460SOL     OW24838   3.679   2.918   1.356 -0.4371 -0.6427  0.0301
 4460SOL    HW124839   3.597   2.951   1.392 -0.1618  0.9429 -0.7798
 4460SOL    HW224840   3.712   2.890   1.442  0.4340 -2.1066 -0.7636
 4461SOL     OW24841   1.157   4.526   3.052  0.2980 -0.3875 -0.0823
 4461SOL    HW124842   1.201   4.602   3.091  1.9650 -1.6874  0.5665
 4461SOL    HW224843   1.094   4.570   2.995  0.6345 -0.7238 -0.7130
 4462SOL     OW24844   3.852   2.988   4.817 -0.2953 -0.6785 -0.5241
 4462SOL    HW124845   3.774   2.971   4.870  0.2472 -0.2356  0.4008
 4462SOL    HW224846   3.911   2.915   4.835 -1.6357 -0.9300  2.7761
 4463SOL     OW24847   1.091   2.225   4.940 -0.2683 -0.0372  0.0190
 4463SOL    HW124848   1.012   2.173   4.954  1.2409 -2.4959 -0.5753
 4463SOL    HW224849   1.052   2.297   4.889  0.7235  1.6352  1.6174
 4464SOL     OW24850   4.379   3.420   5.655 -0.6298  0.2049 -0.0104
 4464SOL    HW124851   4.470   3.406   5.679 -0.4630 -2.0122 -1.9825
 4464SOL    HW224852   4.358   3.333   5.621  0.4244 -0.2805  0.5779
 4465SOL     OW24853   3.003   2.122  10.706  0.0690  0.1883  0.2709
 4465SOL    HW124854   3.039   2.191  10.761  0.0012 -0.4606  1.1480
 4465SOL    HW224855   2.922   2.108  10.757 -0.6634  0.4461 -0.8204
 4466SOL     OW24856   3.776   0.862   5.467 -0.4836 -0.2152  0.4181
 4466SOL    HW124857   3.685   0.840   5.487 -0.8647  0.3224 -0.7140
 4466SOL    HW224858   3.768   0.938   5.409 -1.5207 -3.2387 -3.4370
 4467SOL     OW24859   2.063   1.336   5.582 -0.1327  0.2259  0.4123
 4467SOL    HW124860   2.044   1.394   5.509  0.6207 -1.5795 -1.2067
 4467SOL    HW224861   2.149   1.367   5.610 -0.6005 -0.1085  2.2490
 4468SOL     OW24862   0.738   4.436   8.156 -0.8112 -0.1916  0.6511
 4468SOL    HW124863   0.682   4.512   8.142 -0.7551 -0.1274  0.7795
 4468SOL    HW224864   0.821   4.469   8.121  0.6029 -0.3903  3.8121
 4469SOL     OW24865   3.329   3.041  15.622  0.5787 -0.0103  0.0214
 4469SOL    HW124866   3.255   3.086  15.663 -1.6679 -1.8726 -1.9923
 4469SOL    HW224867   3.393   3.109  15.644  0.7147 -1.0448  2.7780
 4470SOL     OW24868   1.480   2.410   1.270  0.1583  0.2729  0.4040
 4470SOL    HW124869   1.479   2.476   1.340 -0.0472 -0.1503  0.7999
 4470SOL    HW224870   1.495   2.468   1.195  2.5816 -2.0535 -0.9126
 4471SOL     OW24871   3.898   2.502   6.845  0.5610 -0.0241  0.1815
 4471SOL    HW124872   3.826   2.548   6.802 -0.8327 -0.2385  2.3056
 4471SOL    HW224873   3.960   2.481   6.776 -0.3066  1.1533 -0.9505
 4472SOL     OW24874   1.523   2.370   8.099  0.5151 -0.3415  0.1699
 4472SOL    HW124875   1.490   2.411   8.178 -1.0343 -0.8414 -0.2123
 4472SOL    HW224876   1.445   2.345   8.050  0.5604  0.6153 -0.3746
 4473SOL     OW24877   3.617   3.670   5.806 -0.5145  0.3783 -0.1408
 4473SOL    HW124878   3.710   3.691   5.818 -0.3322 -0.1863 -0.5674
 4473SOL    HW224879   3.619   3.620   5.724  1.0448 -1.1800  0.8402
 4474SOL     OW24880   2.917   0.682  10.772 -0.3769 -0.0715 -0.5858
 4474SOL    HW124881   2.943   0.666  10.862 -1.3815 -0.5682 -0.3926
 4474SOL    HW224882   2.870   0.601  10.755  0.8344 -0.7689 -0.6253
 4475SOL     OW24883   3.573   3.296   2.963  0.3827 -0.1403 -0.2858
 4475SOL    HW124884   3.490   3.304   2.916  0.0322 -0.5233  0.2613
 4475SOL    HW224885   3.614   3.376   2.932  0.7699 -0.8618 -1.6398
 4476SOL     OW24886   2.400   4.262   3.203  0.3902 -0.1469 -0.1759
 4476SOL    HW124887   2.379   4.337   3.148  1.0935 -1.1247 -1.7526
 4476SOL    HW224888   2.342   4.203   3.155 -0.1660  0.5938 -0.4083
 4477SOL     OW24889   1.803   4.316   3.336  0.1007  0.4391 -0.5776
 4477SOL    HW124890   1.865   4.327   3.264 -1.0349  1.2178 -1.4591
 4477SOL    HW224891   1.721   4.334   3.288  0.1767  1.4698 -0.3178
 4478SOL     OW24892   3.702   1.286   4.021  0.3825  0.1555 -0.5898
 4478SOL    HW124893   3.668   1.199   4.002  0.0589  0.2209 -0.3014
 4478SOL    HW224894   3.717   1.279   4.116  0.4964 -0.6723 -0.6713
 4479SOL     OW24895   1.809   4.007   3.179  0.5361 -0.2411  0.7310
 4479SOL    HW124896   1.714   4.003   3.191  0.7678 -0.8215  2.4757
 4479SOL    HW224897   1.820   4.036   3.089  0.0613 -0.4894  0.5917
 4480SOL     OW24898   3.404   4.202   5.391  0.3365 -0.1023  0.2348
 4480SOL    HW124899   3.477   4.229   5.334  0.1072  3.1950  1.4985
 4480SOL    HW224900   3.396   4.273   5.454 -0.0826 -0.4602  0.5808
 4481SOL     OW24901   4.539   3.523   2.926 -0.5552  0.2418  0.9912
 4481SOL    HW124902   4.567   3.575   2.850 -1.5737 -1.3277 -0.4477
 4481SOL    HW224903   4.547   3.435   2.888  1.2762  0.3733  1.0785
 4482SOL     OW24904   3.689   0.378   8.352  0.2052 -0.2353 -0.3046
 4482SOL    HW124905   3.629   0.308   8.373 -0.6176  0.8860  1.0887
 4482SOL    HW224906   3.750   0.382   8.426  1.6986 -1.1720 -1.4878
 4483SOL     OW24907   1.781   2.800   1.854 -0.6321 -0.4086 -0.1491
 4483SOL    HW124908   1.770   2.878   1.799  0.5704  2.0173  3.0159
 4483SOL    HW224909   1.713   2.741   1.822 -0.0793 -0.3268 -1.4834
 4484SOL     OW24910   3.966   3.717   7.768 -0.0443 -0.7314 -0.0437
 4484SOL    HW124911   3.975   3.626   7.738  0.6129 -0.7257  0.1240
 4484SOL    HW224912   3.957   3.753   7.680  1.5100  1.3209  0.6387
 4485SOL     OW24913   3.255   1.983   5.053 -0.0656  0.3040 -0.6320
 4485SOL    HW124914   3.164   1.955   5.044  0.6641 -1.8570 -1.1597
 4485SOL    HW224915   3.240   2.068   5.012 -0.7520  1.7332  2.5562
 4486SOL     OW24916   0.488   4.367   9.190  0.3590  0.1406 -0.4930
 4486SOL    HW124917   0.405   4.328   9.218  1.1872 -1.0800  0.2492
 4486SOL    HW224918   0.531   4.375   9.275  0.1222  1.1767 -0.4684
 4487SOL     OW24919   1.986   4.476   7.434  0.3979  0.6722 -0.6211
 4487SOL    HW124920   1.977   4.539   7.506 -0.1525 -0.1371  0.0271
 4487SOL    HW224921   1.900   4.477   7.393 -1.3054 -2.0504  2.8327
 4488SOL     OW24922   0.258   3.306   9.181  0.5663 -0.3641  0.2611
 4488SOL    HW124923   0.246   3.400   9.192  1.0655 -0.0356 -1.9766
 4488SOL    HW224924   0.326   3.288   9.246  0.8244 -0.8865 -0.1519
 4489SOL     OW24925   2.929   2.287  15.963  0.3281 -0.5641 -0.2437
 4489SOL    HW124926   3.017   2.315  15.989 -0.0334 -0.3818  0.7626
 4489SOL    HW224927   2.879   2.337  16.027 -1.9678 -0.9812 -1.7123
 4490SOL     OW24928   0.712   0.358   7.989  0.2265 -0.0827 -0.8775
 4490SOL    HW124929   0.652   0.397   7.925  0.4363  0.0913 -0.9658
 4490SOL    HW224930   0.684   0.268   7.975 -0.9419 -0.3655  3.2222
 4491SOL     OW24931   2.280   1.902   7.418 -0.7730  0.2547  0.0105
 4491SOL    HW124932   2.193   1.930   7.389 -1.3113 -0.2139  1.1745
 4491SOL    HW224933   2.285   1.816   7.376 -1.6450  0.4000 -0.4032
 4492SOL     OW24934   2.148   3.745  17.139  0.1771  0.1190  0.3297
 4492SOL    HW124935   2.205   3.767  17.213  0.1906 -1.5437  0.8198
 4492SOL    HW224936   2.110   3.833  17.132 -1.8505 -0.6932  0.9895
 4493SOL     OW24937   1.715   3.334   5.218 -0.1348  0.4675 -0.5164
 4493SOL    HW124938   1.664   3.267   5.264 -1.0470  0.4954 -1.4699
 4493SOL    HW224939   1.798   3.327   5.264 -1.3232  2.0666  1.8770
 4494SOL     OW24940   3.172   2.795   5.680 -0.3376  0.6314  0.2260
 4494SOL    HW124941   3.116   2.767   5.608 -1.3153  1.3329  0.7029
 4494SOL    HW224942   3.183   2.886   5.653 -0.8608 -0.7568 -4.5560
 4495SOL     OW24943   0.332   1.891   2.822 -0.1021  0.0688 -0.0653
 4495SOL    HW124944   0.315   1.844   2.904 -2.6974 -0.3458 -0.8160
 4495SOL    HW224945   0.359   1.978   2.852 -0.8716 -0.0823  1.0855
 4496SOL     OW24946   2.746   2.080   6.504 -0.4479  0.1027 -0.1005
 4496SOL    HW124947   2.751   2.138   6.428 -1.0033  0.2212 -0.0417
 4496SOL    HW224948   2.838   2.084   6.532 -0.7619 -0.9807  1.0887
 4497SOL     OW24949   1.756   1.702   8.363  0.0832 -0.4644 -0.4741
 4497SOL    HW124950   1.754   1.720   8.457 -1.1826 -0.8031 -0.4221
 4497SOL    HW224951   1.810   1.770   8.324 -1.0078  0.7694  0.1409
 4498SOL     OW24952   2.893   3.989   7.322  0.3161 -0.0343 -0.4139
 4498SOL    HW124953   2.944   3.981   7.403  0.7933  1.9988 -0.5173
 4498SOL    HW224954   2.915   4.081   7.307  0.0596  0.3624  1.6329
 4499SOL     OW24955   2.127   2.848  14.097 -0.1591 -0.2209  0.0497
 4499SOL    HW124956   2.213   2.888  14.107 -0.3782 -0.3764  2.6493
 4499SOL    HW224957   2.147   2.765  14.053  1.4391  0.1707  0.0533
 4500SOL     OW24958   0.364   1.976   4.445  0.0443 -0.7160 -0.2372
 4500SOL    HW124959   0.280   2.000   4.485  1.5677  0.1857  2.4636
 4500SOL    HW224960   0.343   1.894   4.402  1.1750 -0.3575 -1.4761
 4501SOL     OW24961   2.062   3.485   7.033  0.1338 -0.5465 -0.4070
 4501SOL    HW124962   2.078   3.562   6.979 -2.2846  1.0366  1.1399
 4501SOL    HW224963   1.997   3.532   7.086  1.3200  0.9819 -0.3332
 4502SOL     OW24964   2.209   2.403   4.351  0.1075 -0.0755  0.2940
 4502SOL    HW124965   2.240   2.462   4.421 -1.5711 -0.8613  1.6985
 4502SOL    HW224966   2.138   2.452   4.310 -0.8958 -0.5353  1.4925
 4503SOL     OW24967   0.793   3.208   6.684  0.0230 -0.0231 -0.8160
 4503SOL    HW124968   0.726   3.142   6.666  0.0236 -0.2733  0.1130
 4503SOL    HW224969   0.865   3.147   6.693  0.1605  0.3231  0.4742
 4504SOL     OW24970   3.500   2.913   5.385 -0.1720 -0.2761  0.2841
 4504SOL    HW124971   3.540   2.828   5.372 -1.9156 -0.8468 -1.3876
 4504SOL    HW224972   3.550   2.964   5.322 -0.0266  1.3868  1.7368
 4505SOL     OW24973   3.944   0.017   2.823  0.5096 -0.0599 -0.1443
 4505SOL    HW124974   3.947   0.004   2.728  1.9045  0.4772 -0.1647
 4505SOL    HW224975   3.985   0.103   2.827  0.9771 -0.2223 -1.7312
 4506SOL     OW24976   0.402   3.199  11.812  0.0843 -0.6034 -0.0267
 4506SOL    HW124977   0.421   3.207  11.719 -0.6047  2.4126  0.0943
 4506SOL    HW224978   0.437   3.113  11.837 -3.9361 -2.8320 -1.9844
 4507SOL     OW24979   2.496   1.455  10.947  0.4079  0.0537  0.5757
 4507SOL    HW124980   2.461   1.374  10.984  0.4050 -0.5032 -0.6325
 4507SOL    HW224981   2.429   1.518  10.973  0.1198  1.2765 -3.1710
 4508SOL     OW24982   1.105   1.316   4.692 -0.0720 -0.4589  0.0089
 4508SOL    HW124983   1.127   1.280   4.605 -2.9469  1.2616 -1.4094
 4508SOL    HW224984   1.013   1.341   4.684  0.4040  1.0857 -0.7890
 4509SOL     OW24985   3.196   3.227   7.637  0.0977 -0.1022 -0.4303
 4509SOL    HW124986   3.180   3.321   7.631  0.9096  0.0103 -0.9092
 4509SOL    HW224987   3.147   3.190   7.563  0.1145 -0.9685 -0.0073
 4510SOL     OW24988   3.875   1.481   7.744 -0.2134 -0.0396 -0.2887
 4510SOL    HW124989   3.885   1.576   7.740  1.1532 -0.1306  0.9022
 4510SOL    HW224990   3.878   1.467   7.839 -1.5814  0.3959 -0.1824
 4511SOL     OW24991   3.747   1.640   4.587  0.2696  0.0210  0.0251
 4511SOL    HW124992   3.703   1.725   4.580  1.2074  0.6164  1.3578
 4511SOL    HW224993   3.738   1.616   4.495  1.5256  2.1796 -0.6685
 4512SOL     OW24994   0.401   4.204   6.937 -0.4014 -0.1570  0.2846
 4512SOL    HW124995   0.401   4.279   6.877  3.2071 -0.3939 -0.0004
 4512SOL    HW224996   0.355   4.249   7.008 -0.4477  0.3403 -0.0614
 4513SOL     OW24997   2.579   3.544  15.025  0.0396  0.3209  0.2856
 4513SOL    HW124998   2.505   3.532  15.084  1.1282  2.1076  2.0023
 4513SOL    HW224999   2.622   3.459  15.017 -1.2494 -0.2887 -0.1730
 4514SOL     OW25000   3.163   0.076   3.926 -0.4932  0.7005  0.2367
 4514SOL    HW125001   3.116   0.025   3.859  0.9490 -1.5241  0.8891
 4514SOL    HW225002   3.126   0.164   3.923 -0.5639  0.6839  0.7308
 4515SOL     OW25003   2.486   3.937   7.726 -0.3652  0.0596 -0.2501
 4515SOL    HW125004   2.436   3.878   7.671  0.3453  0.2872 -1.1283
 4515SOL    HW225005   2.417   3.962   7.788 -1.9058 -2.9161 -0.7657
 4516SOL     OW25006   3.671   4.042   2.749  0.1407 -0.0941 -0.5700
 4516SOL    HW125007   3.763   4.021   2.764  0.2882 -0.2639 -1.6716
 4516SOL    HW225008   3.681   4.137   2.760  1.0838 -0.1405 -1.0848
 4517SOL     OW25009   2.409   2.514   9.373  0.1176  0.0812  0.1705
 4517SOL    HW125010   2.481   2.558   9.328  0.7877  1.6887  2.7969
 4517SOL    HW225011   2.429   2.542   9.463  1.7805 -0.2848 -0.0892
 4518SOL     OW25012   1.832   4.195   7.854  0.4082  0.6502  0.2524
 4518SOL    HW125013   1.926   4.193   7.841  0.2501  0.2315 -0.8240
 4518SOL    HW225014   1.821   4.231   7.942 -0.5038  0.6737  0.1333
 4519SOL     OW25015   3.930   1.969   2.143  0.6016  0.2488 -0.6078
 4519SOL    HW125016   3.876   2.041   2.110 -2.3091 -0.9575  1.4969
 4519SOL    HW225017   4.011   2.018   2.154  0.1047  0.9255  0.0920
 4520SOL     OW25018   1.175   1.993   2.718  0.1826 -0.4542 -0.6210
 4520SOL    HW125019   1.238   2.043   2.770 -0.5049 -0.3530  0.1089
 4520SOL    HW225020   1.226   1.918   2.686  0.0399 -2.0904  2.9552
 4521SOL     OW25021   2.956   2.318   4.211  0.0394 -0.1661  0.3444
 4521SOL    HW125022   2.948   2.387   4.277 -0.0904 -0.4336  0.6131
 4521SOL    HW225023   3.020   2.257   4.249 -0.8781 -0.2657  1.7423
 4522SOL     OW25024   2.929   0.476   5.377 -0.3371 -0.2317  0.1579
 4522SOL    HW125025   2.881   0.549   5.416 -1.2577 -0.9580  0.3862
 4522SOL    HW225026   2.859   0.410   5.384  0.2630 -1.0500 -1.5378
 4523SOL     OW25027   4.192   3.761   3.909  0.1888  0.4638  0.5657
 4523SOL    HW125028   4.201   3.677   3.865  1.0741 -0.0978  1.8255
 4523SOL    HW225029   4.129   3.811   3.857 -1.3224 -0.6793  1.2963
 4524SOL     OW25030   2.682   2.379   4.636  0.1863  0.3661 -0.3796
 4524SOL    HW125031   2.738   2.312   4.674 -1.1263 -1.0666 -0.9521
 4524SOL    HW225032   2.643   2.428   4.709 -0.9543  3.0017 -2.7365
 4525SOL     OW25033   4.490   4.691  15.106 -0.2046  0.3156  0.3519
 4525SOL    HW125034   4.542   0.035  15.152 -1.3540 -0.1385  2.3073
 4525SOL    HW225035   4.407   0.017  15.102 -0.9604 -1.1118 -1.2075
 4526SOL     OW25036   3.665   3.819   5.324  0.6179  0.1748  0.6902
 4526SOL    HW125037   3.657   3.729   5.295  1.7627  0.5571 -0.8128
 4526SOL    HW225038   3.596   3.857   5.269  0.6383 -0.1571  0.4428
 4527SOL     OW25039   0.216   4.554   8.093  0.3637  0.8482 -0.6443
 4527SOL    HW125040   0.305   4.519   8.099 -0.8485 -2.3183 -1.1377
 4527SOL    HW225041   0.210   4.563   7.998  0.2733 -0.3368 -0.7575
 4528SOL     OW25042   2.593   3.465   7.349  0.2106 -0.0351  0.0456
 4528SOL    HW125043   2.578   3.488   7.441 -1.1178  2.1807 -0.7407
 4528SOL    HW225044   2.570   3.544   7.300  0.5450  1.0637  1.6591
 4529SOL     OW25045   0.257   0.807   5.007 -0.0789  0.5662 -0.9799
 4529SOL    HW125046   0.207   0.830   4.928 -0.9045 -2.9454 -1.4908
 4529SOL    HW225047   0.287   0.717   4.993  1.2840  0.8162  0.3619
 4530SOL     OW25048   1.333   4.560   3.535 -0.1535 -0.0594  0.2672
 4530SOL    HW125049   1.294   4.599   3.613 -0.4574  1.1439 -0.4769
 4530SOL    HW225050   1.324   4.468   3.558  3.6522 -0.0941  1.5835
 4531SOL     OW25051   2.844   0.819  11.220  0.9267  0.0554  0.0503
 4531SOL    HW125052   2.900   0.852  11.291  1.9353 -2.6541  0.4960
 4531SOL    HW225053   2.820   0.737  11.262 -1.4653  1.6161  1.7789
 4532SOL     OW25054   1.210   1.608   9.927  0.5457 -0.0087 -0.0208
 4532SOL    HW125055   1.189   1.643  10.013 -0.1270 -2.9093  0.9917
 4532SOL    HW225056   1.127   1.613   9.880 -1.2177 -0.6039  3.0462
 4533SOL     OW25057   0.519   3.488  12.107  0.3695  0.1024 -0.2992
 4533SOL    HW125058   0.526   3.533  12.191 -1.0612 -2.4933  1.2172
 4533SOL    HW225059   0.491   3.556  12.046 -0.2088 -2.8116 -3.2439
 4534SOL     OW25060   1.738   2.443   3.213  0.6074  0.4339  0.2115
 4534SOL    HW125061   1.829   2.436   3.240  1.7082  1.3265 -3.4027
 4534SOL    HW225062   1.707   2.366   3.262 -1.4802 -0.9539 -3.2720
 4535SOL     OW25063   1.942   1.349  10.151  0.1735  0.1038  0.0370
 4535SOL    HW125064   1.943   1.444  10.163  1.8666 -0.2409  2.6449
 4535SOL    HW225065   2.035   1.328  10.145 -0.3661 -2.0867 -0.7513
 4536SOL     OW25066   0.486   3.458   6.537  0.0813 -0.3499 -0.1350
 4536SOL    HW125067   0.469   3.531   6.597 -0.3276  0.1589 -0.8661
 4536SOL    HW225068   0.397   3.430   6.515  0.0604 -1.2790  1.1098
 4537SOL     OW25069   0.228   3.781   8.105 -0.0006  0.1742  0.2911
 4537SOL    HW125070   0.227   3.862   8.054  1.7022  0.7810  1.2190
 4537SOL    HW225071   0.139   3.771   8.138 -0.3549 -0.5690 -0.8944
 4538SOL     OW25072   1.592   0.213  14.439 -0.3381 -0.0405 -0.4933
 4538SOL    HW125073   1.574   0.184  14.349 -0.0090  0.3495 -0.6872
 4538SOL    HW225074   1.503   0.216  14.473  0.6181 -1.2636  2.1311
 4539SOL     OW25075   2.560   1.742   5.369  0.1493  0.1766 -0.2545
 4539SOL    HW125076   2.468   1.758   5.392  0.7894 -1.8455  3.6161
 4539SOL    HW225077   2.553   1.656   5.329 -1.1785 -0.8788  2.1931
 4540SOL     OW25078   4.133   0.192   9.034  0.0310  0.1264 -0.0442
 4540SOL    HW125079   4.090   0.166   8.952  2.0432  0.1246 -1.1175
 4540SOL    HW225080   4.098   0.135   9.102  2.2765 -2.8258 -1.3566
 4541SOL     OW25081   0.600   3.397   4.698 -0.2145  0.0305  0.2900
 4541SOL    HW125082   0.581   3.480   4.742 -1.4429  0.0662 -0.2865
 4541SOL    HW225083   0.523   3.352   4.733  0.1241  0.4384  1.5383
 4542SOL     OW25084   4.464   3.491   7.813  0.1797  0.0194  0.5967
 4542SOL    HW125085   4.417   3.471   7.732  0.3624 -1.2445  0.7963
 4542SOL    HW225086   4.403   3.450   7.874 -0.6832 -2.3559 -1.8847
 4543SOL     OW25087   4.427   2.330   0.231 -0.3578  0.3639 -0.4661
 4543SOL    HW125088   4.378   2.290   0.303  0.0650  1.3308  0.3577
 4543SOL    HW225089   4.403   2.422   0.240 -2.0722  0.0623 -2.0684
 4544SOL     OW25090   2.632   2.261   9.556 -0.1590 -0.2190  1.0148
 4544SOL    HW125091   2.711   2.242   9.606  0.4975  1.4641  0.6022
 4544SOL    HW225092   2.563   2.245   9.621  0.6030 -3.1684  1.1151
 4545SOL     OW25093   1.268   1.389   2.004  0.6948 -0.0639 -0.0906
 4545SOL    HW125094   1.301   1.467   2.049 -1.0767 -1.2718  3.2802
 4545SOL    HW225095   1.347   1.336   2.014  1.0663  0.0621 -2.3351
 4546SOL     OW25096   4.030   0.162   8.792  0.0676  0.4802  0.0548
 4546SOL    HW125097   3.951   0.172   8.845 -0.7275 -1.4857 -0.7622
 4546SOL    HW225098   4.004   0.185   8.703 -0.1450  0.3701  0.0895
 4547SOL     OW25099   2.304   3.506   5.910 -0.2211  0.4541 -0.3804
 4547SOL    HW125100   2.231   3.454   5.876 -0.9087  0.2580  1.3781
 4547SOL    HW225101   2.314   3.477   6.001 -2.3305  0.6845 -0.0798
 4548SOL     OW25102   0.313   0.715   3.680  0.3709  0.2049  0.3036
 4548SOL    HW125103   0.343   0.655   3.748  2.1342  0.5977 -0.1533
 4548SOL    HW225104   0.300   0.665   3.599  0.2799  0.7063  0.0083
 4549SOL     OW25105   0.168   1.422   3.889  0.3826  0.1448 -0.2484
 4549SOL    HW125106   0.086   1.466   3.866  0.0595 -0.9792 -1.2336
 4549SOL    HW225107   0.162   1.349   3.829  0.8852 -2.4817  2.8977
 4550SOL     OW25108   1.960   1.922   1.320  0.1324 -0.0159  0.0679
 4550SOL    HW125109   1.994   1.833   1.325 -0.3297 -0.1187  1.2715
 4550SOL    HW225110   2.034   1.960   1.367 -0.7385  1.2436  0.4203
 4551SOL     OW25111   3.296   1.076  15.009 -0.7159 -0.0450  0.2139
 4551SOL    HW125112   3.389   1.099  15.013 -0.7830  0.6144 -2.2303
 4551SOL    HW225113   3.255   1.154  15.048 -1.2780 -0.2693  0.0733
 4552SOL     OW25114   2.532   3.686   8.078  0.3155 -0.1135 -0.6930
 4552SOL    HW125115   2.487   3.677   7.994 -0.9537 -1.0699  0.0884
 4552SOL    HW225116   2.619   3.648   8.066  0.0694 -0.3834 -1.6761
 4553SOL     OW25117   2.235   4.214  14.847  0.0989  0.1480  0.1739
 4553SOL    HW125118   2.188   4.144  14.892 -2.3188  2.2570  0.9719
 4553SOL    HW225119   2.165   4.257  14.796 -1.7894 -1.7407  1.1564
 4554SOL     OW25120   2.030   2.672   3.939  0.4679 -0.0015 -0.0357
 4554SOL    HW125121   1.971   2.605   3.905  0.4520  0.4913 -0.9778
 4554SOL    HW225122   1.987   2.703   4.019 -1.3599 -1.5915 -0.4127
 4555SOL     OW25123   4.556   3.012  13.109  0.6215 -0.0458 -0.4681
 4555SOL    HW125124   4.527   3.052  13.191  0.2263 -1.0169 -0.1332
 4555SOL    HW225125   4.495   2.938  13.106 -0.1955  0.6123  0.0842
 4556SOL     OW25126   3.896   2.679   7.598 -0.3005  0.3144 -0.4675
 4556SOL    HW125127   3.944   2.692   7.516  1.6847 -1.9679  0.3246
 4556SOL    HW225128   3.827   2.745   7.594  0.8306  1.5626  0.7451
 4557SOL     OW25129   3.804   2.331  14.427 -0.2101 -0.5707 -0.1843
 4557SOL    HW125130   3.824   2.315  14.520  0.3949 -0.2853 -0.2605
 4557SOL    HW225131   3.825   2.248  14.385 -0.1238 -0.7334  0.1796
 4558SOL     OW25132   2.163   3.015   4.460 -0.3421  0.0829 -0.2821
 4558SOL    HW125133   2.120   3.049   4.382  0.3462 -1.2003 -1.2262
 4558SOL    HW225134   2.087   2.979   4.505  0.9966  0.9382  2.6600
 4559SOL     OW25135   2.668   1.256   5.716  0.0630 -0.2719  0.7579
 4559SOL    HW125136   2.698   1.230   5.628  0.2522  0.4406  0.6058
 4559SOL    HW225137   2.695   1.183   5.772 -1.1521 -1.6693 -0.4814
 4560SOL     OW25138   1.741   0.471   7.498 -0.5010 -0.4750 -0.8103
 4560SOL    HW125139   1.658   0.457   7.454 -1.0340  2.0232 -0.6339
 4560SOL    HW225140   1.755   0.565   7.486  1.2916 -0.6852 -0.4706
 4561SOL     OW25141   0.865   0.318   9.262  0.0193 -0.3398 -0.1031
 4561SOL    HW125142   0.775   0.323   9.292 -0.0245  0.1446 -0.3090
 4561SOL    HW225143   0.858   0.337   9.168 -2.3071  0.7656  0.2806
 4562SOL     OW25144   4.472   1.323   6.730 -0.0431 -0.3732 -0.1129
 4562SOL    HW125145   4.435   1.295   6.814  0.3332 -0.2913  0.0828
 4562SOL    HW225146   4.551   1.270   6.729  0.6623  0.6255  1.4508
 4563SOL     OW25147   1.606   2.331   3.669  0.1355  0.5825 -0.5800
 4563SOL    HW125148   1.580   2.350   3.579  1.2913 -0.1629 -1.0681
 4563SOL    HW225149   1.611   2.421   3.701 -1.3821  0.8213 -0.9988
 4564SOL     OW25150   2.465   2.866   8.390  0.0799  0.2179  0.3107
 4564SOL    HW125151   2.489   2.922   8.315 -4.3963  0.9877 -0.5515
 4564SOL    HW225152   2.508   2.912   8.462 -1.9473  1.1315  0.9307
 4565SOL     OW25153   0.362   0.088  16.105  0.0341 -0.1930  0.3191
 4565SOL    HW125154   0.353   0.112  16.197 -2.0817 -0.7175  0.2465
 4565SOL    HW225155   0.390   4.720  16.118 -2.3199 -0.7185  1.8470
 4566SOL     OW25156   2.101   1.190   7.888  0.0562  0.4834  0.2991
 4566SOL    HW125157   2.195   1.195   7.904  0.5461 -3.5322 -1.3280
 4566SOL    HW225158   2.076   1.169   7.978 -0.3406  0.5003  0.1934
 4567SOL     OW25159   2.785   1.683   4.106  0.0157 -0.2464 -0.1558
 4567SOL    HW125160   2.797   1.776   4.125  0.6068 -0.3825  0.1478
 4567SOL    HW225161   2.722   1.677   4.034 -0.9802 -1.5566  0.8243
 4568SOL     OW25162   1.575   1.691   4.969 -0.2532  0.2756  0.0930
 4568SOL    HW125163   1.551   1.777   4.935  3.2420  1.4772  0.7010
 4568SOL    HW225164   1.660   1.666   4.933  0.0738  0.2660  0.8617
 4569SOL     OW25165   2.454   2.618   4.063  0.0527 -0.2574 -0.5276
 4569SOL    HW125166   2.425   2.660   4.144  0.1360 -0.6787 -0.2804
 4569SOL    HW225167   2.417   2.681   4.000 -1.7801  0.6082  1.4249
 4570SOL     OW25168   4.055   1.671  12.252 -0.1665  0.4005  0.4147
 4570SOL    HW125169   4.059   1.711  12.165  1.1815 -1.0512 -0.2042
 4570SOL    HW225170   3.961   1.658  12.261 -0.3996  2.5330  1.1898
 4571SOL     OW25171   2.962   2.926  13.765 -0.4806  0.4520 -0.3337
 4571SOL    HW125172   3.050   2.937  13.801 -1.0424  1.1158  0.8351
 4571SOL    HW225173   2.970   2.863  13.694  1.3201 -0.8851  1.0676
 4572SOL     OW25174   3.661   2.510   9.032  0.5961  0.7450  0.1435
 4572SOL    HW125175   3.666   2.496   9.126  1.2802  1.0727  0.1584
 4572SOL    HW225176   3.634   2.602   9.028 -1.5177  0.1750  1.4747
 4573SOL     OW25177   4.074   3.496  15.486  0.0892  0.3266  0.1303
 4573SOL    HW125178   4.059   3.560  15.418 -0.4336  0.2430  0.1723
 4573SOL    HW225179   3.998   3.442  15.466  0.1051 -0.1040  1.1855
 4574SOL     OW25180   4.213   1.764   5.021  0.1705 -0.2147 -0.3013
 4574SOL    HW125181   4.223   1.802   4.934 -0.2592  1.3224  0.3295
 4574SOL    HW225182   4.181   1.679   4.988  0.6939 -0.6524  0.3253
 4575SOL     OW25183   0.741   0.045   7.209  0.4375 -0.1340 -0.4551
 4575SOL    HW125184   0.693   0.084   7.281 -1.1108 -2.1027 -0.4047
 4575SOL    HW225185   0.678   0.073   7.141 -0.7176  0.0515  0.6909
 4576SOL     OW25186   2.309   3.038   8.190  0.1045  0.0479  0.7414
 4576SOL    HW125187   2.299   3.081   8.105 -2.9594 -2.7897 -0.3004
 4576SOL    HW225188   2.339   2.953   8.157  0.4071  1.3885 -2.4722
 4577SOL     OW25189   3.436   0.081   1.768  0.1124  0.4254 -0.0271
 4577SOL    HW125190   3.344   0.052   1.771  0.9786 -2.2350  1.4711
 4577SOL    HW225191   3.480   0.030   1.700 -0.2150 -2.5117  1.9405
 4578SOL     OW25192   3.376   0.425   6.398 -0.3598 -0.4428 -0.5812
 4578SOL    HW125193   3.319   0.501   6.414 -0.4932 -0.5890 -0.3565
 4578SOL    HW225194   3.396   0.426   6.305  0.6341 -0.5429 -0.3708
 4579SOL     OW25195   3.131   0.937   9.991 -0.4175  0.0841  0.3996
 4579SOL    HW125196   3.135   0.982   9.906 -1.6676 -2.8753 -1.2215
 4579SOL    HW225197   3.202   0.874   9.979  1.0385  1.7768  0.2066
 4580SOL     OW25198   2.477   4.307  10.377 -0.1347  0.1273  0.2683
 4580SOL    HW125199   2.461   4.243  10.307 -0.5858  0.8445 -0.2970
 4580SOL    HW225200   2.453   4.390  10.334  1.8250  0.8937  0.6669
 4581SOL     OW25201   0.864   0.386  16.377  0.2703  0.1741  0.1406
 4581SOL    HW125202   0.776   0.399  16.343 -0.1050 -1.8497  0.3447
 4581SOL    HW225203   0.915   0.362  16.300 -0.5682 -0.1107 -0.3306
 4582SOL     OW25204   2.493   1.984   8.425  0.0529 -0.0772 -0.0902
 4582SOL    HW125205   2.488   2.055   8.361 -0.4656 -0.6671 -0.7049
 4582SOL    HW225206   2.582   1.999   8.455  0.2891 -0.0369 -0.7978
 4583SOL     OW25207   2.888   0.996   5.833 -0.5385 -0.6984  0.1162
 4583SOL    HW125208   2.839   1.025   5.910 -1.7398 -0.6496 -0.6602
 4583SOL    HW225209   2.895   0.904   5.855  0.4790 -0.2462  1.6594
 4584SOL     OW25210   4.173   2.644  13.200 -0.3917  0.0011 -0.2944
 4584SOL    HW125211   4.082   2.660  13.226 -0.0097 -0.3034  1.2619
 4584SOL    HW225212   4.167   2.551  13.179  0.7042 -0.4147  1.2738
 4585SOL     OW25213   3.624   0.926  15.695  0.2905  0.0952  0.4855
 4585SOL    HW125214   3.713   0.918  15.662 -0.1544  0.2454 -0.7730
 4585SOL    HW225215   3.634   0.868  15.771  1.7270  0.6560  0.7128
 4586SOL     OW25216   4.593   4.651  13.313 -0.3717  0.6411  0.1924
 4586SOL    HW125217   4.662   4.662  13.378 -0.2931 -0.6363  0.3339
 4586SOL    HW225218   4.627   4.568  13.279  0.4800  0.5918  1.1981
 4587SOL     OW25219   1.579   3.403   0.310  0.2662 -0.1505  0.3664
 4587SOL    HW125220   1.574   3.472   0.376  1.0007  1.1014 -0.8804
 4587SOL    HW225221   1.573   3.323   0.362 -1.7903 -0.5052 -0.4181
 4588SOL     OW25222   2.329   1.824   8.875 -0.3691 -0.1230  0.0557
 4588SOL    HW125223   2.407   1.838   8.929 -0.6484 -2.3620  1.0775
 4588SOL    HW225224   2.331   1.904   8.824 -3.1108  0.6844  1.2572
 4589SOL     OW25225   1.050   0.976   4.033 -0.7718 -0.0903 -0.0593
 4589SOL    HW125226   0.992   0.965   3.958  0.0070  1.1052 -0.8409
 4589SOL    HW225227   0.978   0.971   4.097  1.0808  0.6155  2.0756
 4590SOL     OW25228   1.506   2.503   2.673 -0.0158 -0.0487 -0.0995
 4590SOL    HW125229   1.441   2.573   2.676 -0.1966 -0.1794 -0.9788
 4590SOL    HW225230   1.543   2.503   2.761 -0.7499  0.9457  0.1993
 4591SOL     OW25231   3.832   0.226   5.939 -0.5408  0.1941  0.0338
 4591SOL    HW125232   3.922   0.224   5.907  0.2600 -1.8389  2.4505
 4591SOL    HW225233   3.788   0.163   5.882  0.3679  0.6064 -1.1259
 4592SOL     OW25234   2.099   1.238   6.138 -0.4707  0.7368  0.1384
 4592SOL    HW125235   2.005   1.226   6.149 -0.7384  1.1435 -1.7911
 4592SOL    HW225236   2.102   1.326   6.100  1.4421  0.6214  0.0157
 4593SOL     OW25237   4.102   3.194   5.594 -0.2409  0.5264  0.5927
 4593SOL    HW125238   4.039   3.134   5.553  0.9682 -1.3144  1.4348
 4593SOL    HW225239   4.052   3.276   5.596 -0.2694  0.5450 -0.7532
 4594SOL     OW25240   4.325   1.703   8.406 -0.0025  0.0242  0.2271
 4594SOL    HW125241   4.252   1.698   8.467  0.9494 -0.8946  1.2897
 4594SOL    HW225242   4.360   1.614   8.413  1.6991  0.5247 -1.6705
 4595SOL     OW25243   3.474   1.338   6.054 -0.3809  0.0823 -0.3326
 4595SOL    HW125244   3.540   1.277   6.088 -1.8727 -0.9822  0.6854
 4595SOL    HW225245   3.435   1.286   5.983 -0.3419  0.5114 -0.6638
 4596SOL     OW25246   3.934   0.480  15.911  0.0183  0.1114  0.1606
 4596SOL    HW125247   3.882   0.399  15.912 -0.8646  0.6741 -0.5049
 4596SOL    HW225248   3.892   0.521  15.836  0.2131 -0.9010 -0.5037
 4597SOL     OW25249   1.658   3.718  10.456 -0.3823  0.3961  0.6201
 4597SOL    HW125250   1.668   3.767  10.538 -2.5179  1.6598  0.1315
 4597SOL    HW225251   1.615   3.638  10.485  0.0589  0.4809  1.4877
 4598SOL     OW25252   0.622   0.550   3.618  0.2271  0.5004 -0.4394
 4598SOL    HW125253   0.571   0.470   3.604  1.7371 -0.5570  0.1762
 4598SOL    HW225254   0.625   0.575   3.525 -1.3511  0.8859 -0.3818
 4599SOL     OW25255   3.241   0.572   5.093  0.3171 -0.0861  0.4196
 4599SOL    HW125256   3.331   0.552   5.117  0.3358 -1.6209 -0.9737
 4599SOL    HW225257   3.199   0.505   5.147 -1.2885  0.8206  0.3132
 4600SOL     OW25258   3.794   3.734   0.170 -0.0383 -0.2627 -0.0763
 4600SOL    HW125259   3.870   3.725   0.227  0.5231  3.9595 -0.1820
 4600SOL    HW225260   3.824   3.683   0.094 -2.2889 -3.8315  1.4333
 4601SOL     OW25261   1.234   4.609   6.763 -0.2826 -0.3870  0.8513
 4601SOL    HW125262   1.169   4.567   6.818 -0.1198  0.9255  2.0474
 4601SOL    HW225263   1.191   4.588   6.680  0.4116  0.8440  0.1828
 4602SOL     OW25264   1.556   0.254  13.908  0.4353  0.1554 -0.1061
 4602SOL    HW125265   1.492   0.298  13.964  0.5045  2.3173 -1.7214
 4602SOL    HW225266   1.564   0.172  13.957  2.1790  0.4042  0.0201
 4603SOL     OW25267   3.011   2.736   8.049 -0.0704  0.0342 -0.0722
 4603SOL    HW125268   3.025   2.706   7.959  0.3389  2.9121 -0.9840
 4603SOL    HW225269   3.073   2.809   8.046 -2.1697  1.9091  2.0860
 4604SOL     OW25270   4.280   4.540   3.090 -0.2642  0.3479  0.0866
 4604SOL    HW125271   4.295   4.454   3.128  1.7914 -0.0665 -1.6783
 4604SOL    HW225272   4.222   4.521   3.016 -1.9621  0.2448  1.4221
 4605SOL     OW25273   1.924   0.723   1.696 -0.1732  0.3139  0.3235
 4605SOL    HW125274   1.995   0.779   1.665  0.5766 -0.9946 -0.3329
 4605SOL    HW225275   1.933   0.650   1.635  0.5425 -0.1675  0.9907
 4606SOL     OW25276   2.237   3.006   2.885  0.4561 -0.7408 -0.0605
 4606SOL    HW125277   2.144   3.019   2.899  0.5327 -1.5532  1.1633
 4606SOL    HW225278   2.238   2.935   2.820  2.4110 -2.2173  1.5642
 4607SOL     OW25279   3.485   1.365   7.414 -0.1006 -0.2830  0.0792
 4607SOL    HW125280   3.426   1.397   7.346 -0.2865 -1.0160 -0.1134
 4607SOL    HW225281   3.424   1.341   7.484 -0.8142 -0.7660 -0.7121
 4608SOL     OW25282   1.708   3.216   1.835 -0.2585 -0.0055 -0.4225
 4608SOL    HW125283   1.713   3.311   1.826 -0.4203  0.0022 -0.4279
 4608SOL    HW225284   1.694   3.197   1.743 -0.3835  0.0840 -0.4222
 4609SOL     OW25285   0.549   0.821   4.005 -0.0982  0.2305 -0.2837
 4609SOL    HW125286   0.465   0.856   3.976  0.7018  0.7299 -1.9785
 4609SOL    HW225287   0.568   0.745   3.950 -0.3366  0.4061 -0.6080
 4610SOL     OW25288   2.512   1.894   1.584  0.2432  0.2960 -0.1648
 4610SOL    HW125289   2.601   1.892   1.619  0.0094  0.2856  0.4352
 4610SOL    HW225290   2.488   1.978   1.621  0.5016  1.2067 -2.0959
 4611SOL     OW25291   4.606   1.008   8.734 -0.4554 -0.1005  0.0054
 4611SOL    HW125292   4.646   1.085   8.775  0.8055  0.1532 -1.6860
 4611SOL    HW225293   4.656   1.010   8.653 -1.7401  0.1414 -0.7797
 4612SOL     OW25294   0.414   3.785   5.749  0.1593 -0.6135 -0.5531
 4612SOL    HW125295   0.395   3.876   5.772  0.0504 -0.9077  0.5249
 4612SOL    HW225296   0.448   3.810   5.663  0.2310  1.5506  0.1043
 4613SOL     OW25297   1.267   2.803  12.275  0.0933 -0.1013  0.3951
 4613SOL    HW125298   1.336   2.864  12.300 -0.1802  1.4158 -2.4294
 4613SOL    HW225299   1.251   2.771  12.363  1.7765  1.2315  1.1755
 4614SOL     OW25300   0.583   0.521   8.288 -0.8880  1.0611  0.1237
 4614SOL    HW125301   0.661   0.523   8.344  0.5660  2.0319 -1.9177
 4614SOL    HW225302   0.614   0.533   8.198  0.8058  0.7899  0.6565
 4615SOL     OW25303   2.287   4.515  15.318  0.2254  0.4386  0.4305
 4615SOL    HW125304   2.254   4.559  15.396 -0.3242  0.2248  0.3194
 4615SOL    HW225305   2.280   4.595  15.266 -0.1989  1.0233  1.3822
 4616SOL     OW25306   3.638   2.955  16.993  0.8421 -0.4099  0.2472
 4616SOL    HW125307   3.713   2.928  17.047 -1.0692  1.9230  4.0875
 4616SOL    HW225308   3.683   2.980  16.913 -0.8339 -0.5715 -0.7256
 4617SOL     OW25309   0.055   1.307  12.421  0.4279  0.1964  0.0976
 4617SOL    HW125310   4.721   1.373  12.462  0.4070  0.7314 -0.7794
 4617SOL    HW225311   0.009   1.231  12.456  1.8166 -0.8625 -0.4157
 4618SOL     OW25312   1.032   1.664   7.392  0.0217 -0.3788 -0.6368
 4618SOL    HW125313   0.963   1.601   7.373 -0.1770 -0.1122 -0.8049
 4618SOL    HW225314   0.985   1.746   7.375 -0.1306 -0.3477 -0.1002
 4619SOL     OW25315   4.547   3.687   4.927  0.1818  0.4107  0.1139
 4619SOL    HW125316   4.605   3.624   4.970 -0.0131 -0.8760 -1.5057
 4619SOL    HW225317   4.469   3.675   4.980  0.1522  2.4290  0.5266
 4620SOL     OW25318   2.678   4.219   1.736  0.6652  0.4468  0.5249
 4620SOL    HW125319   2.748   4.168   1.695  1.1945  2.7983 -1.4803
 4620SOL    HW225320   2.597   4.185   1.697  1.2044 -2.7249  2.1923
 4621SOL     OW25321   1.430   3.042   9.020  0.3684 -0.6046 -0.2108
 4621SOL    HW125322   1.510   3.065   9.067  0.0485  0.9945 -0.4231
 4621SOL    HW225323   1.444   3.104   8.948 -0.5613  0.4330  0.5035
 4622SOL     OW25324   3.043   1.879   0.496  0.1909  0.9204  0.0554
 4622SOL    HW125325   3.127   1.920   0.518  0.0271  0.7803  0.9489
 4622SOL    HW225326   3.019   1.943   0.430 -0.1405  1.2240  0.4699
 4623SOL     OW25327   1.402   0.583   4.083 -0.1411 -0.0920 -0.8796
 4623SOL    HW125328   1.347   0.509   4.057 -0.6459 -0.3414  0.8680
 4623SOL    HW225329   1.354   0.658   4.047  0.3724  0.0369 -1.2865
 4624SOL     OW25330   4.362   0.750  10.984  0.3437 -0.6239  0.7771
 4624SOL    HW125331   4.384   0.839  10.958  2.8411 -1.8755 -1.4707
 4624SOL    HW225332   4.374   0.703  10.901 -0.5842  0.1986  0.1861
 4625SOL     OW25333   2.079   3.494   2.108 -0.0138  0.1618 -0.0807
 4625SOL    HW125334   2.005   3.435   2.123 -0.7482  2.3387  4.9839
 4625SOL    HW225335   2.147   3.458   2.166 -0.2742  0.3728  0.3545
 4626SOL     OW25336   2.271   1.858   5.402 -0.3943 -0.2810  0.0318
 4626SOL    HW125337   2.202   1.807   5.360 -0.1314  0.1024 -0.8918
 4626SOL    HW225338   2.230   1.872   5.487 -1.1142 -0.1426 -0.3322
 4627SOL     OW25339   2.010   1.062   1.729  0.1815 -0.1813 -0.1540
 4627SOL    HW125340   1.969   1.083   1.812 -0.9171 -1.8330 -0.3009
 4627SOL    HW225341   2.059   1.145   1.726 -1.1344  0.5675 -0.9398
 4628SOL     OW25342   3.447   2.856   7.713 -0.6005 -0.1368 -0.3034
 4628SOL    HW125343   3.404   2.807   7.642  0.4323 -0.4840 -0.6869
 4628SOL    HW225344   3.459   2.934   7.659 -0.3143 -2.1347 -3.1480
 4629SOL     OW25345   2.423   4.539   1.630  0.0812  0.3095  0.0547
 4629SOL    HW125346   2.481   4.614   1.641 -0.0768  0.2674  1.1386
 4629SOL    HW225347   2.389   4.520   1.718  0.2336  0.5524  0.1655
 4630SOL     OW25348   3.156   3.501   3.785 -0.4790 -0.3492  0.6805
 4630SOL    HW125349   3.141   3.548   3.866  0.4388 -0.9916  1.2216
 4630SOL    HW225350   3.095   3.554   3.733  0.3844 -0.0537 -0.0328
 4631SOL     OW25351   3.174   2.522   6.416 -0.4260 -0.7751 -1.2479
 4631SOL    HW125352   3.101   2.552   6.362  0.9739  0.4785 -2.4693
 4631SOL    HW225353   3.239   2.584   6.380  0.8412 -0.8277  0.9679
 4632SOL     OW25354   4.467   3.950  10.422  0.1008 -0.2623 -0.3000
 4632SOL    HW125355   4.553   3.940  10.463 -0.4471  1.7825  1.3610
 4632SOL    HW225356   4.411   3.940  10.498  1.3966 -0.6192  0.6110
 4633SOL     OW25357   0.294   3.510   6.946  0.9648 -0.1628  0.1875
 4633SOL    HW125358   0.328   3.421   6.936  1.7944  0.2602 -0.7381
 4633SOL    HW225359   0.287   3.516   7.042 -0.4707  1.8024 -0.0391
 4634SOL     OW25360   2.011   1.974  14.899  0.7481 -0.2686 -0.0950
 4634SOL    HW125361   1.979   2.014  14.980 -0.6947 -0.0031 -0.8020
 4634SOL    HW225362   2.042   1.887  14.925  1.2745 -0.4442 -1.3129
 4635SOL     OW25363   4.479   0.700   3.671  0.1796 -0.0618  0.5627
 4635SOL    HW125364   4.457   0.787   3.637 -0.8139 -0.6000 -0.1582
 4635SOL    HW225365   4.572   0.699   3.652  0.0196  2.9618 -0.4533
 4636SOL     OW25366   1.890   4.139   5.394 -0.3425 -0.1203 -0.1684
 4636SOL    HW125367   1.872   4.202   5.463 -0.0600 -0.0142 -0.1914
 4636SOL    HW225368   1.809   4.138   5.344 -1.7379  2.5087  2.0774
 4637SOL     OW25369   4.197   1.807   6.378  0.1314  0.3662  0.5017
 4637SOL    HW125370   4.221   1.746   6.308  0.2337  0.9488  0.0242
 4637SOL    HW225371   4.146   1.744   6.429 -0.4816 -1.2055 -2.0444
 4638SOL     OW25372   1.787   4.620   2.009  0.4658  0.4670  0.3624
 4638SOL    HW125373   1.845   4.691   2.037  1.4995  0.4009 -1.5991
 4638SOL    HW225374   1.812   4.593   1.920  2.2572 -1.4816  1.4768
 4639SOL     OW25375   0.047   2.094  10.665 -0.4835 -0.0203  0.0690
 4639SOL    HW125376   0.074   2.009  10.630 -1.2318 -0.8469  1.4968
 4639SOL    HW225377   0.037   2.092  10.760  4.2992 -0.1296  0.5801
 4640SOL     OW25378   4.683   0.618   3.410 -0.1637  0.7723 -0.3865
 4640SOL    HW125379   4.619   0.557   3.371  1.6524 -0.9094 -0.7581
 4640SOL    HW225380   4.648   0.702   3.381 -2.3075  0.1265  0.2826
 4641SOL     OW25381   3.643   4.133   9.379  0.7419  0.1007 -0.7062
 4641SOL    HW125382   3.652   4.137   9.475 -0.0247  0.5348 -0.6555
 4641SOL    HW225383   3.684   4.047   9.371 -0.8735 -0.7923  0.5943
 4642SOL     OW25384   2.548   1.646   8.403 -0.5128  0.2726 -0.4783
 4642SOL    HW125385   2.540   1.558   8.441 -1.0054  0.1406 -0.8835
 4642SOL    HW225386   2.615   1.684   8.459 -1.1425  0.9615 -0.1862
 4643SOL     OW25387   2.215   0.044   2.078 -0.0748 -0.0370 -0.6483
 4643SOL    HW125388   2.222   0.046   1.983  1.2763 -1.2171 -0.5922
 4643SOL    HW225389   2.139   0.101   2.086  0.2208  0.7404 -3.3808
 4644SOL     OW25390   4.521   0.848  11.174 -0.4260  0.8083 -0.6453
 4644SOL    HW125391   4.458   0.794  11.126  1.2393 -1.0054 -0.7375
 4644SOL    HW225392   4.606   0.828  11.135  0.2826  1.8864  0.3240
 4645SOL     OW25393   1.575   2.619  14.659 -0.2290  0.4191 -0.1743
 4645SOL    HW125394   1.535   2.687  14.714  1.0617  1.0555 -0.0103
 4645SOL    HW225395   1.629   2.674  14.602  0.8250 -2.5193 -1.9988
 4646SOL     OW25396   2.774   3.835  11.896  0.5228  0.4565 -0.0807
 4646SOL    HW125397   2.709   3.865  11.960 -0.7807 -1.3856 -0.5493
 4646SOL    HW225398   2.732   3.752  11.874  0.0007  0.7929 -0.3837
 4647SOL     OW25399   2.082   0.376  17.395 -0.4207  0.3878 -0.2269
 4647SOL    HW125400   2.068   0.460  17.353 -1.0925 -0.3607 -1.5153
 4647SOL    HW225401   2.045   0.328  17.321  1.7290  0.2941 -1.2330
 4648SOL     OW25402   0.795   2.439  11.279 -0.6484  0.4350  0.2487
 4648SOL    HW125403   0.744   2.404  11.206 -3.1150  3.2699  0.5974
 4648SOL    HW225404   0.864   2.494  11.241 -0.3605  0.5744  0.9704
 4649SOL     OW25405   2.042   2.070   3.721 -0.5374 -0.6183 -0.6032
 4649SOL    HW125406   2.056   2.002   3.786 -0.2749 -0.7818 -0.8274
 4649SOL    HW225407   2.116   2.078   3.660  1.9507 -0.5666  2.4486
 4650SOL     OW25408   2.101   2.422   2.249 -0.4854  0.6984 -0.3205
 4650SOL    HW125409   2.187   2.462   2.243  1.3109 -3.7618 -4.2808
 4650SOL    HW225410   2.132   2.339   2.213 -2.9686  0.7569 -2.5586
 4651SOL     OW25411   0.340   3.756  11.489 -0.1324  0.0760 -0.1335
 4651SOL    HW125412   0.293   3.833  11.457  1.0092  0.7189 -0.2747
 4651SOL    HW225413   0.409   3.789  11.546  0.6333 -1.8892  0.0766
 4652SOL     OW25414   4.269   4.317  11.700 -0.3067 -0.2020  0.5994
 4652SOL    HW125415   4.202   4.249  11.694 -2.4824  1.8811  1.1388
 4652SOL    HW225416   4.228   4.380  11.641  2.4411 -0.0479 -1.1892
 4653SOL     OW25417   2.236   1.641  15.633 -0.4154  0.2148 -0.0397
 4653SOL    HW125418   2.199   1.556  15.612 -0.6695  0.6502 -1.4002
 4653SOL    HW225419   2.181   1.668  15.706  2.6503 -1.0615  2.7503
 4654SOL     OW25420   2.499   2.966   7.540 -0.6585 -0.1119  0.3481
 4654SOL    HW125421   2.547   3.038   7.581 -0.3525  1.2901 -2.4716
 4654SOL    HW225422   2.502   2.899   7.608 -0.1564 -1.2580 -0.8037
 4655SOL     OW25423   2.590   4.617   5.023  0.3542  0.0260 -0.6134
 4655SOL    HW125424   2.564   4.557   4.953 -0.0819 -1.4560  0.8304
 4655SOL    HW225425   2.540   4.571   5.090 -0.6266 -0.5407 -1.7352
 4656SOL     OW25426   0.816   0.499   4.008 -0.1603 -0.6032 -0.3906
 4656SOL    HW125427   0.764   0.466   4.081 -0.9851 -3.3905 -2.2168
 4656SOL    HW225428   0.740   0.529   3.959  1.8167  1.5457 -2.2001
 4657SOL     OW25429   4.213   0.765   8.051 -0.2061 -0.3031 -0.1475
 4657SOL    HW125430   4.190   0.729   8.137 -1.3177 -0.5989 -0.5682
 4657SOL    HW225431   4.284   0.707   8.022  1.5575  1.3560  0.8758
 4658SOL     OW25432   1.825   2.734  11.917 -0.1568  0.0204 -0.0223
 4658SOL    HW125433   1.744   2.732  11.867 -0.5901  2.3733  0.5672
 4658SOL    HW225434   1.822   2.816  11.966 -0.9516  0.3864 -0.6860
 4659SOL     OW25435   2.283   3.191   3.183  0.0387 -0.4106 -0.0052
 4659SOL    HW125436   2.204   3.244   3.170  0.7689  0.8812  0.8194
 4659SOL    HW225437   2.271   3.119   3.121 -0.2443 -1.7965  1.6602
 4660SOL     OW25438   0.524   1.114   4.077  0.1095 -0.5012 -0.0741
 4660SOL    HW125439   0.457   1.130   4.011 -1.7408  1.4081  2.2343
 4660SOL    HW225440   0.512   1.019   4.076  0.3006 -0.5130 -1.4392
 4661SOL     OW25441   3.730   1.150   6.907  0.2484  0.7483  0.5148
 4661SOL    HW125442   3.773   1.070   6.938  0.9200  0.7057 -0.5436
 4661SOL    HW225443   3.806   1.206   6.924 -0.9243  1.7470  2.5622
 4662SOL     OW25444   1.277   2.118   4.104 -0.7317 -0.6000 -0.0923
 4662SOL    HW125445   1.331   2.194   4.126  0.6365 -1.9200  1.1292
 4662SOL    HW225446   1.280   2.071   4.187  2.4191 -1.9616 -0.9798
 4663SOL     OW25447   4.504   3.624   8.140 -0.6327  0.1969 -0.4881
 4663SOL    HW125448   4.569   3.581   8.084  0.0263  1.0938 -0.4128
 4663SOL    HW225449   4.565   3.686   8.179  1.5797 -1.0368 -2.0111
 4664SOL     OW25450   3.463   4.196   8.857  0.7575 -0.0665  0.4669
 4664SOL    HW125451   3.423   4.264   8.910 -0.9017 -1.8149  1.4522
 4664SOL    HW225452   3.435   4.117   8.903  0.6785  0.3684  1.1702
 4665SOL     OW25453   2.862   2.842  12.310 -0.1801  0.1637  0.0749
 4665SOL    HW125454   2.860   2.937  12.315  1.0179  0.0835  1.9068
 4665SOL    HW225455   2.901   2.839  12.222 -1.0216 -0.0929 -0.2847
 4666SOL     OW25456   0.512   1.901  16.197  0.2723 -0.7013  0.3018
 4666SOL    HW125457   0.549   1.821  16.158 -0.4282 -0.7743 -0.1997
 4666SOL    HW225458   0.564   1.972  16.161 -2.0807  0.2542 -1.1472
 4667SOL     OW25459   0.256   0.244   9.370  0.4480  0.4326 -0.5440
 4667SOL    HW125460   0.295   0.292   9.443 -1.3235 -1.2957  1.5153
 4667SOL    HW225461   0.165   0.271   9.380 -0.0222 -1.7746  0.8363
 4668SOL     OW25462   1.412   2.915   8.369 -0.2847 -0.1253 -0.3498
 4668SOL    HW125463   1.386   2.939   8.458  1.0291  1.7267 -0.4590
 4668SOL    HW225464   1.388   2.822   8.369  1.5560 -0.5914 -0.9984
 4669SOL     OW25465   1.390   3.033   4.312  0.0997 -0.6238  0.1360
 4669SOL    HW125466   1.471   2.989   4.289 -0.3928 -0.1390 -2.5506
 4669SOL    HW225467   1.406   3.058   4.404  0.2537 -1.1205  0.2416
 4670SOL     OW25468   4.393   0.741   2.980  0.3928 -0.7085 -0.9144
 4670SOL    HW125469   4.462   0.732   2.914  0.5668 -2.2019 -0.5279
 4670SOL    HW225470   4.422   0.813   3.035  1.1259 -1.0852 -0.7974
 4671SOL     OW25471   0.403   3.727  14.967 -0.2113  0.6735  0.3082
 4671SOL    HW125472   0.430   3.713  15.058 -0.5406  0.1422  0.3244
 4671SOL    HW225473   0.326   3.782  14.985 -0.2144  1.5245 -2.3901
 4672SOL     OW25474   3.665   2.251  17.682  0.5444 -0.1143  0.2392
 4672SOL    HW125475   3.584   2.205  17.659  0.6903 -1.1946  1.8640
 4672SOL    HW225476   3.660   2.233   0.085 -1.0045 -0.6601  0.0617
 4673SOL     OW25477   4.127   0.842   3.010  0.2768 -0.4940  0.0336
 4673SOL    HW125478   4.077   0.776   3.059  0.4034  0.2373  1.1457
 4673SOL    HW225479   4.212   0.799   3.004  1.1171  0.9898  1.2580
 4674SOL     OW25480   2.204   3.758   1.100 -0.5621  0.2846  0.1826
 4674SOL    HW125481   2.251   3.720   1.175 -0.1918  1.3402  0.4823
 4674SOL    HW225482   2.227   3.701   1.027 -2.7791 -1.1500  0.6019
 4675SOL     OW25483   0.300   2.828  14.248  0.3052  0.2261 -0.4194
 4675SOL    HW125484   0.388   2.812  14.281 -0.3166 -1.2274  0.5259
 4675SOL    HW225485   0.252   2.749  14.272  1.2917 -0.1242  0.4173
 4676SOL     OW25486   2.809   2.692   4.687 -0.0213  0.2246  0.1540
 4676SOL    HW125487   2.896   2.652   4.694 -0.2371  0.0461  1.6551
 4676SOL    HW225488   2.809   2.736   4.772  0.6996 -0.3803  0.4716
 4677SOL     OW25489   1.142   3.823   8.197 -0.1840  0.2914 -0.6634
 4677SOL    HW125490   1.114   3.737   8.229  2.4650 -0.1630  0.4911
 4677SOL    HW225491   1.231   3.823   8.234 -0.3231  0.7291 -0.3307
 4678SOL     OW25492   2.846   2.667  17.335 -0.4364 -0.0296  0.1702
 4678SOL    HW125493   2.751   2.667  17.336 -0.4485  1.7252 -1.1840
 4678SOL    HW225494   2.870   2.679  17.243  2.8269 -0.1227  0.9894
 4679SOL     OW25495   2.627   2.944   9.810 -0.3096 -0.2397  0.3117
 4679SOL    HW125496   2.622   2.942   9.905 -1.0512 -2.9294  0.2043
 4679SOL    HW225497   2.543   2.900   9.796  0.6325 -1.5530 -1.1826
 4680SOL     OW25498   1.710   3.942   8.887  0.4059 -0.5684  0.2191
 4680SOL    HW125499   1.682   3.932   8.978 -2.1276 -2.2752 -0.7287
 4680SOL    HW225500   1.751   3.856   8.872  0.4503 -0.4075 -0.5862
 4681SOL     OW25501   1.279   1.475   7.556 -0.0785 -0.8459 -0.4697
 4681SOL    HW125502   1.347   1.423   7.599 -0.5844 -0.0946  1.2168
 4681SOL    HW225503   1.289   1.563   7.594 -1.1224 -1.2440  0.7262
 4682SOL     OW25504   4.002   1.433  16.057  0.4241  0.0770  0.0046
 4682SOL    HW125505   4.070   1.493  16.026 -0.1086  0.4418 -0.4542
 4682SOL    HW225506   4.037   1.345  16.051 -0.7223 -0.1745 -3.0852
 4683SOL     OW25507   1.272   2.678   7.957  0.2395  0.7356  0.6289
 4683SOL    HW125508   1.260   2.770   7.983  1.0162  0.4328  2.0608
 4683SOL    HW225509   1.367   2.676   7.942  0.2738 -1.0971  1.1027
 4684SOL     OW25510   2.387   2.948  11.884  0.2626 -0.0093 -0.3491
 4684SOL    HW125511   2.366   2.951  11.790  0.4365 -2.9518 -0.4830
 4684SOL    HW225512   2.350   2.865  11.914  1.0886 -0.7053 -1.2579
 4685SOL     OW25513   1.919   3.942   6.593 -0.0358  0.6068 -0.2475
 4685SOL    HW125514   2.004   3.969   6.556 -0.5022  1.4543 -0.7021
 4685SOL    HW225515   1.896   4.021   6.643 -2.4047 -0.6189  0.5542
 4686SOL     OW25516   2.497   4.207   7.910 -0.0989 -1.1581 -0.1369
 4686SOL    HW125517   2.454   4.284   7.946 -2.7028 -3.0062  0.6927
 4686SOL    HW225518   2.561   4.192   7.980  0.1934  0.6951 -0.0214
 4687SOL     OW25519   0.982   1.594   9.785  0.7043  0.2769 -0.7086
 4687SOL    HW125520   0.903   1.638   9.815  0.5094  0.1249 -1.0089
 4687SOL    HW225521   0.952   1.564   9.699 -3.8568  0.3310  0.9039
 4688SOL     OW25522   0.617   2.883   7.066  0.5367  0.5696 -0.3168
 4688SOL    HW125523   0.535   2.894   7.114  1.6711 -0.1377  1.7832
 4688SOL    HW225524   0.582   2.813   7.011 -1.3373  1.0206  0.2809
 4689SOL     OW25525   1.477   1.038  10.037  0.1809  0.5177  0.1101
 4689SOL    HW125526   1.564   1.032  10.078 -0.2352 -1.3222  0.6861
 4689SOL    HW225527   1.425   1.003  10.109 -1.8310  1.3770 -0.9458
 4690SOL     OW25528   1.336   4.214   1.237 -0.3778 -0.0034  0.3678
 4690SOL    HW125529   1.349   4.287   1.298 -0.2628 -0.6730  1.1380
 4690SOL    HW225530   1.424   4.177   1.234  0.3623  1.7036  0.8886
 4691SOL     OW25531   1.964   2.278  14.191  0.0773 -0.0486  0.1189
 4691SOL    HW125532   1.887   2.335  14.199 -0.0557 -0.4990  1.9369
 4691SOL    HW225533   1.922   2.193  14.207 -0.1110 -0.1578 -0.9702
 4692SOL     OW25534   2.498   4.140   9.012 -0.3044 -0.3149 -0.5370
 4692SOL    HW125535   2.546   4.222   9.026 -1.2455  0.1855 -0.2262
 4692SOL    HW225536   2.492   4.140   8.917 -2.2784  0.9319 -0.3981
 4693SOL     OW25537   0.388   0.781   4.736 -0.0495 -0.0676 -0.2089
 4693SOL    HW125538   0.352   0.832   4.664  0.3917  0.5445  0.0048
 4693SOL    HW225539   0.374   0.692   4.705 -0.3793  0.2032 -0.8349
 4694SOL     OW25540   3.595   0.767   0.730  0.0247  0.0547 -0.2969
 4694SOL    HW125541   3.555   0.680   0.736  0.1194 -0.0595 -1.3789
 4694SOL    HW225542   3.686   0.738   0.741  0.8250  2.0077 -1.7124
 4695SOL     OW25543   4.270   0.551   7.088  0.6450 -0.0208 -0.2623
 4695SOL    HW125544   4.350   0.578   7.133  0.9121  1.0147 -1.3704
 4695SOL    HW225545   4.216   0.528   7.163  1.2666  1.0856  0.5238
 4696SOL     OW25546   0.613   2.831   5.464 -0.3245 -0.5009 -0.1643
 4696SOL    HW125547   0.536   2.781   5.491  1.0815 -1.9501  1.1116
 4696SOL    HW225548   0.573   2.887   5.397 -1.8534 -1.8152 -0.3544
 4697SOL     OW25549   0.747   4.618  12.014 -0.1831 -0.4155 -0.4611
 4697SOL    HW125550   0.739   4.522  12.015  0.0154 -0.4841 -3.3224
 4697SOL    HW225551   0.673   4.645  12.068  1.4595  0.5951  1.2581
 4698SOL     OW25552   2.169   0.845   1.876 -0.1559  0.2323 -0.0204
 4698SOL    HW125553   2.213   0.827   1.793  0.3404  1.2501  0.0169
 4698SOL    HW225554   2.202   0.924   1.919  1.8761 -0.8711  0.4262
 4699SOL     OW25555   1.489   2.936   2.308  0.2802 -0.4069 -0.6474
 4699SOL    HW125556   1.485   2.937   2.213 -0.0002  0.3719 -0.6331
 4699SOL    HW225557   1.402   2.972   2.326  0.5725  0.6511 -1.3463
 4700SOL     OW25558   3.465   4.080  16.247 -0.5549  0.0948 -0.4822
 4700SOL    HW125559   3.395   4.145  16.251 -1.1271 -0.4869 -1.0264
 4700SOL    HW225560   3.475   4.054  16.339  1.3812 -0.5619 -0.8866
 4701SOL     OW25561   4.098   2.384   0.919 -0.5682 -0.3761  0.3048
 4701SOL    HW125562   4.025   2.445   0.934 -1.2277 -0.7354 -1.4707
 4701SOL    HW225563   4.125   2.353   1.006  0.7876  0.2879  0.1195
 4702SOL     OW25564   4.230   0.790   5.463  0.8343  0.0925 -0.1207
 4702SOL    HW125565   4.138   0.776   5.441  0.9024 -1.5334  0.6701
 4702SOL    HW225566   4.276   0.729   5.405 -0.0839 -0.5457 -0.1744
 4703SOL     OW25567   0.920   0.594   0.343 -0.1838 -0.6542 -0.8226
 4703SOL    HW125568   1.007   0.609   0.306  0.0653  0.8516  0.3798
 4703SOL    HW225569   0.939   0.625   0.431  2.4747  0.4634 -1.7753
 4704SOL     OW25570   0.216   3.039   1.242  0.1715 -0.4019 -0.0297
 4704SOL    HW125571   0.127   3.050   1.274  0.4430  0.5004  0.4024
 4704SOL    HW225572   0.232   3.126   1.205 -0.5999  0.2883  1.2463
 4705SOL     OW25573   0.198   1.565  10.241 -0.8703 -0.0916 -0.1628
 4705SOL    HW125574   0.111   1.552  10.279 -0.4320 -0.6674  0.6389
 4705SOL    HW225575   0.184   1.506  10.167  1.2071 -0.1857 -0.4735
 4706SOL     OW25576   2.409   4.225  16.714 -0.0003  0.8098  0.2005
 4706SOL    HW125577   2.408   4.176  16.632  2.0604 -1.9519  1.8017
 4706SOL    HW225578   2.322   4.263  16.705  0.7997  2.8257  0.9608
 4707SOL     OW25579   3.619   0.726  17.239 -0.0623 -0.2073  0.7596
 4707SOL    HW125580   3.595   0.778  17.316 -0.2004 -0.6782  1.0321
 4707SOL    HW225581   3.682   0.788  17.203 -0.6823 -1.4358 -2.4514
 4708SOL     OW25582   2.603   0.723   4.991 -0.0671 -1.0160  0.3501
 4708SOL    HW125583   2.689   0.694   4.960 -0.7180 -1.7900 -0.7417
 4708SOL    HW225584   2.605   0.690   5.081  1.3468  2.9878  1.7827
 4709SOL     OW25585   3.359   0.700   8.586 -0.2453  0.2735 -0.2129
 4709SOL    HW125586   3.451   0.679   8.602 -0.3787  0.2681  0.5365
 4709SOL    HW225587   3.363   0.792   8.611 -0.0679  0.3826 -0.6492
 4710SOL     OW25588   2.170   0.704  16.409 -0.0021  0.1147  0.1313
 4710SOL    HW125589   2.129   0.661  16.484 -0.4324  0.7146  0.2351
 4710SOL    HW225590   2.236   0.758  16.452  1.3155 -1.4017  0.0361
 4711SOL     OW25591   0.390   2.603   0.208 -0.0791 -0.5163  0.1036
 4711SOL    HW125592   0.367   2.516   0.240 -0.3901 -0.4115  0.1688
 4711SOL    HW225593   0.352   2.666   0.269  1.5567  0.3619  0.2189
 4712SOL     OW25594   1.176   2.886   9.044  0.4424 -0.1002  0.5523
 4712SOL    HW125595   1.264   2.912   9.016 -0.7498  2.5412 -0.7375
 4712SOL    HW225596   1.183   2.831   9.121  0.7400 -0.0552  0.5597
 4713SOL     OW25597   3.733   2.388   9.268  0.2001 -0.4446  0.1519
 4713SOL    HW125598   3.798   2.437   9.319  1.0128  0.3282 -1.5824
 4713SOL    HW225599   3.751   2.300   9.300 -2.2211 -0.7917  0.5336
 4714SOL     OW25600   3.387   1.136   5.869 -0.1024 -0.2574  0.0466
 4714SOL    HW125601   3.367   1.177   5.785  0.9078  0.3483  0.0968
 4714SOL    HW225602   3.301   1.098   5.886  0.2537 -1.0941 -0.0403
 4715SOL     OW25603   1.053   4.117  12.025 -0.1659  0.1191  0.2043
 4715SOL    HW125604   1.081   4.068  11.948 -0.0073 -0.8272  0.8700
 4715SOL    HW225605   0.998   4.189  11.994 -0.6844 -1.3824 -2.3563
 4716SOL     OW25606   4.140   4.241   9.272 -0.4324 -0.1956  0.3179
 4716SOL    HW125607   4.142   4.337   9.268  1.5078 -0.2726 -0.7944
 4716SOL    HW225608   4.078   4.225   9.201  1.9191 -0.3061 -1.7481
 4717SOL     OW25609   2.647   0.378  10.076 -0.3408 -0.0266  0.4992
 4717SOL    HW125610   2.574   0.316  10.071 -2.2074  2.1860 -0.1850
 4717SOL    HW225611   2.669   0.375  10.169 -0.7790  0.3381  0.6194
 4718SOL     OW25612   3.973   3.439   7.732 -0.5182 -0.0032 -0.0176
 4718SOL    HW125613   4.063   3.420   7.706 -0.3394 -0.2197  0.7748
 4718SOL    HW225614   3.944   3.368   7.790  1.4277  0.3160  1.3372
 4719SOL     OW25615   4.206   2.148   5.099 -0.0889 -0.5077 -0.6532
 4719SOL    HW125616   4.272   2.217   5.109 -0.7165 -0.0078 -0.0058
 4719SOL    HW225617   4.266   2.075   5.086 -0.3556 -0.8387  0.0083
 4720SOL     OW25618   2.783   1.373   4.313 -0.4292  0.1494 -0.1861
 4720SOL    HW125619   2.852   1.440   4.320  0.0991 -0.3499 -0.6377
 4720SOL    HW225620   2.707   1.431   4.311 -1.5162 -1.2333  1.6924
 4721SOL     OW25621   1.456   0.215   6.683  0.1776 -0.7377  0.3272
 4721SOL    HW125622   1.391   0.205   6.613 -0.1797  0.5002  0.4909
 4721SOL    HW225623   1.402   0.195   6.759 -0.0752 -2.2716 -0.2374
 4722SOL     OW25624   3.625   3.197   0.455 -0.3278 -0.2772  0.0636
 4722SOL    HW125625   3.647   3.135   0.524  1.0677  0.3635  0.2122
 4722SOL    HW225626   3.540   3.234   0.476 -0.4369 -0.3733 -0.2083
 4723SOL     OW25627   2.472   0.767  14.987  0.1259 -0.0095  0.3231
 4723SOL    HW125628   2.536   0.816  14.937 -1.7487  1.1552 -0.9138
 4723SOL    HW225629   2.489   0.789  15.079 -1.3149 -0.2554  0.6623
 4724SOL     OW25630   0.375   4.258  16.832 -0.4876  0.0692  0.8804
 4724SOL    HW125631   0.330   4.267  16.916 -0.9817 -2.0999  0.8551
 4724SOL    HW225632   0.348   4.341  16.791 -0.5285  0.1919  1.1602
 4725SOL     OW25633   4.040   0.771   4.485 -0.1180 -0.2953 -0.2488
 4725SOL    HW125634   3.960   0.786   4.435  0.2206  2.9832  0.1890
 4725SOL    HW225635   4.106   0.825   4.442  0.9335  0.6299  2.5436
 4726SOL     OW25636   0.328   4.516  16.193 -0.7165 -0.2376 -0.2344
 4726SOL    HW125637   0.316   4.564  16.275 -3.4286 -0.9095 -0.2195
 4726SOL    HW225638   0.264   4.445  16.205 -0.3374 -0.2689  1.6209
 4727SOL     OW25639   1.478   0.709   9.941  0.6026  0.2538 -0.1245
 4727SOL    HW125640   1.411   0.689   9.875  0.1078  1.3685  0.0364
 4727SOL    HW225641   1.455   0.678  10.028  2.3576 -2.2377 -0.5292
 4728SOL     OW25642   0.544   4.273   5.701  0.0264 -0.0442  0.5880
 4728SOL    HW125643   0.630   4.302   5.731  0.2639 -1.6085  1.4174
 4728SOL    HW225644   0.487   4.287   5.777  0.1333 -1.7180  0.9804
 4729SOL     OW25645   4.397   2.007   1.733  0.1409 -0.1037 -0.2513
 4729SOL    HW125646   4.341   1.947   1.684 -2.2038  1.5197  0.4249
 4729SOL    HW225647   4.462   1.953   1.778  0.6719  0.1328 -0.7289
 4730SOL     OW25648   4.627   2.325   7.063  0.4710  0.4635  0.8446
 4730SOL    HW125649   4.684   2.360   6.994 -2.4537  0.4816 -1.5723
 4730SOL    HW225650   4.626   2.236   7.028 -0.6413  0.1437  1.6946
 4731SOL     OW25651   2.885   1.052   3.285  0.5921  0.7827  0.1003
 4731SOL    HW125652   2.807   0.998   3.299  2.3992 -2.1216 -1.1098
 4731SOL    HW225653   2.942   1.001   3.229 -0.3372 -0.3892  0.2237
 4732SOL     OW25654   4.591   3.669  11.226 -0.0576  0.1388  0.0895
 4732SOL    HW125655   4.552   3.752  11.198  0.9022  0.6228  0.1889
 4732SOL    HW225656   4.639   3.637  11.150 -0.8032  0.7532 -0.6462
 4733SOL     OW25657   3.293   4.421  15.438 -0.3005 -0.5593  0.0312
 4733SOL    HW125658   3.326   4.374  15.361  0.3324  0.6449 -0.4439
 4733SOL    HW225659   3.328   4.507  15.414  0.6985 -0.8525  0.4683
 4734SOL     OW25660   2.213   2.816   4.693 -0.0884 -0.4427 -0.7731
 4734SOL    HW125661   2.211   2.751   4.764  0.1180 -0.5081 -0.8289
 4734SOL    HW225662   2.198   2.901   4.735 -0.0592 -1.9259  2.3043
 4735SOL     OW25663   3.070   1.228  11.530  0.2773 -0.3647  0.0085
 4735SOL    HW125664   3.072   1.324  11.524  0.3845 -0.2147  2.4136
 4735SOL    HW225665   3.164   1.219  11.543  0.0450 -3.2587 -0.2661
 4736SOL     OW25666   4.457   3.012   2.822  0.1882 -0.3302 -0.2513
 4736SOL    HW125667   4.436   3.045   2.910  1.6748  0.2641 -0.1117
 4736SOL    HW225668   4.518   2.944   2.852  0.8034  0.1950 -0.3251
 4737SOL     OW25669   0.939   1.473   8.539 -0.2059  0.3957  0.7646
 4737SOL    HW125670   0.923   1.559   8.501  1.3961  0.4099  0.0894
 4737SOL    HW225671   1.030   1.481   8.568  0.3858  2.2732 -1.5658
 4738SOL     OW25672   3.063   3.619  10.996  0.0405  0.1532  0.4524
 4738SOL    HW125673   3.125   3.675  11.043  1.3767 -0.0633 -1.0576
 4738SOL    HW225674   3.040   3.664  10.915  2.0915 -0.1156 -0.2824
 4739SOL     OW25675   2.524   3.973  14.241  0.2477 -1.0518  0.6828
 4739SOL    HW125676   2.523   3.881  14.267 -1.7816 -1.1363  0.3255
 4739SOL    HW225677   2.437   4.003  14.269  0.5449 -2.0539  2.6568
 4740SOL     OW25678   1.134   1.210   1.441  0.4180 -0.1457  0.6208
 4740SOL    HW125679   1.173   1.220   1.528  2.3322  1.5391 -0.4266
 4740SOL    HW225680   1.185   1.273   1.390  1.0114  0.6105  2.1528
 4741SOL     OW25681   1.152   0.300  17.428 -0.6218  0.4363  0.5714
 4741SOL    HW125682   1.236   0.282  17.470  0.2817 -1.2563 -1.9437
 4741SOL    HW225683   1.158   0.394  17.444  0.9049  0.4421  0.0465
 4742SOL     OW25684   3.510   1.475   8.137  0.2708 -0.8577  0.1355
 4742SOL    HW125685   3.481   1.412   8.072  1.3381  0.1223 -1.2862
 4742SOL    HW225686   3.464   1.558   8.129 -0.8476 -1.3231  1.6221
 4743SOL     OW25687   1.909   0.188  10.841  0.1358  0.2426 -0.1635
 4743SOL    HW125688   1.968   0.199  10.766  0.1645 -0.9900 -0.3229
 4743SOL    HW225689   1.824   0.193  10.798  0.8088 -0.4531 -1.5658
 4744SOL     OW25690   0.550   0.900   4.924 -0.1592  0.3030  0.2004
 4744SOL    HW125691   0.541   0.895   5.019 -0.1250  1.1502  0.2538
 4744SOL    HW225692   0.472   0.871   4.877  0.1566 -1.3868  0.7301
 4745SOL     OW25693   4.125   4.159   8.375  0.0433 -0.0567 -0.5585
 4745SOL    HW125694   4.205   4.108   8.363 -2.0281 -3.8883  1.7704
 4745SOL    HW225695   4.061   4.111   8.323  0.1534 -1.0351  0.2066
 4746SOL     OW25696   1.217   0.254  10.309  0.3553 -0.5287 -0.3384
 4746SOL    HW125697   1.307   0.264  10.339  0.5416 -0.4796 -0.9087
 4746SOL    HW225698   1.200   0.335  10.261 -0.2893 -1.4987 -1.7620
 4747SOL     OW25699   4.068   1.792   2.510 -0.9329  0.3859  0.0759
 4747SOL    HW125700   4.162   1.773   2.505 -1.1150 -0.6835  0.6489
 4747SOL    HW225701   4.043   1.721   2.451 -1.1576 -0.1832  0.8464
 4748SOL     OW25702   3.366   3.320  14.931  0.0862 -0.2637 -0.0573
 4748SOL    HW125703   3.325   3.250  14.880  1.0536 -0.5707 -0.4216
 4748SOL    HW225704   3.335   3.399  14.888  1.2224 -0.4813 -1.2971
 4749SOL     OW25705   2.091   3.205  13.076 -0.0807  0.0406 -0.4933
 4749SOL    HW125706   2.165   3.215  13.136 -2.6024  0.5016  2.4939
 4749SOL    HW225707   2.105   3.269  13.006 -0.9181  0.7588  0.0046
 4750SOL     OW25708   0.812   0.503   5.191 -0.2851 -0.0874  0.2912
 4750SOL    HW125709   0.863   0.583   5.181 -1.0100  0.3631  0.1922
 4750SOL    HW225710   0.777   0.487   5.104 -0.0213  1.9002 -0.1877
 4751SOL     OW25711   2.105   0.503   4.441  0.1771 -0.2859 -0.2828
 4751SOL    HW125712   2.016   0.496   4.406  0.1773 -0.5163 -0.2392
 4751SOL    HW225713   2.087   0.585   4.487  0.0794  0.4520 -1.6535
 4752SOL     OW25714   3.515   3.910   2.953 -0.3606  0.1381 -0.4570
 4752SOL    HW125715   3.562   3.946   2.877  0.3637  3.6441  1.6772
 4752SOL    HW225716   3.568   3.940   3.027  0.8287  1.2031 -1.7319
 4753SOL     OW25717   2.327   2.930   3.391 -0.2504  0.1969  0.4057
 4753SOL    HW125718   2.338   2.904   3.300  2.3785 -1.2413  1.1279
 4753SOL    HW225719   2.397   2.876   3.428 -1.1851 -2.1664 -1.2859
 4754SOL     OW25720   2.249   3.352   7.229  0.7939 -0.2440 -0.3011
 4754SOL    HW125721   2.188   3.368   7.156 -0.7429 -2.1586  0.5565
 4754SOL    HW225722   2.193   3.353   7.306  2.0445 -1.2735  0.6230
 4755SOL     OW25723   2.869   0.104   1.860 -0.0809  0.2269  0.0269
 4755SOL    HW125724   2.901   0.097   1.770 -1.4232  0.5826 -0.4716
 4755SOL    HW225725   2.925   0.159   1.914  0.6363 -0.0303 -0.4530
 4756SOL     OW25726   4.320   0.550   6.827 -0.4862  0.3389  0.3385
 4756SOL    HW125727   4.291   0.540   6.918 -2.2879  0.5757 -0.2042
 4756SOL    HW225728   4.238   0.530   6.783  1.2902  0.6139 -3.0550
 4757SOL     OW25729   4.425   2.993   6.659  0.0926 -0.0670 -0.1584
 4757SOL    HW125730   4.347   3.014   6.609 -0.7726  1.1270  1.7031
 4757SOL    HW225731   4.415   3.053   6.732 -0.8619  1.4228 -1.5326
 4758SOL     OW25732   2.539   0.730   7.889  0.0038 -0.0270  0.0155
 4758SOL    HW125733   2.575   0.746   7.802 -0.4967  0.8660 -0.0179
 4758SOL    HW225734   2.494   0.648   7.868  1.2266 -0.3677 -1.3446
 4759SOL     OW25735   0.155   2.173   3.583  0.4163 -0.7065  0.0474
 4759SOL    HW125736   0.109   2.102   3.628 -1.6485  0.9959  0.6174
 4759SOL    HW225737   0.224   2.202   3.643 -1.0771 -1.0032  1.8967
 4760SOL     OW25738   4.600   0.316   2.537 -0.5530  0.0120  0.1850
 4760SOL    HW125739   4.633   0.227   2.546 -2.1074 -0.8080 -2.5454
 4760SOL    HW225740   4.672   0.366   2.499 -2.5352  2.2777 -0.5548
 4761SOL     OW25741   1.736   4.029   5.715 -0.3868 -0.2784 -0.4104
 4761SOL    HW125742   1.821   3.986   5.723 -0.6504 -0.6095  0.5313
 4761SOL    HW225743   1.674   3.958   5.697 -0.4681  0.0058 -1.2782
 4762SOL     OW25744   0.964   4.328   2.792  0.0574  0.0556 -0.2878
 4762SOL    HW125745   0.927   4.412   2.819 -0.6393 -1.0051  2.0905
 4762SOL    HW225746   0.886   4.290   2.752  0.2963  1.3170 -1.9293
 4763SOL     OW25747   4.548   1.188   8.105  0.5947  0.1636  0.0871
 4763SOL    HW125748   4.496   1.262   8.137 -0.6399 -0.0610 -1.4144
 4763SOL    HW225749   4.481   1.136   8.062 -1.0642  3.3697 -1.1885
 4764SOL     OW25750   2.779   3.027  16.093  0.3857  0.2803 -0.5545
 4764SOL    HW125751   2.800   3.115  16.125  0.2213 -0.4296  1.4394
 4764SOL    HW225752   2.728   3.045  16.013 -2.1126 -0.2223  0.9424
 4765SOL     OW25753   2.481   4.330   8.307  0.9857 -0.0551  0.4018
 4765SOL    HW125754   2.524   4.414   8.321  1.8254 -0.2601 -0.8746
 4765SOL    HW225755   2.390   4.357   8.312  0.5520 -1.3688 -0.2949
 4766SOL     OW25756   1.506   1.805   9.961 -0.5430  0.9478  0.2726
 4766SOL    HW125757   1.458   1.818  10.043 -2.2842 -0.8395 -0.4555
 4766SOL    HW225758   1.437   1.836   9.902  1.0226  0.4305 -1.8437
 4767SOL     OW25759   0.757   2.647   6.652  0.3858  0.2370  0.5943
 4767SOL    HW125760   0.680   2.671   6.703 -0.3576 -2.4940  0.8017
 4767SOL    HW225761   0.740   2.552   6.652 -1.7077  0.6329  0.5531
 4768SOL     OW25762   2.220   1.531   6.920 -0.6980 -0.6873  0.2294
 4768SOL    HW125763   2.230   1.624   6.903  1.5389 -0.5782  2.1135
 4768SOL    HW225764   2.161   1.506   6.848 -2.0977  1.8732  0.5005
 4769SOL     OW25765   4.511   1.867   7.077  0.2675 -0.1480  0.0917
 4769SOL    HW125766   4.531   1.775   7.062 -0.5253 -0.2041 -0.5966
 4769SOL    HW225767   4.422   1.862   7.111  0.2179 -2.7157 -0.4123
 4770SOL     OW25768   2.290   1.858  15.408  0.2140 -0.1453  0.0137
 4770SOL    HW125769   2.267   1.944  15.443  0.6685 -0.3047  0.7189
 4770SOL    HW225770   2.228   1.799  15.451  1.1742 -0.1829  1.3581
 4771SOL     OW25771   3.739   4.322  15.560 -0.0676  0.3704 -0.4766
 4771SOL    HW125772   3.768   4.349  15.647 -0.5604  1.1957 -0.5666
 4771SOL    HW225773   3.719   4.407  15.520  1.2001  1.9840  2.3333
 4772SOL     OW25774   1.170   2.851   8.764 -0.2038 -0.2599 -0.2247
 4772SOL    HW125775   1.147   2.846   8.857 -1.7225  1.2933 -0.5205
 4772SOL    HW225776   1.206   2.763   8.759  0.9787  0.2203 -0.0390
 4773SOL     OW25777   0.128   4.165   9.682  0.4821 -0.3212 -0.2633
 4773SOL    HW125778   0.133   4.084   9.734 -1.1416  0.1249  0.5719
 4773SOL    HW225779   0.124   4.232   9.750 -1.2089  0.7050 -1.4017
 4774SOL     OW25780   2.034   1.290   4.529 -0.2443  0.0563 -0.5636
 4774SOL    HW125781   2.117   1.254   4.558 -0.8586 -1.1538 -0.3105
 4774SOL    HW225782   1.986   1.214   4.562 -0.9316 -0.0482 -1.7953
 4775SOL     OW25783   1.476   1.485   5.103 -0.5472 -0.0503 -0.0033
 4775SOL    HW125784   1.411   1.468   5.035  0.7768 -0.7061 -1.1201
 4775SOL    HW225785   1.516   1.567   5.072 -0.8801  0.4344  0.8642
 4776SOL     OW25786   2.464   1.543   4.096  0.5756 -0.6250  0.0100
 4776SOL    HW125787   2.484   1.572   4.185  0.1298  2.3859 -0.8746
 4776SOL    HW225788   2.387   1.486   4.101  0.1754 -0.1313 -0.4447
 4777SOL     OW25789   4.346   3.878  14.441  0.1633 -0.0472 -0.5375
 4777SOL    HW125790   4.317   3.940  14.509 -0.3119  0.1075 -0.8819
 4777SOL    HW225791   4.285   3.909  14.374  0.8923  1.4904 -0.4832
 4778SOL     OW25792   3.816   0.910   8.287  0.1520  0.5263 -0.5884
 4778SOL    HW125793   3.813   0.817   8.264  0.8671  0.7947 -1.7369
 4778SOL    HW225794   3.750   0.907   8.357 -0.2154 -0.0318 -0.9506
 4779SOL     OW25795   2.244   2.322   5.733 -0.1629 -0.4901  0.0504
 4779SOL    HW125796   2.222   2.244   5.784  0.0045  0.4773  1.6206
 4779SOL    HW225797   2.184   2.319   5.659  1.2996 -3.6695 -0.9639
 4780SOL     OW25798   1.704   0.491   2.732  0.6774  0.0851  0.1415
 4780SOL    HW125799   1.667   0.551   2.667 -4.9263 -1.0908  2.1829
 4780SOL    HW225800   1.631   0.428   2.739  1.3104 -0.7147 -0.3677
 4781SOL     OW25801   2.982   4.488  13.358  0.0747  0.2403 -0.4210
 4781SOL    HW125802   2.972   4.402  13.317 -0.3830  0.2124 -0.2556
 4781SOL    HW225803   2.997   4.456  13.447 -1.0979 -0.5932 -0.5205
 4782SOL     OW25804   1.302   0.896  10.529 -0.4617 -0.8066  1.0022
 4782SOL    HW125805   1.217   0.911  10.485 -1.1572  0.8347  2.9025
 4782SOL    HW225806   1.289   0.961  10.598 -1.0928 -2.4096  2.3704
 4783SOL     OW25807   0.308   1.233  16.387 -0.1177 -0.5067  0.9421
 4783SOL    HW125808   0.225   1.211  16.345  0.8318  0.1740 -1.3219
 4783SOL    HW225809   0.372   1.170  16.353  1.1159  1.1041  0.2700
 4784SOL     OW25810   2.270   1.559   9.787  0.1610  0.0245 -0.2613
 4784SOL    HW125811   2.366   1.567   9.792  0.1561 -1.7167  2.7434
 4784SOL    HW225812   2.253   1.566   9.693  0.3364 -2.4149 -0.4948
 4785SOL     OW25813   0.408   3.320  16.702  0.4353  0.2740 -0.2936
 4785SOL    HW125814   0.489   3.329  16.652  1.7098 -1.0098  1.5760
 4785SOL    HW225815   0.369   3.248  16.651 -2.6304  1.6960  0.0292
 4786SOL     OW25816   2.181   4.610  16.438 -0.3046 -0.0151  0.2953
 4786SOL    HW125817   2.170   4.519  16.412 -2.1460  0.8538 -1.8824
 4786SOL    HW225818   2.163   4.654  16.355  0.7568  0.7164  0.4570
 4787SOL     OW25819   1.791   3.138  10.179  0.1689 -0.6367 -0.3237
 4787SOL    HW125820   1.776   3.153  10.085  0.6107 -0.8645 -0.4285
 4787SOL    HW225821   1.734   3.207  10.214  0.1636 -1.2796  0.9086
 4788SOL     OW25822   3.758   4.175   4.545  0.3879  0.1564 -0.6163
 4788SOL    HW125823   3.684   4.202   4.491 -1.2999  0.0218  1.6035
 4788SOL    HW225824   3.765   4.083   4.518  2.0034  0.8712 -2.5966
 4789SOL     OW25825   2.781   4.211   8.430  0.2887  0.4889 -0.1719
 4789SOL    HW125826   2.862   4.261   8.417  0.0369  0.9494  0.0084
 4789SOL    HW225827   2.718   4.279   8.454  0.8002  1.9508 -2.8842
 4790SOL     OW25828   1.876   0.316  14.714 -0.2294  0.3267 -0.0212
 4790SOL    HW125829   1.914   0.231  14.693 -0.2376 -0.2271  2.1398
 4790SOL    HW225830   1.956   0.363  14.737 -0.0906  0.7436 -1.3763
 4791SOL     OW25831   1.171   2.228   9.741 -0.1204 -0.0338  0.8462
 4791SOL    HW125832   1.255   2.262   9.771 -0.0043  1.2872 -1.0072
 4791SOL    HW225833   1.140   2.161   9.803  1.3119 -1.8922 -0.4452
 4792SOL     OW25834   0.850   1.079   8.431  0.5785  0.6011  0.0137
 4792SOL    HW125835   0.805   1.146   8.482 -1.5996 -0.7740 -0.0658
 4792SOL    HW225836   0.908   1.134   8.379  0.6022  0.5992  0.0382
 4793SOL     OW25837   0.667   1.321  12.363  0.1245 -0.6919 -0.1920
 4793SOL    HW125838   0.643   1.327  12.456  1.0957 -0.6340  0.0537
 4793SOL    HW225839   0.580   1.328  12.324  0.4478  0.8267 -0.6686
 4794SOL     OW25840   0.734   0.979   7.030 -0.2903 -0.6025 -0.4582
 4794SOL    HW125841   0.704   0.941   6.947 -1.8168  2.3840 -1.2694
 4794SOL    HW225842   0.811   1.031   7.005 -0.2603  0.0733  1.0509
 4795SOL     OW25843   4.612   4.572   8.383  0.5771 -0.3503 -0.2012
 4795SOL    HW125844   4.596   4.642   8.320  0.9319  0.9476  1.1451
 4795SOL    HW225845   4.529   4.559   8.429  2.1973 -2.3221  2.1460
 4796SOL     OW25846   3.190   2.957  14.585  0.6310 -0.1416 -0.3805
 4796SOL    HW125847   3.164   2.895  14.653  2.9375 -1.1862 -0.4566
 4796SOL    HW225848   3.285   2.947  14.576  0.4768 -0.7641 -1.4327
 4797SOL     OW25849   3.284   1.013   1.096  0.1867  0.4375  0.9005
 4797SOL    HW125850   3.248   0.931   1.131  1.7928 -0.0290  1.4472
 4797SOL    HW225851   3.361   1.012   1.153  0.8855  0.9119 -0.0290
 4798SOL     OW25852   3.944   4.001   8.846 -0.1657 -0.3974 -0.3928
 4798SOL    HW125853   3.873   4.019   8.784 -1.0401  1.2679  1.0918
 4798SOL    HW225854   4.020   3.996   8.788  0.8624  0.9860  0.8316
 4799SOL     OW25855   3.006   0.778  12.174  0.0397 -0.0480  0.1012
 4799SOL    HW125856   3.059   0.732  12.108 -0.6410  2.4607 -2.2165
 4799SOL    HW225857   2.927   0.807  12.128  0.4765  0.3729 -0.3806
 4800SOL     OW25858   3.006   1.991  17.005 -0.0539 -0.2325  0.0935
 4800SOL    HW125859   3.084   2.001  16.949  0.1821  1.7850  0.7921
 4800SOL    HW225860   2.980   1.902  16.983  0.9625 -0.2861 -0.9655
 4801SOL     OW25861   1.304   1.436   9.118  0.2302 -0.3822  0.2728
 4801SOL    HW125862   1.295   1.531   9.123 -0.5848 -0.3137 -2.4288
 4801SOL    HW225863   1.400   1.427   9.122  0.0884 -2.0296 -0.0808
 4802SOL     OW25864   1.282   1.061   6.151  0.3803  0.3046  0.2158
 4802SOL    HW125865   1.294   1.027   6.240  0.4357 -1.0129 -0.3050
 4802SOL    HW225866   1.264   1.154   6.165  0.3159  0.2017  0.8202
 4803SOL     OW25867   0.809   3.141   9.407  0.2553  0.1718 -0.1105
 4803SOL    HW125868   0.816   3.065   9.465 -1.9936 -0.5303 -0.7872
 4803SOL    HW225869   0.721   3.131   9.371 -0.9872  0.3989  2.8233
 4804SOL     OW25870   4.201   3.479   4.910 -0.3009  0.0166  0.1402
 4804SOL    HW125871   4.186   3.547   4.845  1.3117  0.5292  0.2995
 4804SOL    HW225872   4.255   3.521   4.977 -1.3017  1.1355  0.2391
 4805SOL     OW25873   2.273   3.499  14.035 -0.2315 -0.0148 -0.0411
 4805SOL    HW125874   2.244   3.545  13.956  1.1523 -1.4787 -1.3712
 4805SOL    HW225875   2.198   3.443  14.056  0.3435 -0.2989  1.2372
 4806SOL     OW25876   2.422   3.261   2.844  0.4214 -0.4661  0.2680
 4806SOL    HW125877   2.347   3.203   2.834  0.7745 -0.6898 -1.0893
 4806SOL    HW225878   2.485   3.212   2.791  1.2731  0.8134  0.0747
 4807SOL     OW25879   3.532   1.608   3.669 -0.6372 -0.3427  1.1796
 4807SOL    HW125880   3.599   1.564   3.617 -1.5527  0.2284 -0.4737
 4807SOL    HW225881   3.511   1.669   3.599  0.5531  0.3972  1.4538
 4808SOL     OW25882   0.816   4.505   4.454 -0.1354 -0.8274  0.3774
 4808SOL    HW125883   0.849   4.416   4.451  2.4750  0.1890 -1.0201
 4808SOL    HW225884   0.897   4.554   4.466  0.2023 -0.4445 -3.4300
 4809SOL     OW25885   4.415   1.488   5.719  0.5010 -0.1063 -0.0616
 4809SOL    HW125886   4.445   1.417   5.775 -1.3481 -1.0412 -0.2704
 4809SOL    HW225887   4.341   1.512   5.774  0.2810 -1.9619  0.4648
 4810SOL     OW25888   0.338   2.442  17.644 -0.0759  0.7019 -0.2824
 4810SOL    HW125889   0.353   2.495   0.031 -2.6873 -1.8183  1.9033
 4810SOL    HW225890   0.246   2.423  17.660  0.3099  0.9558  2.2288
 4811SOL     OW25891   2.536   3.813   5.564  0.3886 -0.1654  0.2206
 4811SOL    HW125892   2.494   3.790   5.647  0.5783 -0.4753  0.2285
 4811SOL    HW225893   2.577   3.727   5.551  0.7650  0.2097 -1.0221
 4812SOL     OW25894   1.079   4.626   7.566 -0.0258 -0.1593 -0.2547
 4812SOL    HW125895   1.165   4.641   7.605 -0.8544 -1.4421  2.0463
 4812SOL    HW225896   1.079   4.668   7.480  0.0725 -2.4062 -1.3648
 4813SOL     OW25897   0.913   1.152   3.555  0.3782  0.1938 -0.3989
 4813SOL    HW125898   0.904   1.237   3.513  0.7836  0.3285 -0.2102
 4813SOL    HW225899   0.916   1.181   3.646  1.8501 -4.0839  0.9069
 4814SOL     OW25900   4.402   0.385   8.042  0.3100  0.2523  0.6443
 4814SOL    HW125901   4.381   0.453   8.106  0.3732  0.2160  0.7041
 4814SOL    HW225902   4.337   0.320   8.069  1.7364 -0.6654  1.9364
 4815SOL     OW25903   1.581   4.264   0.667 -0.7229 -0.4856  0.3903
 4815SOL    HW125904   1.587   4.170   0.648 -0.1004  0.0970 -2.2687
 4815SOL    HW225905   1.489   4.282   0.647 -0.0734  0.9950 -1.2601
 4816SOL     OW25906   0.549   2.299   3.641 -0.3619 -0.1332 -0.2659
 4816SOL    HW125907   0.491   2.297   3.717 -0.4562  0.7214 -0.3188
 4816SOL    HW225908   0.511   2.358   3.576 -0.4562 -0.7307 -0.7498
 4817SOL     OW25909   2.763   0.815   2.867  0.5326 -0.2487 -0.3799
 4817SOL    HW125910   2.731   0.774   2.787 -0.4788  2.7609 -1.5552
 4817SOL    HW225911   2.857   0.808   2.850  1.0581  0.3096  2.3097
 4818SOL     OW25912   0.817   3.807   8.462  0.5818  0.0198  0.1266
 4818SOL    HW125913   0.780   3.814   8.374  2.0129 -0.0471 -0.4817
 4818SOL    HW225914   0.886   3.873   8.459  0.3245  0.2845  0.0272
 4819SOL     OW25915   0.957   2.856   4.058  0.1644  0.6023 -0.7698
 4819SOL    HW125916   1.010   2.933   4.076 -1.9724  1.3213  2.3841
 4819SOL    HW225917   0.876   2.882   4.102 -0.4676 -2.2528 -0.2483
 4820SOL     OW25918   1.064   2.364  12.162  0.0872 -0.0477  0.5359
 4820SOL    HW125919   0.999   2.296  12.140 -0.5442  0.7108  0.0626
 4820SOL    HW225920   1.049   2.383  12.254  0.5728 -2.5846  1.1374
 4821SOL     OW25921   4.520   4.535   3.848  0.7726 -0.5229 -0.0721
 4821SOL    HW125922   4.474   4.451   3.856  1.6524 -0.9787  0.1883
 4821SOL    HW225923   4.464   4.572   3.917 -0.7927 -1.0705 -1.0420
 4822SOL     OW25924   1.926   4.120   7.371  0.6513 -0.0448  0.1445
 4822SOL    HW125925   1.945   4.131   7.278  0.3184 -0.6636  0.0022
 4822SOL    HW225926   2.012   4.137   7.409  0.7163  0.6448 -0.3187
 4823SOL     OW25927   2.115   0.738  17.413  0.0060  0.1265  0.5269
 4823SOL    HW125928   2.132   0.678  17.341 -0.3471 -1.7931  2.0394
 4823SOL    HW225929   2.144   0.823  17.380  1.1966  0.6526  2.9532
 4824SOL     OW25930   0.222   3.453   8.184 -0.1237  0.2190  0.1884
 4824SOL    HW125931   0.177   3.535   8.159 -0.5919  0.2665  1.1983
 4824SOL    HW225932   0.148   3.401   8.215 -0.6868  1.0330  0.2332
 4825SOL     OW25933   0.474   0.580   2.186  0.6224  0.6636  0.2742
 4825SOL    HW125934   0.478   0.613   2.096  0.3673 -0.5932 -0.1992
 4825SOL    HW225935   0.380   0.596   2.192  0.1584 -1.5250 -0.7982
 4826SOL     OW25936   4.237   1.175   2.657  0.1109  0.1776 -0.0960
 4826SOL    HW125937   4.159   1.217   2.692  1.1421  0.5592  1.7046
 4826SOL    HW225938   4.228   1.080   2.654  1.9339  0.0311 -1.1684
 4827SOL     OW25939   0.487   0.320   0.954 -0.0761 -0.0775  0.1968
 4827SOL    HW125940   0.569   0.278   0.928  0.6117 -0.1428  2.4726
 4827SOL    HW225941   0.438   0.280   0.883 -1.8728 -1.4086  2.1838
 4828SOL     OW25942   0.070   2.512   2.740 -0.7492  0.3108  0.3056
 4828SOL    HW125943   0.032   2.498   2.653 -0.6428 -3.4317  0.8669
 4828SOL    HW225944   0.156   2.538   2.706 -0.4660 -1.5251 -0.3622
 4829SOL     OW25945   3.524   3.354  10.164  0.2386  0.1030 -0.6089
 4829SOL    HW125946   3.540   3.303  10.085  1.1037 -0.6941  0.0819
 4829SOL    HW225947   3.590   3.421  10.152  0.1857  0.2421 -0.1104
 4830SOL     OW25948   1.152   1.409   5.817  0.2117  0.3311 -0.2233
 4830SOL    HW125949   1.233   1.422   5.868 -0.4848 -0.9285  1.2009
 4830SOL    HW225950   1.177   1.364   5.736  1.3142  2.3128 -1.0010
 4831SOL     OW25951   3.347   3.338   3.149 -0.0887 -0.4894  0.5533
 4831SOL    HW125952   3.299   3.352   3.067  0.4693  0.3916  0.3780
 4831SOL    HW225953   3.420   3.295   3.104 -0.3538 -1.3244  0.9283
 4832SOL     OW25954   1.321   0.826   8.448 -0.0281 -0.2032 -0.1533
 4832SOL    HW125955   1.253   0.781   8.397 -0.4560  0.4504 -0.1643
 4832SOL    HW225956   1.285   0.814   8.536  0.7048  1.8595  0.4332
 4833SOL     OW25957   1.407   2.976   3.890 -0.2140 -0.3072 -0.4593
 4833SOL    HW125958   1.432   2.942   3.976 -0.6262 -0.1002 -0.2577
 4833SOL    HW225959   1.387   3.066   3.917  2.7458  0.3008 -0.3279
 4834SOL     OW25960   2.318   4.159  14.591 -0.2843 -0.0895  0.6452
 4834SOL    HW125961   2.369   4.234  14.561 -0.8986 -0.0416 -0.2860
 4834SOL    HW225962   2.306   4.177  14.684  1.7041  1.6768  0.5625
 4835SOL     OW25963   0.279   4.382   8.499  0.2663  0.0080 -0.1719
 4835SOL    HW125964   0.231   4.363   8.580 -0.0477  0.4141 -0.2628
 4835SOL    HW225965   0.246   4.315   8.439 -1.2760 -0.7402  1.4992
 4836SOL     OW25966   0.928   3.639   6.762 -0.4493 -0.2986 -0.0066
 4836SOL    HW125967   0.949   3.566   6.704  1.1723  0.4980 -0.4475
 4836SOL    HW225968   0.987   3.706   6.725 -0.5136  1.1161  2.4619
 4837SOL     OW25969   1.326   2.155   2.871 -0.0225 -0.3431 -0.1870
 4837SOL    HW125970   1.392   2.211   2.913  1.4554 -0.1626 -2.7684
 4837SOL    HW225971   1.263   2.221   2.845 -1.2759 -2.3935 -2.3386
 4838SOL     OW25972   0.631   1.670   2.686  0.5353 -0.0069 -0.6871
 4838SOL    HW125973   0.714   1.687   2.641  0.9950 -1.0695 -0.2494
 4838SOL    HW225974   0.583   1.731   2.629  0.6298  2.1208  1.4972
 4839SOL     OW25975   1.542   0.096   0.525 -0.1586  0.4312 -0.0105
 4839SOL    HW125976   1.474   0.100   0.457  1.7117  0.5433 -1.8946
 4839SOL    HW225977   1.528   0.179   0.571  1.4389  1.4204 -1.2966
 4840SOL     OW25978   3.005   3.661   8.239 -0.3060 -0.1269  0.4156
 4840SOL    HW125979   3.000   3.632   8.330 -2.9474  1.2835  0.7449
 4840SOL    HW225980   2.965   3.593   8.185 -0.2211  1.0675 -1.1710
 4841SOL     OW25981   2.701   0.150   2.349 -0.3659 -0.0772 -0.2338
 4841SOL    HW125982   2.722   0.152   2.255  1.2303 -2.9565  0.0554
 4841SOL    HW225983   2.782   0.183   2.389 -0.1066  0.1976 -0.9814
 4842SOL     OW25984   3.278   4.027   8.650  0.3711 -0.7814  0.2952
 4842SOL    HW125985   3.262   4.109   8.605 -1.2440 -1.1891  0.1265
 4842SOL    HW225986   3.327   3.976   8.585  1.2382 -2.2819  2.1125
 4843SOL     OW25987   2.057   2.285  15.381  0.3395  0.5441  0.2568
 4843SOL    HW125988   2.084   2.345  15.450  2.8822 -1.3059  0.8761
 4843SOL    HW225989   2.026   2.217  15.441 -2.1636  1.7811  0.3561
 4844SOL     OW25990   1.178   3.483   5.276 -0.3120 -0.0874 -0.0102
 4844SOL    HW125991   1.158   3.562   5.326 -0.5651  0.3195 -0.7511
 4844SOL    HW225992   1.181   3.533   5.195 -0.9067 -0.5826 -0.3424
 4845SOL     OW25993   3.012   3.691   6.465  0.3255  0.3153  0.8013
 4845SOL    HW125994   2.925   3.726   6.485  0.7434  1.4682  0.6013
 4845SOL    HW225995   2.992   3.605   6.501  0.1247 -0.1775 -0.4941
 4846SOL     OW25996   2.627   3.633   3.674 -0.0514 -0.1348 -0.0221
 4846SOL    HW125997   2.653   3.586   3.595  0.9902  1.4428 -0.6218
 4846SOL    HW225998   2.551   3.687   3.651  0.3409  0.8539  1.0015
 4847SOL     OW25999   2.039   0.148   4.056 -0.0323  0.1976 -0.2049
 4847SOL    HW126000   2.043   0.146   3.960  1.3951 -1.4081 -0.1088
 4847SOL    HW226001   1.981   0.224   4.062  0.2075  0.2699  1.3125
 4848SOL     OW26002   0.886   1.504   9.486  0.2061 -0.4564 -0.2611
 4848SOL    HW126003   0.945   1.574   9.456  1.1982 -0.8359  0.7770
 4848SOL    HW226004   0.851   1.473   9.403  1.5762 -1.2305 -0.5609
 4849SOL     OW26005   0.944   3.048  12.444 -0.2769  0.3522 -0.6067
 4849SOL    HW126006   1.029   3.034  12.487 -0.4999  2.7265  0.6199
 4849SOL    HW226007   0.952   2.983  12.374  0.5786  0.2818 -0.4457
 4850SOL     OW26008   2.030   4.700   0.838  0.4492  0.0618 -0.5469
 4850SOL    HW126009   1.939   0.008   0.832  0.5598  0.6657  0.9556
 4850SOL    HW226010   2.028   4.618   0.788 -0.6823  1.0585 -2.1497
 4851SOL     OW26011   3.147   4.288   1.798 -0.1526  0.1670 -0.1316
 4851SOL    HW126012   3.113   4.283   1.709 -0.2638  0.4157 -0.1020
 4851SOL    HW226013   3.063   4.272   1.841 -0.0877  2.1795  0.7532
 4852SOL     OW26014   4.210   3.048   6.477  0.0858 -0.3812 -0.6226
 4852SOL    HW126015   4.252   2.973   6.434 -1.0549 -0.5446 -1.4605
 4852SOL    HW226016   4.184   3.098   6.400 -2.1815 -1.8996 -0.8495
 4853SOL     OW26017   1.752   4.528   4.051 -0.1279  0.3675 -0.1351
 4853SOL    HW126018   1.757   4.575   4.134  0.4550 -0.1921  0.1496
 4853SOL    HW226019   1.839   4.490   4.040 -0.1621  0.5446 -1.0310
 4854SOL     OW26020   1.319   3.329   4.302 -0.3216  0.0738  0.1546
 4854SOL    HW126021   1.308   3.240   4.335 -2.8286  0.3280 -0.0489
 4854SOL    HW226022   1.408   3.339   4.335 -0.6606 -0.1086  1.1223
 4855SOL     OW26023   3.104   2.486  13.534  0.5993  0.2456 -0.0255
 4855SOL    HW126024   3.073   2.562  13.583 -1.9543 -1.2149  0.6504
 4855SOL    HW226025   3.016   2.465  13.501  1.2482 -0.0237 -1.6134
 4856SOL     OW26026   0.752   3.787  15.786  0.1836  0.5726 -0.6694
 4856SOL    HW126027   0.704   3.776  15.703  0.6707 -0.4402 -0.8115
 4856SOL    HW226028   0.840   3.766  15.755  0.2065  0.7293 -0.7123
 4857SOL     OW26029   0.480   4.272   3.944 -0.2706  0.3653  0.4842
 4857SOL    HW126030   0.466   4.268   4.039 -1.3612  0.5048  0.3265
 4857SOL    HW226031   0.390   4.281   3.914 -0.3559  0.0151  0.6327
 4858SOL     OW26032   3.908   0.810  12.276  0.1349  0.4780  0.0946
 4858SOL    HW126033   3.943   0.826  12.189 -1.7431  1.0034 -0.5562
 4858SOL    HW226034   3.891   0.715  12.277  1.0661  0.3031 -0.5916
 4859SOL     OW26035   0.195   0.820   8.282  0.1382  0.2284  0.0811
 4859SOL    HW126036   0.280   0.855   8.305 -0.0954  0.2516  0.8915
 4859SOL    HW226037   0.187   0.831   8.187 -2.8654  3.3867  0.7241
 4860SOL     OW26038   0.338   4.053   8.976  0.5661  0.1302 -0.0736
 4860SOL    HW126039   0.368   4.058   9.066 -3.3392 -2.4551  1.3832
 4860SOL    HW226040   0.404   4.111   8.937  0.3659  1.1402  1.0904
 4861SOL     OW26041   4.378   1.575  10.163  0.4963  0.4933  0.1668
 4861SOL    HW126042   4.377   1.624  10.080 -1.6254  0.4139  0.1363
 4861SOL    HW226043   4.331   1.646  10.207 -1.0100 -0.2321 -0.2868
 4862SOL     OW26044   0.489   3.754   8.170  0.3050 -0.4570  0.4074
 4862SOL    HW126045   0.516   3.837   8.209 -0.2362 -1.5232  3.0710
 4862SOL    HW226046   0.395   3.764   8.156  0.7544 -0.8617 -2.8510
 4863SOL     OW26047   4.657   2.653   4.056 -0.6077 -0.0665 -0.5261
 4863SOL    HW126048   4.708   2.574   4.075 -2.0730 -0.7755  0.4974
 4863SOL    HW226049   0.002   2.707   4.016 -0.7357 -1.4704 -2.6483
 4864SOL     OW26050   2.928   2.209   8.049  0.7371 -0.4280 -0.1505
 4864SOL    HW126051   2.922   2.137   7.986  2.4819 -0.8197  0.1340
 4864SOL    HW226052   2.962   2.163   8.126 -0.6345  0.0173  0.7200
 4865SOL     OW26053   1.271   0.539   1.269  0.2589 -0.4893  0.2699
 4865SOL    HW126054   1.343   0.577   1.219 -0.3154 -0.0133 -0.1979
 4865SOL    HW226055   1.233   0.486   1.199 -0.7790  0.4367  0.1312
 4866SOL     OW26056   1.130   1.070   1.183 -0.1194 -0.1929  0.1302
 4866SOL    HW126057   1.133   1.142   1.119 -2.6680  1.6440  2.0827
 4866SOL    HW226058   1.140   1.105   1.271  0.7433 -0.7409  0.2419
 4867SOL     OW26059   0.923   4.312   7.145 -0.2480  0.7026 -0.0116
 4867SOL    HW126060   0.983   4.359   7.204  0.0686  1.4251 -0.9037
 4867SOL    HW226061   0.982   4.259   7.092 -1.5273  1.6656 -2.4049
 4868SOL     OW26062   0.492   3.099   1.919  0.2448  0.0280  0.1610
 4868SOL    HW126063   0.546   3.128   1.845 -2.5277  2.3863 -0.9592
 4868SOL    HW226064   0.447   3.178   1.947 -2.4961 -1.6765  0.6186
 4869SOL     OW26065   0.282   2.355   5.456  0.6842  0.0729  0.4562
 4869SOL    HW126066   0.293   2.449   5.464 -1.3280 -0.0132  4.4922
 4869SOL    HW226067   0.205   2.346   5.400  0.7048  3.3887 -0.1122
 4870SOL     OW26068   1.183   4.325  16.224  0.1370  0.2332  0.4460
 4870SOL    HW126069   1.100   4.291  16.258 -1.0772  3.3927  0.6149
 4870SOL    HW226070   1.178   4.280  16.139  2.6308 -1.1063  0.9926
 4871SOL     OW26071   4.695   0.029   7.842  0.3691  0.3638 -0.5654
 4871SOL    HW126072   4.680   4.718   7.754 -0.3336  0.9456 -0.6642
 4871SOL    HW226073   0.058   4.713   7.863 -0.5893 -1.0671  0.7483
 4872SOL     OW26074   0.648   2.312   8.101  0.5477  0.2062  0.0375
 4872SOL    HW126075   0.647   2.323   8.006  2.0821  0.0045 -0.0008
 4872SOL    HW226076   0.740   2.325   8.121  0.6230 -0.8958  0.4191
 4873SOL     OW26077   2.609   3.725   5.962 -0.0555  0.4063 -0.0338
 4873SOL    HW126078   2.542   3.757   5.901 -1.2555  0.5999  1.3917
 4873SOL    HW226079   2.685   3.760   5.916 -0.6735 -0.6096 -1.8374
 4874SOL     OW26080   0.238   1.434   2.857  0.3786  0.5382  0.0301
 4874SOL    HW126081   0.240   1.354   2.804  1.1504 -0.9726  2.3324
 4874SOL    HW226082   0.330   1.457   2.861  0.3865  0.2768  1.2968
 4875SOL     OW26083   1.916   0.121   2.046  0.8591 -0.1054 -0.0337
 4875SOL    HW126084   1.935   0.169   1.965  3.0808  0.0342  0.5463
 4875SOL    HW226085   1.880   0.178   2.113  0.6659  0.4486 -0.6104
 4876SOL     OW26086   4.306   0.486   2.299  0.2123  0.3351  0.2742
 4876SOL    HW126087   4.306   0.407   2.245 -1.8217 -1.2749  2.5725
 4876SOL    HW226088   4.391   0.527   2.281 -1.2880  2.7255 -1.3651
 4877SOL     OW26089   0.152   1.055   4.282 -1.0029  0.2356 -0.0626
 4877SOL    HW126090   0.138   1.116   4.209  0.7156  0.1913 -0.4320
 4877SOL    HW226091   0.064   1.017   4.283 -0.9114 -0.0155 -1.3660
 4878SOL     OW26092   0.627   1.686   1.568 -0.2917 -0.6076  0.0641
 4878SOL    HW126093   0.542   1.720   1.593  0.5455 -0.1112  2.2338
 4878SOL    HW226094   0.621   1.696   1.473  0.1526 -3.2792 -0.2542
 4879SOL     OW26095   4.645   3.617   8.560 -0.7015  0.1578  0.6293
 4879SOL    HW126096   4.711   3.550   8.544  0.5519  1.0662  1.9518
 4879SOL    HW226097   4.575   3.554   8.575  0.2651 -1.1879 -0.4408
 4880SOL     OW26098   3.021   1.015  13.830  0.4279 -0.1537 -0.8122
 4880SOL    HW126099   2.934   1.054  13.816 -0.2424 -1.0720  0.7999
 4880SOL    HW226100   3.069   1.034  13.749  0.5992 -0.3841 -0.7627
 4881SOL     OW26101   4.664   3.376   6.522  0.6518  0.2478  0.6705
 4881SOL    HW126102   4.655   3.281   6.527  1.1260  0.2332  1.1431
 4881SOL    HW226103   4.605   3.402   6.593  0.0091 -0.7710  0.5061
 4882SOL     OW26104   2.759   2.969   3.852  0.6755 -0.4821  0.6694
 4882SOL    HW126105   2.673   2.932   3.830  1.2560 -1.4553  0.0591
 4882SOL    HW226106   2.779   2.938   3.940  0.5851  0.8434  1.1464
 4883SOL     OW26107   2.018   0.360   0.269 -1.0649 -0.1014  0.4834
 4883SOL    HW126108   1.941   0.314   0.234  0.7483 -1.4125 -1.7486
 4883SOL    HW226109   2.073   0.286   0.293 -0.7416 -0.7458 -2.1557
 4884SOL     OW26110   1.252   2.685   6.995 -0.0961  0.1740 -0.5346
 4884SOL    HW126111   1.209   2.717   6.915  0.7513  1.0788 -0.6294
 4884SOL    HW226112   1.182   2.636   7.038 -1.0357 -0.6213 -2.9563
 4885SOL     OW26113   2.586   0.468   6.511  0.0506  0.0428 -0.4564
 4885SOL    HW126114   2.515   0.417   6.550  0.8629 -0.5759  0.1861
 4885SOL    HW226115   2.546   0.489   6.426  0.0880 -2.4141 -1.0644
 4886SOL     OW26116   0.754   3.237  13.130  0.8877  0.4393 -0.5109
 4886SOL    HW126117   0.674   3.193  13.159  1.1200 -0.2124 -0.8538
 4886SOL    HW226118   0.729   3.323  13.097  0.0621  0.0278 -0.9412
 4887SOL     OW26119   1.957   2.450   9.425 -0.3341  0.1681 -0.4272
 4887SOL    HW126120   1.967   2.357   9.408  0.2595 -0.0298  0.9727
 4887SOL    HW226121   1.926   2.465   9.514 -0.4486  0.8902 -0.5839
 4888SOL     OW26122   4.121   2.378   3.399 -0.0116  0.5211  0.6287
 4888SOL    HW126123   4.102   2.421   3.483 -1.2922  1.5823 -0.2066
 4888SOL    HW226124   4.212   2.366   3.427  0.0164  1.4864  0.9391
 4889SOL     OW26125   0.759   3.353   3.443  0.6118 -0.2843  0.1686
 4889SOL    HW126126   0.759   3.358   3.348  0.3767 -3.4869 -0.0070
 4889SOL    HW226127   0.811   3.428   3.473  0.0277 -0.3300  1.3017
 4890SOL     OW26128   0.447   4.364   7.950  0.4139 -0.5495  0.2335
 4890SOL    HW126129   0.520   4.359   7.887 -0.2563 -0.6847 -0.5231
 4890SOL    HW226130   0.489   4.325   8.027  0.2896 -0.4259  0.3647
 4891SOL     OW26131   2.697   4.204   6.269 -0.1066 -0.0443 -0.2104
 4891SOL    HW126132   2.721   4.265   6.339  1.9146  0.2146 -1.1133
 4891SOL    HW226133   2.709   4.270   6.200 -0.3335  1.8842  1.5776
 4892SOL     OW26134   1.532   4.654   3.135 -0.1923  0.2578 -0.1127
 4892SOL    HW126135   1.600   4.663   3.068  1.6325 -3.8417  1.2254
 4892SOL    HW226136   1.507   0.024   3.136  0.3247  0.3768  1.7241
 4893SOL     OW26137   3.488   3.560   3.254 -0.4525 -0.2948 -0.3293
 4893SOL    HW126138   3.433   3.483   3.239  0.8344 -1.1749 -0.5030
 4893SOL    HW226139   3.471   3.596   3.167  0.5326  2.1954  0.5198
 4894SOL     OW26140   1.793   2.399  12.598  0.0450  0.3179 -0.1613
 4894SOL    HW126141   1.767   2.394  12.690  1.2372  0.3296  0.1736
 4894SOL    HW226142   1.882   2.432  12.610  0.7383 -1.5695 -0.1347
 4895SOL     OW26143   4.581   2.572   1.426 -0.3683  0.0232  0.5025
 4895SOL    HW126144   4.631   2.530   1.355 -4.2027 -2.2402 -0.8611
 4895SOL    HW226145   4.495   2.532   1.415  0.5754 -2.2372  1.2781
 4896SOL     OW26146   3.336   2.550   8.058  0.4885  0.2991  1.1027
 4896SOL    HW126147   3.429   2.559   8.038 -0.1602  2.3867 -0.9540
 4896SOL    HW226148   3.303   2.574   7.971  1.3039  1.5798  1.1550
 4897SOL     OW26149   1.386   3.833  10.856  0.0926 -0.0294 -0.4152
 4897SOL    HW126150   1.405   3.747  10.892  3.4985  1.3800  1.1987
 4897SOL    HW226151   1.423   3.825  10.768  0.0583 -2.3208 -0.2068
 4898SOL     OW26152   3.920   3.008   1.272 -0.0674  0.2539 -0.0335
 4898SOL    HW126153   3.832   2.975   1.288  0.5234 -2.4109 -2.1111
 4898SOL    HW226154   3.965   2.965   1.345  0.5862  1.8447  0.5056
 4899SOL     OW26155   1.797   2.943   4.770 -0.1683  0.2727  0.6879
 4899SOL    HW126156   1.836   3.007   4.830 -0.0172 -0.0407  0.9237
 4899SOL    HW226157   1.723   2.908   4.819 -0.1564  1.7172  1.7170
 4900SOL     OW26158   3.164   1.447   0.398  0.4565 -0.1374  0.7585
 4900SOL    HW126159   3.121   1.443   0.483 -1.5130  0.0023 -0.2253
 4900SOL    HW226160   3.229   1.515   0.416  2.7191 -2.2785  0.6721
 4901SOL     OW26161   4.678   0.541  17.093 -0.3644 -0.1788  0.3851
 4901SOL    HW126162   4.588   0.558  17.066 -0.9828  0.5643  2.9691
 4901SOL    HW226163   4.700   0.449  17.078  0.0587 -0.3132  1.8583
 4902SOL     OW26164   1.275   4.709   1.578  0.0920 -0.4425  0.0039
 4902SOL    HW126165   1.324   4.650   1.636  0.4798  0.9440  1.0848
 4902SOL    HW226166   1.311   0.069   1.611 -0.1622 -0.2667 -0.1573
 4903SOL     OW26167   4.102   2.599   0.547  0.5944  0.0852 -0.5709
 4903SOL    HW126168   4.110   2.691   0.575  1.6394 -0.1890  0.0522
 4903SOL    HW226169   4.011   2.579   0.569  1.7851 -2.9281  1.6618
 4904SOL     OW26170   2.970   2.822   8.313 -0.2292  0.5595  0.1290
 4904SOL    HW126171   3.059   2.855   8.330  0.4859 -1.1264 -0.3042
 4904SOL    HW226172   2.977   2.797   8.221 -3.1285 -0.2224  0.1448
 4905SOL     OW26173   0.386   4.554   3.013 -0.7914 -0.2694 -0.6497
 4905SOL    HW126174   0.444   4.500   3.067 -0.1142 -0.4926 -1.5856
 4905SOL    HW226175   0.431   4.638   3.007 -1.0794 -0.1790 -1.6134
 4906SOL     OW26176   0.206   4.533   7.599  0.3918 -0.2578 -0.3411
 4906SOL    HW126177   0.279   4.474   7.621  1.4664  1.4370  0.6183
 4906SOL    HW226178   0.131   4.473   7.599  0.7241 -0.6850  2.2342
 4907SOL     OW26179   2.394   4.484   9.489  0.2128  0.5077  0.5282
 4907SOL    HW126180   2.300   4.466   9.486  0.4999 -0.4987 -1.9338
 4907SOL    HW226181   2.424   4.417   9.551  1.8925  2.0185  1.3680
 4908SOL     OW26182   3.644   4.129   2.056  0.1747  0.6730  0.3422
 4908SOL    HW126183   3.649   4.148   2.150 -1.7139  1.0597  0.3796
 4908SOL    HW226184   3.554   4.158   2.038  0.8850  1.2312 -2.2634
 4909SOL     OW26185   4.693   2.471   5.715 -0.5069  0.6295 -0.0722
 4909SOL    HW126186   4.619   2.528   5.737 -1.2894 -0.5607  0.4160
 4909SOL    HW226187   4.665   2.453   5.626  2.2597 -1.0366 -0.6024
 4910SOL     OW26188   0.609   4.357   6.356 -0.4214 -0.5624  0.0246
 4910SOL    HW126189   0.598   4.263   6.344  2.5023 -0.9208  0.1959
 4910SOL    HW226190   0.703   4.353   6.375 -0.0809  1.7293 -1.1644
 4911SOL     OW26191   0.569   0.607   6.142 -0.1837  1.0889  0.5392
 4911SOL    HW126192   0.630   0.644   6.079 -0.7941  1.3173  0.0817
 4911SOL    HW226193   0.499   0.671   6.135 -1.9828 -0.7721  1.4411
 4912SOL     OW26194   3.571   1.809   7.830  0.2964 -0.5475 -0.3560
 4912SOL    HW126195   3.571   1.861   7.750 -1.2915 -3.4005 -2.2056
 4912SOL    HW226196   3.536   1.868   7.897  1.6310  0.1472 -0.2645
 4913SOL     OW26197   2.103   3.942   0.146 -0.2827  0.4334 -0.5095
 4913SOL    HW126198   2.131   4.011   0.086  0.3029  2.5161  2.1266
 4913SOL    HW226199   2.021   3.911   0.109 -1.0125  1.6213  0.1014
 4914SOL     OW26200   0.574   3.748   4.396 -0.5281 -0.5124 -0.0198
 4914SOL    HW126201   0.623   3.739   4.478 -1.8284  1.6290  0.9937
 4914SOL    HW226202   0.649   3.743   4.338 -0.1207 -1.2384  0.5627
 4915SOL     OW26203   1.292   1.519   6.468 -0.3155 -0.2433  0.1970
 4915SOL    HW126204   1.280   1.429   6.500  2.1808  0.2829  2.6592
 4915SOL    HW226205   1.297   1.561   6.554 -2.2695 -1.2487  0.7942
 4916SOL     OW26206   2.612   2.992  12.694 -0.4126 -0.0175  0.0791
 4916SOL    HW126207   2.671   2.926  12.657  1.5465 -0.0909  3.3621
 4916SOL    HW226208   2.643   3.002  12.784  0.7374  0.2520 -0.3458
 4917SOL     OW26209   1.874   3.259   5.986 -0.2054 -0.4047 -0.0082
 4917SOL    HW126210   1.876   3.254   5.890  0.0740  1.9773 -0.1498
 4917SOL    HW226211   1.964   3.252   6.018 -1.5077 -2.7431  3.1053
 4918SOL     OW26212   0.097   1.760   7.764  0.4803 -0.2867  0.0183
 4918SOL    HW126213   0.027   1.725   7.709  0.6333 -2.4485  1.2167
 4918SOL    HW226214   0.080   1.854   7.758 -2.6837 -1.0608 -2.9872
 4919SOL     OW26215   3.790   0.718   9.787  1.1288 -0.6809 -0.0748
 4919SOL    HW126216   3.862   0.780   9.794  0.1047  0.6495 -1.4574
 4919SOL    HW226217   3.759   0.717   9.878 -1.4549  0.5687 -0.9607
 4920SOL     OW26218   1.630   3.227   7.378 -0.0022 -0.3604  0.0028
 4920SOL    HW126219   1.616   3.186   7.293 -0.0052  0.4133 -0.3717
 4920SOL    HW226220   1.548   3.217   7.425  0.8767 -2.4469  1.0939
 4921SOL     OW26221   3.669   2.814   2.556  0.0485 -0.3841 -0.3011
 4921SOL    HW126222   3.672   2.824   2.461  2.3975 -2.2560 -0.4381
 4921SOL    HW226223   3.580   2.788   2.579  1.3261 -2.3194  2.4602
 4922SOL     OW26224   3.487   0.637  12.181 -0.1673 -0.1412  0.2209
 4922SOL    HW126225   3.498   0.731  12.197  0.1511  0.3214 -2.7848
 4922SOL    HW226226   3.569   0.602  12.146 -0.1372  0.0374  0.1155
 4923SOL     OW26227   3.701   2.367  16.898 -0.4122 -0.3336  0.7051
 4923SOL    HW126228   3.719   2.381  16.805 -1.8077  1.1435  0.6603
 4923SOL    HW226229   3.740   2.448  16.930  0.7811 -0.1676 -1.1569
 4924SOL     OW26230   1.957   3.353   2.666 -0.3384  0.6228 -0.0224
 4924SOL    HW126231   2.012   3.351   2.587 -0.0612  0.2665  0.1820
 4924SOL    HW226232   2.016   3.308   2.726 -0.9336 -1.4525 -1.0076
 4925SOL     OW26233   4.441   3.824   8.478  0.4573 -0.3802 -0.5508
 4925SOL    HW126234   4.507   3.768   8.519  1.7355  1.1730 -0.5173
 4925SOL    HW226235   4.362   3.771   8.492 -1.1911  1.9764 -1.0253
 4926SOL     OW26236   2.517   2.285   8.351 -0.4105  0.5485 -0.2097
 4926SOL    HW126237   2.494   2.332   8.270  0.2776 -0.2491 -0.8672
 4926SOL    HW226238   2.511   2.349   8.422 -1.7157 -1.9202  1.8647
 4927SOL     OW26239   1.316   0.553   7.137 -0.3802  0.1600  0.7253
 4927SOL    HW126240   1.291   0.643   7.158  0.2993  0.5430 -0.0818
 4927SOL    HW226241   1.236   0.501   7.149 -2.4063  2.5650 -2.1888
 4928SOL     OW26242   0.276   3.708   2.065  0.1333  0.0167 -0.4433
 4928SOL    HW126243   0.332   3.742   1.995 -0.1897  1.2163 -0.1169
 4928SOL    HW226244   0.339   3.671   2.127 -0.9162 -0.6670  0.2103
 4929SOL     OW26245   2.793   3.662  13.421 -1.0459  0.4384  0.1003
 4929SOL    HW126246   2.818   3.716  13.497 -2.1654  0.5548  0.3836
 4929SOL    HW226247   2.725   3.611  13.463  0.1064 -0.8415  0.4088
 4930SOL     OW26248   3.876   2.752  16.786 -0.6915 -0.6178 -0.0624
 4930SOL    HW126249   3.833   2.739  16.870 -0.0305 -1.0209  0.2077
 4930SOL    HW226250   3.930   2.673  16.784  0.3697  0.0836  1.4409
 4931SOL     OW26251   1.262   2.679   2.495 -0.9907  0.2647  0.2602
 4931SOL    HW126252   1.250   2.589   2.467 -0.4819  0.1607  0.3697
 4931SOL    HW226253   1.184   2.725   2.465 -0.4012  1.5380  0.6539
 4932SOL     OW26254   0.437   1.217   2.185  0.0148 -0.2394  0.3447
 4932SOL    HW126255   0.524   1.228   2.148 -0.2045 -0.6950 -0.3123
 4932SOL    HW226256   0.384   1.208   2.106  0.7361  3.8628 -0.6078
 4933SOL     OW26257   1.013   3.126   9.053  0.7698  0.0639 -0.4253
 4933SOL    HW126258   1.098   3.086   9.035  0.8547 -0.4218  1.0501
 4933SOL    HW226259   0.982   3.065   9.121  0.9971 -0.2965 -0.6443
 4934SOL     OW26260   3.958   2.889  15.835  0.1440  0.5583 -0.2068
 4934SOL    HW126261   3.968   2.858  15.925  1.2138  2.6196  0.3980
 4934SOL    HW226262   4.033   2.851  15.790  0.9622  0.3132  1.3747
 4935SOL     OW26263   4.680   1.575   9.172 -0.2005  0.2888 -0.8248
 4935SOL    HW126264   0.053   1.567   9.178 -0.1055  3.4773  1.4785
 4935SOL    HW226265   4.666   1.656   9.123  1.2201 -1.8175 -4.7068
 4936SOL     OW26266   3.495   2.676   9.867 -0.3148 -0.4513 -0.1851
 4936SOL    HW126267   3.537   2.590   9.866 -1.8031 -1.1803 -3.2279
 4936SOL    HW226268   3.412   2.649   9.905 -0.6472 -1.5602 -1.6890
 4937SOL     OW26269   1.902   0.367  16.952  0.1824  0.6447 -0.4971
 4937SOL    HW126270   1.969   0.395  16.889  1.5374 -0.4370  0.4712
 4937SOL    HW226271   1.822   0.376  16.899  0.5870 -1.2770 -1.4487
 4938SOL     OW26272   3.229   3.087   9.228  0.2894 -0.4501 -0.4651
 4938SOL    HW126273   3.188   3.168   9.256 -0.7318 -0.8231 -0.8774
 4938SOL    HW226274   3.164   3.024   9.260 -1.3165  0.8221 -1.2129
 4939SOL     OW26275   4.136   2.440   5.581 -0.4123 -0.3477  0.1091
 4939SOL    HW126276   4.197   2.372   5.610  0.4484  1.2560  2.0081
 4939SOL    HW226277   4.050   2.404   5.602 -0.0743 -1.4298 -0.3263
 4940SOL     OW26278   3.336   4.518   4.348  0.1093 -0.1488 -0.0963
 4940SOL    HW126279   3.394   4.472   4.286 -0.1209 -0.3567 -0.1569
 4940SOL    HW226280   3.272   4.554   4.286  0.9824 -1.1007 -1.5678
 4941SOL     OW26281   0.701   1.905   1.379 -0.6750 -0.0277 -0.1064
 4941SOL    HW126282   0.632   1.912   1.445  0.4431 -0.7450  1.1360
 4941SOL    HW226283   0.681   1.964   1.307 -1.5753  1.0880  1.0495
 4942SOL     OW26284   4.277   1.457   2.955 -0.1920 -0.3035  0.0308
 4942SOL    HW126285   4.209   1.461   2.888 -1.3089 -0.9815  1.1190
 4942SOL    HW226286   4.364   1.436   2.921  0.3786  0.3457  1.0933
 4943SOL     OW26287   2.416   0.709   6.664 -0.4655  0.4546  0.2422
 4943SOL    HW126288   2.491   0.679   6.715 -0.0864 -1.7988 -1.6207
 4943SOL    HW226289   2.394   0.620   6.638  1.2821 -0.0228  0.4020
 4944SOL     OW26290   3.563   0.515   3.044  0.2569  0.2104 -0.3194
 4944SOL    HW126291   3.654   0.492   3.063  0.5220 -0.1193 -1.9531
 4944SOL    HW226292   3.566   0.604   3.010 -1.3742  0.0477 -0.8855
 4945SOL     OW26293   2.166   0.084  10.226  0.4065 -0.1880  0.0326
 4945SOL    HW126294   2.073   0.066  10.235  0.7674 -1.1980  1.7250
 4945SOL    HW226295   2.192   0.042  10.308 -2.4871 -1.5910  0.2094
 4946SOL     OW26296   0.737   0.095   8.625 -0.3063 -0.0173  0.5380
 4946SOL    HW126297   0.798   0.047   8.569  0.0074 -1.6147  2.2404
 4946SOL    HW226298   0.692   0.015   8.653  0.0526 -0.9020 -1.4121
 4947SOL     OW26299   2.945   0.616  11.944 -0.3179 -0.1013 -0.0291
 4947SOL    HW126300   2.853   0.590  11.943 -0.5320  0.6726 -0.2739
 4947SOL    HW226301   2.987   0.564  11.875 -1.4375 -0.5031 -0.4048
 4948SOL     OW26302   3.033   1.873   3.295 -0.5760 -0.5647  0.7349
 4948SOL    HW126303   3.049   1.831   3.211  1.7713  2.0750 -0.1348
 4948SOL    HW226304   2.991   1.803   3.344 -0.3080 -1.6518 -0.5800
 4949SOL     OW26305   4.097   2.901  12.643 -0.3539  0.4603 -0.3872
 4949SOL    HW126306   4.050   2.881  12.724 -0.0526  2.4914  0.2899
 4949SOL    HW226307   4.072   2.993  12.633 -4.2497 -0.5286  0.0435
 4950SOL     OW26308   4.306   0.522   4.738 -0.2439 -0.0886 -0.0643
 4950SOL    HW126309   4.227   0.469   4.755 -0.2406 -0.7721 -2.1757
 4950SOL    HW226310   4.318   0.494   4.648 -1.5052  1.5118 -0.7300
 4951SOL     OW26311   3.078   1.291   1.435  0.7082 -0.2125  0.9505
 4951SOL    HW126312   3.165   1.253   1.437  1.6569  1.8978 -0.1870
 4951SOL    HW226313   3.034   1.252   1.511 -2.1463  0.5918 -0.2944
 4952SOL     OW26314   4.095   0.907   5.183 -0.2216  0.2721  0.0066
 4952SOL    HW126315   4.125   0.820   5.154  2.2715  0.7710  1.0715
 4952SOL    HW226316   4.180   0.946   5.204 -0.5926  0.2721  1.5417
 4953SOL     OW26317   2.924   0.472   7.037 -0.2328 -0.2069  0.2488
 4953SOL    HW126318   2.969   0.451   6.955 -1.7983  1.6580 -1.0977
 4953SOL    HW226319   2.919   0.385   7.078  0.5137 -0.7867 -0.8955
 4954SOL     OW26320   0.720   0.713   5.957  0.3591 -0.0038  0.6001
 4954SOL    HW126321   0.702   0.699   5.864  0.4907 -1.9017  0.8530
 4954SOL    HW226322   0.783   0.644   5.978 -1.3008 -1.5231  0.6729
 4955SOL     OW26323   0.275   3.896   9.405  0.8873  0.3351 -0.0983
 4955SOL    HW126324   0.184   3.870   9.420  0.9887 -0.1778 -0.3427
 4955SOL    HW226325   0.300   3.920   9.494 -0.9671  2.3006 -0.1173
 4956SOL     OW26326   4.009   2.108  12.584  0.1351  0.0273 -0.6656
 4956SOL    HW126327   4.041   2.032  12.536 -3.3178 -1.1901 -0.9880
 4956SOL    HW226328   4.066   2.177  12.549  0.9095 -0.8781 -1.1911
 4957SOL     OW26329   3.065   3.533   9.614  0.2383  0.4155  0.3667
 4957SOL    HW126330   3.039   3.605   9.556 -0.4356 -0.4354 -0.3886
 4957SOL    HW226331   3.037   3.460   9.559  1.3667 -0.1293  0.5070
 4958SOL     OW26332   1.885   2.479  13.105 -0.0694  0.2269  0.0358
 4958SOL    HW126333   1.883   2.468  13.201  0.4570  0.9391  0.1245
 4958SOL    HW226334   1.903   2.387  13.085  0.4534  0.3970 -0.2588
 4959SOL     OW26335   3.259   3.068  14.842  0.2441  0.3159 -0.2395
 4959SOL    HW126336   3.168   3.058  14.868  0.3821 -0.9043 -0.2366
 4959SOL    HW226337   3.272   2.985  14.796 -5.0034 -0.1902 -0.7114
 4960SOL     OW26338   3.695   2.453   1.970 -0.3853 -0.4614  0.6167
 4960SOL    HW126339   3.786   2.448   2.002 -0.0042  3.5821  0.2150
 4960SOL    HW226340   3.704   2.420   1.881  2.1114  0.3364  0.5678
 4961SOL     OW26341   3.316   2.637   8.748 -0.2463 -0.7481 -0.4927
 4961SOL    HW126342   3.276   2.708   8.800  3.9649  0.8419  0.5555
 4961SOL    HW226343   3.397   2.686   8.733  0.2707 -0.9667  1.4965
 4962SOL     OW26344   1.132   0.154  10.544  0.0853  0.3270 -0.2098
 4962SOL    HW126345   1.166   0.176  10.457  2.0401 -1.9159 -0.0214
 4962SOL    HW226346   1.093   0.239  10.565  1.9609  0.7342  1.5558
 4963SOL     OW26347   1.854   3.767   3.933 -0.1102  0.6416  0.2846
 4963SOL    HW126348   1.905   3.833   3.885  0.1290  0.7730  0.7178
 4963SOL    HW226349   1.882   3.692   3.880 -0.2730 -0.7378  2.1555
 4964SOL     OW26350   0.725   2.849   9.123 -0.0266 -0.3910 -0.1790
 4964SOL    HW126351   0.658   2.849   9.190 -0.5966  0.4054 -0.7509
 4964SOL    HW226352   0.806   2.886   9.158  0.4479 -1.5560 -0.0390
 4965SOL     OW26353   3.642   3.578   8.421  0.4884  0.0534 -0.0542
 4965SOL    HW126354   3.580   3.572   8.493 -0.6606  1.0117 -0.9714
 4965SOL    HW226355   3.697   3.649   8.455  2.4194 -0.8015 -1.3833
 4966SOL     OW26356   1.004   1.334   6.730 -0.2901 -0.6138 -0.0577
 4966SOL    HW126357   1.007   1.268   6.799 -0.0195  0.0871  0.6004
 4966SOL    HW226358   0.957   1.276   6.669 -0.9496  0.2522 -0.3753
 4967SOL     OW26359   1.956   1.278   7.387  0.2554  0.3436  0.0414
 4967SOL    HW126360   2.021   1.212   7.411 -0.6494  0.3107  2.3300
 4967SOL    HW226361   1.944   1.267   7.293 -1.2471 -0.7249  0.3670
 4968SOL     OW26362   1.377   3.237   5.985  0.3100  0.1236 -0.2245
 4968SOL    HW126363   1.330   3.304   6.033  0.3521 -1.2707  1.7728
 4968SOL    HW226364   1.441   3.197   6.045 -1.3382 -0.2381  1.2972
 4969SOL     OW26365   2.206   2.683  16.162 -0.2771 -0.1148 -0.2205
 4969SOL    HW126366   2.271   2.716  16.101 -1.0245  0.7985 -0.5282
 4969SOL    HW226367   2.152   2.761  16.171  2.3089  1.4146  1.8069
 4970SOL     OW26368   2.795   0.855   9.457  0.0186  0.4323 -0.3080
 4970SOL    HW126369   2.754   0.850   9.543 -0.2258 -0.8310 -0.4993
 4970SOL    HW226370   2.815   0.949   9.455  1.6647  0.1180  1.3177
 4971SOL     OW26371   3.788   0.494   2.140  0.1377  0.2565 -0.2319
 4971SOL    HW126372   3.875   0.519   2.170 -0.0034  0.1247  0.2878
 4971SOL    HW226373   3.801   0.408   2.101  0.7614  0.6236 -0.8312
 4972SOL     OW26374   4.100   2.563  16.337 -0.2522 -0.3445 -0.8934
 4972SOL    HW126375   4.026   2.599  16.387 -1.2740 -1.5781 -1.5091
 4972SOL    HW226376   4.122   2.483  16.384 -0.1675  0.6491  0.7757
 4973SOL     OW26377   4.052   2.543   5.235  0.6246  0.2670 -0.4630
 4973SOL    HW126378   4.089   2.504   5.314 -3.2848  1.1151  1.8159
 4973SOL    HW226379   3.998   2.468   5.208 -2.0855  0.6722  3.6923
 4974SOL     OW26380   3.059   3.317   9.274  0.0068  0.4123  0.3986
 4974SOL    HW126381   3.017   3.401   9.257 -1.8517 -0.4072  1.0040
 4974SOL    HW226382   3.107   3.337   9.355  1.4084 -0.5464 -0.1882
 4975SOL     OW26383   2.598   1.370   8.408  0.3942  0.2546  0.2583
 4975SOL    HW126384   2.686   1.376   8.445  0.4658  1.4429 -0.0965
 4975SOL    HW226385   2.619   1.317   8.331  0.7030  0.5455  0.1421
 4976SOL     OW26386   2.974   3.889   4.237  0.6772 -0.1135  0.3210
 4976SOL    HW126387   2.946   3.804   4.202 -3.2255  1.0647  0.5262
 4976SOL    HW226388   3.014   3.929   4.160  3.1347  0.7359  2.0668
 4977SOL     OW26389   1.714   2.077  14.101  0.4391  0.3514 -0.8188
 4977SOL    HW126390   1.708   2.151  14.040  0.5322  1.1123  0.0954
 4977SOL    HW226391   1.650   2.019  14.060 -1.9826  1.9185  0.7065
 4978SOL     OW26392   4.329   1.576   8.824  0.2196  0.8498  0.4302
 4978SOL    HW126393   4.349   1.534   8.908  2.4681  2.1167  0.5282
 4978SOL    HW226394   4.363   1.660   8.854  0.5647  0.6291  0.6625
 4979SOL     OW26395   1.709   3.213   4.581  0.0339 -0.3250 -0.0403
 4979SOL    HW126396   1.767   3.285   4.554 -0.4144  1.2379  3.1644
 4979SOL    HW226397   1.767   3.147   4.617 -2.1540 -1.8053  0.7737
 4980SOL     OW26398   3.487   1.662   3.397 -0.1825 -0.0054  0.1878
 4980SOL    HW126399   3.416   1.664   3.333  0.4542 -0.5424 -0.5153
 4980SOL    HW226400   3.511   1.570   3.390  2.4671  0.6613  0.4163
 4981SOL     OW26401   0.740   3.645   7.564 -0.1604 -0.0235 -0.1950
 4981SOL    HW126402   0.648   3.620   7.574 -0.2799 -0.5408 -2.6930
 4981SOL    HW226403   0.761   3.652   7.657 -1.5934  0.2875  0.1033
 4982SOL     OW26404   1.251   0.892   1.846  0.1107  0.2130  0.4870
 4982SOL    HW126405   1.339   0.881   1.883  0.8865  0.8003 -1.2124
 4982SOL    HW226406   1.242   0.807   1.802 -1.0876  1.2532 -1.2570
 4983SOL     OW26407   4.566   4.481   2.885 -0.2744  0.1250  0.3665
 4983SOL    HW126408   4.609   4.567   2.879  1.4909 -0.5876  3.2097
 4983SOL    HW226409   4.592   4.447   2.970  0.5896  0.7220  0.3395
 4984SOL     OW26410   3.488   4.454   8.421 -0.5130 -0.2194  0.3655
 4984SOL    HW126411   3.554   4.421   8.483 -0.7141  3.7627  2.7267
 4984SOL    HW226412   3.445   4.525   8.468  0.6881  1.0293 -0.4162
 4985SOL     OW26413   2.896   2.615   3.687  0.2840 -0.0405  0.4319
 4985SOL    HW126414   2.914   2.690   3.629 -0.4371 -0.4708 -0.3470
 4985SOL    HW226415   2.843   2.654   3.756  0.3407  0.3364  0.2653
 4986SOL     OW26416   1.039   3.228   7.191 -0.0708 -0.7157 -0.3275
 4986SOL    HW126417   0.974   3.254   7.256  1.3422  0.1381  0.7522
 4986SOL    HW226418   1.057   3.138   7.219 -0.9120 -0.4722  0.9682
 4987SOL     OW26419   1.886   1.047   6.554  0.4200 -0.0219 -0.1252
 4987SOL    HW126420   1.904   1.059   6.461 -0.5586 -0.9233 -0.4206
 4987SOL    HW226421   1.973   1.050   6.593  0.5338 -0.8296 -0.3326
 4988SOL     OW26422   2.673   3.762   4.735  0.0838 -0.8806  0.6949
 4988SOL    HW126423   2.584   3.730   4.717  0.8033 -2.2740 -0.3354
 4988SOL    HW226424   2.687   3.830   4.669  0.3902 -0.7327  0.9178
 4989SOL     OW26425   0.435   2.389   9.667 -0.7265  0.4223 -0.1626
 4989SOL    HW126426   0.504   2.390   9.733  0.9356 -1.5854 -1.8470
 4989SOL    HW226427   0.418   2.299   9.639 -1.6202  0.2242  1.0193
 4990SOL     OW26428   3.975   1.685   4.228 -0.2772  0.5168  0.5835
 4990SOL    HW126429   3.941   1.755   4.171 -2.1325 -1.5046 -0.7986
 4990SOL    HW226430   4.028   1.737   4.288 -0.3510  1.4487 -0.1612
 4991SOL     OW26431   4.011   3.496   3.265  0.0464  0.1384 -0.1358
 4991SOL    HW126432   4.098   3.458   3.277  0.5930  1.3752 -0.2175
 4991SOL    HW226433   3.965   3.451   3.336 -2.5080  3.3126  0.2243
 4992SOL     OW26434   2.873   3.075   8.124  0.3633 -0.3073 -0.0822
 4992SOL    HW126435   2.964   3.047   8.114  0.7640  0.8662  0.2685
 4992SOL    HW226436   2.854   3.131   8.049  0.9052 -1.0332 -0.7755
 4993SOL     OW26437   1.652   0.404  16.809 -0.2422 -0.0225  0.1836
 4993SOL    HW126438   1.601   0.427  16.886  2.9133  0.5325  2.1235
 4993SOL    HW226439   1.593   0.411  16.734  0.3480 -1.8899 -0.4694
 4994SOL     OW26440   2.604   0.727   3.885 -0.3147  0.5541  0.7196
 4994SOL    HW126441   2.632   0.715   3.976  1.8977  1.3182  0.1328
 4994SOL    HW226442   2.573   0.818   3.879 -0.5111  0.3992 -0.6965
 4995SOL     OW26443   1.224   0.928   2.774 -0.2840 -0.3065 -0.8029
 4995SOL    HW126444   1.216   1.023   2.763 -3.6901 -0.7674 -2.3209
 4995SOL    HW226445   1.138   0.903   2.741 -1.1466  1.2033  0.2491
 4996SOL     OW26446   3.740   1.028  12.043 -0.4009  0.6968  1.0253
 4996SOL    HW126447   3.806   1.026  12.112  1.3946  0.2076 -0.6701
 4996SOL    HW226448   3.772   0.956  11.989 -0.7345  1.4496 -0.2016
 4997SOL     OW26449   1.741   3.540   2.728 -0.4098 -0.3873  0.3641
 4997SOL    HW126450   1.822   3.489   2.729 -0.2435 -0.1722 -1.3081
 4997SOL    HW226451   1.694   3.491   2.661  0.9118  1.9072 -2.2575
 4998SOL     OW26452   0.189   4.707   5.844  0.2758 -0.2581  0.5245
 4998SOL    HW126453   0.116   0.015   5.899 -0.9138 -2.1274 -0.0334
 4998SOL    HW226454   0.204   4.616   5.869 -0.6250 -1.3434 -2.9835
 4999SOL     OW26455   3.827   1.649  15.777  0.2963  0.5285 -0.1974
 4999SOL    HW126456   3.775   1.711  15.725  1.4929  0.1720 -1.8376
 4999SOL    HW226457   3.908   1.700  15.783  1.2490 -1.2248  1.6971
 5000SOL     OW26458   0.576   1.260   3.802 -0.3935  0.4084  0.0456
 5000SOL    HW126459   0.641   1.225   3.862  0.8841  0.5698 -1.2356
 5000SOL    HW226460   0.543   1.326   3.863  0.3598  0.5774  0.2712
 5001SOL     OW26461   1.969   1.011   1.425  0.7804 -0.6606  0.1013
 5001SOL    HW126462   1.959   1.013   1.520  1.5251  0.5874  0.1606
 5001SOL    HW226463   1.973   1.107   1.414  1.3119 -0.6440  0.4828
 5002SOL     OW26464   0.628   1.593  10.237 -0.5867  0.2391 -0.3154
 5002SOL    HW126465   0.547   1.643  10.249  0.3403  1.6039  0.3571
 5002SOL    HW226466   0.695   1.646  10.281 -0.6385  0.4043 -0.4338
 5003SOL     OW26467   0.461   1.083   2.828 -0.0917 -0.7940  0.1163
 5003SOL    HW126468   0.443   1.013   2.891 -1.1884 -1.1437 -0.5984
 5003SOL    HW226469   0.376   1.127   2.819 -0.6626 -2.0048 -0.3468
 5004SOL     OW26470   0.548   3.967   3.900 -0.0197  0.2758 -0.4346
 5004SOL    HW126471   0.604   4.036   3.866  2.5352 -1.1763  0.8678
 5004SOL    HW226472   0.575   3.977   3.991  1.3573  0.6030 -0.8880
 5005SOL     OW26473   0.983   2.649   0.737  0.0380 -0.7646 -0.0439
 5005SOL    HW126474   0.897   2.680   0.709 -0.0825  0.5890  1.8061
 5005SOL    HW226475   0.964   2.555   0.741 -0.0353 -0.8050 -1.1997
 5006SOL     OW26476   2.102   2.123   2.211 -0.1017  0.1340 -0.6959
 5006SOL    HW126477   2.008   2.116   2.231 -0.3088 -0.3371 -1.8323
 5006SOL    HW226478   2.131   2.036   2.239 -2.3967 -0.2010  0.6630
 5007SOL     OW26479   0.444   4.206  12.124 -0.3201  0.7431 -0.6227
 5007SOL    HW126480   0.414   4.250  12.045 -1.4271 -0.1092 -0.6805
 5007SOL    HW226481   0.365   4.221  12.176 -0.3681  0.4473 -0.6087
 5008SOL     OW26482   3.518   2.104   4.806  0.5298 -0.0049 -0.4165
 5008SOL    HW126483   3.585   2.035   4.810  1.2483  0.7247  0.2295
 5008SOL    HW226484   3.537   2.175   4.868 -1.2085 -0.0310  0.1464
 5009SOL     OW26485   0.182   2.121   1.821 -0.4946  0.7290 -0.1226
 5009SOL    HW126486   0.191   2.214   1.801  1.9512  0.3915 -0.5607
 5009SOL    HW226487   0.275   2.099   1.821 -0.8937 -0.9683  1.4733
 5010SOL     OW26488   4.648   2.432   8.885  0.3203 -0.2022 -0.1093
 5010SOL    HW126489   4.584   2.384   8.833 -1.0765  1.1563  0.3756
 5010SOL    HW226490   4.721   2.370   8.891  1.4647  1.2074  0.6238
 5011SOL     OW26491   0.702   0.697   5.683  0.6191 -0.3748  0.5631
 5011SOL    HW126492   0.695   0.662   5.594  0.7666 -0.4665  0.5880
 5011SOL    HW226493   0.702   0.790   5.663  3.2150 -0.8806 -1.7123
 5012SOL     OW26494   4.334   3.574   7.446 -0.3278  0.2702  0.3475
 5012SOL    HW126495   4.328   3.662   7.482  2.9381  0.1909  1.0983
 5012SOL    HW226496   4.334   3.520   7.525  2.4297  0.2972  0.3618
 5013SOL     OW26497   1.822   0.588   6.011 -0.6013 -0.0189 -0.2043
 5013SOL    HW126498   1.880   0.541   6.071  0.0510  0.9895 -0.0475
 5013SOL    HW226499   1.854   0.542   5.934 -0.7831 -1.5578  0.6388
 5014SOL     OW26500   0.814   1.929   4.470  0.2343 -0.2790 -0.1904
 5014SOL    HW126501   0.759   1.880   4.532  1.3281 -0.1182  0.9096
 5014SOL    HW226502   0.750   1.958   4.406  0.9065  0.9979 -0.2771
 5015SOL     OW26503   0.500   4.042   1.572 -0.2698  0.0594 -0.0460
 5015SOL    HW126504   0.466   4.131   1.583 -3.3932 -1.2357  0.7030
 5015SOL    HW226505   0.589   4.047   1.606  0.3686  0.8815 -1.8163
 5016SOL     OW26506   1.314   4.416  11.883  0.0082  0.1110 -0.2959
 5016SOL    HW126507   1.331   4.345  11.945  3.5751 -2.1557 -3.8397
 5016SOL    HW226508   1.373   4.486  11.910  0.3360  1.1946 -3.7824
 5017SOL     OW26509   2.704   2.614   3.889  0.3097  0.4566 -0.0129
 5017SOL    HW126510   2.762   2.553   3.935  0.7515  2.6249  2.3136
 5017SOL    HW226511   2.643   2.644   3.957 -0.5275 -1.5051  0.1305
 5018SOL     OW26512   0.171   3.105   4.064  0.2934 -0.0702  0.4082
 5018SOL    HW126513   0.231   3.096   3.990 -0.6995  0.9502 -0.5209
 5018SOL    HW226514   0.225   3.135   4.137 -0.6993  0.8120  0.7865
 5019SOL     OW26515   1.360   3.123   4.589  0.5372 -0.1410  0.4022
 5019SOL    HW126516   1.276   3.116   4.635 -0.0109  2.2900 -0.2397
 5019SOL    HW226517   1.375   3.217   4.593  0.8871 -0.2702  2.2028
 5020SOL     OW26518   3.137   3.213   5.164  0.0523 -0.0806  0.0887
 5020SOL    HW126519   3.210   3.266   5.133 -0.2718 -0.2320 -0.9101
 5020SOL    HW226520   3.081   3.195   5.089 -1.6159  2.5648  0.7033
 5021SOL     OW26521   1.509   2.355   6.728 -0.5928  0.8436  0.3799
 5021SOL    HW126522   1.434   2.350   6.786  0.2879 -1.2540  1.3296
 5021SOL    HW226523   1.493   2.438   6.682 -0.8588  0.4839 -0.1735
 5022SOL     OW26524   0.529   2.587   3.208 -0.0397  0.0200 -0.9813
 5022SOL    HW126525   0.439   2.621   3.207 -0.1560 -0.2836 -1.0511
 5022SOL    HW226526   0.572   2.654   3.261 -2.4669  1.1810 -0.4792
 5023SOL     OW26527   1.352   0.154   2.166  0.3868  0.0036 -0.0675
 5023SOL    HW126528   1.362   0.173   2.259  2.7886  1.1497 -0.5631
 5023SOL    HW226529   1.418   0.088   2.144  0.3830 -0.2373  0.6535
 5024SOL     OW26530   3.286   4.137   4.339  0.0158  0.0817  0.0143
 5024SOL    HW126531   3.232   4.113   4.415 -0.6304  0.0198 -0.4577
 5024SOL    HW226532   3.276   4.059   4.284  3.1047  0.8480 -1.6272
 5025SOL     OW26533   4.340   0.785  10.281 -0.1402  0.2189 -0.0076
 5025SOL    HW126534   4.362   0.786  10.188 -2.2452  0.8821 -0.5014
 5025SOL    HW226535   4.416   0.833  10.315  0.0494 -0.2427  0.2276
 5026SOL     OW26536   2.240   0.406  11.957  0.1476 -0.0567  0.8530
 5026SOL    HW126537   2.335   0.394  11.966  0.0158 -2.0683 -0.4855
 5026SOL    HW226538   2.245   0.410  11.862  2.2506 -0.6153  0.9222
 5027SOL     OW26539   2.825   2.885  10.459  0.5183  0.6750 -0.0044
 5027SOL    HW126540   2.839   2.868  10.366 -1.4718  0.2241 -0.2353
 5027SOL    HW226541   2.747   2.940  10.468 -0.5001 -0.2440 -3.3936
 5028SOL     OW26542   1.205   0.676   5.426  0.1154 -0.0330  0.1550
 5028SOL    HW126543   1.256   0.620   5.367 -0.6055  1.4769 -1.9136
 5028SOL    HW226544   1.147   0.713   5.360  1.6832  0.1675 -1.1052
 5029SOL     OW26545   0.074   2.595   3.038 -0.3587 -0.0859  0.8718
 5029SOL    HW126546   0.031   2.539   2.973  1.7213  1.4406 -1.8168
 5029SOL    HW226547   0.029   2.551   3.110 -0.7416  1.8273  1.8080
 5030SOL     OW26548   4.659   1.980   4.384  0.4399 -0.3448  0.4659
 5030SOL    HW126549   4.584   2.035   4.405 -0.0782 -0.5056 -0.9671
 5030SOL    HW226550   4.682   1.944   4.470  0.7098 -2.0694 -0.3342
 5031SOL     OW26551   2.719   4.631   4.108 -0.4988  0.3332  0.1893
 5031SOL    HW126552   2.773   4.567   4.062  1.7275  1.5259  1.1200
 5031SOL    HW226553   2.675   4.676   4.036 -0.2811 -1.3816 -1.0059
 5032SOL     OW26554   0.350   0.593  13.343 -0.3429 -0.1785  0.2035
 5032SOL    HW126555   0.268   0.590  13.392  1.3655  1.0820  3.1502
 5032SOL    HW226556   0.322   0.590  13.251  2.3735  1.9772 -0.7138
 5033SOL     OW26557   0.752   1.809   2.011  0.3030  0.0525  0.8228
 5033SOL    HW126558   0.795   1.894   2.001  0.8248 -0.4511 -1.1279
 5033SOL    HW226559   0.663   1.845   2.013  0.6422  0.9826 -0.5407
 5034SOL     OW26560   0.017   2.955   6.808  0.1636 -0.3278  0.4687
 5034SOL    HW126561   0.083   2.912   6.753  0.2183  2.0535 -1.3385
 5034SOL    HW226562   0.015   3.042   6.768  2.1506 -0.5354 -0.1294
 5035SOL     OW26563   2.664   3.593   3.401 -0.3880  0.2014 -0.2585
 5035SOL    HW126564   2.727   3.561   3.336 -1.3077  0.1215 -1.1012
 5035SOL    HW226565   2.596   3.536   3.364  0.6932 -0.5556 -1.0933
 5036SOL     OW26566   1.857   1.277   0.885  0.7297 -0.3869 -0.2770
 5036SOL    HW126567   1.841   1.350   0.826  0.9141  0.3603  0.5889
 5036SOL    HW226568   1.944   1.254   0.854 -0.0181  0.5988 -3.0764
 5037SOL     OW26569   1.816   1.236   7.805  0.1156  0.1005  0.1156
 5037SOL    HW126570   1.902   1.229   7.847 -0.5355 -0.0698  1.4525
 5037SOL    HW226571   1.778   1.310   7.853  0.8057  0.2164  0.4798
 5038SOL     OW26572   4.579   2.182   2.743  0.7053 -0.2829  0.5441
 5038SOL    HW126573   4.517   2.214   2.677  0.0668 -0.5160  1.0411
 5038SOL    HW226574   4.612   2.105   2.696  0.4312  1.4313 -2.4766
 5039SOL     OW26575   0.291   1.321   5.573 -0.0919  0.5246 -0.4441
 5039SOL    HW126576   0.340   1.270   5.638 -1.9352 -1.8303 -0.8808
 5039SOL    HW226577   0.251   1.389   5.626  0.4695  2.1436 -2.1206
 5040SOL     OW26578   0.481   1.373   6.027 -0.1035  0.1056  0.3078
 5040SOL    HW126579   0.444   1.327   5.951  2.7959  0.5108 -1.3172
 5040SOL    HW226580   0.493   1.301   6.088  1.6853 -1.3045 -1.7052
 5041SOL     OW26581   0.649   3.154   8.139 -0.1455 -0.4457  0.2717
 5041SOL    HW126582   0.573   3.211   8.133  1.2992  1.4454  0.1085
 5041SOL    HW226583   0.615   3.065   8.130 -0.7859 -0.0723 -0.9937
 5042SOL     OW26584   1.728   4.297  12.122 -0.9070  0.3647  0.1422
 5042SOL    HW126585   1.750   4.214  12.163  0.2555  1.3971  1.6107
 5042SOL    HW226586   1.814   4.328  12.092 -0.2483 -2.5934 -1.0129
 5043SOL     OW26587   0.449   2.297  13.831  0.2182  0.3971  0.5869
 5043SOL    HW126588   0.499   2.244  13.893  1.3103  0.0542 -0.5875
 5043SOL    HW226589   0.371   2.314  13.883 -0.0805  1.4546 -0.1938
 5044SOL     OW26590   0.900   1.585   2.868 -0.4672 -0.0036  0.4529
 5044SOL    HW126591   0.838   1.648   2.905 -0.7995 -0.9292  1.4419
 5044SOL    HW226592   0.942   1.632   2.796 -0.3970  1.5437  1.5133
 5045SOL     OW26593   3.865   0.111  13.760  0.0087 -0.1218  0.1213
 5045SOL    HW126594   3.885   0.162  13.682  0.2835 -0.5455 -0.0879
 5045SOL    HW226595   3.934   0.148  13.815 -1.4526  1.7677  0.6837
 5046SOL     OW26596   4.677   0.805   2.378 -0.0325  0.1425 -0.1659
 5046SOL    HW126597   0.021   0.808   2.446  0.3873  0.0877 -0.5719
 5046SOL    HW226598   4.654   0.897   2.393 -0.7528 -0.3058  1.4642
 5047SOL     OW26599   3.615   4.107   7.251  0.1495  0.3806  0.0772
 5047SOL    HW126600   3.645   4.136   7.337 -2.6045 -0.6564  1.4033
 5047SOL    HW226601   3.686   4.126   7.189  0.3715 -0.6812  0.0098
 5048SOL     OW26602   4.486   0.131   9.484 -0.1295 -0.2011  0.3542
 5048SOL    HW126603   4.450   0.210   9.524 -2.1566 -2.0906  2.1888
 5048SOL    HW226604   4.464   0.143   9.391 -0.0761 -0.3194  0.3266
 5049SOL     OW26605   2.740   3.543   0.663  0.1650 -0.1682 -0.3354
 5049SOL    HW126606   2.706   3.455   0.677  0.8646 -0.7483 -2.3445
 5049SOL    HW226607   2.795   3.557   0.740 -0.6983  1.2715  0.0121
 5050SOL     OW26608   2.130   1.838   6.992 -1.1345  0.2933 -0.6326
 5050SOL    HW126609   2.086   1.778   7.052  0.0835 -0.1736 -0.2028
 5050SOL    HW226610   2.224   1.838   7.007 -1.2486 -1.5415  0.0806
 5051SOL     OW26611   4.461   1.803  16.112  0.0108  0.6161  0.1221
 5051SOL    HW126612   4.367   1.819  16.103  0.3150  1.2619 -1.8516
 5051SOL    HW226613   4.484   1.882  16.064 -2.5392  0.7558 -0.9026
 5052SOL     OW26614   3.630   3.086  12.468  0.0704 -0.4665 -0.5532
 5052SOL    HW126615   3.551   3.031  12.465 -1.3999  1.7900 -3.1299
 5052SOL    HW226616   3.585   3.167  12.492  2.4008  1.1096 -1.5640
 5053SOL     OW26617   4.534   0.735   4.755  0.4021  0.2794 -0.2409
 5053SOL    HW126618   4.479   0.742   4.676  0.1204  0.6647 -0.0145
 5053SOL    HW226619   4.470   0.734   4.827 -0.6441  1.0536 -1.1502
 5054SOL     OW26620   4.628   1.761  11.465 -0.6568 -0.1440 -0.1207
 5054SOL    HW126621   4.539   1.797  11.463 -0.4666  0.3373  0.3954
 5054SOL    HW226622   4.667   1.841  11.432 -0.4086  0.3324  1.3268
 5055SOL     OW26623   1.041   3.640   3.736  0.5490 -0.3924 -0.2284
 5055SOL    HW126624   0.960   3.621   3.783 -1.1379  2.0348 -2.1537
 5055SOL    HW226625   1.082   3.554   3.743  0.8954 -0.2199 -0.1490
 5056SOL     OW26626   3.974   0.095   7.741  0.3883 -0.6966 -0.7543
 5056SOL    HW126627   3.920   0.173   7.757 -0.8893 -2.2823  2.7568
 5056SOL    HW226628   3.915   0.039   7.691  2.0432 -2.5048 -0.6435
 5057SOL     OW26629   0.220   0.117   4.557  0.3081  0.4537 -0.1765
 5057SOL    HW126630   0.223   0.209   4.582  1.2995  1.0132 -2.4265
 5057SOL    HW226631   0.148   0.090   4.615 -1.1003  0.1160 -2.0557
 5058SOL     OW26632   0.570   3.664  15.946  0.2552 -0.0833  0.0089
 5058SOL    HW126633   0.632   3.591  15.944  0.1690 -0.1776  0.5925
 5058SOL    HW226634   0.599   3.731  15.885  0.2130 -0.1757 -0.1129
 5059SOL     OW26635   3.834   4.132   7.093 -0.5427 -0.1795  0.2517
 5059SOL    HW126636   3.903   4.066   7.102 -1.4433 -0.8969  1.7773
 5059SOL    HW226637   3.876   4.196   7.036  1.2669 -0.6495  1.0587
 5060SOL     OW26638   1.745   2.944   8.124 -0.4432  0.6674  0.0667
 5060SOL    HW126639   1.683   2.895   8.069  1.6679 -1.7580 -0.1131
 5060SOL    HW226640   1.813   2.946   8.057 -3.7482  1.9255 -3.3002
 5061SOL     OW26641   0.304   0.889   6.429  0.5761 -0.0486 -0.0002
 5061SOL    HW126642   0.271   0.800   6.414 -0.6323  0.1018  1.7963
 5061SOL    HW226643   0.234   0.954   6.432  0.7208  0.0567  1.0867
 5062SOL     OW26644   3.814   4.046   5.302  0.2531  0.3354 -0.3938
 5062SOL    HW126645   3.758   3.973   5.327 -1.8438  1.6943 -1.0830
 5062SOL    HW226646   3.891   4.005   5.262  0.8121  0.1854  0.8502
 5063SOL     OW26647   4.273   1.625   6.812  0.3559  0.2341 -0.1699
 5063SOL    HW126648   4.200   1.605   6.870 -0.8662 -1.0574 -2.1355
 5063SOL    HW226649   4.338   1.670   6.866  0.2657 -0.9367  0.9200
 5064SOL     OW26650   3.466   1.461  17.445  0.4252 -0.1213 -0.4256
 5064SOL    HW126651   3.411   1.423  17.513 -0.1664 -2.6646 -2.3567
 5064SOL    HW226652   3.398   1.477  17.380  2.5026  1.6758 -2.1774
 5065SOL     OW26653   1.190   2.375  15.543  0.0460 -0.0901 -0.0589
 5065SOL    HW126654   1.204   2.449  15.601 -1.4117 -0.7083  1.0790
 5065SOL    HW226655   1.216   2.302  15.599  0.5568  0.1773  0.0538
 5066SOL     OW26656   4.290   0.340   3.469 -0.0670  0.0970  0.2065
 5066SOL    HW126657   4.271   0.430   3.496  0.6555  0.2760  0.1340
 5066SOL    HW226658   4.298   0.296   3.554 -0.6884  0.8121  0.6384
 5067SOL     OW26659   1.907   2.181   9.329  0.0180 -0.4945  0.0712
 5067SOL    HW126660   1.983   2.128   9.355  1.2235  2.1924  1.9172
 5067SOL    HW226661   1.883   2.126   9.254  0.0566  0.1227 -0.3910
 5068SOL     OW26662   0.561   3.075   6.054 -0.6014  0.2935 -0.2529
 5068SOL    HW126663   0.552   2.985   6.086 -2.5843  0.3175 -0.7163
 5068SOL    HW226664   0.651   3.093   6.079 -0.2876 -1.4320 -0.1540
 5069SOL     OW26665   1.969   4.474   4.848  0.2247  0.5825  0.3059
 5069SOL    HW126666   2.042   4.535   4.861  0.2078  0.8064 -0.6522
 5069SOL    HW226667   1.940   4.491   4.759  0.4676  1.5064  0.4068
 5070SOL     OW26668   2.999   0.059   6.254  0.4106 -0.4129  0.1781
 5070SOL    HW126669   2.972   0.008   6.330  1.5129 -0.8854  0.2600
 5070SOL    HW226670   3.054   0.127   6.293 -0.6537  0.9620 -0.7227
 5071SOL     OW26671   3.963   1.404   5.771  0.2876  0.3099 -0.6558
 5071SOL    HW126672   3.979   1.429   5.862 -0.5438  0.4103 -0.5421
 5071SOL    HW226673   3.987   1.480   5.718  0.2590 -0.5326 -1.8861
 5072SOL     OW26674   4.574   4.640   3.579 -0.7908 -0.1558  0.0644
 5072SOL    HW126675   4.591   4.602   3.665 -0.0956  0.4561  0.2028
 5072SOL    HW226676   4.498   4.594   3.544  0.4716  0.4434 -3.4471
 5073SOL     OW26677   4.296   4.014  13.602 -0.8796 -0.3410  0.3214
 5073SOL    HW126678   4.228   4.004  13.667 -1.3477 -3.0909 -0.5855
 5073SOL    HW226679   4.246   4.058  13.533 -1.7257 -1.8285 -0.0035
 5074SOL     OW26680   2.412   3.761   5.788  0.1568  0.6423  0.1804
 5074SOL    HW126681   2.376   3.675   5.808 -0.6678  0.5762 -1.5497
 5074SOL    HW226682   2.335   3.813   5.808  0.6823  1.6118 -0.3169
 5075SOL     OW26683   0.262   0.350   6.950  0.3605  0.2965  0.6481
 5075SOL    HW126684   0.280   0.423   6.891  0.2703 -0.4767 -0.3491
 5075SOL    HW226685   0.347   0.308   6.934  0.1657  0.1082  0.1008
 5076SOL     OW26686   4.690   3.736   2.767 -0.3175  0.0166  0.2080
 5076SOL    HW126687   0.047   3.683   2.761 -0.6080 -0.1578 -1.9741
 5076SOL    HW226688   4.720   3.826   2.780  1.4015 -0.6868  1.0047
 5077SOL     OW26689   1.947   3.967  13.301  0.1221  0.1567  0.4825
 5077SOL    HW126690   1.866   4.013  13.277 -0.2491 -1.5326 -1.5191
 5077SOL    HW226691   1.956   3.999  13.391  1.6198  1.8047 -0.2401
 5078SOL     OW26692   4.664   3.570   4.034  0.1439 -0.0593 -0.0668
 5078SOL    HW126693   4.660   3.555   3.940 -0.0231 -0.7983  0.0574
 5078SOL    HW226694   4.587   3.625   4.046 -0.8073 -1.6443  1.2740
 5079SOL     OW26695   1.950   3.177  16.011  0.0336  0.0036  0.2688
 5079SOL    HW126696   1.919   3.226  15.935  0.5108  1.5089  1.0521
 5079SOL    HW226697   1.908   3.228  16.080  0.3661 -0.8021  1.0653
 5080SOL     OW26698   0.165   1.614   1.148  0.6342 -0.2182 -0.3567
 5080SOL    HW126699   0.218   1.609   1.069 -1.2047 -0.9305 -1.5429
 5080SOL    HW226700   0.227   1.579   1.212 -0.0452 -0.0909  0.3796
 5081SOL     OW26701   0.386   1.053   7.052 -0.5963  0.4695  0.3840
 5081SOL    HW126702   0.423   1.113   6.987 -1.7219  0.2058 -0.5206
 5081SOL    HW226703   0.432   1.086   7.128  0.7111 -3.5278  1.3244
 5082SOL     OW26704   3.905   0.474   8.030  0.4972  0.1645 -0.1201
 5082SOL    HW126705   3.951   0.468   7.946  1.1708  0.8024  0.2102
 5082SOL    HW226706   3.950   0.408   8.083  0.5026 -0.2425 -0.6259
 5083SOL     OW26707   3.562   0.177   9.123  0.2191 -0.2891  0.0074
 5083SOL    HW126708   3.597   0.254   9.169 -1.2569  0.1747  0.3657
 5083SOL    HW226709   3.504   0.217   9.059 -0.7088  2.2743  2.4307
 5084SOL     OW26710   3.463   0.492  11.503  0.2722  0.4435  0.4023
 5084SOL    HW126711   3.384   0.508  11.554  0.9361  0.3656  1.4696
 5084SOL    HW226712   3.436   0.485  11.411 -1.2645 -0.8994  0.9572
 5085SOL     OW26713   3.990   3.655   4.290 -0.0363 -0.3791 -0.2957
 5085SOL    HW126714   4.021   3.569   4.263  0.4423  0.1558 -1.4611
 5085SOL    HW226715   3.897   3.636   4.279  0.3586 -0.9616 -2.6059
 5086SOL     OW26716   0.093   2.294   5.272 -0.0009  0.1044  0.3120
 5086SOL    HW126717   0.007   2.259   5.249  0.4006 -2.1339  2.2239
 5086SOL    HW226718   0.122   2.334   5.190  0.7730 -1.7736 -0.3335
 5087SOL     OW26719   2.594   3.460  16.047 -0.5215  0.9571  1.0426
 5087SOL    HW126720   2.624   3.416  16.126  2.1195  1.7749  0.5019
 5087SOL    HW226721   2.499   3.456  16.056 -0.4893  0.7594  1.2696
 5088SOL     OW26722   0.817   2.831   2.819  0.0238  0.4070 -0.1963
 5088SOL    HW126723   0.889   2.827   2.882  1.5623 -0.3864 -2.0281
 5088SOL    HW226724   0.852   2.790   2.740  1.0853 -0.7437  0.8747
 5089SOL     OW26725   2.963   2.703  11.850 -0.1213 -0.2669  0.1143
 5089SOL    HW126726   2.899   2.763  11.811 -0.9287 -1.5269 -0.5267
 5089SOL    HW226727   2.921   2.625  11.811 -2.0027  0.3230  0.9561
 5090SOL     OW26728   0.453   2.736   5.847  0.1828  0.4639 -0.4609
 5090SOL    HW126729   0.478   2.679   5.774 -1.6959  0.3349 -0.9905
 5090SOL    HW226730   0.414   2.808   5.797 -1.8347 -1.3542 -1.4951
 5091SOL     OW26731   1.724   0.586  14.654 -0.4270  0.0966 -0.5080
 5091SOL    HW126732   1.714   0.660  14.714  1.2066 -1.4124  1.5951
 5091SOL    HW226733   1.758   0.521  14.715  0.5076  1.3944  0.3564
 5092SOL     OW26734   2.820   3.398   5.058  0.1291 -0.0625 -0.0335
 5092SOL    HW126735   2.860   3.407   5.145  0.1192  1.2280 -0.1633
 5092SOL    HW226736   2.884   3.436   4.999 -1.9685 -1.4153 -3.2003
 5093SOL     OW26737   3.569   4.293  13.920 -0.2080 -0.1886 -0.4059
 5093SOL    HW126738   3.484   4.252  13.930  0.1805 -0.5471  1.2733
 5093SOL    HW226739   3.631   4.232  13.959 -0.2213 -0.8418 -1.3888
 5094SOL     OW26740   4.380   1.278   1.615  0.2144  1.0291 -0.0475
 5094SOL    HW126741   4.440   1.316   1.551 -0.6053  1.2524 -0.6856
 5094SOL    HW226742   4.424   1.293   1.699  1.7380 -1.6372 -0.3696
 5095SOL     OW26743   4.352   4.557   9.461  0.1054 -0.0922  0.2843
 5095SOL    HW126744   4.287   4.542   9.529  0.5436 -1.4012  0.4099
 5095SOL    HW226745   4.377   4.647   9.483  1.8797 -0.3777 -0.5417
 5096SOL     OW26746   3.171   3.175   5.814 -0.5522  0.1007  0.7068
 5096SOL    HW126747   3.145   3.256   5.858 -1.5633  0.0258  0.2494
 5096SOL    HW226748   3.177   3.196   5.721 -2.6394  0.3592  0.6270
 5097SOL     OW26749   3.983   0.062  17.632  0.4431 -0.0659  0.0512
 5097SOL    HW126750   4.075   0.064  17.606 -0.3337 -2.5805 -2.8866
 5097SOL    HW226751   3.958   4.692  17.632 -0.4156  0.1677 -1.7228
 5098SOL     OW26752   2.899   0.548   8.604  0.4154 -0.8819 -0.6631
 5098SOL    HW126753   2.867   0.621   8.551  0.4234  0.0668  0.6287
 5098SOL    HW226754   2.883   0.581   8.692  1.3053 -2.3013  0.0368
 5099SOL     OW26755   0.315   0.609   9.719  0.0756 -0.4092  0.0024
 5099SOL    HW126756   0.278   0.676   9.776 -4.0290 -1.2168 -1.7068
 5099SOL    HW226757   0.335   0.547   9.789  0.5065 -0.0606  0.1870
 5100SOL     OW26758   2.797   3.424   3.189 -0.2848 -0.3792  0.0054
 5100SOL    HW126759   2.734   3.352   3.200 -1.2160  0.4501  0.0750
 5100SOL    HW226760   2.881   3.378   3.193  0.0369  0.3056  0.9168
 5101SOL     OW26761   2.030   4.245   8.432 -0.5573  0.4000  0.1299
 5101SOL    HW126762   2.042   4.340   8.438  0.9379  0.1535  1.2670
 5101SOL    HW226763   1.957   4.232   8.373  0.4934 -1.1729 -0.8369
 5102SOL     OW26764   4.066   0.509  12.502  0.0549  0.4560  0.0094
 5102SOL    HW126765   4.008   0.503  12.426 -2.1572  0.7226  1.6587
 5102SOL    HW226766   4.146   0.541  12.460  0.3939 -1.2582 -0.6121
 5103SOL     OW26767   3.320   0.484   8.059 -0.1216  0.1433  0.3027
 5103SOL    HW126768   3.390   0.542   8.088 -1.8147  2.9095 -1.1209
 5103SOL    HW226769   3.314   0.417   8.127  0.2758 -0.9657 -0.7497
 5104SOL     OW26770   3.225   4.334   4.765 -0.0751  0.1498 -0.1671
 5104SOL    HW126771   3.279   4.300   4.694  0.9138 -0.8226  1.0581
 5104SOL    HW226772   3.286   4.392   4.811  0.6287  0.6670 -1.7610
 5105SOL     OW26773   3.675   1.840   4.211  0.3690 -0.1315  0.4991
 5105SOL    HW126774   3.580   1.852   4.222  0.3603  1.4433 -1.2826
 5105SOL    HW226775   3.710   1.928   4.199  0.3877 -0.1265  0.5971
 5106SOL     OW26776   3.701   4.365  10.302  0.1463 -0.0543 -0.2219
 5106SOL    HW126777   3.764   4.297  10.325 -0.5811 -1.3639 -2.1456
 5106SOL    HW226778   3.689   4.354  10.208 -1.1819  0.8556 -0.1669
 5107SOL     OW26779   2.796   1.102  11.180 -0.0446 -0.1551 -0.0777
 5107SOL    HW126780   2.813   1.008  11.176  2.9129  0.3367  0.9513
 5107SOL    HW226781   2.854   1.130  11.110  1.2805 -0.1072  1.0363
 5108SOL     OW26782   4.039   0.132   6.207 -0.3524  0.2928  0.1414
 5108SOL    HW126783   3.949   0.114   6.234 -0.2520 -2.5849 -1.4663
 5108SOL    HW226784   4.094   0.098   6.278 -0.4350 -0.2853 -0.0730
 5109SOL     OW26785   3.501   2.802   8.681  0.1949  0.1062 -0.4658
 5109SOL    HW126786   3.591   2.773   8.695  0.4935  1.7855  1.0260
 5109SOL    HW226787   3.519   2.893   8.658 -1.0925  0.9371  1.7904
 5110SOL     OW26788   2.452   3.435   6.941  0.4818  0.2858  0.3525
 5110SOL    HW126789   2.453   3.434   7.037  2.8251  1.1891  0.3321
 5110SOL    HW226790   2.383   3.373   6.918 -0.2341  0.9922  0.5901
 5111SOL     OW26791   1.621   2.861   3.771 -0.4034  0.2444  0.3970
 5111SOL    HW126792   1.546   2.910   3.806 -0.7816  0.9957 -1.5194
 5111SOL    HW226793   1.690   2.921   3.799  1.3253 -2.0119  1.0307
 5112SOL     OW26794   0.752   1.795   9.807 -0.7229 -0.5086  0.4967
 5112SOL    HW126795   0.828   1.819   9.755 -0.9136 -0.1153  0.4047
 5112SOL    HW226796   0.750   1.868   9.868 -0.2560  1.5007 -1.9268
 5113SOL     OW26797   0.787   0.889   9.276  0.1446  0.1956  0.2777
 5113SOL    HW126798   0.767   0.814   9.221 -2.7406 -0.5456  2.3911
 5113SOL    HW226799   0.702   0.927   9.296 -0.3082  0.0888 -1.4660
 5114SOL     OW26800   1.872   1.695  15.840 -0.2154 -0.2537  0.2273
 5114SOL    HW126801   1.881   1.603  15.864 -0.2731 -1.0285 -2.6838
 5114SOL    HW226802   1.960   1.734  15.840 -0.8555  1.1753 -0.6848
 5115SOL     OW26803   3.840   3.333  15.566  0.4556 -0.4051 -0.3202
 5115SOL    HW126804   3.774   3.266  15.586  3.7651 -3.3127  0.9351
 5115SOL    HW226805   3.893   3.341  15.645  2.1985 -1.6152 -1.3666
 5116SOL     OW26806   0.124   2.853   3.888 -0.2545 -0.3113  0.2571
 5116SOL    HW126807   0.136   2.927   3.829 -0.5487 -0.3114  0.1940
 5116SOL    HW226808   0.129   2.892   3.975  0.8680  0.5779 -0.2137
 5117SOL     OW26809   0.286   1.300  17.477  0.3176  0.4114 -0.4337
 5117SOL    HW126810   0.271   1.352  17.397 -0.5563  1.5332  0.4695
 5117SOL    HW226811   0.223   1.230  17.464  0.8588 -0.0827 -0.3916
 5118SOL     OW26812   3.097   1.022   6.939 -0.2312 -0.0417  0.0411
 5118SOL    HW126813   3.060   0.960   7.002  2.6925 -3.2030 -1.3374
 5118SOL    HW226814   3.026   1.084   6.921 -1.7431 -1.1221  2.3095
 5119SOL     OW26815   3.955   2.445   1.929 -0.0736  0.3602  0.9073
 5119SOL    HW126816   3.983   2.401   1.849 -0.4038 -0.0732  1.0231
 5119SOL    HW226817   4.030   2.502   1.945  0.1154  0.5955 -0.8942
 5120SOL     OW26818   1.012   2.937   7.105 -0.0728 -0.2054  0.2882
 5120SOL    HW126819   1.084   2.977   7.056 -0.2798  0.5440  0.6057
 5120SOL    HW226820   0.980   2.875   7.039 -0.2815  0.6009 -0.3620
 5121SOL     OW26821   1.938   1.565  10.359 -0.0067  0.0964 -0.3517
 5121SOL    HW126822   1.847   1.539  10.343  0.3242 -0.1416 -1.8767
 5121SOL    HW226823   1.955   1.520  10.442  0.6581 -0.2330 -0.6665
 5122SOL     OW26824   1.792   4.609   6.486 -0.5532  0.4760  0.1430
 5122SOL    HW126825   1.702   4.591   6.458 -0.5386  2.7528 -1.4283
 5122SOL    HW226826   1.783   4.703   6.471 -1.1759  0.2445 -0.9527
 5123SOL     OW26827   4.156   1.681   8.626  0.1061 -0.2541  0.6069
 5123SOL    HW126828   4.205   1.631   8.692  0.2748 -1.0563 -0.1228
 5123SOL    HW226829   4.170   1.769   8.662 -1.1630 -0.9089  2.6855
 5124SOL     OW26830   4.653   3.542  17.477  0.3058 -0.4904  0.9234
 5124SOL    HW126831   4.661   3.577  17.565 -2.4075  0.3066  0.8540
 5124SOL    HW226832   4.640   3.448  17.493  0.5641 -0.0373  3.8017
 5125SOL     OW26833   2.959   4.484   7.164  0.3859 -0.0072  0.2863
 5125SOL    HW126834   2.928   4.506   7.077 -0.1148 -0.5929  0.3141
 5125SOL    HW226835   3.046   4.524   7.173  0.0254  1.0953 -1.3200
 5126SOL     OW26836   2.240   0.351   9.049 -0.5530  0.1819 -0.3643
 5126SOL    HW126837   2.199   0.342   9.135  1.7253 -3.4049  0.3516
 5126SOL    HW226838   2.332   0.361   9.072 -0.5736 -0.6151  0.0584
 5127SOL     OW26839   2.546   3.650  10.156 -0.2557 -0.2199  0.4902
 5127SOL    HW126840   2.628   3.644  10.205  0.4293 -3.8755 -1.0979
 5127SOL    HW226841   2.482   3.626  10.223 -0.6857  0.5574  0.3500
 5128SOL     OW26842   1.063   1.675   9.368 -0.0299 -0.0529  0.0492
 5128SOL    HW126843   1.144   1.694   9.320 -0.7103  1.9391 -0.2838
 5128SOL    HW226844   1.002   1.715   9.306  1.9058 -0.1430 -1.9431
 5129SOL     OW26845   0.877   0.509   3.699  0.1435 -0.6370 -0.3283
 5129SOL    HW126846   0.835   0.452   3.764 -1.7285 -1.0891 -1.9522
 5129SOL    HW226847   0.808   0.572   3.682 -1.6972 -2.2643  0.9918
 5130SOL     OW26848   1.092   3.991   5.221  0.2563 -0.2942 -0.3362
 5130SOL    HW126849   1.177   3.978   5.180 -0.2528 -0.8194 -1.2259
 5130SOL    HW226850   1.050   4.055   5.163  0.8161  0.2379 -0.1489
 5131SOL     OW26851   3.962   3.010   2.470 -0.0570  0.1897  0.1633
 5131SOL    HW126852   4.002   3.092   2.501 -0.2552  0.3464  0.0072
 5131SOL    HW226853   3.947   3.037   2.380 -1.9125  0.5042  0.5651
 5132SOL     OW26854   1.065   1.713  10.134 -0.6669 -0.6811  0.4946
 5132SOL    HW126855   1.011   1.773  10.186 -0.8419 -0.6559  0.2836
 5132SOL    HW226856   0.996   1.665  10.088  0.2270 -1.5145  0.0243
 5133SOL     OW26857   2.117   3.833  17.423 -0.1498 -0.5511 -0.2249
 5133SOL    HW126858   2.172   3.848  17.500 -0.0524  1.8439 -0.7566
 5133SOL    HW226859   2.184   3.805  17.360  0.2350  0.1507 -0.1303
 5134SOL     OW26860   0.560   0.755   2.417  0.1919  0.1915  0.4569
 5134SOL    HW126861   0.496   0.812   2.461 -0.1339 -0.1644  0.4466
 5134SOL    HW226862   0.528   0.779   2.331  0.9421  1.1796  0.4547
 5135SOL     OW26863   1.036   0.460   8.302  0.0012 -0.5062  0.6757
 5135SOL    HW126864   0.972   0.445   8.372 -0.0698 -1.0591  0.4955
 5135SOL    HW226865   0.972   0.494   8.239  1.4059 -0.6954 -0.8644
 5136SOL     OW26866   1.813   0.731   6.253  0.4067  0.0877 -0.2154
 5136SOL    HW126867   1.795   0.709   6.161 -0.4133  0.3018 -0.1035
 5136SOL    HW226868   1.722   0.720   6.281 -0.4096  3.0244 -1.7625
 5137SOL     OW26869   0.011   1.874   2.270 -0.2607 -0.5401 -0.2051
 5137SOL    HW126870   4.661   1.937   2.264  1.3440  1.2619 -0.8085
 5137SOL    HW226871   0.038   1.870   2.178  1.2329 -2.0013  0.2975
 5138SOL     OW26872   0.258   1.400  14.358 -0.6117  0.5312 -0.0813
 5138SOL    HW126873   0.198   1.390  14.432 -2.7439  1.8060 -1.6355
 5138SOL    HW226874   0.325   1.332  14.363 -1.2164 -0.2048 -1.8472
 5139SOL     OW26875   0.463   2.264  17.478  0.2061  0.0788  0.0461
 5139SOL    HW126876   0.553   2.294  17.479  0.3519 -0.3346 -0.8868
 5139SOL    HW226877   0.419   2.316  17.545  1.7481 -0.2474  1.2975
 5140SOL     OW26878   1.543   2.683  15.508  0.3979  0.6797 -0.2604
 5140SOL    HW126879   1.542   2.589  15.489 -2.0057  0.5888  0.3792
 5140SOL    HW226880   1.462   2.701  15.460  0.2638  2.4780  0.6802
 5141SOL     OW26881   1.432   3.894   5.909 -0.2247 -0.1938 -0.1903
 5141SOL    HW126882   1.484   3.838   5.851 -0.2465 -0.2731 -0.1336
 5141SOL    HW226883   1.342   3.862   5.902 -0.1944 -0.1672 -0.7199
 5142SOL     OW26884   1.492   4.362   5.644  0.8606 -0.2380 -0.6371
 5142SOL    HW126885   1.443   4.359   5.563  0.2316  0.5152 -0.2814
 5142SOL    HW226886   1.520   4.453   5.652 -0.4276 -0.1005  2.2939
 5143SOL     OW26887   4.467   4.433  14.017 -0.1178  0.3479 -0.0320
 5143SOL    HW126888   4.401   4.366  14.037  0.3465  0.0696  0.5553
 5143SOL    HW226889   4.521   4.461  14.090 -0.1625  3.0898 -1.0462
 5144SOL     OW26890   3.346   1.482  16.942 -1.0400  0.2668 -0.4302
 5144SOL    HW126891   3.340   1.388  16.922 -2.4291  0.6260 -1.7432
 5144SOL    HW226892   3.418   1.503  16.883  0.8656  2.3734  2.6608
 5145SOL     OW26893   4.605   3.710  11.800 -0.2136  0.7082 -0.2325
 5145SOL    HW126894   4.585   3.804  11.807 -3.5674 -0.2615  3.3175
 5145SOL    HW226895   4.700   3.719  11.787 -0.0234  0.0430  0.6898
 5146SOL     OW26896   0.980   3.484  10.148 -0.3158  0.0112  0.9130
 5146SOL    HW126897   1.034   3.563  10.145 -2.6038  1.6271  2.1440
 5146SOL    HW226898   0.961   3.461  10.057  1.2673  2.9485 -0.1544
 5147SOL     OW26899   1.966   3.400   0.781 -0.3034 -0.4605 -0.0724
 5147SOL    HW126900   1.945   3.375   0.691 -3.8134  1.2642  0.2458
 5147SOL    HW226901   2.050   3.439   0.762 -1.6051  1.7133 -1.2874
 5148SOL     OW26902   3.381   3.492   0.351 -0.1626 -0.9187 -0.3511
 5148SOL    HW126903   3.363   3.423   0.416 -0.0663  0.0439  0.6980
 5148SOL    HW226904   3.476   3.500   0.347  0.0287 -2.0069  1.8744
 5149SOL     OW26905   1.258   2.849   2.098 -0.0942 -0.3833  0.1828
 5149SOL    HW126906   1.207   2.902   2.037  0.9340 -0.2694 -0.5710
 5149SOL    HW226907   1.198   2.830   2.170  0.1499  0.8516  0.7289
 5150SOL     OW26908   1.563   2.441  11.665 -0.1302  0.6304 -0.2169
 5150SOL    HW126909   1.551   2.536  11.675 -0.1096  0.6407 -0.2885
 5150SOL    HW226910   1.658   2.443  11.679 -0.3172  3.2152  0.6877
 5151SOL     OW26911   2.714   1.092   6.190 -0.4036 -0.4372 -0.1282
 5151SOL    HW126912   2.794   1.138   6.164 -0.3319  0.1709  1.1787
 5151SOL    HW226913   2.653   1.093   6.117  0.0236 -1.0450 -0.4909
 5152SOL     OW26914   3.597   3.241   1.949 -0.9673 -0.4786 -0.1294
 5152SOL    HW126915   3.575   3.156   1.988  0.4364  0.1767  2.0845
 5152SOL    HW226916   3.625   3.298   2.020  1.2069 -1.8949  0.1717
 5153SOL     OW26917   4.233   2.334  16.691  0.3553 -0.4521  0.0624
 5153SOL    HW126918   4.312   2.389  16.689 -0.2092  0.3656  0.3070
 5153SOL    HW226919   4.256   2.277  16.764 -0.4716 -2.5773 -1.3382
 5154SOL     OW26920   2.162   2.465   2.773  0.1425  0.5289  0.8663
 5154SOL    HW126921   2.094   2.406   2.805  0.6494 -0.0598  0.8530
 5154SOL    HW226922   2.186   2.430   2.687 -2.0717 -0.4635  0.6410
 5155SOL     OW26923   2.559   0.163   0.362  0.3665 -0.5276 -0.6211
 5155SOL    HW126924   2.543   0.074   0.394 -0.8021  0.3528  1.2805
 5155SOL    HW226925   2.535   0.152   0.270  0.4644 -3.0194 -0.3556
 5156SOL     OW26926   3.083   2.087   4.325 -0.4099 -0.2006  0.2313
 5156SOL    HW126927   3.100   2.054   4.413 -3.8289 -1.7763  0.3291
 5156SOL    HW226928   3.141   2.026   4.279 -0.7965  1.1797 -2.1092
 5157SOL     OW26929   3.460   0.950  15.463  0.5529 -0.6423 -0.1590
 5157SOL    HW126930   3.412   1.033  15.457  0.4326 -0.7112 -0.1573
 5157SOL    HW226931   3.523   0.953  15.534 -1.5322  0.1767  1.6542
 5158SOL     OW26932   1.974   3.443   5.022  0.6131  0.3852 -0.7770
 5158SOL    HW126933   2.014   3.365   4.982  0.5466 -1.4801  2.7787
 5158SOL    HW226934   2.028   3.514   4.987 -1.9413  2.9809  0.5804
 5159SOL     OW26935   0.852   2.639   1.751 -0.2803  0.6255 -0.3941
 5159SOL    HW126936   0.884   2.562   1.704 -1.8364 -0.2923  0.0475
 5159SOL    HW226937   0.780   2.601   1.802  0.3022  0.0920  0.0380
 5160SOL     OW26938   2.480   4.516   0.302  0.1947  0.2339 -0.1235
 5160SOL    HW126939   2.419   4.450   0.333 -1.1063  0.6429 -1.8407
 5160SOL    HW226940   2.522   4.547   0.383  1.9887 -2.9580  0.1743
 5161SOL     OW26941   3.318   3.751   5.348  0.0170 -0.0021 -0.0058
 5161SOL    HW126942   3.308   3.657   5.335  2.3659  0.0372 -2.0087
 5161SOL    HW226943   3.231   3.767   5.386 -1.5434 -1.0498 -3.1149
 5162SOL     OW26944   3.598   2.943   4.210 -0.1018 -0.2094  0.3212
 5162SOL    HW126945   3.534   3.012   4.219  1.8169  1.8429 -1.5563
 5162SOL    HW226946   3.620   2.954   4.117 -0.2189 -3.9575 -0.1750
 5163SOL     OW26947   1.645   1.180   4.396 -0.0390 -0.0961 -0.0758
 5163SOL    HW126948   1.629   1.263   4.350  1.1457  0.3781  0.3615
 5163SOL    HW226949   1.631   1.195   4.489  0.2710 -0.6315  0.0511
 5164SOL     OW26950   4.009   4.633   3.963  0.0759 -0.1344  0.2812
 5164SOL    HW126951   4.020   4.635   3.868  1.2825  1.2219  0.4400
 5164SOL    HW226952   4.029   4.541   3.977  0.7655 -0.3653 -2.2993
 5165SOL     OW26953   2.820   1.134  14.198  0.2611  0.0441 -0.1120
 5165SOL    HW126954   2.762   1.208  14.185 -0.5103 -0.9019 -2.0033
 5165SOL    HW226955   2.906   1.174  14.202 -0.7923  2.5013 -2.4159
 5166SOL     OW26956   3.166   3.209   5.539  0.2403 -0.1823 -0.4216
 5166SOL    HW126957   3.256   3.180   5.527  0.3458 -0.0956  0.1756
 5166SOL    HW226958   3.122   3.164   5.466 -1.5805 -1.0525  1.1937
 5167SOL     OW26959   1.134   1.840   5.748  0.8249  0.1424  0.1701
 5167SOL    HW126960   1.053   1.802   5.783  1.1399  1.4469  2.3360
 5167SOL    HW226961   1.121   1.934   5.757 -2.7100 -0.4355  1.1261
 5168SOL     OW26962   1.373   4.688  15.275 -0.9125 -0.4566  0.0977
 5168SOL    HW126963   1.456   4.654  15.243 -1.2471 -2.1503  1.0381
 5168SOL    HW226964   1.340   4.612  15.323  2.3328 -0.2460  2.6146
 5169SOL     OW26965   3.523   4.490   6.858  0.5725 -0.2086 -0.5774
 5169SOL    HW126966   3.560   4.433   6.791 -0.7272 -0.6207 -0.9214
 5169SOL    HW226967   3.604   4.531   6.890 -1.2472  2.4295  0.6517
 5170SOL     OW26968   2.162   2.727  10.564 -0.2610  0.6636  0.3552
 5170SOL    HW126969   2.251   2.755  10.585 -0.7947  0.6107  2.7367
 5170SOL    HW226970   2.133   2.803  10.514  1.2258  1.6167  0.9363
 5171SOL     OW26971   1.179   1.788   4.300 -0.3300 -0.6358  0.1414
 5171SOL    HW126972   1.168   1.849   4.373 -0.9812 -1.4681  0.7324
 5171SOL    HW226973   1.270   1.801   4.270 -0.0482 -3.2925 -0.1945
 5172SOL     OW26974   2.841   3.015   5.563  0.0118  0.1769 -0.3190
 5172SOL    HW126975   2.897   3.048   5.493  2.2262 -1.3613  0.7391
 5172SOL    HW226976   2.765   3.070   5.542 -1.3146 -1.1597  0.9431
 5173SOL     OW26977   4.117   3.990  14.271 -0.3018 -0.0315 -0.4533
 5173SOL    HW126978   4.134   4.076  14.232  1.7923 -0.9500 -1.5660
 5173SOL    HW226979   4.022   3.986  14.283 -0.2060  1.3169  0.8903
 5174SOL     OW26980   1.503   0.669   1.174 -0.4136 -0.0324  0.0224
 5174SOL    HW126981   1.572   0.716   1.127 -0.5866  0.9183  0.7111
 5174SOL    HW226982   1.444   0.740   1.199  0.1530 -0.6327  3.0033
 5175SOL     OW26983   4.446   3.324   1.082  0.1607  0.4779  0.2274
 5175SOL    HW126984   4.502   3.313   1.159  1.2843 -2.3308 -1.0129
 5175SOL    HW226985   4.370   3.365   1.123 -0.5709  0.7802 -1.4424
 5176SOL     OW26986   2.587   4.517   4.577 -0.2018 -0.1483 -0.1579
 5176SOL    HW126987   2.656   4.489   4.517  1.1420  1.5109  0.6395
 5176SOL    HW226988   2.644   4.555   4.644 -2.3687  0.6039  1.2646
 5177SOL     OW26989   3.862   0.663   6.605  0.0096  0.2853 -0.0813
 5177SOL    HW126990   3.767   0.675   6.603  0.0489  0.7573  1.0770
 5177SOL    HW226991   3.877   0.656   6.511 -1.2751  2.4693 -0.4546
 5178SOL     OW26992   0.788   2.488   3.298  0.1077 -0.1469 -0.6155
 5178SOL    HW126993   0.710   2.541   3.315 -0.6399 -1.6470  0.5833
 5178SOL    HW226994   0.784   2.465   3.205  0.7661 -0.9709 -0.4437
 5179SOL     OW26995   3.015   2.934  16.475  0.6017 -0.1201 -0.4494
 5179SOL    HW126996   2.986   2.934  16.384 -0.8887  1.1732  0.0221
 5179SOL    HW226997   3.020   3.026  16.500 -0.2692 -0.2566  0.2176
 5180SOL     OW26998   3.946   4.150  12.955  0.6645 -0.5390 -0.0008
 5180SOL    HW126999   4.003   4.185  13.023  1.3148 -1.0364 -0.2913
 5180SOL    HW227000   3.953   4.214  12.885 -0.0678 -1.6239 -1.0722
 5181SOL     OW27001   2.594   3.246   6.338  0.2516 -0.0829  0.4055
 5181SOL    HW127002   2.544   3.303   6.279 -0.9960 -1.5771  0.0271
 5181SOL    HW227003   2.611   3.308   6.408 -2.6056  2.6044 -1.2872
 5182SOL     OW27004   1.691   2.531   4.263 -0.2055  0.0699 -0.5276
 5182SOL    HW127005   1.685   2.619   4.228 -2.9841  0.5095  0.9711
 5182SOL    HW227006   1.686   2.470   4.189  0.5077 -2.0011  1.0994
 5183SOL     OW27007   1.005   1.872   1.032  0.1824  0.6853  0.2291
 5183SOL    HW127008   0.981   1.814   1.104 -1.5625  1.6281  0.4044
 5183SOL    HW227009   1.061   1.933   1.079  0.0949  2.2115 -1.6771
 5184SOL     OW27010   3.491   3.442  11.350  1.3187  0.3228 -0.2862
 5184SOL    HW127011   3.467   3.404  11.435  0.4400  2.0626  0.2306
 5184SOL    HW227012   3.580   3.468  11.375  1.0143  0.5796  0.5357
 5185SOL     OW27013   3.203   0.589   4.066  0.0370 -0.2821 -0.5450
 5185SOL    HW127014   3.210   0.612   3.973 -2.9500  1.0177 -0.4457
 5185SOL    HW227015   3.124   0.641   4.082 -0.7318 -0.5444 -3.4738
 5186SOL     OW27016   1.699   0.192  10.681 -0.1764 -0.2311  0.0740
 5186SOL    HW127017   1.613   0.156  10.701 -0.0650 -0.1825  0.6449
 5186SOL    HW227018   1.676   0.284  10.697 -0.2742 -0.5485  1.6728
 5187SOL     OW27019   3.398   0.163  10.721  1.1373 -0.4076  0.5678
 5187SOL    HW127020   3.455   0.163  10.798  0.6690  0.3567  0.9176
 5187SOL    HW227021   3.327   0.213  10.762 -0.2906 -2.7400  0.9874
 5188SOL     OW27022   1.779   2.301  12.347 -0.2353 -0.3276 -0.0302
 5188SOL    HW127023   1.758   2.348  12.427  2.0832 -0.2597  0.5535
 5188SOL    HW227024   1.863   2.258  12.368 -0.5168 -1.9855 -2.2381
 5189SOL     OW27025   0.697   1.814   0.778 -0.6486  0.4127  0.1584
 5189SOL    HW127026   0.629   1.756   0.813 -1.0876  1.5167  1.1012
 5189SOL    HW227027   0.667   1.901   0.803 -0.5224  0.6141 -0.3850
 5190SOL     OW27028   1.418   0.463   5.828 -0.1161  0.3854 -0.2052
 5190SOL    HW127029   1.432   0.456   5.922 -0.7275  1.0467 -0.0638
 5190SOL    HW227030   1.446   0.555   5.818  4.2092 -1.0184 -1.4071
 5191SOL     OW27031   2.892   1.321   0.800 -0.0647 -0.2415 -0.4265
 5191SOL    HW127032   2.872   1.414   0.799  1.0290  0.0020  0.5021
 5191SOL    HW227033   2.881   1.310   0.705  1.9965  1.1193 -0.8217
 5192SOL     OW27034   0.030   0.535   4.988  0.0823  0.3691 -0.2531
 5192SOL    HW127035   0.112   0.537   5.038  1.1603  0.3351 -2.0026
 5192SOL    HW227036   0.063   0.502   4.905 -1.8130 -1.2636 -0.3566
 5193SOL     OW27037   1.142   2.667   6.077 -0.0881  0.3598  0.2182
 5193SOL    HW127038   1.217   2.619   6.113 -0.3414 -1.0638 -1.1620
 5193SOL    HW227039   1.086   2.665   6.154 -1.6057  0.7091 -0.8848
 5194SOL     OW27040   0.996   2.948  10.947  0.0117 -0.3955  0.3519
 5194SOL    HW127041   0.986   3.041  10.930 -0.7834 -0.4188  0.6740
 5194SOL    HW227042   0.924   2.914  10.893  0.3831  0.0203 -0.3961
 5195SOL     OW27043   1.113   2.278  14.196 -0.5590 -0.4064 -0.3039
 5195SOL    HW127044   1.040   2.339  14.191 -0.3481 -0.0695  0.7884
 5195SOL    HW227045   1.064   2.196  14.203  2.4598 -2.0597  1.7225
 5196SOL     OW27046   3.910   3.775   0.546  0.0207  0.4442  0.1341
 5196SOL    HW127047   3.980   3.821   0.500  0.5131  1.4815  1.9097
 5196SOL    HW227048   3.834   3.804   0.495  0.0916  0.1365 -0.1415
 5197SOL     OW27049   0.647   1.055  10.758  0.4002 -0.2419  0.2888
 5197SOL    HW127050   0.672   0.963  10.759 -0.1733 -0.4015 -0.8205
 5197SOL    HW227051   0.618   1.059  10.850  3.0038 -1.4359  1.1754
 5198SOL     OW27052   4.688   3.181   8.469  0.0862 -0.0082  0.2033
 5198SOL    HW127053   0.001   3.134   8.545  1.7664 -1.0132 -1.2015
 5198SOL    HW227054   0.007   3.119   8.409  3.4966  0.1730  2.3803
 5199SOL     OW27055   3.607   3.801  13.964 -0.3155  0.6427 -0.0956
 5199SOL    HW127056   3.627   3.890  13.992 -1.7970  0.9012  0.1562
 5199SOL    HW227057   3.637   3.748  14.037  1.4805  2.5949  0.5571
 5200SOL     OW27058   1.599   2.268   2.977 -0.0966 -0.2595  0.6825
 5200SOL    HW127059   1.648   2.258   2.895  0.4302  0.2882  0.9342
 5200SOL    HW227060   1.646   2.208   3.034  0.1474  0.5478  1.3242
 5201SOL     OW27061   3.740   4.145   7.897  0.2434 -0.3219  0.5003
 5201SOL    HW127062   3.736   4.049   7.902  1.4438 -0.5757 -3.3251
 5201SOL    HW227063   3.828   4.162   7.862 -1.0320 -1.4094 -3.2255
 5202SOL     OW27064   2.956   1.134  10.963  0.7327 -0.1164  0.0029
 5202SOL    HW127065   2.889   1.129  10.895  0.1773 -2.8696  0.7506
 5202SOL    HW227066   3.038   1.115  10.917  2.8834  2.0497  2.9609
 5203SOL     OW27067   2.791   3.242  11.238 -0.5263 -0.3054 -0.3992
 5203SOL    HW127068   2.801   3.153  11.204  1.3617 -0.8654  1.5599
 5203SOL    HW227069   2.837   3.292  11.171 -0.2463 -1.5426 -1.1219
 5204SOL     OW27070   1.323   1.860   9.718  0.5728 -0.0344 -0.3744
 5204SOL    HW127071   1.350   1.927   9.655 -3.0419  0.3806 -1.4640
 5204SOL    HW227072   1.271   1.904   9.786  1.4369 -1.7103  1.3584
 5205SOL     OW27073   0.046   1.709   6.140 -0.2986  0.9156 -0.3603
 5205SOL    HW127074   0.010   1.663   6.216  0.4802  0.3320 -0.3375
 5205SOL    HW227075   0.053   1.635   6.080  1.4674 -0.1843  1.1976
 5206SOL     OW27076   4.316   1.817   7.288 -0.2319  0.7639  0.5448
 5206SOL    HW127077   4.373   1.762   7.340 -1.4841 -1.8772 -0.8998
 5206SOL    HW227078   4.300   1.886   7.352  0.4314  1.9208 -0.5341
 5207SOL     OW27079   1.437   1.149   1.235 -0.2519 -1.0886 -0.2162
 5207SOL    HW127080   1.374   1.221   1.225 -0.4495 -1.2583 -0.2131
 5207SOL    HW227081   1.491   1.162   1.157 -0.0711  0.9035  0.2344
 5208SOL     OW27082   1.359   1.035   5.236 -0.3548  0.1255 -0.8031
 5208SOL    HW127083   1.374   0.992   5.320 -0.8038  2.1683  0.3207
 5208SOL    HW227084   1.277   0.994   5.207 -0.5596  0.6409 -0.9445
 5209SOL     OW27085   2.277   2.694  16.464  0.0186  0.4361  0.3799
 5209SOL    HW127086   2.325   2.715  16.544 -0.6083 -1.1128  1.1534
 5209SOL    HW227087   2.256   2.783  16.434  0.9649 -0.1175 -1.8700
 5210SOL     OW27088   1.777   2.510   8.739 -0.0980 -0.3589 -0.3101
 5210SOL    HW127089   1.824   2.566   8.677  0.2584  1.9549  2.0594
 5210SOL    HW227090   1.821   2.536   8.820  0.0593 -2.0467  0.1522
 5211SOL     OW27091   4.210   4.267  12.474 -0.0662  0.0082  0.4125
 5211SOL    HW127092   4.167   4.273  12.389  0.7368 -2.0911 -0.1371
 5211SOL    HW227093   4.176   4.341  12.526  0.3955  0.6742 -0.2466
 5212SOL     OW27094   1.744   0.592  13.686  0.2116 -0.5927  0.1906
 5212SOL    HW127095   1.666   0.537  13.675  2.5593 -3.5624 -1.6658
 5212SOL    HW227096   1.704   0.669  13.646  0.5699 -0.4643  0.0802
 5213SOL     OW27097   0.181   4.490   9.408  0.3979 -0.0689  0.4550
 5213SOL    HW127098   0.134   4.501   9.491 -1.3556  2.1579 -0.8260
 5213SOL    HW227099   0.216   4.401   9.418  0.5838 -0.1221 -0.7351
 5214SOL     OW27100   4.566   0.468   4.151 -0.0959  0.6173  0.5873
 5214SOL    HW127101   4.650   0.427   4.172 -0.8563 -0.4130  1.5640
 5214SOL    HW227102   4.588   0.513   4.070 -1.0173  0.2434  0.1357
 5215SOL     OW27103   3.839   4.528   8.304  0.0317 -0.2599 -0.1981
 5215SOL    HW127104   3.787   4.449   8.314 -0.4201  0.1851  0.9435
 5215SOL    HW227105   3.786   4.593   8.350  0.8702 -1.0485  1.8757
 5216SOL     OW27106   2.758   0.950   0.921  0.1004 -0.6406  0.3816
 5216SOL    HW127107   2.671   0.913   0.903 -0.9758  2.0138  0.1885
 5216SOL    HW227108   2.736   1.011   0.991  1.1053 -0.2400  0.3467
 5217SOL     OW27109   3.985   2.594  10.679  0.2422 -0.4556 -0.0650
 5217SOL    HW127110   4.044   2.665  10.653  0.4851 -0.2320  1.1086
 5217SOL    HW227111   4.039   2.523  10.645 -1.7542 -0.7859 -2.5221
 5218SOL     OW27112   1.889   2.265  11.672  0.1879  0.3943 -0.2453
 5218SOL    HW127113   1.965   2.271  11.614  1.1318 -0.8578  0.8587
 5218SOL    HW227114   1.873   2.358  11.682  0.5113  0.5346 -1.0220
 5219SOL     OW27115   2.498   3.206   1.510  0.6260 -0.2874 -0.5367
 5219SOL    HW127116   2.461   3.185   1.596 -0.6508  1.7455 -0.5773
 5219SOL    HW227117   2.541   3.289   1.532  0.0604  0.0887 -0.8544
 5220SOL     OW27118   0.811   2.911  17.204  0.0125  0.2788 -0.3601
 5220SOL    HW127119   0.717   2.899  17.213  0.1484 -0.1900  0.4632
 5220SOL    HW227120   0.809   3.001  17.236  2.3118  0.2759 -0.2077
 5221SOL     OW27121   1.877   3.636   9.475  0.0249  0.4166 -0.1924
 5221SOL    HW127122   1.799   3.652   9.421 -1.4065 -0.3243  1.6910
 5221SOL    HW227123   1.858   3.680   9.557 -0.7549 -1.4718  0.6306
 5222SOL     OW27124   3.529   3.483   2.313 -1.1240 -0.6644  0.3380
 5222SOL    HW127125   3.620   3.514   2.313 -1.3624  0.0195 -1.0267
 5222SOL    HW227126   3.543   3.391   2.332  0.9083 -0.6087 -0.9724
 5223SOL     OW27127   3.121   0.219   2.601 -0.0577 -0.0689  0.2375
 5223SOL    HW127128   3.098   0.136   2.559  1.5494 -0.1660 -0.4662
 5223SOL    HW227129   3.198   0.193   2.653 -1.1320  0.8349  2.2562
 5224SOL     OW27130   3.054   0.049   3.374  0.0053  0.0373 -0.2289
 5224SOL    HW127131   2.993   0.023   3.305  3.3280 -2.2355 -2.2656
 5224SOL    HW227132   3.129   0.045   3.316  0.6491 -0.2080  0.6257
 5225SOL     OW27133   0.218   3.526   9.702 -0.1137 -0.5486  0.8245
 5225SOL    HW127134   0.143   3.488   9.657  0.7240  0.1020 -1.1360
 5225SOL    HW227135   0.175   3.604   9.737  1.7270  1.3251 -1.0448
 5226SOL     OW27136   4.258   2.206   0.467  0.0424 -0.1508  0.4299
 5226SOL    HW127137   4.177   2.182   0.421 -0.5812  4.8714 -1.0754
 5226SOL    HW227138   4.231   2.276   0.526 -0.0043 -0.8948  1.3024
 5227SOL     OW27139   4.097   2.838   3.320  0.1124  0.0843  0.0568
 5227SOL    HW127140   4.087   2.890   3.400 -1.6451 -0.2531  0.0654
 5227SOL    HW227141   4.091   2.909   3.257 -0.3176 -1.8267 -2.0530
 5228SOL     OW27142   2.987   0.749   3.430  0.3412 -0.0466 -0.1131
 5228SOL    HW127143   2.893   0.729   3.435 -0.0645  2.0690  0.3877
 5228SOL    HW227144   2.998   0.796   3.347  0.7247 -0.5995 -0.3742
 5229SOL     OW27145   1.434   0.140   4.164  0.3226  0.7984 -0.1209
 5229SOL    HW127146   1.451   0.111   4.254 -0.9425  0.8641  0.1529
 5229SOL    HW227147   1.475   0.068   4.116  0.6654 -0.0281  1.4058
 5230SOL     OW27148   2.528   3.743   6.637 -0.1593 -0.4235  0.0816
 5230SOL    HW127149   2.472   3.715   6.711 -1.5121 -1.2030 -1.2371
 5230SOL    HW227150   2.594   3.793   6.685 -0.5570  0.9868 -0.8483
 5231SOL     OW27151   4.080   0.511   8.640  0.1294 -0.1241  0.4497
 5231SOL    HW127152   4.127   0.582   8.595  2.3199 -2.0267 -0.2878
 5231SOL    HW227153   4.146   0.495   8.708  0.3098 -0.6043  0.1608
 5232SOL     OW27154   4.195   1.599   6.141  0.3884 -0.1082  0.0486
 5232SOL    HW127155   4.116   1.550   6.118 -1.8186  3.0491  0.9636
 5232SOL    HW227156   4.208   1.647   6.059 -0.7537  0.2841  0.0947
 5233SOL     OW27157   2.994   2.703   8.555 -0.0806  0.2474  0.1331
 5233SOL    HW127158   2.992   2.769   8.624 -0.3348 -0.7896  1.1171
 5233SOL    HW227159   2.981   2.753   8.474 -0.4233  0.6102  0.4176
 5234SOL     OW27160   4.577   1.116  12.668  0.3006 -0.3655  0.6463
 5234SOL    HW127161   4.499   1.083  12.714 -1.7202  0.8472 -1.9208
 5234SOL    HW227162   4.561   1.113  12.574  2.2941 -2.0980  0.3748
 5235SOL     OW27163   1.652   0.614   8.432 -0.3544 -0.1055 -0.4311
 5235SOL    HW127164   1.725   0.639   8.490 -1.0428 -0.4365  0.5735
 5235SOL    HW227165   1.582   0.631   8.496  0.1943  0.4516  0.0310
 5236SOL     OW27166   4.398   4.509   9.784 -0.6281 -0.5009  0.2342
 5236SOL    HW127167   4.334   4.449   9.824 -0.8624 -0.1668  0.3623
 5236SOL    HW227168   4.475   4.456   9.803 -0.2054 -0.0195 -0.1467
 5237SOL     OW27169   0.534   0.073   2.955 -0.2116 -0.2753 -0.1299
 5237SOL    HW127170   0.601   0.139   2.937  0.0982 -1.6566 -4.0931
 5237SOL    HW227171   0.584   4.720   2.923  1.4313  0.3278  1.0038
 5238SOL     OW27172   3.601   0.967   2.651  0.2318  0.0623  0.1023
 5238SOL    HW127173   3.519   0.932   2.685  1.3717  0.4862  3.2457
 5238SOL    HW227174   3.623   0.917   2.572 -0.8745  0.5529 -0.5189
 5239SOL     OW27175   2.315   3.872   7.234  0.3112 -0.2526 -0.5523
 5239SOL    HW127176   2.238   3.855   7.288 -0.3329  1.2772 -0.9840
 5239SOL    HW227177   2.273   3.945   7.187  0.1478  0.0343  0.0448
 5240SOL     OW27178   3.185   0.231   6.378  0.2253  0.2189  0.3304
 5240SOL    HW127179   3.102   0.277   6.372 -0.4300 -0.9845  0.2108
 5240SOL    HW227180   3.250   0.301   6.376 -0.3620  0.7638  0.6836
 5241SOL     OW27181   0.394   4.175   4.542 -0.3976  0.1494 -0.0552
 5241SOL    HW127182   0.421   4.170   4.634  3.5845  2.3138 -1.0844
 5241SOL    HW227183   0.482   4.161   4.505 -0.3016 -0.5294  0.4280
 5242SOL     OW27184   2.378   2.126   7.333  0.3344  0.1682  0.4041
 5242SOL    HW127185   2.352   2.101   7.245  1.8727 -1.3684  0.3834
 5242SOL    HW227186   2.344   2.046   7.373  0.3542 -0.3908 -0.7260
 5243SOL     OW27187   1.505   0.770   4.659  0.2622 -0.2915  0.1249
 5243SOL    HW127188   1.574   0.731   4.606  0.3395 -0.7028  0.5337
 5243SOL    HW227189   1.502   0.857   4.618 -1.6456  0.1616  1.1975
 5244SOL     OW27190   1.147   3.561  12.696  0.3769 -0.1121  0.1794
 5244SOL    HW127191   1.224   3.585  12.747  0.7424 -1.9988  0.5174
 5244SOL    HW227192   1.113   3.484  12.743 -0.7825  0.6155  0.5379
 5245SOL     OW27193   1.419   1.780  13.041  0.2271  0.3045 -0.7275
 5245SOL    HW127194   1.403   1.855  13.098  3.5141 -1.2094  2.1186
 5245SOL    HW227195   1.498   1.800  12.990  1.9909  1.6993  2.6031
 5246SOL     OW27196   2.630   0.209   3.416  0.0710  0.0796 -0.0888
 5246SOL    HW127197   2.595   0.143   3.356 -0.4399 -0.5871  0.9446
 5246SOL    HW227198   2.552   0.247   3.458 -0.3977 -2.6045  1.4245
 5247SOL     OW27199   3.523   1.131   8.765 -0.0690 -0.3942  0.2411
 5247SOL    HW127200   3.594   1.074   8.736  1.7950  2.1404 -0.2175
 5247SOL    HW227201   3.539   1.131   8.860 -2.3484  2.3983  0.6015
 5248SOL     OW27202   3.333   1.252   5.365  0.4197  0.1903  0.0606
 5248SOL    HW127203   3.392   1.179   5.343  0.1307 -0.2887  0.9043
 5248SOL    HW227204   3.373   1.313   5.303 -1.2112 -0.4847 -1.6624
 5249SOL     OW27205   3.127   4.382   6.145 -0.6081 -0.5857  0.1191
 5249SOL    HW127206   3.097   4.371   6.055 -0.7322 -0.2228  0.1178
 5249SOL    HW227207   3.095   4.300   6.183 -0.0413 -1.1338 -0.5884
 5250SOL     OW27208   2.134   4.586   5.359 -0.3458  0.7432 -0.6572
 5250SOL    HW127209   2.123   4.554   5.449 -1.1505 -2.7744 -1.9831
 5250SOL    HW227210   2.134   4.502   5.312 -1.7427  1.3928 -1.8157
 5251SOL     OW27211   3.376   0.928   4.461  0.3344 -0.4504  0.3700
 5251SOL    HW127212   3.375   0.833   4.444  2.3320 -0.3744 -0.1801
 5251SOL    HW227213   3.380   0.965   4.373 -1.1333  0.8095  0.8434
 5252SOL     OW27214   1.418   2.476   8.936  0.6698  0.1170  0.2719
 5252SOL    HW127215   1.505   2.516   8.942  0.7241  0.1770 -0.8549
 5252SOL    HW227216   1.448   2.394   8.897 -0.1719 -0.2714  0.4536
 5253SOL     OW27217   2.398   0.031  14.828 -0.1440 -0.1461 -0.8773
 5253SOL    HW127218   2.393   4.671  14.780 -0.0630  0.7996 -2.5060
 5253SOL    HW227219   2.466   0.013  14.893  0.3531  4.0602 -0.2409
 5254SOL     OW27220   0.693   2.219  14.686 -0.3505  0.1181  0.0613
 5254SOL    HW127221   0.633   2.234  14.759  1.0540  1.2111  0.9846
 5254SOL    HW227222   0.636   2.172  14.626 -1.2756  2.0354 -0.5714
 5255SOL     OW27223   1.508   2.098  17.266 -0.8957 -1.0128  0.0090
 5255SOL    HW127224   1.550   2.143  17.340  0.5307 -0.0347 -1.4047
 5255SOL    HW227225   1.561   2.020  17.253  2.1567  0.9440  0.6959
 5256SOL     OW27226   0.489   1.967   1.531 -0.2107 -0.0370  0.4500
 5256SOL    HW127227   0.450   1.890   1.573 -0.2851  0.8248  1.9254
 5256SOL    HW227228   0.449   2.046   1.568 -1.1908 -0.5502  0.4933
 5257SOL     OW27229   1.637   2.176   3.875 -0.7665  0.5397 -0.0087
 5257SOL    HW127230   1.601   2.211   3.794 -0.0612 -1.8870 -1.3720
 5257SOL    HW227231   1.689   2.103   3.841 -1.7841 -1.1772  2.0594
 5258SOL     OW27232   1.813   0.485   4.435 -0.3169  0.3069  0.1543
 5258SOL    HW127233   1.779   0.436   4.360  0.1807 -0.5989  0.5143
 5258SOL    HW227234   1.812   0.418   4.505 -1.2111 -0.5329 -0.6642
 5259SOL     OW27235   1.328   3.320   8.396 -0.6095 -0.4396 -0.1632
 5259SOL    HW127236   1.379   3.248   8.360 -2.9237  0.0841 -4.5506
 5259SOL    HW227237   1.336   3.386   8.327 -0.0314 -1.5105 -1.1099
 5260SOL     OW27238   1.853   3.717   8.757  0.6405  0.5136 -0.7865
 5260SOL    HW127239   1.790   3.694   8.689  1.5112 -2.7360 -0.5105
 5260SOL    HW227240   1.923   3.747   8.700  1.5266  0.4650  0.2686
 5261SOL     OW27241   3.191   4.698   5.954 -0.1291 -0.2915  0.0921
 5261SOL    HW127242   3.130   4.680   5.882 -0.1411 -0.3308  0.1115
 5261SOL    HW227243   3.128   4.721   6.021 -1.2098  2.1881 -1.7897
 5262SOL     OW27244   2.962   0.730   4.123  0.6686 -0.4343 -0.0886
 5262SOL    HW127245   2.982   0.745   4.216  0.6012 -0.1473 -0.1228
 5262SOL    HW227246   2.895   0.789   4.090  1.4141  1.0222  1.0097
 5263SOL     OW27247   1.001   1.738   6.305  0.6304  0.1065  0.2717
 5263SOL    HW127248   0.957   1.801   6.248 -0.4231 -1.7748 -1.0134
 5263SOL    HW227249   0.991   1.776   6.392  2.9694  0.1566  0.5301
 5264SOL     OW27250   0.743   0.152   0.565 -0.0788  0.0694  0.1367
 5264SOL    HW127251   0.810   0.220   0.555 -0.5438  0.4343 -0.5498
 5264SOL    HW227252   0.702   0.175   0.649 -2.0691 -2.4637 -0.1551
 5265SOL     OW27253   2.668   3.583   5.597  0.7591  0.3004  0.5419
 5265SOL    HW127254   2.754   3.590   5.637  1.3883 -0.5453 -0.6807
 5265SOL    HW227255   2.623   3.521   5.655  0.2971 -1.0518 -1.2672
 5266SOL     OW27256   1.114   0.580   1.983  0.6716 -0.4275  0.3652
 5266SOL    HW127257   1.046   0.645   2.002  0.9625  0.3046 -1.0878
 5266SOL    HW227258   1.193   0.635   1.978  0.3279  0.0814  0.4848
 5267SOL     OW27259   2.416   2.687   8.916 -0.0124 -0.0722  0.5694
 5267SOL    HW127260   2.492   2.744   8.921 -0.5162  0.7083 -0.5956
 5267SOL    HW227261   2.369   2.739   8.851 -0.0025  0.8496  1.3072
 5268SOL     OW27262   4.172   1.213   5.423  0.2619 -0.4550  0.4781
 5268SOL    HW127263   4.191   1.134   5.371 -2.5652 -0.9305  0.1927
 5268SOL    HW227264   4.129   1.178   5.501 -0.3469  0.3034  0.4739
 5269SOL     OW27265   2.259   4.656  16.700  0.0574  0.3419 -0.3582
 5269SOL    HW127266   2.240   4.621  16.613  0.8387 -2.1424  0.4743
 5269SOL    HW227267   2.345   4.695  16.683 -1.0396  2.0904 -1.8791
 5270SOL     OW27268   4.455   4.414   6.223 -0.1348  0.0088  0.2527
 5270SOL    HW127269   4.409   4.337   6.189  1.2470 -0.6988 -0.0232
 5270SOL    HW227270   4.386   4.478   6.240  0.3324  0.7606 -0.6428
 5271SOL     OW27271   1.840   0.424   9.390 -1.1553  0.1430 -0.1561
 5271SOL    HW127272   1.814   0.411   9.481  3.3413  0.8776  1.2484
 5271SOL    HW227273   1.759   0.424   9.340 -1.6284  1.1399  0.6009
 5272SOL     OW27274   0.224   2.746   8.196 -0.4901 -0.1375  0.0752
 5272SOL    HW127275   0.284   2.723   8.267  0.0959 -2.8326 -1.3015
 5272SOL    HW227276   0.285   2.744   8.123 -1.0465 -0.2834 -0.3881
 5273SOL     OW27277   0.366   1.369   7.633  0.2691  0.3373 -0.2213
 5273SOL    HW127278   0.302   1.333   7.572 -0.7354 -1.8928  2.1852
 5273SOL    HW227279   0.302   1.415   7.687 -1.2229 -2.7590  0.6163
 5274SOL     OW27280   1.196   2.180   2.276 -0.4804 -0.1070 -0.2666
 5274SOL    HW127281   1.117   2.156   2.326  0.1065 -2.4820 -0.4648
 5274SOL    HW227282   1.173   2.266   2.241  0.7361  0.3168  0.0091
 5275SOL     OW27283   3.955   1.721   4.849 -0.0609 -0.1297 -0.4875
 5275SOL    HW127284   3.861   1.720   4.868  0.4423 -1.7907  1.8826
 5275SOL    HW227285   3.976   1.806   4.887 -1.7812 -1.3201  3.1293
 5276SOL     OW27286   0.505   0.430   7.626  0.2376 -0.3338  0.3388
 5276SOL    HW127287   0.572   0.443   7.558 -0.3473  0.7771 -0.0245
 5276SOL    HW227288   0.510   0.508   7.681  0.8735 -1.3443  1.7002
 5277SOL     OW27289   0.053   3.174   4.911 -0.5005 -0.5485 -0.4448
 5277SOL    HW127290   0.111   3.103   4.935 -0.8238 -0.2136  1.3739
 5277SOL    HW227291   4.707   3.139   4.854 -0.7467 -0.6855 -0.0662
 5278SOL     OW27292   0.443   2.346   5.725 -0.3141  0.1039 -0.4990
 5278SOL    HW127293   0.464   2.322   5.635  0.1978 -1.6960  0.1214
 5278SOL    HW227294   0.394   2.428   5.716 -0.0986 -0.0283 -2.8057
 5279SOL     OW27295   3.805   4.196   4.089  0.3101  0.1329  0.5401
 5279SOL    HW127296   3.827   4.166   4.001  0.6941 -1.2758  1.1148
 5279SOL    HW227297   3.890   4.194   4.133  0.9634  2.1775 -0.6241
 5280SOL     OW27298   2.767   2.454   8.611  1.0873 -0.4354 -0.0538
 5280SOL    HW127299   2.747   2.546   8.594  1.6970 -0.6900 -2.2055
 5280SOL    HW227300   2.829   2.463   8.683 -0.4247 -2.9470  1.5691
 5281SOL     OW27301   1.024   3.874  12.530 -0.4586  0.3917  0.8398
 5281SOL    HW127302   1.046   3.945  12.590  0.7276 -0.1885  1.0852
 5281SOL    HW227303   1.085   3.879  12.456  0.0517 -1.1352  1.1566
 5282SOL     OW27304   1.692   0.783   1.030 -0.0805 -0.0261  0.6555
 5282SOL    HW127305   1.654   0.755   0.947 -0.3614  1.6054  0.2444
 5282SOL    HW227306   1.769   0.823   0.992 -1.5686  0.7594 -1.4858
 5283SOL     OW27307   3.846   3.643  16.894 -0.0318 -0.3041 -0.1471
 5283SOL    HW127308   3.847   3.689  16.978 -0.0323 -0.0802 -0.2706
 5283SOL    HW227309   3.920   3.687  16.851  0.0934  0.0138  0.3978
 5284SOL     OW27310   3.251   1.785   5.782 -0.6963  0.5655  0.5463
 5284SOL    HW127311   3.296   1.726   5.843 -1.0077 -2.3842 -2.0671
 5284SOL    HW227312   3.175   1.735   5.751  0.1423 -1.2367  1.4068
 5285SOL     OW27313   0.731   1.637   6.555  0.4699  0.2050 -0.2738
 5285SOL    HW127314   0.823   1.613   6.539  0.5468  0.8694 -0.8153
 5285SOL    HW227315   0.673   1.584   6.500  2.4020 -2.9534  0.7000
 5286SOL     OW27316   2.383   2.904   9.292  0.5091 -0.1590  0.0011
 5286SOL    HW127317   2.358   2.980   9.239 -0.9316  1.0679  2.4508
 5286SOL    HW227318   2.311   2.900   9.355 -0.8735  1.3968 -1.4401
 5287SOL     OW27319   0.366   1.603   0.144 -0.1997  0.4098 -0.2377
 5287SOL    HW127320   0.454   1.567   0.133  0.0228  1.6894 -2.5112
 5287SOL    HW227321   0.316   1.529   0.110  1.6336 -0.9781  0.0804
 5288SOL     OW27322   3.009   0.123   7.022  0.5422  0.1563 -0.1076
 5288SOL    HW127323   3.055   0.049   7.063 -0.2380 -0.1575  0.1915
 5288SOL    HW227324   3.082   0.179   6.995 -0.3469  1.4829  0.2358
 5289SOL     OW27325   0.871   0.915   4.208 -0.7184  0.6321  0.6940
 5289SOL    HW127326   0.828   0.877   4.284 -2.1099 -1.3779 -1.1021
 5289SOL    HW227327   0.843   1.004   4.230  0.9811  0.9810  1.3969
 5290SOL     OW27328   2.577   3.202   3.185  0.6668 -0.2704  0.1461
 5290SOL    HW127329   2.484   3.181   3.185  0.2012  1.8111  2.0614
 5290SOL    HW227330   2.603   3.123   3.137  3.8880  1.3714 -0.8603
 5291SOL     OW27331   3.658   1.408   4.730 -0.1938 -0.2660 -0.1187
 5291SOL    HW127332   3.713   1.478   4.697  0.3909  0.7313  3.0380
 5291SOL    HW227333   3.717   1.333   4.735  2.5206  2.2575  4.7384
 5292SOL     OW27334   1.662   3.893   2.683  0.2005  0.5139  0.4360
 5292SOL    HW127335   1.698   3.972   2.644 -0.6927  2.6542  3.9616
 5292SOL    HW227336   1.568   3.905   2.697 -0.2367  1.8737 -3.5753
 5293SOL     OW27337   4.664   0.135   8.631  0.4983  0.6109 -0.7595
 5293SOL    HW127338   4.583   0.114   8.584  0.3592 -1.4549  0.3838
 5293SOL    HW227339   4.722   0.064   8.603 -0.7716 -0.1527 -1.5069
 5294SOL     OW27340   1.249   0.124   9.477 -0.0725  0.3356 -0.4854
 5294SOL    HW127341   1.231   0.215   9.453 -2.5767 -0.5598 -1.9960
 5294SOL    HW227342   1.174   0.078   9.441  1.0458 -0.6365 -1.5691
 5295SOL     OW27343   0.564   3.346   5.173  0.0428 -0.0428  0.0183
 5295SOL    HW127344   0.632   3.407   5.145  0.5403 -0.2151  0.8666
 5295SOL    HW227345   0.546   3.375   5.262  0.5282  2.7359 -0.7961
 5296SOL     OW27346   2.640   2.886  17.661 -0.5707 -0.6216 -0.0764
 5296SOL    HW127347   2.656   2.937   0.048  1.4140  1.5522 -1.9059
 5296SOL    HW227348   2.607   2.807   0.012 -2.9907  0.1419 -0.5364
 5297SOL     OW27349   3.539   1.456   6.519 -0.4337  0.5875 -0.0351
 5297SOL    HW127350   3.631   1.435   6.534 -0.2871 -0.1000 -1.9475
 5297SOL    HW227351   3.493   1.383   6.559 -0.0077  0.4644  0.2323
 5298SOL     OW27352   2.396   3.953   4.854  0.9248 -0.0429  0.5852
 5298SOL    HW127353   2.409   3.896   4.930 -1.4208  0.4350  1.3540
 5298SOL    HW227354   2.392   4.037   4.898  0.3086  0.0515  0.3489
 5299SOL     OW27355   4.251   3.752  10.289 -0.1518  0.1422  0.0540
 5299SOL    HW127356   4.311   3.814  10.328 -0.8708  0.6462  0.3604
 5299SOL    HW227357   4.251   3.783  10.198 -0.1804  1.0336  0.3659
 5300SOL     OW27358   4.668   1.168  10.162  0.1274 -0.4947 -0.2726
 5300SOL    HW127359   4.596   1.230  10.150  0.6302  0.3852  1.3262
 5300SOL    HW227360   4.641   1.103  10.097  1.4450 -1.8026  0.4956
 5301SOL     OW27361   0.634   3.273   4.420  0.1947 -0.6942  0.3525
 5301SOL    HW127362   0.630   3.316   4.505 -0.4732  0.0797 -0.0740
 5301SOL    HW227363   0.665   3.189   4.454  1.5438 -0.4199 -0.1563
 5302SOL     OW27364   0.960   0.993   8.741 -0.4961  0.5064  0.5646
 5302SOL    HW127365   1.036   1.052   8.741  0.8656 -1.2645  1.5124
 5302SOL    HW227366   0.994   0.909   8.711 -0.6071  0.1168  1.5291
 5303SOL     OW27367   3.809   2.106   9.222  0.4406 -0.3851 -0.1121
 5303SOL    HW127368   3.715   2.105   9.237  0.5480  0.3735  0.5963
 5303SOL    HW227369   3.819   2.166   9.148 -2.1037  0.4237  0.2235
 5304SOL     OW27370   3.535   1.803   4.571  0.1564  0.1074 -0.0689
 5304SOL    HW127371   3.501   1.891   4.554  0.9208 -0.2115 -3.3229
 5304SOL    HW227372   3.505   1.785   4.660 -3.1115  0.9493 -0.9986
 5305SOL     OW27373   3.181   0.087   8.495  0.4468 -0.4940  0.1698
 5305SOL    HW127374   3.144   0.129   8.416 -1.1719 -0.4524  0.9438
 5305SOL    HW227375   3.188   0.160   8.556  1.5174 -0.7300  0.3173
 5306SOL     OW27376   2.686   1.418   1.388  0.0548  0.6216  0.3688
 5306SOL    HW127377   2.605   1.368   1.382  0.8762 -0.5941 -0.6967
 5306SOL    HW227378   2.651   1.507   1.383 -3.3748 -0.6686  1.2933
 5307SOL     OW27379   2.494   1.424  11.484 -0.1729 -0.3309 -0.3590
 5307SOL    HW127380   2.540   1.341  11.501 -0.7724 -0.4420  0.6590
 5307SOL    HW227381   2.565   1.475  11.443 -0.7912  1.3919  0.7388
 5308SOL     OW27382   2.853   3.303  16.787 -0.4985  0.1490  0.0826
 5308SOL    HW127383   2.820   3.213  16.786  2.0573 -0.7801 -1.7907
 5308SOL    HW227384   2.880   3.304  16.695 -0.4483 -1.2944  0.0795
 5309SOL     OW27385   3.844   2.921  17.172 -0.6516  0.9861  0.1368
 5309SOL    HW127386   3.892   3.003  17.185 -0.9141  0.9395  1.4122
 5309SOL    HW227387   3.909   2.857  17.199  0.0329  1.0184 -1.4634
 5310SOL     OW27388   0.860   1.651   4.842 -0.4148 -0.4478 -0.3835
 5310SOL    HW127389   0.798   1.686   4.778 -2.1532  1.4105  2.3138
 5310SOL    HW227390   0.931   1.629   4.782 -0.2263  0.0965 -0.3526
 5311SOL     OW27391   2.152   3.954   0.418  0.2852  0.4647  0.4154
 5311SOL    HW127392   2.131   3.922   0.330  1.9592  0.5317 -0.0005
 5311SOL    HW227393   2.091   4.028   0.422  0.2724  0.4311  0.8020
 5312SOL     OW27394   3.496   1.140   2.280  0.2569  0.0109  0.4606
 5312SOL    HW127395   3.556   1.105   2.214  2.0195  1.5178  1.2871
 5312SOL    HW227396   3.553   1.202   2.325  2.9630 -0.0059 -2.9370
 5313SOL     OW27397   1.606   0.544   3.898 -0.2715 -0.1933  0.1891
 5313SOL    HW127398   1.629   0.636   3.913  0.1279 -0.1916 -0.4278
 5313SOL    HW227399   1.551   0.535   3.976  2.1239  2.2070  2.1515
 5314SOL     OW27400   2.362   2.543   7.398  0.2830  0.1386  0.5828
 5314SOL    HW127401   2.353   2.637   7.382 -0.3798 -0.3957 -2.2172
 5314SOL    HW227402   2.314   2.519   7.319  0.4303 -0.7853  0.7776
 5315SOL     OW27403   0.757   3.385   6.504  1.1603 -0.1766  0.6681
 5315SOL    HW127404   0.677   3.415   6.548  2.4127 -1.9921  4.1859
 5315SOL    HW227405   0.786   3.326   6.574 -1.7056 -2.1689  0.1790
 5316SOL     OW27406   2.631   1.984   5.876  0.0829  0.0680  0.1863
 5316SOL    HW127407   2.657   1.986   5.968  2.5786 -0.9442 -0.5097
 5316SOL    HW227408   2.712   2.015   5.834  0.3268  0.4088  0.9077
 5317SOL     OW27409   1.299   0.247   8.591 -0.0427  0.8502  0.6152
 5317SOL    HW127410   1.339   0.166   8.622 -3.4152 -1.3397 -0.6829
 5317SOL    HW227411   1.367   0.281   8.533  0.5547 -0.6465  0.4415
 5318SOL     OW27412   1.127   4.250  10.687  0.3616 -0.1799  0.2412
 5318SOL    HW127413   1.067   4.318  10.657  1.0506  0.0533 -0.6003
 5318SOL    HW227414   1.206   4.254  10.633  0.8995 -2.5944  0.8446
 5319SOL     OW27415   2.273   0.734   5.459  0.2969  0.0817 -0.5223
 5319SOL    HW127416   2.258   0.800   5.526  0.2974  0.1634 -0.6035
 5319SOL    HW227417   2.217   0.760   5.385 -0.5819 -0.7952 -0.1694
 5320SOL     OW27418   2.288   2.125   2.828 -0.4896 -0.1694  0.2162
 5320SOL    HW127419   2.202   2.164   2.842 -1.6753 -2.8535  0.4061
 5320SOL    HW227420   2.303   2.075   2.908  0.3339  0.1389  0.2573
 5321SOL     OW27421   3.969   4.462  15.408 -0.1913  0.1190 -0.1028
 5321SOL    HW127422   3.979   4.430  15.498 -0.4410  0.5041  0.0661
 5321SOL    HW227423   4.059   4.466  15.374 -0.9826 -2.7249 -2.4751
 5322SOL     OW27424   1.893   1.540   1.224  0.1485  0.0252 -0.0615
 5322SOL    HW127425   1.920   1.448   1.216 -0.4661 -0.0187 -1.6685
 5322SOL    HW227426   1.964   1.579   1.276 -0.4478  0.7531  0.2005
 5323SOL     OW27427   1.990   2.479   6.398 -0.2252 -0.2099  0.1086
 5323SOL    HW127428   2.083   2.476   6.376 -0.8432  1.1824 -2.6997
 5323SOL    HW227429   1.975   2.387   6.421 -0.1382 -0.3601 -0.4219
 5324SOL     OW27430   3.958   1.497   3.666 -0.5914 -0.1599 -0.3476
 5324SOL    HW127431   4.032   1.545   3.702  0.0327 -1.9771  0.7963
 5324SOL    HW227432   3.995   1.418   3.627 -0.1212  0.0874 -0.4007
 5325SOL     OW27433   3.960   3.332   2.469  0.1287 -0.0186 -0.2253
 5325SOL    HW127434   4.034   3.329   2.409 -0.1009 -2.4058 -0.4101
 5325SOL    HW227435   3.926   3.414   2.434  2.1142  1.1460  0.5799
 5326SOL     OW27436   2.095   4.247   7.753 -0.3447 -0.0187 -0.5001
 5326SOL    HW127437   2.158   4.182   7.784 -1.0607 -1.2797 -1.6398
 5326SOL    HW227438   2.096   4.218   7.661  1.7636  0.3342 -0.5857
 5327SOL     OW27439   3.984   1.073   7.343  0.1175 -0.2337  0.1922
 5327SOL    HW127440   4.021   0.996   7.387 -0.3326 -0.5833 -0.0457
 5327SOL    HW227441   4.059   1.132   7.354  0.1509 -0.3912  0.8148
 5328SOL     OW27442   3.439   3.754   3.429  0.3295  0.0345 -0.0844
 5328SOL    HW127443   3.458   3.691   3.360  1.6887 -0.9756  1.2166
 5328SOL    HW227444   3.346   3.740   3.446  0.1499  0.4236 -0.7567
 5329SOL     OW27445   3.380   2.297   1.060  0.0679 -0.1003  0.2877
 5329SOL    HW127446   3.452   2.241   1.033  0.2097  0.6850 -0.9566
 5329SOL    HW227447   3.342   2.245   1.131 -2.8228  1.7902  0.1364
 5330SOL     OW27448   3.573   3.596  12.509  0.2043 -0.0345  0.2511
 5330SOL    HW127449   3.580   3.561  12.420 -1.2034 -0.7275  0.4092
 5330SOL    HW227450   3.609   3.683  12.494  1.9527 -0.8275 -0.1068
 5331SOL     OW27451   3.844   2.795   4.105 -0.1917  0.2657 -0.8729
 5331SOL    HW127452   3.776   2.739   4.141  1.4511 -0.3124  1.3196
 5331SOL    HW227453   3.910   2.730   4.079 -0.4444 -1.1026  1.9531
 5332SOL     OW27454   0.381   1.768   7.281 -0.3109  0.3429  0.7449
 5332SOL    HW127455   0.307   1.829   7.278 -0.5980 -0.0982 -0.8374
 5332SOL    HW227456   0.339   1.696   7.327 -1.0812  0.9910  1.0633
 5333SOL     OW27457   3.142   1.982   5.993 -0.2655  0.1960 -0.5837
 5333SOL    HW127458   3.162   1.949   5.906  0.4132 -3.6161  1.0370
 5333SOL    HW227459   3.227   2.021   6.014  0.5924 -1.6383 -0.6905
 5334SOL     OW27460   3.985   0.682   5.417  0.5927  0.1151 -0.0610
 5334SOL    HW127461   3.973   0.664   5.324 -0.8593  0.5296  0.0472
 5334SOL    HW227462   3.909   0.740   5.431 -0.6045 -1.2421 -0.9754
 5335SOL     OW27463   2.240   3.906   2.245  0.1422  0.0295  0.5240
 5335SOL    HW127464   2.239   3.824   2.195 -2.1088  1.2896 -1.5110
 5335SOL    HW227465   2.149   3.927   2.221 -0.0876 -2.2160 -0.6091
 5336SOL     OW27466   2.036   1.137   6.898  0.2624  0.3676 -0.1586
 5336SOL    HW127467   2.092   1.111   6.971 -0.8102 -1.5001  0.0107
 5336SOL    HW227468   2.052   1.231   6.891  1.1064  0.4664  2.8756
 5337SOL     OW27469   3.057   4.190  10.110  0.0286  0.8437  0.3968
 5337SOL    HW127470   3.022   4.162  10.194  0.1372  0.8739  0.4518
 5337SOL    HW227471   3.126   4.253  10.131  2.2863 -1.3155 -0.5997
 5338SOL     OW27472   0.871   1.823   9.207  0.6781  0.0881  0.1236
 5338SOL    HW127473   0.884   1.895   9.147 -0.2295  0.3988  0.2940
 5338SOL    HW227474   0.865   1.879   9.284  0.0850 -2.0488  1.6564
 5339SOL     OW27475   0.472   3.562   2.757 -0.1613 -0.5854  0.7382
 5339SOL    HW127476   0.452   3.652   2.784  0.5462 -0.8745  2.2592
 5339SOL    HW227477   0.491   3.579   2.665  0.7402 -3.3386  0.4423
 5340SOL     OW27478   4.363   4.147   1.337  0.0239 -0.2086  0.1575
 5340SOL    HW127479   4.407   4.171   1.256 -0.5500  1.2898  0.2942
 5340SOL    HW227480   4.281   4.112   1.301  0.3713  1.3999 -2.1604
 5341SOL     OW27481   1.754   1.306   4.100  0.1010  0.3915 -0.1359
 5341SOL    HW127482   1.707   1.358   4.166 -0.6066  0.7903 -0.9587
 5341SOL    HW227483   1.837   1.291   4.145  0.7908  0.7912 -1.2759
 5342SOL     OW27484   3.859   0.980   5.699  0.4133 -0.3817  0.3766
 5342SOL    HW127485   3.780   1.033   5.711  0.9473  0.3008  0.8286
 5342SOL    HW227486   3.844   0.936   5.615  0.0883 -1.2812  0.8975
 5343SOL     OW27487   0.947   2.147   4.588 -0.1663  0.6553  0.1847
 5343SOL    HW127488   0.944   2.212   4.518 -0.6609  0.7307  0.2792
 5343SOL    HW227489   0.906   2.070   4.550  0.0960  0.4178  0.3807
 5344SOL     OW27490   4.290   4.439   4.260  0.2100  0.1852  0.7216
 5344SOL    HW127491   4.293   4.534   4.271  0.3309  0.3322 -0.4895
 5344SOL    HW227492   4.203   4.425   4.297  0.2107 -1.0814  0.2690
 5345SOL     OW27493   3.887   3.563   5.107  0.4463  0.3021  0.0955
 5345SOL    HW127494   3.959   3.619   5.136 -0.8839  2.4348 -0.7164
 5345SOL    HW227495   3.894   3.490   5.168  1.6175  0.2113 -0.1315
 5346SOL     OW27496   3.845   1.644   9.375 -0.4853  0.4793  0.5982
 5346SOL    HW127497   3.935   1.667   9.352 -0.9609 -1.3359 -3.0735
 5346SOL    HW227498   3.824   1.718   9.433 -0.5705 -0.1719  1.3940
 5347SOL     OW27499   1.454   2.221   8.608  0.0571  0.2978  0.3691
 5347SOL    HW127500   1.492   2.137   8.581  0.4357  0.2195  1.1630
 5347SOL    HW227501   1.389   2.193   8.672  0.7452  2.5180  2.0359
 5348SOL     OW27502   1.150   2.284   1.583  0.1297  0.1242 -0.0868
 5348SOL    HW127503   1.212   2.264   1.513 -1.5782 -0.8004 -1.3474
 5348SOL    HW227504   1.181   2.226   1.652  1.8122 -0.0337 -0.9810
 5349SOL     OW27505   3.420   3.079  11.495  0.2748 -0.3641  0.4432
 5349SOL    HW127506   3.340   3.033  11.467  0.9682 -0.1073 -1.9292
 5349SOL    HW227507   3.384   3.157  11.536  0.9336 -0.2399  0.7793
 5350SOL     OW27508   4.537   0.780   6.563 -0.2919  0.0815  0.1949
 5350SOL    HW127509   4.444   0.763   6.579 -0.1872  1.2169  1.9294
 5350SOL    HW227510   4.537   0.872   6.537  5.0756 -0.6167 -2.3136
 5351SOL     OW27511   0.225   3.522   7.633  0.2996  0.2646 -0.3547
 5351SOL    HW127512   0.178   3.444   7.664  1.0659  0.3426  1.0115
 5351SOL    HW227513   0.235   3.498   7.541  0.8553  0.3497 -0.3166
 5352SOL     OW27514   3.119   4.085   3.224  0.5065 -0.8913  0.0666
 5352SOL    HW127515   3.032   4.087   3.184 -0.1613  3.0257  1.7480
 5352SOL    HW227516   3.116   4.142   3.300 -0.3630 -2.0494  0.8887
 5353SOL     OW27517   0.131   0.166   6.187 -0.1817  0.3099  0.2905
 5353SOL    HW127518   0.193   0.217   6.136 -1.7571 -0.7405 -2.6847
 5353SOL    HW227519   0.196   0.108   6.227  0.9369 -0.7479 -3.0964
 5354SOL     OW27520   3.350   3.354  16.854 -0.0425 -0.0011  0.3521
 5354SOL    HW127521   3.360   3.332  16.762 -1.9875  0.0480  0.1207
 5354SOL    HW227522   3.424   3.405  16.887 -0.2389 -1.4012  2.9654
 5355SOL     OW27523   2.991   1.447   6.484  0.2442  0.2839 -0.0326
 5355SOL    HW127524   3.031   1.411   6.563  3.3691  3.4564 -0.1510
 5355SOL    HW227525   3.042   1.404   6.415  0.3168 -0.8026  0.6963
 5356SOL     OW27526   4.619   2.437   1.928  0.1450 -0.0162 -0.2142
 5356SOL    HW127527   4.585   2.526   1.926  1.1527  0.3324 -1.5461
 5356SOL    HW227528   4.588   2.414   1.841  2.3371 -0.3856 -0.8963
 5357SOL     OW27529   2.063   0.514   7.769 -0.4026 -0.2407 -0.0031
 5357SOL    HW127530   2.091   0.515   7.861 -1.6526 -0.0922  0.3789
 5357SOL    HW227531   2.058   0.609   7.759  1.2346 -0.1350  0.1208
 5358SOL     OW27532   0.722   3.034   0.950 -0.5063 -0.3514  0.5068
 5358SOL    HW127533   0.654   3.039   1.017 -1.2145  0.1362 -0.2505
 5358SOL    HW227534   0.804   3.021   0.998 -0.3906  0.3744  0.5072
 5359SOL     OW27535   4.030   4.366  13.121 -0.3637 -0.0333  0.3218
 5359SOL    HW127536   3.949   4.391  13.165 -0.1778 -1.8095  1.6392
 5359SOL    HW227537   4.091   4.427  13.163 -0.8034 -0.8448  2.1159
 5360SOL     OW27538   0.930   1.375   7.291 -0.1324 -0.7935  0.0030
 5360SOL    HW127539   0.925   1.421   7.207  0.3346  0.8434  0.8654
 5360SOL    HW227540   1.018   1.339   7.284 -0.2073 -1.0793  0.5172
 5361SOL     OW27541   0.593   1.721  15.525 -0.5171  0.0088  0.0501
 5361SOL    HW127542   0.654   1.702  15.596  0.7046 -0.5895 -1.1524
 5361SOL    HW227543   0.643   1.682  15.453 -1.9746 -2.1546  0.1853
 5362SOL     OW27544   4.495   1.612   6.619 -0.0093 -0.9966  0.0206
 5362SOL    HW127545   4.413   1.581   6.659  0.4203 -2.9503 -0.6160
 5362SOL    HW227546   4.566   1.560   6.657  2.0924  0.3133 -2.1989
 5363SOL     OW27547   2.591   0.694   4.177  0.0645 -1.1632  0.6381
 5363SOL    HW127548   2.671   0.688   4.230 -0.2597 -1.4014  1.1007
 5363SOL    HW227549   2.551   0.617   4.216  0.1259 -0.9548  1.1152
 5364SOL     OW27550   4.615   2.779  16.256  0.3107 -0.6628 -0.0751
 5364SOL    HW127551   4.703   2.753  16.280 -1.6041 -3.7851  3.5189
 5364SOL    HW227552   4.571   2.713  16.309  0.9143 -0.5708  0.5245
 5365SOL     OW27553   3.918   3.873  15.125 -0.7219 -1.1023 -0.6302
 5365SOL    HW127554   3.862   3.945  15.153  0.4024 -0.3504 -0.3040
 5365SOL    HW227555   3.971   3.916  15.057 -0.0168  0.4908  0.9111
 5366SOL     OW27556   3.652   3.359   7.204  0.0071 -0.2755  0.4808
 5366SOL    HW127557   3.634   3.294   7.137  0.3132  0.1350 -0.0094
 5366SOL    HW227558   3.692   3.427   7.149  1.6700 -0.6960  1.1675
 5367SOL     OW27559   0.694   3.484   8.091  0.5495  0.0982 -0.2320
 5367SOL    HW127560   0.686   3.535   8.011 -0.2283 -0.4834 -0.5252
 5367SOL    HW227561   0.604   3.467   8.119  1.0312 -2.2672 -0.1062
 5368SOL     OW27562   2.155   2.539   9.286 -0.1366 -0.3955  0.5527
 5368SOL    HW127563   2.084   2.516   9.346  0.2181  0.7212  1.3993
 5368SOL    HW227564   2.231   2.543   9.344 -0.1543  1.8597  0.3911
 5369SOL     OW27565   1.235   3.802   5.660 -0.0192 -0.5826  0.0008
 5369SOL    HW127566   1.216   3.872   5.599  1.5271 -0.3868 -0.2606
 5369SOL    HW227567   1.308   3.768   5.608 -1.8993 -0.8047 -2.4853
 5370SOL     OW27568   2.422   4.442   7.994 -0.4260  0.2903 -0.1114
 5370SOL    HW127569   2.356   4.461   8.061  0.1026  0.0886  0.4735
 5370SOL    HW227570   2.406   4.513   7.933  0.6474  1.6611  1.1979
 5371SOL     OW27571   2.031   2.526  11.087  0.7152  0.7619 -0.1163
 5371SOL    HW127572   2.003   2.569  11.169 -1.2351  0.9691 -0.8906
 5371SOL    HW227573   2.117   2.489  11.105  1.4519  2.3834 -0.3265
 5372SOL     OW27574   0.239   1.662  11.780  0.2499  0.0212  0.4946
 5372SOL    HW127575   0.157   1.707  11.761  0.0302 -0.0875  1.1953
 5372SOL    HW227576   0.259   1.706  11.862  1.0468  1.7154 -0.6155
 5373SOL     OW27577   1.504   0.851   4.926  0.2133  0.2387  0.8268
 5373SOL    HW127578   1.417   0.874   4.894  1.5690 -0.4228 -3.3485
 5373SOL    HW227579   1.541   0.820   4.843 -1.9099  0.6713 -0.2967
 5374SOL     OW27580   0.993   1.772   4.108  0.0320  0.3025 -0.2855
 5374SOL    HW127581   0.934   1.843   4.133  0.0092 -0.5336  2.0380
 5374SOL    HW227582   1.057   1.771   4.178 -0.4466  0.5650  0.1555
 5375SOL     OW27583   0.700   3.897   7.748  0.1118 -0.1916 -0.2044
 5375SOL    HW127584   0.665   3.960   7.685  2.4862  1.4024  0.0885
 5375SOL    HW227585   0.791   3.926   7.747 -0.1097  0.4347 -1.5698
 5376SOL     OW27586   0.726   3.237  16.471  0.3693  0.0745 -0.2272
 5376SOL    HW127587   0.674   3.253  16.392 -0.2461  0.6921  0.2988
 5376SOL    HW227588   0.693   3.304  16.532 -0.6635 -1.9849  1.4692
 5377SOL     OW27589   1.749   2.782   5.455  0.3428 -0.2873  0.3107
 5377SOL    HW127590   1.718   2.753   5.369 -0.0409 -0.1954  0.4170
 5377SOL    HW227591   1.670   2.806   5.503  0.3456  0.4745 -0.0783
 5378SOL     OW27592   1.307   4.221   4.917 -0.6377 -0.0832 -0.0794
 5378SOL    HW127593   1.263   4.150   4.965 -1.8874  0.2018 -0.8093
 5378SOL    HW227594   1.281   4.200   4.827  1.2155 -1.7107 -0.2290
 5379SOL     OW27595   0.783   0.916   3.446 -0.2488 -0.2638 -0.5136
 5379SOL    HW127596   0.834   0.994   3.467 -3.0296  1.7457 -1.3519
 5379SOL    HW227597   0.794   0.863   3.525 -1.7227  0.9066  0.4649
 5380SOL     OW27598   4.548   2.046  10.993 -0.3416 -0.1458 -0.0522
 5380SOL    HW127599   4.501   2.083  10.919  0.2878 -0.6371 -0.7044
 5380SOL    HW227600   4.541   2.124  11.047 -2.7481 -1.9247  2.1835
 5381SOL     OW27601   2.910   4.208   2.146 -0.4888 -0.2101  0.7541
 5381SOL    HW127602   2.943   4.223   2.058 -2.0570 -1.8503 -0.1247
 5381SOL    HW227603   2.967   4.134   2.169  0.0504 -0.3075 -0.8833
 5382SOL     OW27604   4.646   0.902   7.058 -0.1166 -0.3597  0.5473
 5382SOL    HW127605   4.607   0.848   6.990  0.5554 -0.7671  0.4875
 5382SOL    HW227606   0.016   0.917   7.034 -0.5459  0.5680 -0.5320
 5383SOL     OW27607   3.757   1.059   3.631  0.0903  0.1987  0.3734
 5383SOL    HW127608   3.845   1.023   3.620 -0.6762 -1.2261 -1.1337
 5383SOL    HW227609   3.709   1.000   3.690  1.0004 -1.2442 -0.3295
 5384SOL     OW27610   1.919   0.367   8.688  0.3587  0.5461  0.1887
 5384SOL    HW127611   1.974   0.444   8.700 -0.0940  0.8793  0.1343
 5384SOL    HW227612   1.938   0.316   8.766 -1.4570 -0.9114 -0.3085
 5385SOL     OW27613   3.314   3.039   4.710  0.0536 -0.2267 -0.0093
 5385SOL    HW127614   3.228   3.069   4.679  0.4012  1.7985  1.0272
 5385SOL    HW227615   3.373   3.039   4.634  0.0051  0.2416 -0.0445
 5386SOL     OW27616   3.776   0.994  15.246 -0.1616 -0.2248  0.4809
 5386SOL    HW127617   3.794   0.908  15.207  0.3314 -1.9403  4.5275
 5386SOL    HW227618   3.798   0.966  15.335  4.2651 -0.0708 -0.5610
 5387SOL     OW27619   3.877   3.834   5.709  0.1269 -0.2403 -0.3168
 5387SOL    HW127620   3.834   3.917   5.688  2.1176  1.0813  0.8824
 5387SOL    HW227621   3.970   3.857   5.708  0.6437 -2.2972  0.6041
 5388SOL     OW27622   1.211   2.274   0.217  0.0383 -0.4983  0.2941
 5388SOL    HW127623   1.116   2.263   0.219 -0.2050  1.1336 -2.2908
 5388SOL    HW227624   1.230   2.255   0.125  0.4862  3.0075 -0.3523
 5389SOL     OW27625   0.390   4.033   2.666  0.8378 -0.5535 -0.0290
 5389SOL    HW127626   0.309   4.003   2.708  1.2230 -0.7166  0.5955
 5389SOL    HW227627   0.357   4.037   2.577  2.0318  0.4612 -0.4363
 5390SOL     OW27628   3.550   1.148   7.258 -0.2355 -0.0309 -0.6780
 5390SOL    HW127629   3.532   1.224   7.313  1.1954 -0.5941  0.5799
 5390SOL    HW227630   3.583   1.081   7.318  1.5453  1.0721 -0.4237
 5391SOL     OW27631   0.926   4.199  12.264  1.2650 -0.7588  0.3457
 5391SOL    HW127632   1.000   4.146  12.234  1.9822  0.9197 -0.8503
 5391SOL    HW227633   0.863   4.176  12.196  2.1911  0.6634 -0.9930
 5392SOL     OW27634   0.995   3.835   4.820 -0.4806  0.0326  0.1625
 5392SOL    HW127635   0.984   3.837   4.725 -1.1459 -0.7600  0.2158
 5392SOL    HW227636   1.089   3.835   4.837 -0.5275 -0.6952  0.4164
 5393SOL     OW27637   1.822   1.691   4.875 -0.4425  0.1577 -0.0345
 5393SOL    HW127638   1.848   1.627   4.809 -1.8870 -1.5074  1.0094
 5393SOL    HW227639   1.850   1.775   4.837 -2.6202  1.2368  0.7376
 5394SOL     OW27640   1.383   2.119   3.317  0.2087  0.4087 -0.2078
 5394SOL    HW127641   1.451   2.085   3.259 -0.9818 -2.5019  0.1034
 5394SOL    HW227642   1.404   2.073   3.399 -0.2893 -1.1204 -0.9457
 5395SOL     OW27643   2.138   3.049   5.660 -0.3820 -0.2777  0.1993
 5395SOL    HW127644   2.160   3.051   5.753 -0.3992  0.7903  0.1810
 5395SOL    HW227645   2.060   2.994   5.672 -0.0860 -0.5036  1.0922
 5396SOL     OW27646   1.461   3.915   8.610 -0.0268 -0.1224 -0.0334
 5396SOL    HW127647   1.547   3.956   8.599  0.0459 -0.2489  0.0568
 5396SOL    HW227648   1.403   3.990   8.601 -1.4749 -1.2494 -0.1139
 5397SOL     OW27649   2.058   2.940   1.879 -0.2676  0.1811 -0.2964
 5397SOL    HW127650   2.113   2.912   1.952 -2.7351 -2.3246  0.6118
 5397SOL    HW227651   1.982   2.881   1.878 -0.3924  0.3299  1.5079
 5398SOL     OW27652   1.858   3.643   7.211 -0.1614 -0.0022 -0.6452
 5398SOL    HW127653   1.898   3.568   7.255 -0.8780 -0.5103 -0.8498
 5398SOL    HW227654   1.766   3.620   7.220 -0.2208  1.1452  1.6768
 5399SOL     OW27655   4.432   1.908   7.947  0.1894  0.3378 -0.2936
 5399SOL    HW127656   4.482   1.984   7.917  2.4708 -0.8109  0.6280
 5399SOL    HW227657   4.382   1.951   8.017  1.3520  1.2863 -0.0494
 5400SOL     OW27658   4.385   1.044  13.752 -0.4076  0.0487 -0.3093
 5400SOL    HW127659   4.371   1.137  13.735 -0.5024  0.3379  1.3170
 5400SOL    HW227660   4.299   1.016  13.783  0.7104 -3.0784 -0.0011
 5401SOL     OW27661   1.662   0.170   8.114  0.4368  0.1055  0.2020
 5401SOL    HW127662   1.574   0.135   8.131  0.6114  0.4845  1.8788
 5401SOL    HW227663   1.649   0.201   8.025  1.3421 -1.0716 -0.3350
 5402SOL     OW27664   1.077   3.255   5.345  0.1108  0.4962 -0.3442
 5402SOL    HW127665   1.119   3.330   5.304 -2.4620  1.2702 -1.5604
 5402SOL    HW227666   1.042   3.209   5.269  1.3228 -0.8415 -0.1079
 5403SOL     OW27667   0.443   2.893   1.316 -0.1592 -0.1409 -0.2019
 5403SOL    HW127668   0.388   2.832   1.364 -0.7348  1.0584  0.6431
 5403SOL    HW227669   0.379   2.947   1.269  1.1908  1.1187 -0.6080
 5404SOL     OW27670   0.544   4.575   6.506 -0.5847  0.1484 -0.0615
 5404SOL    HW127671   0.553   4.503   6.443  1.1033 -0.6891  1.1302
 5404SOL    HW227672   0.456   4.553   6.536 -0.0308 -0.6662  0.9582
 5405SOL     OW27673   1.196   0.610  13.907  0.2144  0.1748 -0.4782
 5405SOL    HW127674   1.159   0.538  13.856  0.4238 -0.0475 -0.3218
 5405SOL    HW227675   1.272   0.569  13.949  0.0582 -0.0013 -0.3689
 5406SOL     OW27676   0.880   0.118   6.622  0.6300  0.1875  0.1560
 5406SOL    HW127677   0.804   0.166   6.588  0.0680 -0.3378  0.6685
 5406SOL    HW227678   0.930   0.098   6.544  1.2105 -2.6072  1.2416
 5407SOL     OW27679   4.380   1.438   5.175 -0.2815  0.1344 -0.3317
 5407SOL    HW127680   4.446   1.380   5.214  0.2591  1.4691  0.7451
 5407SOL    HW227681   4.439   1.484   5.115 -2.3501  2.1488 -0.8215
 5408SOL     OW27682   3.502   0.973   0.585  0.0581  0.3411  0.0536
 5408SOL    HW127683   3.414   0.942   0.564  0.1009 -0.1471  0.5822
 5408SOL    HW227684   3.522   0.911   0.655  0.5032 -1.1490 -1.4120
 5409SOL     OW27685   1.045   2.956   7.440  0.1747  0.2446 -0.0032
 5409SOL    HW127686   1.033   2.920   7.352 -4.0323 -0.4422  0.8283
 5409SOL    HW227687   1.104   2.886   7.467 -1.9965 -1.8337 -0.6113
 5410SOL     OW27688   3.282   0.536  11.300  0.4760 -0.1394 -0.0190
 5410SOL    HW127689   3.200   0.489  11.311  0.3796 -0.0987 -0.5582
 5410SOL    HW227690   3.256   0.603  11.363 -1.3750 -1.3227  0.4693
 5411SOL     OW27691   3.298   3.366   2.884  0.1105 -0.0598  0.1043
 5411SOL    HW127692   3.246   3.299   2.840  0.0787  0.1110 -0.1242
 5411SOL    HW227693   3.316   3.408   2.799 -3.5419 -1.7141 -1.4922
 5412SOL     OW27694   1.839   0.509   3.068  0.8079  0.6130  0.0547
 5412SOL    HW127695   1.821   0.555   3.149 -0.7443  0.6295 -0.3141
 5412SOL    HW227696   1.753   0.515   3.028 -0.0989  0.1216  1.9555
 5413SOL     OW27697   0.098   2.273   5.886 -0.3744 -0.4205  0.1320
 5413SOL    HW127698   0.050   2.345   5.926 -0.7043 -1.6067  1.9068
 5413SOL    HW227699   0.112   2.302   5.796 -1.4389 -2.5755 -0.7310
 5414SOL     OW27700   0.317   4.124   5.041  0.0487 -0.2262 -0.1782
 5414SOL    HW127701   0.239   4.109   4.988 -1.8201  1.0776  2.1829
 5414SOL    HW227702   0.363   4.041   5.029 -0.8023 -0.6739 -0.3578
 5415SOL     OW27703   0.274   4.684   7.157  0.0464 -0.3334 -0.0757
 5415SOL    HW127704   0.322   4.626   7.216  1.9161  1.2203 -0.0863
 5415SOL    HW227705   0.226   0.008   7.225  0.5427  0.6344 -0.3781
 5416SOL     OW27706   0.290   4.492   6.552  0.0889  0.2808  0.3225
 5416SOL    HW127707   0.239   4.412   6.554 -0.4925  0.6216 -0.7253
 5416SOL    HW227708   0.231   4.547   6.500 -1.7398 -0.1082  1.9949
 5417SOL     OW27709   0.974   1.085   6.888  0.6326  0.1837  0.2145
 5417SOL    HW127710   1.044   1.084   6.953  0.3362  0.2167  0.5355
 5417SOL    HW227711   0.968   0.994   6.857 -1.2837  0.7290 -1.0389
 5418SOL     OW27712   0.849   2.114   5.027 -0.3466 -0.3320 -0.0175
 5418SOL    HW127713   0.766   2.073   5.002 -1.3381  0.0781  2.7136
 5418SOL    HW227714   0.816   2.178   5.089  1.1519  2.9675 -2.6052
 5419SOL     OW27715   2.480   0.651   8.986  0.6656  0.2716 -0.2342
 5419SOL    HW127716   2.464   0.576   9.043 -0.8534  0.0388 -0.9642
 5419SOL    HW227717   2.490   0.719   9.052  0.4820 -0.0954  0.1721
 5420SOL     OW27718   2.262   0.925   8.947  0.2656  0.1265 -0.2955
 5420SOL    HW127719   2.177   0.966   8.959  0.0735 -0.8495  1.8035
 5420SOL    HW227720   2.243   0.837   8.982 -0.2254  0.7854  1.1061
 5421SOL     OW27721   0.834   2.112  13.878  0.4816 -0.4256 -0.2715
 5421SOL    HW127722   0.753   2.116  13.930  1.2751 -1.6934  1.0757
 5421SOL    HW227723   0.865   2.026  13.907 -2.7662 -1.7143 -0.5558
 5422SOL     OW27724   2.592   2.883   4.406 -0.3432  0.6935 -0.3447
 5422SOL    HW127725   2.512   2.927   4.435 -0.5176 -0.7054  1.2254
 5422SOL    HW227726   2.582   2.795   4.440  0.3100  0.1192 -1.6494
 5423SOL     OW27727   0.160   2.578   7.166  0.2151  0.2351 -0.2374
 5423SOL    HW127728   0.174   2.664   7.127  1.1179  0.0387 -0.3513
 5423SOL    HW227729   0.139   2.544   7.079  2.2559 -2.5890  0.3697
 5424SOL     OW27730   0.044   2.891   9.512  0.5401 -0.1766  0.3194
 5424SOL    HW127731   0.027   2.927   9.599  0.4844  1.6448 -0.4457
 5424SOL    HW227732   0.032   2.959   9.446 -2.5646  0.6677  1.7763
 5425SOL     OW27733   4.036   4.606  10.115  0.1406  0.1924  0.2010
 5425SOL    HW127734   3.951   4.632  10.150  0.4898  1.3154  0.1989
 5425SOL    HW227735   4.024   4.511  10.122 -3.0448  0.5137 -1.1839
 5426SOL     OW27736   1.299   2.619   9.143  0.9181 -0.1212  0.5989
 5426SOL    HW127737   1.344   2.543   9.178 -1.3688 -1.4096  0.6926
 5426SOL    HW227738   1.325   2.624   9.051 -1.0567 -0.2624  0.0321
 5427SOL     OW27739   1.799   1.584   7.124  0.6861 -0.0208  0.1734
 5427SOL    HW127740   1.718   1.617   7.163  0.5792  1.4953 -1.3688
 5427SOL    HW227741   1.772   1.585   7.033 -0.6287 -0.4064  0.5484
 5428SOL     OW27742   3.007   1.835   2.007  0.0807 -0.0843  0.2781
 5428SOL    HW127743   2.912   1.842   2.016  0.0989 -0.8026  1.0612
 5428SOL    HW227744   3.014   1.917   1.959 -0.9047  1.7915  3.3306
 5429SOL     OW27745   0.557   1.161  16.616 -0.5072 -0.0431 -0.1873
 5429SOL    HW127746   0.509   1.240  16.639 -2.5892 -1.3539 -0.0148
 5429SOL    HW227747   0.517   1.104  16.682  1.4230 -2.8894 -1.4710
 5430SOL     OW27748   0.135   0.522   5.386 -0.3557 -0.3959 -0.3152
 5430SOL    HW127749   0.128   0.456   5.317  2.0570 -0.1971 -0.7542
 5430SOL    HW227750   0.086   0.595   5.349 -0.4523 -0.8641 -1.1150
 5431SOL     OW27751   0.031   0.570   7.285  0.3506 -0.3101 -0.1092
 5431SOL    HW127752   0.066   0.483   7.268  0.9490  0.1633 -1.2491
 5431SOL    HW227753   4.697   0.584   7.209 -1.3215  0.2705  1.2330
 5432SOL     OW27754   0.703   4.429   5.931 -0.1165  0.3328  0.2339
 5432SOL    HW127755   0.687   4.341   5.964 -0.8809  0.4900  0.2838
 5432SOL    HW227756   0.777   4.414   5.872 -0.9803 -1.5783 -0.3322
 5433SOL     OW27757   1.837   1.871   9.726 -0.6595 -0.0757 -0.1504
 5433SOL    HW127758   1.908   1.809   9.743 -0.2756  0.1043 -1.1074
 5433SOL    HW227759   1.833   1.875   9.630  0.4368  0.6240 -0.1675
 5434SOL     OW27760   4.606   3.357   4.377 -0.1674 -0.1811  0.1356
 5434SOL    HW127761   4.655   3.429   4.336 -0.1262 -0.5418 -0.4458
 5434SOL    HW227762   4.633   3.280   4.327 -0.4116 -0.4630  0.4404
 5435SOL     OW27763   0.087   1.871   2.535 -0.1961  0.5543 -0.1606
 5435SOL    HW127764   0.004   1.854   2.579 -0.2893  1.6381  0.0810
 5435SOL    HW227765   0.062   1.866   2.442  0.3427  1.2434 -0.3397
 5436SOL     OW27766   4.457   1.706   3.808 -0.9864  0.1208  0.1048
 5436SOL    HW127767   4.484   1.740   3.723  0.5993  0.9178  0.9267
 5436SOL    HW227768   4.412   1.782   3.846  1.4432 -0.0366  3.3145
 5437SOL     OW27769   3.648   4.106  15.700 -0.5745  0.1308 -0.0926
 5437SOL    HW127770   3.684   4.162  15.631 -0.9414  1.2157  0.6025
 5437SOL    HW227771   3.639   4.165  15.775 -1.5961  1.5204 -1.3013
 5438SOL     OW27772   2.986   3.404   2.104  0.4076 -0.0215 -0.5626
 5438SOL    HW127773   3.010   3.336   2.167  2.0964  1.0492 -0.0461
 5438SOL    HW227774   3.005   3.363   2.020 -0.1647  0.6651 -1.0297
 5439SOL     OW27775   1.483   2.664   6.139 -0.1753  0.0961  0.0689
 5439SOL    HW127776   1.576   2.649   6.120 -0.7010  0.1875 -2.6051
 5439SOL    HW227777   1.446   2.628   6.059  0.8983 -1.5500  0.3107
 5440SOL     OW27778   1.360   3.095  13.271 -0.4810  0.3013  0.2598
 5440SOL    HW127779   1.312   3.129  13.347  0.9599 -0.5926  1.5760
 5440SOL    HW227780   1.377   3.180  13.231 -0.2498  0.2355  0.2179
 5441SOL     OW27781   4.552   2.037  17.595 -0.1925  0.0195  0.5370
 5441SOL    HW127782   4.645   2.056  17.588 -0.1389 -1.3834 -2.4479
 5441SOL    HW227783   4.533   2.033  17.689 -0.7686 -0.0759  0.4149
 5442SOL     OW27784   2.553   1.925   4.879  0.3252  0.0083  0.0707
 5442SOL    HW127785   2.505   1.856   4.925 -3.4221  2.7652  0.3610
 5442SOL    HW227786   2.557   1.893   4.789  1.5233 -0.8140  0.4142
 5443SOL     OW27787   2.726   0.655   7.108  0.1349  0.3659 -0.3850
 5443SOL    HW127788   2.687   0.585   7.161  3.3674 -0.3617  1.0409
 5443SOL    HW227789   2.801   0.607   7.074 -0.6585  0.1584 -1.8442
 5444SOL     OW27790   4.341   1.428   3.537  0.6299 -0.4358 -0.2409
 5444SOL    HW127791   4.342   1.443   3.443 -0.7103  0.5958 -0.0896
 5444SOL    HW227792   4.432   1.397   3.547  0.6961  0.6515  2.5459
 5445SOL     OW27793   3.369   0.883   8.957 -0.6664 -0.0363 -0.0778
 5445SOL    HW127794   3.274   0.891   8.959 -0.7448 -1.1198  0.6693
 5445SOL    HW227795   3.406   0.961   8.998  1.7644 -0.2071 -1.9214
 5446SOL     OW27796   4.051   0.498   7.305 -0.0615  0.7225  0.7324
 5446SOL    HW127797   4.077   0.422   7.357 -0.5786  0.0194 -0.0325
 5446SOL    HW227798   3.962   0.468   7.286  0.3715  0.2351 -0.6205
 5447SOL     OW27799   3.301   0.263   3.386 -0.0064 -0.0634  0.0207
 5447SOL    HW127800   3.283   0.216   3.306 -1.0167 -0.8492  0.7183
 5447SOL    HW227801   3.356   0.210   3.443  0.8344 -0.4955 -1.1929
 5448SOL     OW27802   4.417   1.864   2.051 -0.1835 -0.6801  0.0599
 5448SOL    HW127803   4.489   1.869   1.988  0.9965  1.1734  1.5307
 5448SOL    HW227804   4.404   1.769   2.053 -1.1471 -0.5402  0.4858
 5449SOL     OW27805   0.553   2.576   9.462 -1.0179 -1.1047 -0.3835
 5449SOL    HW127806   0.527   2.484   9.453  1.2880 -1.6421 -1.4141
 5449SOL    HW227807   0.525   2.595   9.372 -1.4469  0.9563  0.1771
 5450SOL     OW27808   0.811   4.323  11.910  0.1253 -0.2994  0.6225
 5450SOL    HW127809   0.743   4.370  11.861  2.6989 -0.5458 -3.2090
 5450SOL    HW227810   0.873   4.310  11.838  0.2369  1.8554  0.3184
 5451SOL     OW27811   3.275   2.840  16.404  0.0374  0.5228  0.0057
 5451SOL    HW127812   3.213   2.870  16.470 -0.6833 -0.6364 -0.1443
 5451SOL    HW227813   3.206   2.818  16.342  0.4643 -1.7728  0.3370
 5452SOL     OW27814   0.002   3.279   6.915  0.1445  0.6705  0.3969
 5452SOL    HW127815   4.693   3.369   6.926 -0.1818  0.4406  1.2818
 5452SOL    HW227816   0.073   3.269   6.978 -0.5540 -0.4409  0.9961
 5453SOL     OW27817   2.809   2.038   1.985 -0.4500  0.6100 -0.4042
 5453SOL    HW127818   2.783   2.130   1.978  2.7615  1.5294 -0.3846
 5453SOL    HW227819   2.891   2.043   1.935  0.4974 -0.3005  1.0417
 5454SOL     OW27820   2.732   1.641  15.590  0.0851  0.0106 -0.4418
 5454SOL    HW127821   2.644   1.678  15.579  0.8911  2.1042  0.2129
 5454SOL    HW227822   2.733   1.573  15.522  1.4697 -0.1253 -0.2955
 5455SOL     OW27823   1.827   2.082   2.233 -0.1533 -0.0763 -0.1365
 5455SOL    HW127824   1.826   1.996   2.191  2.2423  0.8686 -2.1010
 5455SOL    HW227825   1.808   2.136   2.157 -2.9763  0.2231  0.8080
 5456SOL     OW27826   3.426   1.384   3.455  0.1247  0.5531  0.9736
 5456SOL    HW127827   3.344   1.365   3.408  0.1499 -0.3126  1.2755
 5456SOL    HW227828   3.434   1.323   3.529  1.5303 -0.2688  0.1323
 5457SOL     OW27829   2.502   4.402   4.218  0.1590  0.5298 -0.4751
 5457SOL    HW127830   2.519   4.313   4.186 -3.3170 -0.7298  1.2343
 5457SOL    HW227831   2.591   4.434   4.200  1.1561 -1.6646  0.5959
 5458SOL     OW27832   0.459   2.832  17.435  0.0020 -0.3477  0.2967
 5458SOL    HW127833   0.420   2.865  17.516 -1.1424 -1.3270  0.1371
 5458SOL    HW227834   0.421   2.744  17.428  0.4099 -0.5749  0.9005
 5459SOL     OW27835   3.544   1.989   2.400  0.2806  0.1394 -0.2364
 5459SOL    HW127836   3.571   2.081   2.399 -0.5801  0.4176  2.5233
 5459SOL    HW227837   3.499   1.984   2.315 -1.8250  1.0583  0.8198
 5460SOL     OW27838   4.312   1.739  14.787 -0.6886  0.5473 -0.2808
 5460SOL    HW127839   4.265   1.781  14.859 -1.4357 -0.0086 -0.4367
 5460SOL    HW227840   4.246   1.673  14.764  0.2538 -0.7822  0.8434
 5461SOL     OW27841   4.276   2.572   7.913 -0.1679  0.5717 -0.2382
 5461SOL    HW127842   4.267   2.483   7.880  0.3713  0.1656  0.6981
 5461SOL    HW227843   4.222   2.621   7.851 -1.6664  0.5717  1.0473
 5462SOL     OW27844   2.060   1.042   4.154  0.2362 -0.7719  0.9976
 5462SOL    HW127845   1.999   0.989   4.205 -0.5215  0.6758  1.6279
 5462SOL    HW227846   2.108   0.969   4.116  0.9382 -0.3834  1.1291
 5463SOL     OW27847   0.459   2.130   1.803  0.4372 -0.0745  0.4097
 5463SOL    HW127848   0.448   2.213   1.848  2.6052  1.6150 -2.1741
 5463SOL    HW227849   0.552   2.147   1.786  0.1775  2.1064  1.1410
 5464SOL     OW27850   4.422   0.879   6.242  0.8866 -0.1038 -0.0327
 5464SOL    HW127851   4.501   0.828   6.223 -0.4087 -1.5668 -1.4873
 5464SOL    HW227852   4.359   0.808   6.251  0.9658 -0.4048 -1.7943
 5465SOL     OW27853   2.657   4.620  14.831 -0.3770  0.3073  0.8675
 5465SOL    HW127854   2.633   4.608  14.923 -1.2333  1.7596  0.8385
 5465SOL    HW227855   2.670   4.715  14.830 -0.1938  0.2580 -1.5432
 5466SOL     OW27856   1.175   3.523   1.894  0.1920  0.0835  0.0409
 5466SOL    HW127857   1.202   3.505   1.984 -2.4285  0.8692  0.9824
 5466SOL    HW227858   1.101   3.580   1.916 -2.0599 -2.8727  0.0921
 5467SOL     OW27859   4.634   1.307   2.975 -0.4472  0.8930 -0.5667
 5467SOL    HW127860   4.579   1.338   2.903 -0.5622 -0.3522 -1.0178
 5467SOL    HW227861   4.637   1.219   2.935  0.4728  0.7624 -0.2033
 5468SOL     OW27862   0.968   3.095   9.760  0.3124  0.7154 -0.1671
 5468SOL    HW127863   0.896   3.062   9.705 -0.1699 -1.4388  1.7418
 5468SOL    HW227864   0.966   3.189   9.744  0.8128  0.5409 -1.2531
 5469SOL     OW27865   3.628   3.208   2.334  0.6434 -0.5331 -0.1037
 5469SOL    HW127866   3.689   3.150   2.288  0.4980  0.1922 -1.2019
 5469SOL    HW227867   3.637   3.169   2.421  0.9940  1.5912  0.8150
 5470SOL     OW27868   2.835   4.540  11.205  0.0753 -0.1342  0.0069
 5470SOL    HW127869   2.917   4.533  11.156  0.4409 -4.9135  1.2793
 5470SOL    HW227870   2.866   4.569  11.291 -1.6986 -0.4290  0.7514
 5471SOL     OW27871   4.437   2.800  17.522  0.1304 -0.2494 -0.6351
 5471SOL    HW127872   4.404   2.772  17.608  0.6968  1.3920  0.1197
 5471SOL    HW227873   4.492   2.876  17.544 -1.6214  0.6327  0.6926
 5472SOL     OW27874   0.728   2.821   5.954  0.1366  0.1142 -0.3740
 5472SOL    HW127875   0.785   2.745   5.955  0.0321  0.0519  0.4434
 5472SOL    HW227876   0.642   2.792   5.923 -0.5883  2.2809 -0.4103
 5473SOL     OW27877   1.032   3.004   8.567  0.2884 -0.5126 -0.1429
 5473SOL    HW127878   1.063   3.095   8.571  0.9609 -0.8181  1.2096
 5473SOL    HW227879   1.101   2.963   8.618 -1.2281 -0.4551  1.9526
 5474SOL     OW27880   4.682   3.910   4.248 -0.4317 -0.6525 -0.2903
 5474SOL    HW127881   0.028   3.877   4.305  0.5962  1.8548 -0.0893
 5474SOL    HW227882   4.715   3.998   4.229  0.3052 -0.2854  2.7121
 5475SOL     OW27883   3.039   2.118  15.793 -0.1522 -0.2356 -0.4730
 5475SOL    HW127884   2.974   2.051  15.773  0.7475 -2.1684  3.0239
 5475SOL    HW227885   3.010   2.170  15.869  0.1485 -2.3018  1.0548
 5476SOL     OW27886   2.395   1.186   7.944  0.3319 -0.4675  0.3243
 5476SOL    HW127887   2.436   1.258   7.992  0.3536  0.1923 -0.6978
 5476SOL    HW227888   2.472   1.161   7.894  2.3878  1.5581  2.4858
 5477SOL     OW27889   3.371   1.637  12.625  0.2034 -0.5293 -0.3703
 5477SOL    HW127890   3.439   1.642  12.692  0.9927  1.9439 -1.3667
 5477SOL    HW227891   3.370   1.546  12.593  1.5605 -1.7322  2.9992
 5478SOL     OW27892   1.783   0.586   3.327  0.0276  0.3654  0.1906
 5478SOL    HW127893   1.743   0.557   3.409 -0.9265  1.0092 -0.0432
 5478SOL    HW227894   1.871   0.600   3.362 -0.4972 -2.4223  2.5769
 5479SOL     OW27895   0.844   4.417   5.016  0.4957  0.2951 -0.3497
 5479SOL    HW127896   0.848   4.476   4.941  0.2888 -0.8124 -1.2229
 5479SOL    HW227897   0.865   4.477   5.088 -2.0654 -1.3392  1.7555
 5480SOL     OW27898   1.764   2.225   5.856 -0.4921 -0.4583 -0.6370
 5480SOL    HW127899   1.803   2.230   5.943 -1.5841  0.7922 -0.2217
 5480SOL    HW227900   1.697   2.158   5.866 -1.8630  1.0078  0.0367
 5481SOL     OW27901   3.665   3.510   2.589  0.3191  0.2110 -0.0533
 5481SOL    HW127902   3.692   3.601   2.598  2.2993 -0.3475 -0.2357
 5481SOL    HW227903   3.702   3.486   2.504 -0.3540  0.1615 -0.3309
 5482SOL     OW27904   2.759   1.381   7.287 -0.9232  0.1753 -0.3631
 5482SOL    HW127905   2.829   1.317   7.299 -0.0669  0.9150 -1.4658
 5482SOL    HW227906   2.802   1.465   7.267  2.8483 -1.2914  1.5424
 5483SOL     OW27907   2.078   4.044   6.830 -0.1245 -0.0944 -0.0192
 5483SOL    HW127908   1.994   4.073   6.796  0.3236  1.0291 -0.1656
 5483SOL    HW227909   2.142   4.072   6.764 -1.8564  1.3994 -1.0633
 5484SOL     OW27910   1.555   4.191   6.636 -0.1516 -0.2468  0.4939
 5484SOL    HW127911   1.504   4.254   6.585  1.8591  0.4173 -0.6671
 5484SOL    HW227912   1.546   4.231   6.723 -0.3781  1.4889 -0.3359
 5485SOL     OW27913   4.708   4.203  10.876  0.4276  0.5731 -0.9506
 5485SOL    HW127914   0.019   4.190  10.965  0.6339 -1.2422 -1.2926
 5485SOL    HW227915   0.045   4.268  10.839  1.9228  0.5830  1.4866
 5486SOL     OW27916   0.644   3.472  13.008 -0.0711  0.2284  0.7191
 5486SOL    HW127917   0.550   3.469  13.024 -0.0703 -0.8423  0.5236
 5486SOL    HW227918   0.656   3.552  12.956 -1.7121 -0.3816 -0.5907
 5487SOL     OW27919   1.950   0.946  17.038 -0.0774 -0.6610  0.6936
 5487SOL    HW127920   1.887   1.008  17.074  1.2534  1.0217  0.1127
 5487SOL    HW227921   1.885   0.881  17.012 -2.2833  2.1207 -0.6879
 5488SOL     OW27922   0.777   0.918   0.680 -0.2313  0.8744 -0.3734
 5488SOL    HW127923   0.803   1.005   0.650  1.2246 -0.1009 -2.0063
 5488SOL    HW227924   0.754   0.929   0.772 -2.4246  0.3551 -0.8619
 5489SOL     OW27925   0.420   0.373  16.396  0.1088 -0.1244 -0.1271
 5489SOL    HW127926   0.463   0.382  16.481 -0.9922  3.1071  0.0952
 5489SOL    HW227927   0.490   0.372  16.330 -0.4426  1.1173 -0.7179
 5490SOL     OW27928   3.526   1.022   1.238 -0.4392  0.0110 -0.2396
 5490SOL    HW127929   3.582   0.976   1.175 -0.0772  0.2567 -0.0997
 5490SOL    HW227930   3.543   1.113   1.213  0.3709 -0.0437  0.1167
 5491SOL     OW27931   1.120   1.793   5.145 -1.1326  0.6815 -0.6840
 5491SOL    HW127932   1.184   1.776   5.076  0.4372  0.4589  0.8399
 5491SOL    HW227933   1.169   1.762   5.221  1.5181  1.6738 -1.9708
 5492SOL     OW27934   1.446   2.524   1.523  0.6442  0.1429 -0.4837
 5492SOL    HW127935   1.387   2.578   1.470 -1.6485 -2.1869 -0.3098
 5492SOL    HW227936   1.460   2.575   1.603 -2.4232 -1.8777  1.3296
 5493SOL     OW27937   0.667   0.294  10.832 -0.3739 -0.2266 -0.0318
 5493SOL    HW127938   0.589   0.243  10.856 -0.5313  0.0726  0.0867
 5493SOL    HW227939   0.678   0.375  10.882 -1.4761  1.2474 -2.1756
 5494SOL     OW27940   0.285   0.486   0.293  0.2143 -0.2908  0.2627
 5494SOL    HW127941   0.252   0.398   0.274  1.7011 -0.6769 -0.5820
 5494SOL    HW227942   0.209   0.530   0.329 -0.3975 -0.4457 -0.8228
 5495SOL     OW27943   0.150   4.264   6.631  0.1274  0.0911 -0.1297
 5495SOL    HW127944   0.080   4.262   6.566  0.1093 -3.7923  0.0439
 5495SOL    HW227945   0.207   4.195   6.598 -1.8805 -1.3987 -0.4823
 5496SOL     OW27946   1.733   3.647  16.945 -0.1784  0.2286  0.1733
 5496SOL    HW127947   1.723   3.566  16.894 -2.5974  0.5948  0.0711
 5496SOL    HW227948   1.698   3.713  16.884  0.4592  0.0826 -0.3586
 5497SOL     OW27949   3.509   3.779   4.150 -0.1278 -0.2360 -0.1161
 5497SOL    HW127950   3.454   3.796   4.226 -2.7029  0.1155 -2.0240
 5497SOL    HW227951   3.527   3.869   4.123  0.4183  0.0611  1.2616
 5498SOL     OW27952   0.135   4.105   4.807 -0.1791 -0.1889 -0.0837
 5498SOL    HW127953   0.119   4.019   4.770 -3.2230  1.1227 -1.7722
 5498SOL    HW227954   0.047   4.127   4.837 -0.0070  0.6278 -0.1738
 5499SOL     OW27955   2.851   0.913  16.301  0.1957  0.1294 -0.2360
 5499SOL    HW127956   2.894   0.850  16.243 -1.8133  0.0190 -1.6107
 5499SOL    HW227957   2.921   0.968  16.337  1.8202 -1.6829 -0.6113
 5500SOL     OW27958   0.981   1.027  13.243 -0.1557 -0.1525  0.2594
 5500SOL    HW127959   1.065   1.044  13.285  1.6567 -2.1234 -2.6156
 5500SOL    HW227960   0.920   1.062  13.308 -0.0542  1.9872 -0.8060
 5501SOL     OW27961   3.224   3.408  10.839  0.1218  0.4208  0.0302
 5501SOL    HW127962   3.277   3.466  10.894  1.6371 -1.0174  0.0972
 5501SOL    HW227963   3.284   3.398  10.765  1.7100  0.7071  1.2785
 5502SOL     OW27964   1.994   4.187   2.255 -0.2412  0.0894  0.0923
 5502SOL    HW127965   1.929   4.118   2.244 -1.4965  1.2178  0.3390
 5502SOL    HW227966   2.052   4.174   2.180  0.6903 -1.6401  1.1399
 5503SOL     OW27967   1.129   3.745  10.109 -0.0368 -0.3113 -0.1025
 5503SOL    HW127968   1.073   3.810  10.068 -0.6743 -0.5294  0.4105
 5503SOL    HW227969   1.210   3.764  10.064 -1.4289 -0.4052 -2.6356
 5504SOL     OW27970   0.131   2.047   7.654  0.0923 -0.5250  0.1550
 5504SOL    HW127971   0.197   2.074   7.590  0.8175  1.0666  1.5861
 5504SOL    HW227972   0.050   2.070   7.610 -0.0764 -0.2765  0.6015
 5505SOL     OW27973   2.093   1.785  17.448  0.2884  0.0683 -0.2692
 5505SOL    HW127974   2.182   1.803  17.477  0.4343 -0.7270 -0.2255
 5505SOL    HW227975   2.052   1.766  17.532 -2.4541  0.0765 -1.5986
 5506SOL     OW27976   0.453   1.098   6.580  0.1142  0.2963  0.8349
 5506SOL    HW127977   0.477   1.187   6.554 -0.2548  0.0182 -0.4666
 5506SOL    HW227978   0.401   1.066   6.506 -0.6325  1.9859  0.6248
 5507SOL     OW27979   1.893   2.457   8.983 -0.0151  0.2570 -0.0350
 5507SOL    HW127980   1.860   2.510   9.056 -0.4884  0.5220 -0.4449
 5507SOL    HW227981   1.980   2.491   8.961  0.0322 -0.2360 -0.6008
 5508SOL     OW27982   2.143   3.549   5.399  0.9957  1.0574  0.1049
 5508SOL    HW127983   2.179   3.617   5.343  2.4276  0.7557  0.6426
 5508SOL    HW227984   2.188   3.575   5.480  1.4954  0.2689  0.0891
 5509SOL     OW27985   2.032   2.258   5.179  0.3680  0.2653 -0.0887
 5509SOL    HW127986   2.078   2.182   5.216 -0.6817 -0.0588  0.5583
 5509SOL    HW227987   1.943   2.243   5.209  1.1411  0.4392  2.3014
 5510SOL     OW27988   3.657   0.458  14.873 -0.1400 -0.0226  0.4417
 5510SOL    HW127989   3.649   0.543  14.917  0.0690  0.3552 -0.2490
 5510SOL    HW227990   3.747   0.433  14.894 -0.7859 -0.6665  2.4175
 5511SOL     OW27991   2.352   4.429   1.892 -0.0411  0.6880 -0.0654
 5511SOL    HW127992   2.356   4.341   1.928 -0.2908  1.5082  1.9754
 5511SOL    HW227993   2.257   4.434   1.878 -0.2381 -0.8267  0.6909
 5512SOL     OW27994   4.573   0.714   8.473 -0.4733  0.6856 -0.0129
 5512SOL    HW127995   4.659   0.671   8.468 -1.0239 -0.0581 -3.1050
 5512SOL    HW227996   4.551   0.720   8.380  0.3976 -0.7449 -0.3216
 5513SOL     OW27997   0.123   2.523   3.440  0.3924 -0.1893 -0.0111
 5513SOL    HW127998   0.068   2.456   3.479  0.8062 -0.9335 -0.7086
 5513SOL    HW227999   0.068   2.601   3.430 -0.1926 -0.8058 -1.6918
 5514SOL     OW28000   3.202   2.303  11.974  0.0682  0.2860  1.0852
 5514SOL    HW128001   3.162   2.340  11.895  0.7484 -3.2656 -0.9195
 5514SOL    HW228002   3.290   2.340  11.975 -0.4009  1.4837 -1.1920
 5515SOL     OW28003   0.695   1.251   2.045  0.1290 -0.0171 -0.3158
 5515SOL    HW128004   0.774   1.300   2.024 -0.8038  1.9150  0.6476
 5515SOL    HW228005   0.640   1.261   1.968  1.3617  4.9847 -0.5679
 5516SOL     OW28006   4.645   2.935   4.776 -0.2017 -0.6504  0.1140
 5516SOL    HW128007   4.586   2.963   4.846 -0.0382  1.9006 -0.7793
 5516SOL    HW228008   4.600   2.956   4.694 -0.5908  1.7913  0.9799
 5517SOL     OW28009   0.736   0.229   0.841 -0.0420  0.5456  0.2045
 5517SOL    HW128010   0.818   0.187   0.867  0.3096  1.5724  0.7201
 5517SOL    HW228011   0.764   0.315   0.811  0.1018  0.2620 -0.4936
 5518SOL     OW28012   2.041   1.106   9.882 -0.0544 -0.0294  0.4457
 5518SOL    HW128013   2.106   1.086   9.949 -1.0987 -1.9774  0.9002
 5518SOL    HW228014   2.068   1.047   9.812 -0.9254 -0.6496  0.6291
 5519SOL     OW28015   2.993   0.231  14.174 -0.0865  0.8666  0.0968
 5519SOL    HW128016   2.989   0.291  14.248 -0.2316  1.8918 -0.7456
 5519SOL    HW228017   2.957   0.286  14.105 -0.4923 -0.2631 -0.5913
 5520SOL     OW28018   1.673   3.883  13.196  0.6600 -0.2587  0.5316
 5520SOL    HW128019   1.695   3.901  13.105 -0.7649 -0.4079  0.1517
 5520SOL    HW228020   1.687   3.963  13.247 -0.7665 -0.6428  1.5440
 5521SOL     OW28021   0.133   2.408  11.501 -1.1311 -0.6490 -0.9998
 5521SOL    HW128022   0.195   2.392  11.430  0.4409  1.9607 -0.2237
 5521SOL    HW228023   0.124   2.503  11.504  2.0974 -0.3696 -0.0860
 5522SOL     OW28024   4.175   3.081   4.441 -0.2648 -0.3842  0.1522
 5522SOL    HW128025   4.234   3.083   4.366 -0.0555  0.5671  0.3333
 5522SOL    HW228026   4.098   3.045   4.398 -1.8544  1.0348  1.7709
 5523SOL     OW28027   3.514   0.356   7.707 -0.2357 -0.5381 -1.0372
 5523SOL    HW128028   3.461   0.384   7.781 -1.2495  0.3042 -2.0769
 5523SOL    HW228029   3.471   0.274   7.684 -1.0980 -0.4379  0.2496
 5524SOL     OW28030   0.024   0.598   7.568 -0.2881 -0.5026 -0.1545
 5524SOL    HW128031   0.032   0.601   7.473 -0.3965  0.7257 -0.1288
 5524SOL    HW228032   4.658   0.631   7.580 -0.2747  0.1635 -1.9436
 5525SOL     OW28033   0.710   0.413   5.902  0.5305  0.3742 -0.5052
 5525SOL    HW128034   0.724   0.320   5.916  1.8360  0.1903 -3.0293
 5525SOL    HW228035   0.780   0.432   5.839  0.9520  0.2274 -0.0771
 5526SOL     OW28036   1.704   0.136  16.768  0.5387  0.4075 -0.2199
 5526SOL    HW128037   1.612   0.152  16.786  0.2149 -0.3768 -1.1474
 5526SOL    HW228038   1.727   0.225  16.741  0.1492  0.2947 -0.9291
 5527SOL     OW28039   1.978   4.324   3.088  0.1185 -0.4176 -0.0225
 5527SOL    HW128040   1.962   4.259   3.020  3.2307 -0.1154 -1.0088
 5527SOL    HW228041   1.994   4.405   3.039  4.3377 -0.3467  1.4880
 5528SOL     OW28042   3.528   2.346   5.493 -0.0138 -0.4341 -0.4262
 5528SOL    HW128043   3.500   2.342   5.401 -0.7913  0.6002 -0.2361
 5528SOL    HW228044   3.442   2.339   5.534  0.2573  0.3418  0.2613
 5529SOL     OW28045   2.476   3.438   3.327  0.1185  0.2658  0.5219
 5529SOL    HW128046   2.417   3.423   3.401 -0.2277  0.7860  0.3408
 5529SOL    HW228047   2.452   3.369   3.265  2.0605 -1.2227  1.4164
 5530SOL     OW28048   0.694   4.257   9.032  0.7287  0.4286 -0.4085
 5530SOL    HW128049   0.623   4.293   9.085  0.8901 -1.7388  1.2858
 5530SOL    HW228050   0.636   4.229   8.962 -0.3579  1.7375 -0.0440
 5531SOL     OW28051   3.742   2.393   6.374  0.1327  0.8448  0.1234
 5531SOL    HW128052   3.798   2.340   6.431  1.9793  0.7494 -1.7683
 5531SOL    HW228053   3.810   2.427   6.317 -0.6567 -0.8485 -1.8278
 5532SOL     OW28054   2.496   4.625   2.048 -0.6296  0.1954 -0.1745
 5532SOL    HW128055   2.475   4.601   2.138  1.0078  1.0874  0.4414
 5532SOL    HW228056   2.429   4.572   2.005 -0.1708 -1.0374  0.6409
 5533SOL     OW28057   1.485   4.657   2.179  0.5225 -0.1211  0.4109
 5533SOL    HW128058   1.435   4.576   2.165  0.4206 -0.2730  1.6845
 5533SOL    HW228059   1.535   4.652   2.097  3.4522 -0.8779  2.2286
 5534SOL     OW28060   0.475   4.653  11.164  0.4740  0.4789  1.2329
 5534SOL    HW128061   0.455   4.568  11.126 -1.4319  0.8529  1.3526
 5534SOL    HW228062   0.550   4.639  11.221  0.5293  0.1755  1.0847
 5535SOL     OW28063   4.329   3.205   8.100 -0.0886  0.2534 -0.1540
 5535SOL    HW128064   4.363   3.267   8.165  1.6336 -0.5919 -0.2513
 5535SOL    HW228065   4.320   3.123   8.148 -0.7807  0.4239  0.0013
 5536SOL     OW28066   1.001   3.367   2.197 -0.8700  0.2878 -0.0749
 5536SOL    HW128067   1.088   3.403   2.182 -0.1965 -0.8116  1.2475
 5536SOL    HW228068   0.992   3.396   2.288 -3.0351  0.9963 -0.5100
 5537SOL     OW28069   3.258   3.471   7.879  0.2842 -0.1432  0.1390
 5537SOL    HW128070   3.255   3.377   7.861  1.8330 -0.3423  0.8557
 5537SOL    HW228071   3.218   3.472   7.966  2.0850 -2.9890  1.0047
 5538SOL     OW28072   3.972   4.122   6.007  0.5680 -0.7242  0.2378
 5538SOL    HW128073   3.973   4.138   5.913  2.4633 -2.6812 -0.0799
 5538SOL    HW228074   4.046   4.062   6.003  0.0379 -1.4949  2.0918
 5539SOL     OW28075   2.347   0.523   5.060  0.7424  0.2759 -0.2395
 5539SOL    HW128076   2.374   0.516   4.968  0.7490  1.4284 -0.3262
 5539SOL    HW228077   2.344   0.429   5.079  0.6569 -0.0981 -2.0436
 5540SOL     OW28078   0.422   0.667   7.319  0.0768 -0.2918  0.9814
 5540SOL    HW128079   0.389   0.753   7.346  0.5001  0.1174  0.2055
 5540SOL    HW228080   0.377   0.665   7.234  2.5494  1.5837 -0.3561
 5541SOL     OW28081   3.893   4.268   6.245  0.0031 -0.1688  0.3151
 5541SOL    HW128082   3.841   4.331   6.195  0.7593  1.5986  1.7726
 5541SOL    HW228083   3.936   4.229   6.169 -2.0292 -1.8362  0.0270
 5542SOL     OW28084   2.504   0.385  12.037  0.6126 -1.0605  0.5063
 5542SOL    HW128085   2.580   0.336  12.006  0.4815 -1.5452  0.9464
 5542SOL    HW228086   2.543   0.470  12.020 -2.0219  0.5831  2.6268
 5543SOL     OW28087   2.905   4.117  11.048  0.0320  0.6828 -0.1571
 5543SOL    HW128088   2.982   4.061  11.057 -1.0487 -0.9936 -1.4288
 5543SOL    HW228089   2.879   4.129  11.139  2.5900 -0.3866  0.6960
 5544SOL     OW28090   1.352   2.240   5.372  0.5897  0.1043 -0.2932
 5544SOL    HW128091   1.282   2.269   5.430 -1.4172  1.6849 -3.4883
 5544SOL    HW228092   1.378   2.326   5.337 -3.2862  1.2888 -0.2500
 5545SOL     OW28093   4.431   1.466   2.509 -0.0131  0.2584 -0.3503
 5545SOL    HW128094   4.393   1.544   2.467 -0.4991 -0.2206 -0.8020
 5545SOL    HW228095   4.379   1.397   2.468 -1.5772 -0.2038  2.3849
 5546SOL     OW28096   0.907   1.790   5.917 -0.2401  0.0743 -0.3803
 5546SOL    HW128097   0.903   1.850   5.992  3.5234 -0.6020  0.3980
 5546SOL    HW228098   0.822   1.799   5.874 -0.0296 -0.6832 -0.9583
 5547SOL     OW28099   3.134   4.518  15.132  0.3866 -0.2719 -0.1939
 5547SOL    HW128100   3.149   4.556  15.045  0.8988 -2.5801 -1.1101
 5547SOL    HW228101   3.158   4.595  15.184 -0.2001 -0.4511  0.3365
 5548SOL     OW28102   2.573   0.872  15.922  0.2117 -0.3260  0.5142
 5548SOL    HW128103   2.665   0.861  15.947  0.3620 -1.5383 -0.5667
 5548SOL    HW228104   2.557   0.781  15.899 -1.6477  0.2957 -0.6289
 5549SOL     OW28105   1.127   4.231   5.716 -0.5714  0.1229 -0.0675
 5549SOL    HW128106   1.112   4.156   5.659  0.2315 -1.2280  1.4889
 5549SOL    HW228107   1.218   4.254   5.698 -0.2519  0.6558  2.2733
 5550SOL     OW28108   3.216   3.059  16.634  0.1656 -0.0057  0.4210
 5550SOL    HW128109   3.311   3.052  16.643  0.3980 -0.6552 -2.5693
 5550SOL    HW228110   3.189   3.013  16.714  1.3964 -2.6444 -0.6879
 5551SOL     OW28111   2.345   2.819   8.682 -0.3708 -0.2773 -0.0470
 5551SOL    HW128112   2.305   2.905   8.687  0.2696  0.1682 -2.6122
 5551SOL    HW228113   2.436   2.841   8.703 -0.2900  1.9986 -2.8625
 5552SOL     OW28114   4.157   1.996   5.799  0.2707 -0.1181 -0.3268
 5552SOL    HW128115   4.232   1.976   5.855 -0.0456 -0.3285  0.0202
 5552SOL    HW228116   4.093   2.034   5.860  0.6598  1.7151 -1.0749
 5553SOL     OW28117   2.746   3.983  13.441  0.0428 -0.0330 -0.4847
 5553SOL    HW128118   2.669   3.926  13.442  0.9351 -1.1783  4.3771
 5553SOL    HW228119   2.797   3.942  13.511 -0.7891  0.0506  0.1747
 5554SOL     OW28120   0.946   0.838  17.284 -0.4936 -0.3815 -0.9666
 5554SOL    HW128121   0.901   0.840  17.368  1.0459  0.2163 -0.1409
 5554SOL    HW228122   0.981   0.927  17.275 -0.5806 -0.4443 -1.9183
 5555SOL     OW28123   2.105   0.275  11.021 -0.0544 -0.1066 -0.1579
 5555SOL    HW128124   2.125   0.355  10.972 -0.9873  1.7672  2.4797
 5555SOL    HW228125   2.027   0.245  10.975  0.3092 -0.0264 -0.8244
 5556SOL     OW28126   0.110   4.017   2.811  0.0605  0.5789  0.0882
 5556SOL    HW128127   0.137   3.994   2.900 -0.4023  2.3945  0.7047
 5556SOL    HW228128   0.074   4.104   2.833  1.5818  0.9495  1.1174
 5557SOL     OW28129   1.978   2.485   4.233  0.1088  0.1625 -0.1971
 5557SOL    HW128130   1.884   2.472   4.244  0.8306 -3.2037  1.7637
 5557SOL    HW228131   1.992   2.441   4.149 -0.8759 -0.8637  0.1712
 5558SOL     OW28132   0.800   2.807   7.870  0.2532 -0.3009 -0.2003
 5558SOL    HW128133   0.811   2.723   7.825  0.9768 -0.1606 -0.2839
 5558SOL    HW228134   0.766   2.863   7.799 -0.6610 -0.4529  0.1164
 5559SOL     OW28135   2.602   3.817   2.645 -0.0271 -0.3760 -0.5311
 5559SOL    HW128136   2.685   3.856   2.671 -0.7508  1.1050 -0.4505
 5559SOL    HW228137   2.621   3.781   2.558  0.4586 -0.7377 -0.2767
 5560SOL     OW28138   2.100   1.577   6.565  0.4290 -0.5472  0.2078
 5560SOL    HW128139   2.072   1.530   6.644 -1.7540  0.2190 -0.1213
 5560SOL    HW228140   2.076   1.515   6.497  1.7961 -0.1807 -0.6107
 5561SOL     OW28141   3.732   4.134  13.420 -0.8177  0.0024 -0.2439
 5561SOL    HW128142   3.714   4.152  13.512  3.8753 -0.9385  0.8296
 5561SOL    HW228143   3.709   4.041  13.420  0.6295 -0.3493 -1.4528
 5562SOL     OW28144   1.208   1.486   4.397  0.5893 -0.0704  0.4042
 5562SOL    HW128145   1.295   1.523   4.408  1.0576 -1.0705  0.0852
 5562SOL    HW228146   1.171   1.541   4.327  3.5066  0.0467 -1.0470
 5563SOL     OW28147   0.368   3.047   8.921  0.0283 -0.0095 -0.3347
 5563SOL    HW128148   0.313   2.975   8.889 -1.3609  0.4092  1.1058
 5563SOL    HW228149   0.295   3.104   8.945 -1.7729 -2.1535 -0.6528
 5564SOL     OW28150   1.412   4.495   0.494 -0.2262 -0.2929  0.1428
 5564SOL    HW128151   1.354   4.532   0.428  3.3126  0.9918 -2.2646
 5564SOL    HW228152   1.496   4.506   0.449  0.3956  0.6659  1.5205
 5565SOL     OW28153   3.965   2.904   7.191 -0.2480 -0.2423  0.2919
 5565SOL    HW128154   3.976   2.809   7.179 -4.4563 -0.6623 -0.1642
 5565SOL    HW228155   4.034   2.937   7.134 -0.1753  0.6108  0.8739
 5566SOL     OW28156   4.185   3.566   7.212 -0.9607  0.2316 -0.3778
 5566SOL    HW128157   4.259   3.540   7.267 -1.1658  1.9731  0.7325
 5566SOL    HW228158   4.224   3.582   7.126  1.3129 -0.9112  0.4366
 5567SOL     OW28159   2.645   2.925  10.091 -0.0573  0.0996 -0.1571
 5567SOL    HW128160   2.624   3.017  10.109 -0.4082 -0.0851  0.3914
 5567SOL    HW228161   2.727   2.918  10.140 -0.5313  2.1342  0.9595
 5568SOL     OW28162   4.162   1.745   5.906 -0.3182 -0.4165  0.1523
 5568SOL    HW128163   4.085   1.766   5.958  1.3546  0.6499  2.1869
 5568SOL    HW228164   4.124   1.768   5.821  2.7379  0.0789 -1.0721
 5569SOL     OW28165   3.552   4.420   1.746 -0.3552  0.3391  0.3940
 5569SOL    HW128166   3.612   4.398   1.675  0.7010  1.0238  1.0760
 5569SOL    HW228167   3.521   4.505   1.717 -1.8285  0.0104  0.9836
 5570SOL     OW28168   1.487   2.129   1.012  0.6558 -0.7004 -0.5417
 5570SOL    HW128169   1.573   2.167   1.029  1.2274 -2.8884  1.5002
 5570SOL    HW228170   1.498   2.036   1.028  1.3764 -0.3236  1.1248
 5571SOL     OW28171   4.087   4.669   6.621  0.2183 -0.2460  0.6628
 5571SOL    HW128172   4.118   0.036   6.608 -1.2079  0.0575 -0.5386
 5571SOL    HW228173   4.143   4.654   6.698  1.7489  1.5861 -0.0836
 5572SOL     OW28174   0.446   0.964   4.348 -0.5275  0.6788  0.1018
 5572SOL    HW128175   0.351   0.965   4.351 -0.5207 -0.7213  0.6265
 5572SOL    HW228176   0.461   1.056   4.326 -0.7952  0.8978  0.8556
 5573SOL     OW28177   0.916   3.725   9.038  0.1216 -0.2479 -0.1441
 5573SOL    HW128178   0.852   3.734   9.109 -1.0351 -1.3575 -1.0288
 5573SOL    HW228179   0.977   3.797   9.055  2.3468 -2.6825  2.0530
 5574SOL     OW28180   1.558   3.003  14.457  0.2042 -0.9005 -0.6281
 5574SOL    HW128181   1.596   2.921  14.487  0.0842 -0.9275 -0.5496
 5574SOL    HW228182   1.466   3.007  14.484  0.1211 -0.6432 -0.9427
 5575SOL     OW28183   1.648   0.917  12.585  0.2807  0.1063  0.1796
 5575SOL    HW128184   1.735   0.936  12.553  0.8932  0.1831  1.8740
 5575SOL    HW228185   1.618   0.863  12.512 -1.1093 -0.4445  1.1353
 5576SOL     OW28186   2.477   4.061   1.556  0.0240 -0.0553  0.0355
 5576SOL    HW128187   2.536   4.063   1.481 -0.3734 -0.1781 -0.2771
 5576SOL    HW228188   2.427   4.142   1.544  0.1471  0.3497  2.1816
 5577SOL     OW28189   3.410   4.665   8.575  0.9637  0.0886 -0.1202
 5577SOL    HW128190   3.360   0.019   8.546  0.3732 -0.8972 -1.7107
 5577SOL    HW228191   3.417   4.689   8.667 -1.3296 -1.4260  0.4362
 5578SOL     OW28192   3.722   2.989  12.190  0.2040 -0.0693  0.3000
 5578SOL    HW128193   3.657   2.988  12.261  2.1409  0.8530  2.0795
 5578SOL    HW228194   3.763   3.074  12.202 -1.0873  0.5164  0.5476
 5579SOL     OW28195   0.217   0.694  12.330 -0.1705 -0.1475 -0.0650
 5579SOL    HW128196   0.272   0.672  12.405  0.1411 -0.0839 -0.2753
 5579SOL    HW228197   0.179   0.776  12.362 -2.7919 -1.1035 -0.7212
 5580SOL     OW28198   0.113   3.433  11.369  0.0556 -0.1816 -0.0670
 5580SOL    HW128199   0.091   3.443  11.276  1.1171  0.5937 -0.2342
 5580SOL    HW228200   0.113   3.337  11.370 -1.5080 -0.1598  3.1294
 5581SOL     OW28201   2.312   2.592   8.218 -0.3454  0.6844 -0.4922
 5581SOL    HW128202   2.400   2.558   8.202 -0.7520 -0.1349 -1.0068
 5581SOL    HW228203   2.266   2.560   8.140 -0.8435 -3.6728  1.5895
 5582SOL     OW28204   1.215   2.416   2.429  0.2844 -0.1348 -0.1424
 5582SOL    HW128205   1.131   2.436   2.389  0.5398  2.4852  0.6180
 5582SOL    HW228206   1.257   2.394   2.346 -0.5748  1.1392 -0.9196
 5583SOL     OW28207   4.157   3.091   5.819 -0.3600  0.1907 -0.2234
 5583SOL    HW128208   4.164   3.128   5.731  3.2704  2.2023  0.9117
 5583SOL    HW228209   4.070   3.053   5.814 -0.6066  0.8314 -0.9227
 5584SOL     OW28210   1.260   4.134   6.844  0.1978 -0.0432 -0.3440
 5584SOL    HW128211   1.232   4.186   6.769 -2.2448 -1.8533 -0.6981
 5584SOL    HW228212   1.276   4.206   6.905  2.4557 -1.1126  0.3286
 5585SOL     OW28213   2.721   4.430   8.016 -0.6312 -0.0797  0.5113
 5585SOL    HW128214   2.670   4.370   8.071 -2.7909  1.9419  0.7110
 5585SOL    HW228215   2.689   4.511   8.055  0.7286  0.8182 -0.2341
 5586SOL     OW28216   2.724   0.566  13.504  0.1182  0.0673 -0.3993
 5586SOL    HW128217   2.667   0.501  13.546  0.8372 -0.3452 -0.0523
 5586SOL    HW228218   2.810   0.529  13.525 -0.7701 -0.1445  2.8814
 5587SOL     OW28219   4.675   0.590  12.334  0.6439  0.0547 -0.4285
 5587SOL    HW128220   4.668   0.550  12.420  0.8713 -1.4714 -1.1190
 5587SOL    HW228221   0.048   0.591  12.332  0.6690 -0.3953  0.4167
 5588SOL     OW28222   1.159   2.036   9.913 -0.0512 -0.3332 -0.1464
 5588SOL    HW128223   1.083   1.977   9.917  1.0974 -1.8071  0.0961
 5588SOL    HW228224   1.201   2.020   9.997 -0.7783 -0.8068  0.1295
 5589SOL     OW28225   0.329   0.002   2.514 -0.4987 -0.4123 -0.1536
 5589SOL    HW128226   0.317   0.028   2.606 -0.6332  1.3922 -0.6770
 5589SOL    HW228227   0.369   4.638   2.520  0.7785  0.2219  0.5817
 5590SOL     OW28228   3.941   4.667   4.677 -0.0085 -0.1546  0.1961
 5590SOL    HW128229   3.879   4.684   4.748 -0.4758 -1.1252  0.0126
 5590SOL    HW228230   3.883   4.618   4.618 -0.5397 -0.2299  0.7785
 5591SOL     OW28231   1.803   3.087   5.430  0.0981  0.2951 -0.8074
 5591SOL    HW128232   1.732   3.042   5.384 -0.6062 -1.2216  1.7594
 5591SOL    HW228233   1.880   3.050   5.384  0.0829  0.6696 -1.1344
 5592SOL     OW28234   0.355   2.293   6.647  0.0797  0.0110  0.2680
 5592SOL    HW128235   0.381   2.265   6.560 -0.5350  0.9057 -0.2085
 5592SOL    HW228236   0.309   2.375   6.625 -1.9539 -1.4837 -1.0193
 5593SOL     OW28237   0.438   4.456   2.449 -0.4320 -0.0546 -0.3938
 5593SOL    HW128238   0.521   4.502   2.440 -1.1529  1.3681  0.2457
 5593SOL    HW228239   0.464   4.364   2.437  0.3350  0.1837 -0.5479
 5594SOL     OW28240   3.632   3.011   0.644 -0.2001  0.2425  0.2090
 5594SOL    HW128241   3.710   2.959   0.663 -0.0291  1.4580  2.8218
 5594SOL    HW228242   3.592   3.029   0.729  1.9217  1.6394  0.9243
 5595SOL     OW28243   0.180   1.396   9.290 -0.0982  0.0573 -0.1598
 5595SOL    HW128244   0.197   1.407   9.383 -0.1569 -0.7758 -0.0517
 5595SOL    HW228245   0.257   1.429   9.244  0.6350 -2.2815 -0.5926
 5596SOL     OW28246   4.283   0.571   5.287  0.3242 -0.7482  0.6293
 5596SOL    HW128247   4.365   0.524   5.296  2.2422  2.2332 -1.1349
 5596SOL    HW228248   4.210   0.520   5.323 -0.5125  0.2055  0.2956
 5597SOL     OW28249   4.690   1.587  17.142 -0.0149  0.3116 -0.1578
 5597SOL    HW128250   0.002   1.512  17.190  0.5940  0.1944 -0.7867
 5597SOL    HW228251   4.695   1.570  17.048 -0.6767 -0.3148 -0.0827
 5598SOL     OW28252   3.001   4.540   2.523 -0.9616 -0.4949  0.3431
 5598SOL    HW128253   2.967   4.611   2.468  1.2846  0.4132  0.1218
 5598SOL    HW228254   3.082   4.585   2.547 -1.1600 -0.7121  1.4214
 5599SOL     OW28255   3.005   2.077   0.346 -0.0205  0.3993  0.0510
 5599SOL    HW128256   2.924   2.085   0.295  1.3215 -2.2143 -2.4469
 5599SOL    HW228257   3.034   2.169   0.347 -0.1270  0.3778  2.8095
 5600SOL     OW28258   2.016   0.473   6.167 -0.3262  0.4709 -0.2189
 5600SOL    HW128259   2.060   0.474   6.252 -1.7952 -1.4693  0.5712
 5600SOL    HW228260   2.017   0.379   6.150 -1.7912  0.3994  0.1333
 5601SOL     OW28261   0.291   0.020   4.098  0.4042 -0.1928 -0.3384
 5601SOL    HW128262   0.303   4.720   4.191  2.1466  2.2039 -0.0163
 5601SOL    HW228263   0.381   0.033   4.068  1.4115 -1.7155  2.0455
 5602SOL     OW28264   2.940   0.492   6.751  0.2246 -0.0960 -0.2124
 5602SOL    HW128265   2.898   0.569   6.789 -0.8793 -0.9910  0.3837
 5602SOL    HW228266   2.876   0.422   6.764 -0.7578  0.2058 -3.2972
 5603SOL     OW28267   2.129   4.070  12.006  0.3942 -0.3063  0.3255
 5603SOL    HW128268   2.104   4.045  12.095 -1.2606  0.0961 -0.0208
 5603SOL    HW228269   2.208   4.022  11.983 -2.0275 -4.0744 -0.1718
 5604SOL     OW28270   1.896   0.841   4.764 -0.3812 -0.3870  0.4049
 5604SOL    HW128271   1.821   0.813   4.711 -1.4388  0.3282  1.5127
 5604SOL    HW228272   1.884   0.800   4.849 -4.6299 -0.8383 -0.3924
 5605SOL     OW28273   3.162   0.562   6.609 -0.2019 -0.2077 -0.3680
 5605SOL    HW128274   3.120   0.623   6.547  0.9012  1.1030  0.1980
 5605SOL    HW228275   3.087   0.540   6.664  0.9170 -1.6616  0.5650
 5606SOL     OW28276   2.632   0.046  13.378 -0.2518 -0.0278 -0.4050
 5606SOL    HW128277   2.569   0.040  13.306  0.2313 -2.2988 -0.6328
 5606SOL    HW228278   2.618   4.687  13.427 -0.5248  0.8975  1.0612
 5607SOL     OW28279   4.642   1.407  13.039 -0.1650  0.6339 -0.6343
 5607SOL    HW128280   4.647   1.344  13.112 -1.5298  0.2167 -0.9004
 5607SOL    HW228281   4.680   1.352  12.970  2.0111  1.1521  0.1432
 5608SOL     OW28282   3.870   4.600   0.162  0.3425 -0.3908  0.4269
 5608SOL    HW128283   3.879   4.575   0.254 -0.2210 -0.4268  0.4710
 5608SOL    HW228284   3.862   4.693   0.179 -2.1455 -0.3880 -0.7095
 5609SOL     OW28285   3.055   1.889   3.871  0.1506  0.4537  0.4232
 5609SOL    HW128286   3.143   1.855   3.855 -0.0043  0.4887 -0.5015
 5609SOL    HW228287   3.077   1.969   3.919  1.0690  0.9818 -0.8804
 5610SOL     OW28288   3.069   4.168  11.566 -1.2297  0.7312 -0.2177
 5610SOL    HW128289   3.086   4.260  11.546 -2.4422  1.3684  1.6689
 5610SOL    HW228290   2.979   4.172  11.598 -1.1471  0.8257  0.0074
 5611SOL     OW28291   2.110   4.652  13.497  0.1795  0.0565 -0.4814
 5611SOL    HW128292   2.045   4.719  13.516 -0.5786 -0.9583  0.4713
 5611SOL    HW228293   2.061   4.570  13.487 -2.2314  1.7127 -2.0466
 5612SOL     OW28294   0.522   0.868   5.177 -0.1687 -0.3871 -0.0758
 5612SOL    HW128295   0.449   0.811   5.154 -1.1447  1.0588 -0.5592
 5612SOL    HW228296   0.488   0.916   5.253  2.5849 -0.5774  1.3079
 5613SOL     OW28297   1.102   3.266   8.532  0.7265 -0.0039  0.5360
 5613SOL    HW128298   1.063   3.353   8.523 -1.0170 -0.9612 -1.2257
 5613SOL    HW228299   1.185   3.278   8.485 -0.0912  0.5310 -0.7791
 5614SOL     OW28300   0.097   4.655   8.556 -0.3668  0.2455  0.3121
 5614SOL    HW128301   0.174   4.648   8.501 -0.9560  2.2981 -0.7726
 5614SOL    HW228302   0.034   4.635   8.487  0.2840  1.7359 -0.7085
 5615SOL     OW28303   0.417   1.594  16.849 -0.1431 -0.1278 -0.0404
 5615SOL    HW128304   0.389   1.637  16.930 -1.1508 -0.6181 -0.1329
 5615SOL    HW228305   0.443   1.673  16.802 -1.1960  1.1202  1.4567
 5616SOL     OW28306   0.636   3.910   9.140 -0.2606 -0.1653 -0.1446
 5616SOL    HW128307   0.668   3.833   9.188  1.1728 -0.6885 -1.9199
 5616SOL    HW228308   0.714   3.964   9.151  0.3118 -0.4572 -2.8101
 5617SOL     OW28309   3.514   4.042  14.977 -0.1369 -0.3877  0.0215
 5617SOL    HW128310   3.588   4.020  14.920  0.6370  0.5499  0.6613
 5617SOL    HW228311   3.534   3.993  15.056  1.8015  2.5164  1.3355
 5618SOL     OW28312   0.570   1.170   7.216  0.2725 -0.2586 -1.0358
 5618SOL    HW128313   0.660   1.155   7.190 -0.1983 -3.3411 -0.9155
 5618SOL    HW228314   0.575   1.256   7.256  0.2839 -1.0273  0.6204
 5619SOL     OW28315   2.838   4.534   6.910  0.0524 -0.0829  0.2526
 5619SOL    HW128316   2.852   4.528   6.815 -0.4753  0.1588  0.1595
 5619SOL    HW228317   2.747   4.563   6.918  0.4733  1.8756 -2.1314
 5620SOL     OW28318   4.148   1.910   7.559  0.3722 -0.0735 -0.6583
 5620SOL    HW128319   4.161   1.885   7.651 -1.5751  1.5960  0.0820
 5620SOL    HW228320   4.056   1.935   7.563  0.3713 -0.1779  0.0160
 5621SOL     OW28321   3.989   3.114   0.598 -0.0738  0.1587 -0.5650
 5621SOL    HW128322   3.992   3.173   0.674  0.6374 -0.4326 -0.1338
 5621SOL    HW228323   3.941   3.039   0.632  1.2610 -0.5012 -0.1384
 5622SOL     OW28324   0.630   4.017   2.093 -0.1576  0.0223 -0.7173
 5622SOL    HW128325   0.675   3.935   2.113 -0.7554 -0.3774 -1.0108
 5622SOL    HW228326   0.693   4.059   2.034 -0.0849 -2.1722 -2.2338
 5623SOL     OW28327   4.234   0.215   8.148  0.0320 -0.1273 -0.5205
 5623SOL    HW128328   4.249   0.195   8.240  1.9935  1.7990 -0.4135
 5623SOL    HW228329   4.139   0.216   8.139  0.3577  2.1378 -3.9352
 5624SOL     OW28330   0.810   1.699  10.410  0.3215 -0.0628  0.1385
 5624SOL    HW128331   0.751   1.727  10.480  0.0172 -0.1552 -0.0778
 5624SOL    HW228332   0.836   1.779  10.364  2.2621 -2.0427 -2.2149
 5625SOL     OW28333   4.622   1.566   7.739  0.5374 -0.4097  0.4762
 5625SOL    HW128334   4.646   1.568   7.647  0.8136 -1.9560  0.5183
 5625SOL    HW228335   4.622   1.471   7.750  0.0018 -0.7751 -2.8275
 5626SOL     OW28336   3.050   4.435   4.959 -0.1167  0.2394 -0.6039
 5626SOL    HW128337   2.969   4.385   4.964  0.1803 -0.2979 -1.1514
 5626SOL    HW228338   3.103   4.377   4.905 -0.2212 -1.1785  0.8081
 5627SOL     OW28339   3.136   1.010   2.862 -0.2220 -0.0391  0.1357
 5627SOL    HW128340   3.102   1.068   2.794 -1.3083 -0.8362 -0.0042
 5627SOL    HW228341   3.092   0.927   2.844 -0.2402 -0.0574  0.2614
 5628SOL     OW28342   3.273   0.518   5.736  0.3343  0.4304 -0.5244
 5628SOL    HW128343   3.225   0.519   5.653 -0.6213  0.3656  0.0235
 5628SOL    HW228344   3.269   0.423   5.751  1.8224  0.6765  1.3373
 5629SOL     OW28345   3.986   3.723   8.713  0.4425  0.5508  0.1351
 5629SOL    HW128346   3.963   3.716   8.805 -0.4532 -0.2794 -0.1399
 5629SOL    HW228347   4.029   3.808   8.708  1.0213  0.3128  1.2183
 5630SOL     OW28348   2.057   4.535   8.444 -0.0335  0.0623 -0.4942
 5630SOL    HW128349   2.007   4.617   8.451 -0.3372 -0.2882  1.4084
 5630SOL    HW228350   2.116   4.547   8.518 -2.2851  4.0049  0.6774
 5631SOL     OW28351   3.243   0.357  11.985  0.3280 -0.5849 -0.5238
 5631SOL    HW128352   3.289   0.298  11.925  0.4431  1.7422 -2.7458
 5631SOL    HW228353   3.159   0.312  11.998  1.7259 -3.3984 -1.1226
 5632SOL     OW28354   1.364   0.965   3.147  0.1068 -0.2004  0.1701
 5632SOL    HW128355   1.392   1.022   3.076  1.8215 -0.8060  0.3676
 5632SOL    HW228356   1.448   0.921   3.163  0.6816  1.1159  0.7398
 5633SOL     OW28357   2.479   0.657  13.432 -0.3661 -0.5492  0.8962
 5633SOL    HW128358   2.565   0.642  13.471  1.0647  0.2181 -1.9522
 5633SOL    HW228359   2.431   0.575  13.435  1.5567 -1.7053  0.3759
 5634SOL     OW28360   0.826   2.431   6.291  0.2246  0.0819 -0.1821
 5634SOL    HW128361   0.816   2.348   6.338 -0.3627  0.2955  0.0651
 5634SOL    HW228362   0.746   2.446   6.241 -0.8675 -2.6009  0.7327
 5635SOL     OW28363   3.322   3.454   6.553  0.0567  0.2484 -0.4032
 5635SOL    HW128364   3.386   3.525   6.553  0.0579  0.2470 -0.0885
 5635SOL    HW228365   3.271   3.469   6.632 -0.1416 -1.1970 -0.2536
 5636SOL     OW28366   2.386   4.585   2.772 -0.2255  0.2878 -0.2931
 5636SOL    HW128367   2.353   4.573   2.683  0.5233 -0.9897 -0.3953
 5636SOL    HW228368   2.470   4.629   2.758  0.7842 -0.9778  1.8294
 5637SOL     OW28369   3.305   2.901   4.297  0.2121 -0.2804  1.1287
 5637SOL    HW128370   3.363   2.831   4.266 -0.6916 -0.3309 -0.4310
 5637SOL    HW228371   3.222   2.858   4.280 -0.9728  2.1584  0.7307
 5638SOL     OW28372   0.330   1.185   8.458 -0.6303 -0.3418 -0.2422
 5638SOL    HW128373   0.341   1.181   8.363  0.5354 -1.6530 -0.0476
 5638SOL    HW228374   0.400   1.130   8.493 -0.9384 -0.9954 -0.6643
 5639SOL     OW28375   1.511   4.031   3.185 -0.0755  0.3956  0.2394
 5639SOL    HW128376   1.449   4.090   3.228 -0.8872  0.5214 -1.1048
 5639SOL    HW228377   1.502   4.065   3.096 -1.6918 -0.0877  0.2235
 5640SOL     OW28378   3.724   2.456   3.123  0.1063  0.1163 -0.0644
 5640SOL    HW128379   3.776   2.528   3.158  0.9067 -0.5571  0.1414
 5640SOL    HW228380   3.773   2.380   3.157 -1.1731 -0.4593  0.5032
 5641SOL     OW28381   0.677   3.138   2.475 -0.4141 -0.5623  0.2810
 5641SOL    HW128382   0.603   3.186   2.438 -0.0235 -0.7649 -0.7846
 5641SOL    HW228383   0.625   3.095   2.543 -0.3144 -0.5618  0.3567
 5642SOL     OW28384   3.537   1.986   3.640 -0.4970  0.1400 -0.4817
 5642SOL    HW128385   3.601   2.024   3.581  0.7677 -1.0875  0.0843
 5642SOL    HW228386   3.588   1.973   3.720 -0.6572 -0.0223 -0.4032
 5643SOL     OW28387   2.353   0.049   8.153 -0.0499  0.0124  0.4462
 5643SOL    HW128388   2.297   0.104   8.208  0.5091  0.2328  0.8018
 5643SOL    HW228389   2.317   0.066   8.066  0.4659  1.5152  0.5264
 5644SOL     OW28390   0.347   0.408   9.131  0.1557  0.3698  0.4035
 5644SOL    HW128391   0.315   0.498   9.122 -0.3836  0.4775  3.5416
 5644SOL    HW228392   0.271   0.370   9.175 -0.2608 -0.5742 -1.1236
 5645SOL     OW28393   2.051   0.127   4.963  0.4570  0.2440 -0.5998
 5645SOL    HW128394   2.117   0.137   5.031 -1.7623  1.6285  1.3708
 5645SOL    HW228395   2.069   0.035   4.944  3.8259  0.7159  0.3191
 5646SOL     OW28396   3.567   3.910   0.174 -0.3720  0.6042  0.2472
 5646SOL    HW128397   3.643   3.856   0.193 -1.3645 -0.7322  0.4132
 5646SOL    HW228398   3.554   3.958   0.256  0.8284 -0.3482  0.9870
 5647SOL     OW28399   2.828   0.421   7.549 -0.7198 -0.6638 -0.1544
 5647SOL    HW128400   2.915   0.447   7.580 -0.4558  0.7516 -2.0526
 5647SOL    HW228401   2.841   0.330   7.524 -2.4655  0.1465 -3.9953
 5648SOL     OW28402   2.402   3.298  12.957 -0.0088  0.1142  0.0138
 5648SOL    HW128403   2.458   3.262  12.889  0.9015 -0.3797  1.0200
 5648SOL    HW228404   2.319   3.321  12.915 -0.7980 -1.4572  0.7165
 5649SOL     OW28405   3.378   1.385  10.545  0.4261 -0.0528 -0.5551
 5649SOL    HW128406   3.412   1.299  10.522 -1.8146 -0.5108 -2.0948
 5649SOL    HW228407   3.304   1.354  10.598  2.1265 -0.8674  1.3640
 5650SOL     OW28408   2.262   1.734  12.495  0.1877  0.6898 -0.0074
 5650SOL    HW128409   2.256   1.662  12.432 -0.6445  1.0068 -0.3037
 5650SOL    HW228410   2.208   1.798  12.448  2.4662  1.5376 -1.4836
 5651SOL     OW28411   3.401   1.339   3.002 -0.3671  0.1562 -0.3575
 5651SOL    HW128412   3.449   1.286   2.938  0.7965  0.9932 -0.1995
 5651SOL    HW228413   3.456   1.330   3.080 -0.0291 -1.9385 -0.8504
 5652SOL     OW28414   3.544   3.279   3.891 -0.1449 -0.0763 -0.7737
 5652SOL    HW128415   3.608   3.350   3.882  0.8989 -0.8762  0.3215
 5652SOL    HW228416   3.460   3.306   3.853  1.0778  0.0655 -3.3053
 5653SOL     OW28417   3.301   1.332   2.419  0.1739 -0.0583  0.4261
 5653SOL    HW128418   3.372   1.281   2.380 -0.0727 -0.6657  0.7619
 5653SOL    HW228419   3.336   1.419   2.399  2.3234 -0.9623  0.2609
 5654SOL     OW28420   2.183   4.345  16.384 -0.4352  0.5010 -0.2566
 5654SOL    HW128421   2.155   4.254  16.382 -1.6919  0.8987 -0.8698
 5654SOL    HW228422   2.166   4.361  16.291  1.0938 -0.0704 -0.6390
 5655SOL     OW28423   1.463   0.908   6.362  0.1138 -0.3566  0.0237
 5655SOL    HW128424   1.511   0.939   6.439  0.7383 -0.7431 -0.2042
 5655SOL    HW228425   1.478   0.813   6.353 -0.3496 -0.3377 -0.9340
 5656SOL     OW28426   3.131   3.632   4.018  0.1821 -0.0913 -0.4927
 5656SOL    HW128427   3.151   3.553   4.069  1.4481  0.3224 -0.3421
 5656SOL    HW228428   3.057   3.664   4.068 -0.1871  0.7644 -1.5928
 5657SOL     OW28429   3.892   1.453  14.395  0.3391 -0.6166  0.0015
 5657SOL    HW128430   3.808   1.498  14.400  0.4816 -0.7339  3.5207
 5657SOL    HW228431   3.906   1.472  14.303  0.4891  0.9527  0.3498
 5658SOL     OW28432   0.055   3.827   8.409  0.0675  0.9016  0.3609
 5658SOL    HW128433   0.017   3.745   8.441  0.3591 -0.0192 -1.6448
 5658SOL    HW228434   0.140   3.824   8.451  0.0345  1.4039  0.4582
 5659SOL     OW28435   2.639   3.849   8.447 -0.5091  0.1391  0.1071
 5659SOL    HW128436   2.579   3.775   8.452  0.9323 -1.0830 -0.5855
 5659SOL    HW228437   2.591   3.907   8.506  0.9756  1.1763  0.2932
 5660SOL     OW28438   4.363   1.354   5.997 -0.4169  0.3933 -0.0618
 5660SOL    HW128439   4.302   1.280   6.003  1.4749 -0.9092  3.3818
 5660SOL    HW228440   4.439   1.314   5.956 -0.6123 -0.5005  0.4341
 5661SOL     OW28441   2.980   0.861   6.632 -0.3621 -0.7139 -0.2740
 5661SOL    HW128442   2.976   0.787   6.693  0.3824  0.4348  1.1869
 5661SOL    HW228443   2.906   0.909   6.669  0.4190 -0.3854  0.8719
 5662SOL     OW28444   1.976   1.900   6.238 -0.1337 -0.1825  0.0745
 5662SOL    HW128445   1.910   1.832   6.226 -0.6574  0.2468  0.4968
 5662SOL    HW228446   1.993   1.881   6.331  0.1852 -0.9385 -0.1410
 5663SOL     OW28447   1.130   3.232   3.043 -0.0728  0.4280 -0.3169
 5663SOL    HW128448   1.157   3.294   3.110 -1.2346  1.8755 -1.1768
 5663SOL    HW228449   1.040   3.209   3.067  0.7730  0.4316  2.8084
 5664SOL     OW28450   1.341   0.646   0.360  0.0294  0.7022 -0.0223
 5664SOL    HW128451   1.401   0.654   0.287 -2.5780  1.9150 -2.0354
 5664SOL    HW228452   1.276   0.587   0.320  0.7506 -0.4446  0.4884
 5665SOL     OW28453   2.497   4.671   2.334 -0.0779  0.4816 -0.2688
 5665SOL    HW128454   2.554   0.016   2.370  1.3471 -1.5612  1.2648
 5665SOL    HW228455   2.442   4.721   2.273  0.0512  0.4006 -0.4509
 5666SOL     OW28456   3.946   0.905   7.693 -0.5740 -0.0717 -0.4533
 5666SOL    HW128457   3.889   0.838   7.731  0.6138 -1.2884 -0.8123
 5666SOL    HW228458   3.897   0.897   7.611 -0.9789 -1.2772 -0.1010
 5667SOL     OW28459   3.489   0.989   8.201 -0.2220  0.1053  0.4891
 5667SOL    HW128460   3.530   1.053   8.258 -0.2309 -0.4901  1.1662
 5667SOL    HW228461   3.519   0.905   8.237 -1.1112 -0.3356  0.1987
 5668SOL     OW28462   0.104   1.101  13.283 -0.5624 -0.5484  0.3004
 5668SOL    HW128463   0.128   1.085  13.374 -0.4935 -1.1644  0.1741
 5668SOL    HW228464   0.189   1.091  13.240  0.3413 -2.1673  2.4818
 5669SOL     OW28465   0.108   2.972   8.344  0.2986 -0.4912  0.0955
 5669SOL    HW128466   0.155   2.949   8.424 -0.7040 -1.1769  0.4784
 5669SOL    HW228467   0.158   2.927   8.276  1.5572 -0.0198  0.7033
 5670SOL     OW28468   3.449   3.713  12.177 -0.1496 -0.1129  0.2017
 5670SOL    HW128469   3.503   3.635  12.166  0.2760 -0.2931  3.3734
 5670SOL    HW228470   3.495   3.778  12.124 -0.9703 -1.2217 -1.8577
 5671SOL     OW28471   4.590   2.144   2.005  0.7031  0.0573 -0.4635
 5671SOL    HW128472   4.574   2.126   2.098  1.6160 -1.7970 -0.6611
 5671SOL    HW228473   4.520   2.208   1.994 -0.1572 -1.0438 -1.4085
 5672SOL     OW28474   1.267   3.912   4.328  0.3384  0.2510 -0.8830
 5672SOL    HW128475   1.363   3.919   4.329  0.3638 -0.3793  0.3867
 5672SOL    HW228476   1.252   3.885   4.418 -0.6608  0.5326 -0.9625
 5673SOL     OW28477   0.907   2.002   5.534 -0.4746 -0.4019  0.5475
 5673SOL    HW128478   0.836   2.024   5.474  0.5952  0.5327 -0.3643
 5673SOL    HW228479   0.961   1.936   5.490  0.0156  1.1247 -1.1356
 5674SOL     OW28480   2.300   3.579   0.912 -0.2575 -0.0506  0.6702
 5674SOL    HW128481   2.335   3.499   0.874 -1.3044 -1.2044  2.1287
 5674SOL    HW228482   2.379   3.631   0.899 -2.0712  1.7499 -3.2100
 5675SOL     OW28483   1.873   2.088  15.570  0.5249  0.3863  0.5754
 5675SOL    HW128484   1.802   2.027  15.588  0.2342  0.9541  1.3109
 5675SOL    HW228485   1.834   2.175  15.568 -2.1359 -0.8312 -0.7714
 5676SOL     OW28486   0.492   0.271   6.857  0.4419 -0.4926  0.1154
 5676SOL    HW128487   0.478   0.198   6.797 -0.3366 -0.1293 -0.1412
 5676SOL    HW228488   0.520   0.214   6.930  0.1217  0.6298  1.1147
 5677SOL     OW28489   0.753   3.778   4.602  0.1597 -0.2322  0.2528
 5677SOL    HW128490   0.834   3.729   4.590  0.4515  0.2119  0.4059
 5677SOL    HW228491   0.704   3.741   4.676  0.0852 -2.5768 -0.9749
 5678SOL     OW28492   4.641   3.240   8.012  0.2096  0.3117 -0.2353
 5678SOL    HW128493   4.664   3.276   8.098 -1.3548  3.1390 -0.9921
 5678SOL    HW228494   4.591   3.165   8.042  0.5939  0.7352  1.4874
 5679SOL     OW28495   3.590   1.575   6.178  0.0548 -0.9797  0.3509
 5679SOL    HW128496   3.654   1.513   6.214  0.5016 -0.8933 -0.2988
 5679SOL    HW228497   3.553   1.514   6.114  1.4809 -1.9798  0.4689
 5680SOL     OW28498   4.480   1.732  17.248 -0.3462  0.1144  0.2022
 5680SOL    HW128499   4.408   1.701  17.193 -0.6747 -0.2944  0.8583
 5680SOL    HW228500   4.547   1.685  17.199  0.6307  0.8541  0.8328
 5681SOL     OW28501   0.220   2.006   6.260 -0.1824 -0.3069  0.1750
 5681SOL    HW128502   0.285   1.958   6.209 -0.1619  0.0574 -0.1431
 5681SOL    HW228503   0.167   2.029   6.184  0.1795 -1.1455 -0.3307
 5682SOL     OW28504   0.217   3.682  17.399 -0.1916 -0.1087  0.1700
 5682SOL    HW128505   0.161   3.693  17.476  0.1767 -0.6443  0.5120
 5682SOL    HW228506   0.147   3.681  17.333 -1.1510 -1.4991  1.2136
 5683SOL     OW28507   0.131   1.819  17.190  0.6230  0.5275  0.3520
 5683SOL    HW128508   0.069   1.749  17.168 -0.5156  1.0354  1.9964
 5683SOL    HW228509   0.198   1.811  17.122 -1.1119 -0.9152 -1.1832
 5684SOL     OW28510   2.207   4.132   1.715  0.8178 -0.4470 -0.1686
 5684SOL    HW128511   2.211   4.075   1.638  0.5648  1.1369 -1.3662
 5684SOL    HW228512   2.234   4.211   1.668  0.8009 -1.2377 -1.5115
 5685SOL     OW28513   3.088   3.234   4.421 -0.2119 -0.2394  0.0185
 5685SOL    HW128514   3.104   3.325   4.399 -2.2738  0.3451  0.9602
 5685SOL    HW228515   2.999   3.225   4.387 -1.1712  0.1259  2.4534
 5686SOL     OW28516   1.569   3.195   7.886  0.6454 -0.6406  0.1024
 5686SOL    HW128517   1.535   3.149   7.963  0.8743 -2.7064 -1.0249
 5686SOL    HW228518   1.573   3.133   7.814 -1.0239  0.6988 -1.1156
 5687SOL     OW28519   1.387   3.548  15.531 -0.2739 -0.1472  0.0760
 5687SOL    HW128520   1.406   3.462  15.492 -0.2881 -0.3817  0.5841
 5687SOL    HW228521   1.470   3.575  15.569 -1.1004  0.1062  1.7297
 5688SOL     OW28522   0.146   2.095  13.548 -0.7471  0.2434  0.1820
 5688SOL    HW128523   0.068   2.039  13.550  0.8147 -1.9729 -1.0883
 5688SOL    HW228524   0.106   2.173  13.586 -3.4426 -1.2069  0.3181
 5689SOL     OW28525   2.848   0.874  15.940 -0.0667  0.6022  0.3313
 5689SOL    HW128526   2.896   0.875  15.857 -0.8358 -1.5755 -0.1353
 5689SOL    HW228527   2.906   0.820  15.994  0.3599 -0.5544 -1.2770
 5690SOL     OW28528   2.227   0.134   7.896 -0.1331  0.0240  0.2735
 5690SOL    HW128529   2.303   0.131   7.838 -0.3024  2.0142 -0.0525
 5690SOL    HW228530   2.186   0.203   7.844 -1.0273 -0.7840 -0.1056
 5691SOL     OW28531   2.346   0.292  12.237 -0.0116  0.6816  0.0068
 5691SOL    HW128532   2.390   0.340  12.308  0.4241 -2.6951  2.0190
 5691SOL    HW228533   2.417   0.304  12.174  2.0066 -0.2027  2.0785
 5692SOL     OW28534   3.607   1.542   5.320 -0.0125 -0.5122 -0.1394
 5692SOL    HW128535   3.512   1.533   5.324 -0.1089 -0.1509 -1.6444
 5692SOL    HW228536   3.617   1.634   5.299 -0.7050 -0.0694  1.5008
 5693SOL     OW28537   1.143   4.683   4.963 -0.4090 -0.1266  0.7532
 5693SOL    HW128538   1.160   4.605   4.910 -2.6410  0.8938 -1.4586
 5693SOL    HW228539   1.172   4.647   5.047  0.8196  1.0596  0.8291
 5694SOL     OW28540   2.882   0.535   3.021  0.2712 -0.3280 -0.3162
 5694SOL    HW128541   2.820   0.464   3.005  0.0922 -0.3965  0.6947
 5694SOL    HW228542   2.835   0.598   3.075  0.1173  0.7775 -1.7377
 5695SOL     OW28543   4.326   3.284   8.878  0.4887 -0.4654 -0.3227
 5695SOL    HW128544   4.416   3.315   8.865  0.9577 -1.2500  1.0276
 5695SOL    HW228545   4.338   3.195   8.845  0.3026 -0.0547 -1.4950
 5696SOL     OW28546   4.354   0.819   5.717 -0.3126 -0.0499  0.0457
 5696SOL    HW128547   4.413   0.887   5.684 -0.1115  0.4006  1.3204
 5696SOL    HW228548   4.317   0.789   5.634  1.2608  0.4762 -0.8648
 5697SOL     OW28549   3.535   2.802  16.452  0.0713  0.4219  0.1074
 5697SOL    HW128550   3.557   2.723  16.404 -1.7275 -0.7546  1.2178
 5697SOL    HW228551   3.442   2.813  16.431  0.0990 -2.9646 -1.7710
 5698SOL     OW28552   2.779   3.574   2.200 -0.2083  0.3299  0.0543
 5698SOL    HW128553   2.703   3.550   2.147 -0.0941 -1.9584  0.9266
 5698SOL    HW228554   2.845   3.507   2.180 -0.1565 -0.1246  1.7136
 5699SOL     OW28555   0.376   2.876  17.691 -0.5653  0.2314 -0.0831
 5699SOL    HW128556   0.387   2.856   0.093  0.1975 -1.1545 -0.4661
 5699SOL    HW228557   0.284   2.903  17.689 -0.5271  0.5013  1.5927
 5700SOL     OW28558   1.565   1.008  10.810  0.0395 -0.1143 -0.2926
 5700SOL    HW128559   1.588   1.016  10.718 -0.2805  3.8202 -0.0225
 5700SOL    HW228560   1.506   1.081  10.832 -1.2853 -0.4219 -2.8039
 5701SOL     OW28561   4.588   3.916   2.389 -0.5054  0.0872  0.3119
 5701SOL    HW128562   4.651   3.970   2.437 -0.9890  1.8404 -0.9976
 5701SOL    HW228563   4.533   3.987   2.355  1.4430  0.8451 -1.2524
 5702SOL     OW28564   2.464   2.853   7.307 -0.1973  0.3409  0.4172
 5702SOL    HW128565   2.482   2.901   7.388  0.6995 -1.6556  1.4282
 5702SOL    HW228566   2.546   2.849   7.257 -0.0276 -0.9379  0.7829
 5703SOL     OW28567   0.957   1.086   4.871  0.0517 -0.0256  0.2941
 5703SOL    HW128568   0.933   1.123   4.956 -1.4884 -0.3902  0.0172
 5703SOL    HW228569   0.993   1.166   4.831 -0.7800  0.2331  0.0600
 5704SOL     OW28570   1.614   0.988  12.294 -0.3353  0.2221 -0.1676
 5704SOL    HW128571   1.548   0.934  12.337 -0.1623 -0.8989 -1.3155
 5704SOL    HW228572   1.603   1.077  12.327 -0.6515  0.4566 -0.9055
 5705SOL     OW28573   0.957   3.470  15.668  0.3718  0.6882  0.2834
 5705SOL    HW128574   1.001   3.551  15.642  2.8082 -0.9783 -0.8208
 5705SOL    HW228575   0.981   3.426  15.587  1.7810 -0.6298  1.4088
 5706SOL     OW28576   4.467   4.095   0.625 -0.2429 -0.8455 -0.3787
 5706SOL    HW128577   4.398   4.158   0.645 -0.5927 -0.9821 -1.1177
 5706SOL    HW228578   4.416   4.015   0.640 -1.1722  0.0213  1.0186
 5707SOL     OW28579   2.841   2.758   5.614 -0.3972  0.0999 -0.3094
 5707SOL    HW128580   2.845   2.854   5.606 -1.5301  0.3858  2.4883
 5707SOL    HW228581   2.746   2.743   5.620 -0.3557  0.0412  0.2171
 5708SOL     OW28582   0.928   2.936  13.277 -0.2376  0.0669  0.0150
 5708SOL    HW128583   0.998   2.942  13.342  0.6649  1.1654 -1.0775
 5708SOL    HW228584   0.853   2.921  13.335 -1.4853  2.3824 -1.0042
 5709SOL     OW28585   4.188   0.925   2.763 -0.1648 -0.2182  0.3677
 5709SOL    HW128586   4.199   0.932   2.858  0.0617  0.9242  0.2598
 5709SOL    HW228587   4.103   0.886   2.783 -0.0464 -1.7168 -2.0975
 5710SOL     OW28588   2.745   4.159   3.374  0.9496 -0.4785  0.3877
 5710SOL    HW128589   2.694   4.082   3.348  0.1554  0.9403 -2.2711
 5710SOL    HW228590   2.807   4.133   3.442  2.0338 -1.4679 -0.9956
 5711SOL     OW28591   4.339   1.935   4.106 -0.3888 -0.1045 -0.6166
 5711SOL    HW128592   4.348   1.966   4.196  1.3956  1.0147 -1.1860
 5711SOL    HW228593   4.303   1.846   4.113 -2.0078  0.7298  1.5826
 5712SOL     OW28594   2.363   3.175   4.041  0.4223  0.3392  0.0791
 5712SOL    HW128595   2.353   3.199   4.133  1.9186  3.5165 -0.6119
 5712SOL    HW228596   2.424   3.239   4.006  0.8361 -0.0465  0.0907
 5713SOL     OW28597   3.478   0.676   1.056  0.5381 -0.0800  0.1514
 5713SOL    HW128598   3.447   0.700   1.142  0.8865 -1.8739  0.7945
 5713SOL    HW228599   3.404   0.660   0.998 -1.7476  1.0765  2.7944
 5714SOL     OW28600   3.855   2.679   5.514 -0.3609 -0.0998  0.4621
 5714SOL    HW128601   3.778   2.665   5.570 -1.2352  1.1424 -0.4327
 5714SOL    HW228602   3.850   2.610   5.448 -1.6086 -1.2410  1.7554
 5715SOL     OW28603   2.204   4.685   9.965 -0.2225  0.2187  0.0056
 5715SOL    HW128604   2.151   4.621  10.012 -0.1447  1.0561  1.2590
 5715SOL    HW228605   2.208   0.023  10.039  2.3292  0.9385 -0.7357
 5716SOL     OW28606   1.263   3.055   7.731  0.2298  0.5762  0.0876
 5716SOL    HW128607   1.251   2.964   7.704 -0.8565  0.6105  0.4760
 5716SOL    HW228608   1.173   3.067   7.760 -0.5387  0.2984 -2.2288
 5717SOL     OW28609   4.698   1.611   2.052  0.6431  0.1133 -0.0163
 5717SOL    HW128610   4.714   1.519   2.029 -1.5833  0.1251 -1.6167
 5717SOL    HW228611   4.644   1.629   1.975  0.0707  0.6936  0.5249
 5718SOL     OW28612   3.763   0.080   3.471 -0.5236 -0.4816 -0.4033
 5718SOL    HW128613   3.685   0.059   3.420 -0.3239 -0.2524 -0.8067
 5718SOL    HW228614   3.801   4.715   3.477 -1.5519 -0.5846  4.3439
 5719SOL     OW28615   2.888   3.742   8.926 -0.0180 -0.0963  0.0915
 5719SOL    HW128616   2.794   3.756   8.927 -0.1919 -1.3585  0.7570
 5719SOL    HW228617   2.919   3.787   9.005 -0.9310  1.0275 -0.1926
 5720SOL     OW28618   4.280   1.403   6.513  0.2038  0.5203 -0.2458
 5720SOL    HW128619   4.327   1.395   6.430 -0.4541 -1.3217 -0.4291
 5720SOL    HW228620   4.352   1.400   6.576  1.8366  1.3946 -2.0674
 5721SOL     OW28621   1.042   0.531   4.296  0.4261 -0.5016  0.6088
 5721SOL    HW128622   1.061   0.547   4.203  2.9238 -0.4876  1.1203
 5721SOL    HW228623   1.119   0.560   4.344  1.7046  1.6059 -2.7219
 5722SOL     OW28624   2.061   1.693   4.715 -0.4112  0.3432 -0.1493
 5722SOL    HW128625   2.079   1.734   4.630 -0.0074  1.1962  0.3541
 5722SOL    HW228626   2.057   1.764   4.778 -1.1045 -1.7729  2.1666
 5723SOL     OW28627   2.295   4.276   6.906  0.3043 -0.4213  0.3067
 5723SOL    HW128628   2.320   4.217   6.835 -1.9692 -1.2938  0.2128
 5723SOL    HW228629   2.325   4.357   6.865 -0.8008 -0.6954 -1.0487
 5724SOL     OW28630   0.607   4.679   5.936  0.1507 -0.7291  0.2240
 5724SOL    HW128631   0.542   4.720   5.879 -0.4532 -2.0480 -0.0595
 5724SOL    HW228632   0.614   4.588   5.904  1.5262  0.2230 -2.1665
 5725SOL     OW28633   1.906   4.398  12.738 -0.3716 -0.0841 -0.6453
 5725SOL    HW128634   1.983   4.350  12.768 -0.2516 -0.0534 -0.8995
 5725SOL    HW228635   1.881   4.465  12.801 -2.0468 -0.3800 -0.9901
 5726SOL     OW28636   0.818   3.421   9.414 -0.2728  0.5955  0.8456
 5726SOL    HW128637   0.763   3.444   9.489 -0.9825  0.8350  0.2523
 5726SOL    HW228638   0.821   3.326   9.428  1.8431  0.2354 -1.9342
 5727SOL     OW28639   2.667   4.108   2.489  0.0926  0.1572 -0.0074
 5727SOL    HW128640   2.602   4.178   2.492 -1.3323 -1.2614  1.8633
 5727SOL    HW228641   2.609   4.033   2.471  1.2259 -0.9501  0.9129
 5728SOL     OW28642   0.491   1.103   5.632 -0.1647 -0.2896  0.0723
 5728SOL    HW128643   0.496   1.101   5.536 -1.0932 -0.8384  0.0384
 5728SOL    HW228644   0.546   1.180   5.649  0.6635 -1.0416  0.8153
 5729SOL     OW28645   3.631   0.523   3.780  0.1151  0.6114 -0.1279
 5729SOL    HW128646   3.564   0.555   3.720 -0.8847  0.9123  1.1526
 5729SOL    HW228647   3.673   0.455   3.727  1.2785 -1.3782  3.2872
 5730SOL     OW28648   1.593   0.472   1.387  0.5426  0.4223  0.5887
 5730SOL    HW128649   1.595   0.548   1.328 -0.7335  0.3251  0.4280
 5730SOL    HW228650   1.553   0.512   1.464  0.0714  1.6470 -0.2846
 5731SOL     OW28651   0.594   4.683   8.175 -0.0294 -0.1334  0.3613
 5731SOL    HW128652   0.581   0.048   8.212 -0.3513 -0.3991  0.8891
 5731SOL    HW228653   0.566   4.640   8.257  0.1050  1.3674  1.2019
 5732SOL     OW28654   2.811   3.131   6.625  0.7733  0.3459  0.4999
 5732SOL    HW128655   2.877   3.197   6.603 -0.8250  1.3774 -1.1651
 5732SOL    HW228656   2.743   3.179   6.672 -1.7740 -3.3167  0.5488
 5733SOL     OW28657   2.855   3.245  10.513 -0.3592 -0.1886 -0.4149
 5733SOL    HW128658   2.944   3.255  10.480  0.5890  0.8877  2.4809
 5733SOL    HW228659   2.874   3.242  10.607 -0.1515  1.4298 -0.4096
 5734SOL     OW28660   0.481   4.266   3.188 -0.1632  0.3222  0.1534
 5734SOL    HW128661   0.393   4.255   3.150 -0.7212  1.4293  1.1324
 5734SOL    HW228662   0.506   4.176   3.163 -2.6208 -1.0015  2.4882
 5735SOL     OW28663   1.467   2.498   0.029  0.0776 -0.2618  0.3605
 5735SOL    HW128664   1.514   2.474   0.109 -2.4228 -1.9282  1.3246
 5735SOL    HW228665   1.384   2.527   0.066  0.2499  1.3216 -0.5085
 5736SOL     OW28666   1.445   3.212   6.990  0.8306  0.1840 -0.0793
 5736SOL    HW128667   1.392   3.242   6.916  3.7703  0.5290 -2.0462
 5736SOL    HW228668   1.506   3.285   7.001  0.4260  0.4207  0.6034
 5737SOL     OW28669   3.630   4.535   0.342 -0.1049 -0.0430 -0.1916
 5737SOL    HW128670   3.609   4.539   0.249 -2.1714  2.6997  0.3630
 5737SOL    HW228671   3.664   4.446   0.343  0.4228  0.1651  0.3876
 5738SOL     OW28672   4.258   0.600   3.532 -0.5505  0.3720  0.2914
 5738SOL    HW128673   4.205   0.633   3.605 -0.5320  3.2479 -1.0122
 5738SOL    HW228674   4.342   0.623   3.572 -1.8971 -1.5895  4.3651
 5739SOL     OW28675   2.388   0.196   6.628  0.4630  0.5399  0.2704
 5739SOL    HW128676   2.411   0.136   6.699 -1.8767 -0.9441 -0.2110
 5739SOL    HW228677   2.438   0.162   6.553  0.1405  0.7028 -0.0199
 5740SOL     OW28678   3.875   3.259  16.633 -0.0826 -0.5003  0.1956
 5740SOL    HW128679   3.821   3.276  16.556  0.2387  3.5753  0.9065
 5740SOL    HW228680   3.959   3.278  16.593 -0.3802  0.8070  0.2012
 5741SOL     OW28681   4.207   4.669   5.113 -0.2382 -0.0408  0.1922
 5741SOL    HW128682   4.271   0.018   5.116  0.4469 -0.7911  2.5805
 5741SOL    HW228683   4.201   4.644   5.020  1.2946  0.7427 -0.1133
 5742SOL     OW28684   2.201   3.772   8.274  0.1077 -0.0680 -0.4040
 5742SOL    HW128685   2.152   3.693   8.293 -0.4889  0.4591  0.2280
 5742SOL    HW228686   2.292   3.747   8.290 -0.1829  0.1130  1.5221
 5743SOL     OW28687   1.705   3.758   2.902  0.2974 -0.3014 -0.2015
 5743SOL    HW128688   1.677   3.830   2.845  0.2799  0.1650  0.4005
 5743SOL    HW228689   1.713   3.696   2.829  2.4949 -0.5543  0.2837
 5744SOL     OW28690   1.658   3.591   0.490  0.0513  0.2885  0.3699
 5744SOL    HW128691   1.682   3.678   0.519 -1.4529  0.5033  0.9517
 5744SOL    HW228692   1.682   3.540   0.567  0.5813 -1.1401 -0.7254
 5745SOL     OW28693   1.512   4.029  11.946  0.1371  0.0200  0.5419
 5745SOL    HW128694   1.478   3.941  11.963  1.1661 -0.2575  1.1766
 5745SOL    HW228695   1.604   4.005  11.950 -0.8448 -3.2763  2.6128
 5746SOL     OW28696   4.207   2.954   8.492  0.3363  0.1255  0.4682
 5746SOL    HW128697   4.218   2.892   8.563  0.7449  0.4035  0.6528
 5746SOL    HW228698   4.240   2.902   8.419 -1.8142 -0.1555 -0.2978
 5747SOL     OW28699   0.220   2.953   4.976 -0.2504  0.3826  0.2193
 5747SOL    HW128700   0.218   2.901   5.056  0.4687 -1.4615 -0.9646
 5747SOL    HW228701   0.294   3.010   4.994 -0.1307  0.3019 -0.0241
 5748SOL     OW28702   1.872   4.673   3.339 -0.2044 -0.2453 -1.1327
 5748SOL    HW128703   1.912   4.600   3.386 -0.0116  0.4585 -0.2126
 5748SOL    HW228704   1.779   4.673   3.361 -0.4698 -0.6531 -2.2413
 5749SOL     OW28705   1.561   3.736   3.411 -0.0344  0.1670  0.0970
 5749SOL    HW128706   1.583   3.742   3.318  1.5790  1.0000  0.5376
 5749SOL    HW228707   1.473   3.772   3.413  0.0891  0.4293  0.8413
 5750SOL     OW28708   1.184   0.710  10.711  0.6741 -0.0746  0.4348
 5750SOL    HW128709   1.256   0.654  10.741 -0.2326 -1.3073  0.3503
 5750SOL    HW228710   1.229   0.789  10.682  1.6091 -0.8991 -0.3655
 5751SOL     OW28711   2.038   0.827   5.288  0.0932  0.3453  0.1159
 5751SOL    HW128712   2.003   0.742   5.261 -1.6996  1.6865 -1.7820
 5751SOL    HW228713   1.980   0.850   5.361 -0.5672  3.3510 -1.3416
 5752SOL     OW28714   0.349   1.340   3.652  0.1471 -0.5707 -1.0065
 5752SOL    HW128715   0.406   1.289   3.710  0.9124  2.0646  0.5327
 5752SOL    HW228716   0.407   1.414   3.634 -0.1195  0.0758  0.7130
 5753SOL     OW28717   3.772   4.389  14.438 -0.0299  0.1538  0.5365
 5753SOL    HW128718   3.677   4.386  14.451  0.0317 -2.8079  0.3976
 5753SOL    HW228719   3.771   4.437  14.356 -0.8656 -0.9055 -0.0760
 5754SOL     OW28720   4.619   0.766  12.155  0.2708  0.8982 -0.3755
 5754SOL    HW128721   4.638   0.697  12.219 -0.9554  1.4977  0.6419
 5754SOL    HW228722   4.708   0.783  12.125  0.5266 -0.9449 -0.6807
 5755SOL     OW28723   1.778   1.805  15.173 -0.1676 -0.4640  0.2890
 5755SOL    HW128724   1.719   1.730  15.178  1.1688 -1.7065 -2.2975
 5755SOL    HW228725   1.838   1.793  15.246  2.0048  1.2024 -1.2100
 5756SOL     OW28726   2.506   0.976   7.587 -0.6476  0.0691  0.2230
 5756SOL    HW128727   2.436   0.910   7.584 -1.8032  1.2363  1.5121
 5756SOL    HW228728   2.575   0.926   7.543 -0.2844 -0.0214  0.8931
 5757SOL     OW28729   2.611   1.091   7.805 -0.3687  0.0311  0.3472
 5757SOL    HW128730   2.684   1.143   7.769 -0.8074 -1.1556 -2.2411
 5757SOL    HW228731   2.588   1.038   7.729  0.4136  2.2345 -1.4422
 5758SOL     OW28732   4.715   3.060  17.477  0.1754  0.0466  0.0811
 5758SOL    HW128733   4.666   3.140  17.498 -0.0096 -0.0601  0.0538
 5758SOL    HW228734   4.686   3.043  17.387  0.5583  0.7103 -0.1666
 5759SOL     OW28735   4.180   3.160  15.976  0.7558  0.2286  0.3302
 5759SOL    HW128736   4.212   3.191  15.892  1.5603 -3.1223 -0.6060
 5759SOL    HW228737   4.210   3.069  15.979 -0.9579 -0.3758 -1.2562
 5760SOL     OW28738   4.444   4.249   1.107 -0.2432 -0.1352  0.2324
 5760SOL    HW128739   4.465   4.192   1.033  0.7984 -1.1542  1.3004
 5760SOL    HW228740   4.376   4.306   1.073  0.6801  1.0662  0.3854
 5761SOL     OW28741   1.991   2.752   4.233  0.6930  0.1971 -0.2649
 5761SOL    HW128742   2.003   2.657   4.233 -1.1265 -0.0011  2.4493
 5761SOL    HW228743   2.035   2.751   4.318 -0.8942  0.4545  0.5565
 5762SOL     OW28744   1.012   1.555   6.007  0.3944 -0.0644 -0.1146
 5762SOL    HW128745   1.039   1.524   5.921 -1.9076  0.5406 -1.0585
 5762SOL    HW228746   0.979   1.644   5.992 -1.7073 -0.2969  3.0927
 5763SOL     OW28747   1.586   0.701   0.791 -0.3399 -0.1054  0.3430
 5763SOL    HW128748   1.529   0.713   0.715 -1.4662  1.4996  1.4342
 5763SOL    HW228749   1.645   0.634   0.755 -0.2734  0.3690 -0.4486
 5764SOL     OW28750   2.323   3.371   2.178  0.3107  0.0867  0.6037
 5764SOL    HW128751   2.324   3.276   2.190  1.1719  0.1682  1.1522
 5764SOL    HW228752   2.406   3.402   2.214 -0.5451  2.5490  0.4743
 5765SOL     OW28753   1.203   1.948   0.609  0.3926 -0.1090 -0.0194
 5765SOL    HW128754   1.225   1.963   0.701 -1.1099  0.4138  0.2460
 5765SOL    HW228755   1.266   2.000   0.559 -0.5389  1.0345 -0.0042
 5766SOL     OW28756   4.004   2.967  13.028  0.5783  0.1684 -0.2580
 5766SOL    HW128757   3.968   2.906  12.964  0.2884 -0.6161  0.6717
 5766SOL    HW228758   4.011   3.043  12.969 -0.4826  1.5255  1.3674
 5767SOL     OW28759   2.798   2.526   6.115 -0.4466  0.4796 -0.4326
 5767SOL    HW128760   2.839   2.535   6.029  1.4541  0.6819  0.5080
 5767SOL    HW228761   2.805   2.612   6.156 -1.9557 -0.1940  1.2671
 5768SOL     OW28762   3.597   4.548   6.500  0.5223 -0.2854  0.5195
 5768SOL    HW128763   3.666   4.542   6.566  1.4799  2.4741 -0.2447
 5768SOL    HW228764   3.616   4.465   6.456  1.7359  1.4425 -2.2100
 5769SOL     OW28765   3.018   4.218  17.521 -0.3062  0.4449 -0.0512
 5769SOL    HW128766   3.024   4.228  17.426 -1.0395  0.7580 -0.0653
 5769SOL    HW228767   3.107   4.242  17.546 -0.1872 -0.6791  0.6266
 5770SOL     OW28768   2.815   0.603   5.127 -0.7785 -0.5091 -0.0986
 5770SOL    HW128769   2.877   0.609   5.054 -0.6644 -2.1093 -0.1326
 5770SOL    HW228770   2.860   0.569   5.204  0.7333  2.7269  0.4696
 5771SOL     OW28771   4.644   2.390   6.052  0.0196 -0.4430  0.3788
 5771SOL    HW128772   4.548   2.396   6.044  0.0617  0.4249  0.6199
 5771SOL    HW228773   4.679   2.478   6.044 -0.3997 -0.4037 -1.0483
 5772SOL     OW28774   3.370   0.743   3.798  0.1157 -0.3002 -0.5660
 5772SOL    HW128775   3.315   0.817   3.826  1.8603  0.5395  0.6574
 5772SOL    HW228776   3.322   0.692   3.734 -2.2159 -0.1427  1.0593
 5773SOL     OW28777   0.110   3.448   3.159  0.7541 -0.0771  0.1037
 5773SOL    HW128778   0.047   3.433   3.089 -1.4176  0.5891  1.9050
 5773SOL    HW228779   0.184   3.479   3.108 -0.0978  0.5190 -0.7644
 5774SOL     OW28780   1.434   4.242  10.685 -0.2782 -0.0208  0.0482
 5774SOL    HW128781   1.415   4.252  10.592  1.2094  0.0732 -0.2585
 5774SOL    HW228782   1.405   4.331  10.708 -1.5158 -0.2668 -0.6015
 5775SOL     OW28783   2.876   1.950   4.123  0.0538 -0.0633  0.2343
 5775SOL    HW128784   2.933   1.990   4.056 -0.2800 -0.2949 -0.1856
 5775SOL    HW228785   2.926   1.973   4.201 -0.2643 -0.4255  0.5431
 5776SOL     OW28786   1.420   2.094   9.608  0.0723 -0.2852 -0.7546
 5776SOL    HW128787   1.510   2.126   9.600  0.4256 -1.1926 -0.4312
 5776SOL    HW228788   1.385   2.162   9.665  2.6752 -1.0535  1.7642
 5777SOL     OW28789   4.199   3.232   5.205  0.0413  0.2089 -0.4022
 5777SOL    HW128790   4.111   3.268   5.211 -0.6558 -2.0425  2.6528
 5777SOL    HW228791   4.193   3.189   5.119  0.3979 -2.3581  0.8521
 5778SOL     OW28792   2.661   4.534   7.763  0.3422  0.6078 -0.2873
 5778SOL    HW128793   2.582   4.587   7.779  1.5438  1.3526  3.3788
 5778SOL    HW228794   2.641   4.466   7.828 -1.2377  2.6755  1.4108
 5779SOL     OW28795   0.325   2.974   7.865 -0.2839 -0.2751 -0.0426
 5779SOL    HW128796   0.355   3.063   7.884  0.9991 -0.5715 -0.7497
 5779SOL    HW228797   0.375   2.906   7.909  1.3494  1.3353  0.5668
 5780SOL     OW28798   3.119   1.397  13.715  0.5612  0.4823  0.2250
 5780SOL    HW128799   3.176   1.462  13.673  1.2602 -1.6861 -2.1674
 5780SOL    HW228800   3.033   1.439  13.706  0.6685  0.8289  0.8025
 5781SOL     OW28801   2.887   4.107   6.071  0.5971  0.3808 -0.0853
 5781SOL    HW128802   2.877   4.163   6.148  0.4126  0.8924 -0.4822
 5781SOL    HW228803   2.815   4.132   6.012  0.5715 -0.4122 -0.3929
 5782SOL     OW28804   0.041   0.326   1.174  0.5345  0.5238  0.3402
 5782SOL    HW128805   0.137   0.326   1.172  0.5193  2.0183 -0.5381
 5782SOL    HW228806   0.012   0.417   1.172 -0.3471  0.2349 -0.0267
 5783SOL     OW28807   0.576   2.974  16.424 -0.2982 -0.7491  0.3059
 5783SOL    HW128808   0.648   2.962  16.486 -0.6764  0.6060  1.0087
 5783SOL    HW228809   0.629   2.994  16.347 -0.9140 -0.7275 -0.1116
 5784SOL     OW28810   1.070   3.671   8.612  0.5143 -0.1756 -0.1957
 5784SOL    HW128811   1.126   3.657   8.536  1.5404 -0.1578  0.5570
 5784SOL    HW228812   1.086   3.761   8.639 -1.0428  1.0932 -3.4753
 5785SOL     OW28813   3.426   3.559   9.578 -0.1154 -1.0458  0.3416
 5785SOL    HW128814   3.382   3.637   9.544 -0.1745 -1.0309  0.4528
 5785SOL    HW228815   3.517   3.585   9.587 -0.5706  0.9071 -0.7892
 5786SOL     OW28816   2.778   3.823   3.887  0.3108  0.8528 -0.4788
 5786SOL    HW128817   2.691   3.806   3.849  0.6899  0.3611 -1.1347
 5786SOL    HW228818   2.752   3.836   3.978  1.6418  0.1777 -0.0076
 5787SOL     OW28819   3.802   0.248  15.936 -0.3431 -0.0661  0.1069
 5787SOL    HW128820   3.797   0.169  15.990 -1.8927  0.2805  0.4609
 5787SOL    HW228821   3.709   0.267  15.922  0.3407  3.2284  0.0401
 5788SOL     OW28822   2.550   0.848   9.161 -0.3089 -0.3574  0.3450
 5788SOL    HW128823   2.524   0.923   9.107 -0.5568  1.8200  3.5076
 5788SOL    HW228824   2.646   0.849   9.157 -0.3220  1.4435  0.2643
 5789SOL     OW28825   4.506   1.811   3.546  0.2439 -0.2599  0.2732
 5789SOL    HW128826   4.475   1.780   3.461 -1.3941 -0.2540  0.8861
 5789SOL    HW228827   4.598   1.826   3.523  0.1861  1.3259  1.0706
 5790SOL     OW28828   1.453   1.397  12.182  0.6990 -0.0401  0.1956
 5790SOL    HW128829   1.515   1.335  12.220 -0.6040  0.6837  3.4948
 5790SOL    HW228830   1.368   1.365  12.214 -0.3007  2.8752  0.4056
 5791SOL     OW28831   4.501   3.588   4.668  0.7998  0.2548 -0.2513
 5791SOL    HW128832   4.497   3.647   4.743  1.1682 -0.8542  0.6396
 5791SOL    HW228833   4.573   3.618   4.614  2.4568  0.3185  1.9930
 5792SOL     OW28834   0.934   1.300   9.883  0.0276  0.0239 -0.6930
 5792SOL    HW128835   0.928   1.291   9.788 -0.3737 -0.9641 -0.5704
 5792SOL    HW228836   0.962   1.392   9.884 -0.2460  0.1078 -0.8920
 5793SOL     OW28837   3.920   1.526   1.403 -0.1915  0.8508  0.2902
 5793SOL    HW128838   4.012   1.527   1.431 -0.0302 -0.0421 -0.2062
 5793SOL    HW228839   3.864   1.550   1.477 -1.9190 -0.9870 -0.4362
 5794SOL     OW28840   3.134   0.862   3.902 -0.3378 -1.0508 -0.0457
 5794SOL    HW128841   3.050   0.876   3.945 -0.2756  0.6949 -0.4987
 5794SOL    HW228842   3.178   0.941   3.933 -0.7050 -1.7946  2.3359
 5795SOL     OW28843   2.118   0.456   3.933  0.0718 -0.1938  0.4999
 5795SOL    HW128844   2.055   0.475   4.003 -0.0189 -0.6534  0.5425
 5795SOL    HW228845   2.068   0.461   3.852 -0.3473 -0.8898  0.7227
 5796SOL     OW28846   0.050   2.723  10.283  0.1081  0.0036  0.5011
 5796SOL    HW128847   4.689   2.676  10.290  0.6612 -1.1639 -0.9393
 5796SOL    HW228848   0.107   2.675  10.344 -0.0045 -1.9710 -0.9412
 5797SOL     OW28849   0.968   1.741   8.443 -0.0047  0.1971  0.1114
 5797SOL    HW128850   1.037   1.744   8.377 -1.1289  0.3029 -1.0454
 5797SOL    HW228851   1.019   1.754   8.523  0.1393 -2.4813  0.4532
 5798SOL     OW28852   0.844   0.893  17.560 -0.6481  1.0942 -0.5025
 5798SOL    HW128853   0.904   0.896  17.634  0.1281 -0.6325 -1.0384
 5798SOL    HW228854   0.761   0.859  17.593 -0.6955  1.5625 -0.1482
 5799SOL     OW28855   0.679   4.041   5.214 -0.3455  0.0153  0.3962
 5799SOL    HW128856   0.621   3.997   5.276  1.8641 -1.3697  1.5092
 5799SOL    HW228857   0.734   4.091   5.274 -2.2860  0.7088  1.6018
 5800SOL     OW28858   1.542   4.056  15.831 -0.4311  0.2937  0.4081
 5800SOL    HW128859   1.606   4.065  15.761  0.5553 -2.3604  0.9653
 5800SOL    HW228860   1.461   4.085  15.790  0.7740 -0.3681 -2.4701
 5801SOL     OW28861   3.012   2.456   0.115  0.1673  0.4194 -0.1691
 5801SOL    HW128862   3.023   2.383   0.053  0.8737 -1.0546  1.6754
 5801SOL    HW228863   3.035   2.403   0.192 -0.0779  0.7201  0.1111
 5802SOL     OW28864   1.235   2.047   7.444  0.2103 -0.0787  0.2236
 5802SOL    HW128865   1.243   1.997   7.363 -1.1089 -0.2172  0.1736
 5802SOL    HW228866   1.182   1.990   7.500  1.3975 -1.4981 -0.0977
 5803SOL     OW28867   3.285   2.106   3.172  0.1691 -0.1756 -0.1793
 5803SOL    HW128868   3.347   2.078   3.239 -0.4078  0.1604  0.5011
 5803SOL    HW228869   3.199   2.118   3.213 -0.2892  1.4437 -1.5723
 5804SOL     OW28870   4.629   1.905   5.699 -0.5666 -0.5795 -0.6021
 5804SOL    HW128871   4.630   1.848   5.776 -0.6001 -0.1465 -0.2770
 5804SOL    HW228872   4.587   1.985   5.732  0.2014  0.0687 -1.1874
 5805SOL     OW28873   4.157   3.245   6.282  0.1858  0.3120  0.2965
 5805SOL    HW128874   4.246   3.281   6.285  1.3544 -2.4334 -1.4269
 5805SOL    HW228875   4.148   3.245   6.186 -2.9384  1.5393  0.5746
 5806SOL     OW28876   4.651   0.689   6.167 -0.3845 -0.4419 -1.0747
 5806SOL    HW128877   4.614   0.744   6.098  1.9256  1.8226 -0.5109
 5806SOL    HW228878   0.011   0.678   6.119  0.2130  2.1051 -0.6344
 5807SOL     OW28879   2.772   4.342   0.794  0.2200 -0.0444 -0.1250
 5807SOL    HW128880   2.785   4.437   0.795 -3.6401  0.4955 -1.7866
 5807SOL    HW228881   2.833   4.307   0.730  0.5131 -0.0550  0.1574
 5808SOL     OW28882   2.092   3.497   0.471 -0.1040 -0.5327  0.4988
 5808SOL    HW128883   2.023   3.430   0.477  1.2951 -1.9952  0.2668
 5808SOL    HW228884   2.100   3.513   0.378  3.3483  0.8466  1.0468
 5809SOL     OW28885   0.134   2.412   9.750 -0.4745  0.5451 -0.1612
 5809SOL    HW128886   0.114   2.324   9.782  0.4982 -0.3854 -2.0789
 5809SOL    HW228887   0.228   2.406   9.733 -0.7321 -1.8357 -0.7678
 5810SOL     OW28888   2.915   0.613   6.078 -0.2451  0.5444  0.0648
 5810SOL    HW128889   2.893   0.621   6.171  0.7881  0.5492  0.3044
 5810SOL    HW228890   2.976   0.539   6.076  1.0448  1.6543 -1.6538
 5811SOL     OW28891   2.743   0.265   5.291  0.5619 -0.3254  0.1637
 5811SOL    HW128892   2.715   0.299   5.206  2.2085 -3.1584 -1.5410
 5811SOL    HW228893   2.718   0.172   5.295  0.8572 -0.3459  1.3646
 5812SOL     OW28894   0.123   3.937   6.631  0.0905  0.0072  0.0841
 5812SOL    HW128895   0.198   3.879   6.647 -1.2137 -1.3726  1.2186
 5812SOL    HW228896   0.128   3.984   6.713  1.7561 -0.4569  0.2560
 5813SOL     OW28897   2.567   2.443   7.655  0.3503  0.5982 -0.1641
 5813SOL    HW128898   2.635   2.381   7.684  0.4248 -0.1695 -2.0085
 5813SOL    HW228899   2.487   2.405   7.690  0.7586 -0.3868 -0.3069
 5814SOL     OW28900   2.325   2.157   5.470  0.1833  0.2145  0.8921
 5814SOL    HW128901   2.233   2.183   5.475  0.3298  0.7486  0.7629
 5814SOL    HW228902   2.332   2.088   5.537 -0.8206  0.9765  1.7763
 5815SOL     OW28903   2.282   3.785   1.780 -0.6852 -0.0926  0.0408
 5815SOL    HW128904   2.210   3.841   1.811 -0.9554  0.1140 -0.9792
 5815SOL    HW228905   2.239   3.708   1.743 -0.2952  0.4368 -1.4928
 5816SOL     OW28906   1.321   0.830   7.184  0.5831 -0.1922  0.3339
 5816SOL    HW128907   1.346   0.840   7.276  0.8195 -2.3783  0.5122
 5816SOL    HW228908   1.235   0.872   7.185  0.7891  0.2685 -1.2075
 5817SOL     OW28909   0.952   0.224   7.726 -0.6912  0.3722  0.5356
 5817SOL    HW128910   0.866   0.240   7.687 -0.2928  0.4003 -0.3262
 5817SOL    HW228911   0.984   0.150   7.675 -1.0009  0.2620  0.5016
 5818SOL     OW28912   3.269   0.713   3.520  0.1262  0.0882  0.3365
 5818SOL    HW128913   3.308   0.797   3.544 -0.4738  0.9138 -1.5989
 5818SOL    HW228914   3.296   0.709   3.429  1.0442 -0.7675  0.6424
 5819SOL     OW28915   2.046   2.881   3.477 -0.1182 -0.7938  0.3387
 5819SOL    HW128916   2.137   2.872   3.447  0.0287  0.7428  0.3060
 5819SOL    HW228917   2.005   2.797   3.460  1.2848 -1.5784  0.8844
 5820SOL     OW28918   1.156   4.079   7.300  0.3234  0.1160 -0.3026
 5820SOL    HW128919   1.244   4.117   7.294  0.0840  0.3242 -2.4847
 5820SOL    HW228920   1.175   3.994   7.260  0.8555  0.5956 -1.0890
 5821SOL     OW28921   1.848   2.503   3.852 -0.6112  0.2217 -0.0825
 5821SOL    HW128922   1.898   2.524   3.774  1.7163  2.2916  1.9664
 5821SOL    HW228923   1.890   2.429   3.895 -1.2597 -0.0901  0.0142
 5822SOL     OW28924   1.322   3.855   1.131  0.3594  0.0455  0.1565
 5822SOL    HW128925   1.238   3.865   1.175  0.8661 -0.2999  1.2016
 5822SOL    HW228926   1.315   3.784   1.066 -1.8187 -0.3471  0.8350
 5823SOL     OW28927   1.435   1.497   9.828  0.4217 -0.0402 -0.0936
 5823SOL    HW128928   1.351   1.540   9.844  0.6753  0.7760 -0.9441
 5823SOL    HW228929   1.409   1.406   9.839 -2.0360  0.6169 -0.5209
 5824SOL     OW28930   1.485   3.886   3.794 -0.2910 -0.3428 -0.4526
 5824SOL    HW128931   1.486   3.975   3.828  0.6762 -0.5377  0.0231
 5824SOL    HW228932   1.555   3.895   3.729  0.3931 -1.3855  0.1325
 5825SOL     OW28933   0.609   1.853  10.112 -0.2337 -0.2678 -0.1371
 5825SOL    HW128934   0.525   1.856  10.159  0.0750 -1.7057  0.5044
 5825SOL    HW228935   0.581   1.815  10.029  1.3259  0.3028 -0.9336
 5826SOL     OW28936   0.704   3.061  11.008 -0.5121  0.0135  0.1000
 5826SOL    HW128937   0.618   3.024  10.987 -1.1480  0.9867  1.0372
 5826SOL    HW228938   0.704   3.130  10.941 -0.9775 -2.3614 -2.3771
 5827SOL     OW28939   1.734   4.041   8.630  0.7671  0.2025 -0.0172
 5827SOL    HW128940   1.724   3.994   8.713  1.0270  0.5886  0.2264
 5827SOL    HW228941   1.765   4.124   8.665  2.3109 -1.3291  2.2048
 5828SOL     OW28942   2.056   3.171   8.651 -0.0332  0.3478  0.0746
 5828SOL    HW128943   2.123   3.114   8.690  0.0954  0.7030  0.3736
 5828SOL    HW228944   1.981   3.132   8.698 -0.5827  0.9871 -0.2705
 5829SOL     OW28945   2.144   1.364  11.067 -0.1643  0.1796  0.4666
 5829SOL    HW128946   2.102   1.372  11.152  0.5439  0.1496  0.8164
 5829SOL    HW228947   2.215   1.301  11.082 -0.5447 -0.3349  0.1022
 5830SOL     OW28948   3.312   3.777   9.453 -0.0690  0.4486  0.3731
 5830SOL    HW128949   3.289   3.793   9.362  1.0102  2.3001  0.4230
 5830SOL    HW228950   3.222   3.753   9.475  0.0879 -0.6925 -0.2186
 5831SOL     OW28951   1.399   3.504   5.701  0.2393  0.2200 -0.4700
 5831SOL    HW128952   1.465   3.466   5.643 -0.4396 -3.0514  0.8946
 5831SOL    HW228953   1.328   3.527   5.642 -1.2811  0.0575  1.3264
 5832SOL     OW28954   0.506   4.229   0.673  0.6106  0.0903  0.2361
 5832SOL    HW128955   0.422   4.269   0.650  0.1962 -0.3092  1.0486
 5832SOL    HW228956   0.573   4.237   0.606  0.0244  0.0706 -0.3497
 5833SOL     OW28957   2.947   2.464  17.058  0.2301  0.2333 -0.2882
 5833SOL    HW128958   3.038   2.438  17.072  0.4784  0.7125 -1.0171
 5833SOL    HW228959   2.933   2.438  16.967  1.6248 -0.9831 -0.1557
 5834SOL     OW28960   2.654   1.641   8.146  0.1927  0.1257  0.5122
 5834SOL    HW128961   2.749   1.652   8.147  0.5380 -2.3311 -2.9306
 5834SOL    HW228962   2.631   1.639   8.239  2.9273  0.1691  1.1860
 5835SOL     OW28963   0.807   4.293   6.537  0.3181  0.1854 -0.3674
 5835SOL    HW128964   0.883   4.235   6.536  0.1705  0.0247 -1.5226
 5835SOL    HW228965   0.746   4.230   6.577 -1.2338  2.8059  1.3938
 5836SOL     OW28966   2.035   0.470   6.842 -0.1344 -0.1167  0.4559
 5836SOL    HW128967   1.959   0.496   6.893 -0.8789 -0.1595 -0.6216
 5836SOL    HW228968   2.059   0.551   6.797 -1.5446 -0.5157 -1.0178
 5837SOL     OW28969   3.219   0.354  10.815 -0.6598 -0.1161  0.0784
 5837SOL    HW128970   3.262   0.432  10.849  3.3882 -0.8821 -3.2483
 5837SOL    HW228971   3.161   0.334  10.888  0.8867  1.0327  1.6306
 5838SOL     OW28972   0.024   2.653   3.718 -0.3427 -0.0297 -0.5660
 5838SOL    HW128973   0.088   2.583   3.730  0.5025  0.2829 -3.3326
 5838SOL    HW228974   0.039   2.713   3.791  0.0427  0.7879 -1.3153
 5839SOL     OW28975   0.184   0.866  17.456 -0.2988 -0.6556  0.2940
 5839SOL    HW128976   0.124   0.793  17.441  1.0006 -1.3199 -1.6082
 5839SOL    HW228977   0.244   0.858  17.382  1.1124  0.0012  1.3559
 5840SOL     OW28978   2.357   0.099  11.962  0.3186  0.1700 -0.1140
 5840SOL    HW128979   2.331   0.097  12.054  1.0098  0.3555  0.0878
 5840SOL    HW228980   2.303   0.172  11.934  0.5632  1.6891  3.3456
 5841SOL     OW28981   4.399   0.050   5.689 -0.7050  0.7824  0.3334
 5841SOL    HW128982   4.429   0.118   5.751  0.9506  0.9437 -0.6407
 5841SOL    HW228983   4.304   0.062   5.687 -1.0158 -1.8807 -0.5301
 5842SOL     OW28984   0.516   4.406  12.419  0.0889  0.1059  0.4283
 5842SOL    HW128985   0.605   4.374  12.433 -0.8551 -2.0322  1.5188
 5842SOL    HW228986   0.529   4.479  12.359 -0.1366  0.1591  0.4442
 5843SOL     OW28987   0.788   1.351   8.137 -0.0795  0.0788  0.2469
 5843SOL    HW128988   0.744   1.435   8.124 -0.5413 -0.4273 -1.4640
 5843SOL    HW228989   0.716   1.305   8.180  1.5173 -1.7620  0.9660
 5844SOL     OW28990   4.606   2.067  17.089  0.0259  0.3248 -0.3463
 5844SOL    HW128991   4.628   2.039  17.178  1.7428  0.6447 -0.6672
 5844SOL    HW228992   4.688   2.090  17.044 -0.4787  1.2226 -0.8249
 5845SOL     OW28993   1.963   0.525   9.097 -0.4164  0.0276  0.3391
 5845SOL    HW128994   2.027   0.477   9.150  2.3328  1.9840 -1.2040
 5845SOL    HW228995   1.906   0.449   9.095 -0.1305 -0.1705 -0.2771
 5846SOL     OW28996   3.334   4.070   2.154  0.1573 -0.9925 -0.4995
 5846SOL    HW128997   3.394   4.016   2.103 -1.4594 -2.2751 -1.0492
 5846SOL    HW228998   3.362   4.066   2.246  1.7574 -0.7039 -0.9780
 5847SOL     OW28999   2.405   0.640   7.036  0.3649  0.1239  0.5717
 5847SOL    HW129000   2.476   0.599   7.086  1.1044 -1.0174 -1.4081
 5847SOL    HW229001   2.445   0.650   6.949 -0.4971  2.0205  0.3862
 5848SOL     OW29002   4.024   1.076   3.104  0.1819 -0.3053  0.6576
 5848SOL    HW129003   3.948   1.030   3.067 -0.6246  0.1828  1.6871
 5848SOL    HW229004   4.077   0.996   3.105  0.3167 -0.2237 -0.7829
 5849SOL     OW29005   4.093   3.959   6.562 -0.0114 -0.8697 -0.0058
 5849SOL    HW129006   4.175   3.925   6.598  0.1321 -1.5648 -0.9794
 5849SOL    HW229007   4.095   3.926   6.472  3.3197 -0.7506  0.0039
 5850SOL     OW29008   3.885   3.017   2.770  0.1636  0.0304 -0.3464
 5850SOL    HW129009   3.970   3.059   2.782  0.2356 -0.8247  2.0953
 5850SOL    HW229010   3.847   3.016   2.858 -2.1907  0.2029 -1.3439
 5851SOL     OW29011   2.983   2.699   7.711 -0.2607 -0.5534 -0.7509
 5851SOL    HW129012   2.940   2.753   7.644  0.5695  1.1819  0.1399
 5851SOL    HW229013   2.905   2.667   7.756  0.5352 -1.7523 -0.2352
 5852SOL     OW29014   0.130   2.588   8.777  0.3640 -0.0617  0.0956
 5852SOL    HW129015   0.049   2.543   8.802 -0.2322  0.6843 -0.4656
 5852SOL    HW229016   0.146   2.565   8.685  2.5451  0.1388  0.4375
 5853SOL     OW29017   4.176   3.830  15.480  0.1984 -0.5092  0.2350
 5853SOL    HW129018   4.153   3.758  15.421  1.6755 -0.7350 -0.0736
 5853SOL    HW229019   4.123   3.905  15.453  1.0778  0.0218 -0.0127
 5854SOL     OW29020   4.442   0.238   4.108  0.4454  0.6230  0.4588
 5854SOL    HW129021   4.425   0.227   4.202  0.1227 -0.4674  0.2633
 5854SOL    HW229022   4.485   0.324   4.106  0.2928  0.6808 -0.3702
 5855SOL     OW29023   4.580   0.719  13.424 -0.3175 -0.6894  0.3391
 5855SOL    HW129024   4.519   0.652  13.455 -1.2709  0.6361  1.3326
 5855SOL    HW229025   4.581   0.779  13.499 -0.5622 -0.9070  0.5180
 5856SOL     OW29026   4.425   2.528   2.361 -0.3675 -0.2771  0.1324
 5856SOL    HW129027   4.369   2.460   2.398 -0.9195  0.3561  0.4597
 5856SOL    HW229028   4.379   2.607   2.390 -0.8926  0.2139 -2.0767
 5857SOL     OW29029   1.830   3.203  14.560 -0.6454  0.3308 -0.0139
 5857SOL    HW129030   1.751   3.243  14.523 -1.0212  0.6890  1.1633
 5857SOL    HW229031   1.874   3.283  14.588 -2.2601  1.5225 -0.8850
 5858SOL     OW29032   1.673   0.819   3.191 -0.9185 -0.1825 -0.6159
 5858SOL    HW129033   1.699   0.749   3.251 -2.0337  0.4477  0.6048
 5858SOL    HW229034   1.701   0.899   3.235 -2.0958 -1.4643  2.4888
 5859SOL     OW29035   4.553   3.454  11.540 -0.2083 -0.1568 -0.0532
 5859SOL    HW129036   4.574   3.365  11.567 -1.2153  0.0053  1.2957
 5859SOL    HW229037   4.639   3.491  11.523  0.9986 -2.2515  1.6126
 5860SOL     OW29038   2.625   3.962  12.084  0.2723  0.3043 -0.1012
 5860SOL    HW129039   2.532   3.949  12.101  0.4485  0.7023  1.2383
 5860SOL    HW229040   2.637   4.050  12.121 -0.3725  0.0828  0.6532
 5861SOL     OW29041   4.062   0.682  13.219 -0.2448 -0.2163 -0.2407
 5861SOL    HW129042   4.046   0.696  13.126 -0.0664 -2.8425 -0.6716
 5861SOL    HW229043   4.026   0.595  13.237 -1.5810  0.2188 -0.7790
 5862SOL     OW29044   3.672   3.969   0.701  0.1116 -0.6268  0.5432
 5862SOL    HW129045   3.664   3.889   0.754  0.0098 -1.3496 -0.5638
 5862SOL    HW229046   3.660   3.926   0.616  1.1796 -1.2946  0.7225
 5863SOL     OW29047   3.865   1.213  15.451  0.3627  0.7718 -0.2910
 5863SOL    HW129048   3.794   1.229  15.389  0.1525 -0.0127 -0.2440
 5863SOL    HW229049   3.848   1.285  15.512 -0.9540 -0.2828  0.5708
 5864SOL     OW29050   1.569   3.568   2.074 -0.1949 -0.3168  0.4217
 5864SOL    HW129051   1.542   3.631   2.007 -1.5400 -1.6871 -0.3350
 5864SOL    HW229052   1.502   3.500   2.069 -1.6526  1.3166 -2.7885
 5865SOL     OW29053   4.384   0.536   7.814 -0.1798 -0.3002  0.1065
 5865SOL    HW129054   4.473   0.570   7.819 -1.4264  2.9457  0.0084
 5865SOL    HW229055   4.378   0.482   7.893 -0.6842 -2.1552 -1.1727
 5866SOL     OW29056   0.683   3.098  15.636 -0.7729 -0.0589 -0.4674
 5866SOL    HW129057   0.678   3.163  15.706  1.0864  0.3584 -0.7312
 5866SOL    HW229058   0.671   3.149  15.555 -1.8272 -1.4299 -1.1883
 5867SOL     OW29059   4.535   1.026  14.954  0.0639  0.5977 -0.1016
 5867SOL    HW129060   4.455   1.020  15.007  1.6245  1.8271  2.3983
 5867SOL    HW229061   4.557   0.933  14.954  0.3896  0.6730  0.7064
 5868SOL     OW29062   0.319   0.326   1.186 -0.1326 -0.2392  0.1866
 5868SOL    HW129063   0.379   0.305   1.115  0.2274 -2.0202  1.0275
 5868SOL    HW229064   0.344   0.415   1.209 -0.4502 -0.8594  2.9287
 5869SOL     OW29065   4.009   2.283  14.206  0.7641 -0.0459  0.1777
 5869SOL    HW129066   3.948   2.318  14.140  1.8758  0.1085 -0.7661
 5869SOL    HW229067   3.963   2.204  14.237  1.1976  0.9906  3.4377
 5870SOL     OW29068   2.531   3.929   0.251  0.6365  0.1908  0.4044
 5870SOL    HW129069   2.565   3.852   0.297 -3.9651 -1.0279  1.8201
 5870SOL    HW229070   2.574   4.003   0.293 -0.6121  0.3766  1.3331
 5871SOL     OW29071   4.652   1.824   4.629  0.6683  0.3265 -0.1386
 5871SOL    HW129072   4.715   1.872   4.682 -0.2166  0.4981  0.7651
 5871SOL    HW229073   4.594   1.792   4.698  0.8318 -3.0973 -1.5933
 5872SOL     OW29074   1.162   2.511  11.915  0.7367 -0.3291 -0.3829
 5872SOL    HW129075   1.184   2.598  11.949 -0.4980 -0.4106  0.6314
 5872SOL    HW229076   1.172   2.531  11.822 -0.5645  1.8573 -0.0436
 5873SOL     OW29077   3.028   1.402   7.738 -0.2843 -0.1832  0.5929
 5873SOL    HW129078   3.051   1.454   7.815  0.7782  1.9982 -1.2045
 5873SOL    HW229079   2.951   1.448   7.706 -0.1537 -0.0780  0.4264
 5874SOL     OW29080   1.976   4.460   3.540  0.4154 -0.5646 -0.3216
 5874SOL    HW129081   1.932   4.390   3.491  1.1417 -0.4851 -1.0754
 5874SOL    HW229082   2.065   4.425   3.542  0.3880 -0.5145  1.6668
 5875SOL     OW29083   4.155   2.595   1.244  0.6456 -0.4548  0.1985
 5875SOL    HW129084   4.153   2.510   1.200 -0.5685  0.2991 -1.1830
 5875SOL    HW229085   4.087   2.643   1.197  0.9987  0.1986  0.3440
 5876SOL     OW29086   2.205   1.124   7.108  0.4268 -0.4664  0.1145
 5876SOL    HW129087   2.196   1.219   7.107  1.7698 -0.3196  1.3093
 5876SOL    HW229088   2.191   1.100   7.200 -1.2667  0.6570  0.1412
 5877SOL     OW29089   2.825   3.337   7.290  0.6926 -0.1005  0.0904
 5877SOL    HW129090   2.743   3.384   7.305  0.5948  0.2392 -1.5301
 5877SOL    HW229091   2.814   3.267   7.355 -1.2017 -0.4978 -0.6561
 5878SOL     OW29092   1.697   4.206   8.884 -0.1247  0.5667 -0.0872
 5878SOL    HW129093   1.784   4.236   8.857 -0.5537  0.9016 -1.0802
 5878SOL    HW229094   1.716   4.112   8.891  2.0414  0.9909 -0.3456
 5879SOL     OW29095   2.378   0.447   8.744  0.5615  0.3619  0.3683
 5879SOL    HW129096   2.285   0.445   8.724  0.6574  0.2486 -0.0676
 5879SOL    HW229097   2.412   0.360   8.724 -1.1367 -0.3547  0.6358
 5880SOL     OW29098   4.222   0.205   7.458  0.0790  0.1616 -0.0844
 5880SOL    HW129099   4.190   0.237   7.542  1.1447  0.0806  0.3606
 5880SOL    HW229100   4.309   0.168   7.475  0.7040  1.6412 -0.0526
 5881SOL     OW29101   2.350   2.497   3.557  0.2807 -0.2204  0.0378
 5881SOL    HW129102   2.382   2.562   3.495 -1.8397  2.4474  1.7532
 5881SOL    HW229103   2.419   2.485   3.622 -0.5084  1.1243  1.1231
 5882SOL     OW29104   3.823   2.286   6.021  0.1672  0.2009  0.2431
 5882SOL    HW129105   3.740   2.239   6.028  0.0197  0.5610  0.8959
 5882SOL    HW229106   3.849   2.317   6.107  1.1368  0.5568 -0.1726
 5883SOL     OW29107   0.663   1.783   4.666  0.5242 -0.0351  0.3467
 5883SOL    HW129108   0.618   1.862   4.697 -0.7778 -0.2770 -0.9187
 5883SOL    HW229109   0.587   1.726   4.652  1.3677 -1.6433  2.3624
 5884SOL     OW29110   3.572   4.648   3.305 -0.5941 -0.6309  0.3434
 5884SOL    HW129111   3.543   4.712   3.240  1.9358  2.1824  2.0296
 5884SOL    HW229112   3.632   4.596   3.251 -1.2689 -1.1347  0.0625
 5885SOL     OW29113   2.676   2.726   8.286  1.1192  0.2398 -0.2442
 5885SOL    HW129114   2.588   2.747   8.319  1.1542  0.0029 -0.0010
 5885SOL    HW229115   2.664   2.764   8.199  0.8114  0.7299  0.0171
 5886SOL     OW29116   1.000   2.216   0.509  0.3571 -0.3973  0.2411
 5886SOL    HW129117   1.081   2.243   0.551  0.3903 -0.8157  0.4426
 5886SOL    HW229118   0.965   2.298   0.473  2.1094  0.0410 -0.4589
 5887SOL     OW29119   1.067   3.566   7.739 -0.5736  0.5394  0.1431
 5887SOL    HW129120   1.024   3.508   7.803  0.0964 -1.7185 -1.4704
 5887SOL    HW229121   1.121   3.621   7.795  0.7688  0.6427 -1.2700
 5888SOL     OW29122   0.503   0.076   7.047  0.2358  0.7242  0.3229
 5888SOL    HW129123   0.519   0.013   6.976  1.3348  0.2736  0.9762
 5888SOL    HW229124   0.424   0.038   7.084  0.7878  1.0229  1.8018
 5889SOL     OW29125   3.640   3.042   8.573  0.2478 -0.0387  0.0545
 5889SOL    HW129126   3.624   3.135   8.588 -0.3991 -0.1475  0.0331
 5889SOL    HW229127   3.734   3.031   8.588  0.4942 -0.1455 -1.5241
 5890SOL     OW29128   3.677   1.478   7.092  0.4455 -0.0591  0.0239
 5890SOL    HW129129   3.740   1.434   7.149 -0.8063  0.4134  1.7793
 5890SOL    HW229130   3.693   1.435   7.008 -0.3690  0.2601 -0.2960
 5891SOL     OW29131   1.647   1.307  13.472  0.6099  0.0096 -0.2183
 5891SOL    HW129132   1.702   1.367  13.524  1.7654 -1.2022 -0.0612
 5891SOL    HW229133   1.568   1.291  13.524 -0.2443 -1.7702 -2.0974
 5892SOL     OW29134   1.647   2.561   2.956  0.7186  0.3426 -0.1581
 5892SOL    HW129135   1.702   2.523   3.025 -1.2996  0.4445  1.5093
 5892SOL    HW229136   1.564   2.535   2.997 -0.5516 -0.4139 -3.2548
 5893SOL     OW29137   3.748   1.101   5.346 -0.7398 -0.6136  0.1146
 5893SOL    HW129138   3.801   1.120   5.268 -1.7662  0.2321 -0.3829
 5893SOL    HW229139   3.697   1.182   5.356  2.1869  1.3892 -1.4047
 5894SOL     OW29140   1.450   2.255   1.603 -0.3336  0.2260 -0.1565
 5894SOL    HW129141   1.488   2.239   1.517 -0.1185  1.0254 -0.2137
 5894SOL    HW229142   1.436   2.348   1.586  0.1285  0.7105  2.1021
 5895SOL     OW29143   3.471   1.061   7.019 -0.2604  0.0705  0.2111
 5895SOL    HW129144   3.557   1.069   6.977  0.1152 -1.2866  0.6963
 5895SOL    HW229145   3.495   1.099   7.103 -0.3866  0.3000  0.1408
 5896SOL     OW29146   0.504   1.140   8.966 -0.7553 -0.1983 -0.0967
 5896SOL    HW129147   0.503   1.051   9.003  1.8238  0.6788  2.1440
 5896SOL    HW229148   0.424   1.173   9.007 -1.7802 -1.2765 -1.2381
 5897SOL     OW29149   3.159   1.773   6.701  0.1608 -0.2047 -0.0838
 5897SOL    HW129150   3.087   1.784   6.639 -0.1017  2.0766  0.6366
 5897SOL    HW229151   3.174   1.679   6.688 -0.7744 -0.4368  0.5331
 5898SOL     OW29152   0.825   3.648   6.437 -0.0537  0.3635 -0.5722
 5898SOL    HW129153   0.799   3.560   6.465 -3.0446  1.7134  0.8216
 5898SOL    HW229154   0.915   3.626   6.411  0.0359 -1.0734  0.9134
 5899SOL     OW29155   2.907   3.203  16.325  0.0382  0.0403 -1.0222
 5899SOL    HW129156   2.832   3.155  16.362  0.5198 -0.1409 -0.2841
 5899SOL    HW229157   2.964   3.224  16.399 -1.3212  1.1481 -0.2925
 5900SOL     OW29158   1.944   2.931   5.197 -0.1851  0.4703  0.5815
 5900SOL    HW129159   1.978   2.857   5.146 -0.0942 -0.0637  1.4244
 5900SOL    HW229160   1.865   2.958   5.150  0.1589  0.9264  0.2620
 5901SOL     OW29161   0.309   0.431   2.961  0.1381 -0.0022  0.4681
 5901SOL    HW129162   0.235   0.473   3.006 -1.1017  0.9311 -2.4784
 5901SOL    HW229163   0.310   0.344   3.002  1.4779 -0.2154 -0.0172
 5902SOL     OW29164   3.091   2.694   5.130  0.4143 -0.1723 -0.1238
 5902SOL    HW129165   3.031   2.726   5.062  0.1013 -0.2057  0.1335
 5902SOL    HW229166   3.064   2.602   5.137  0.1797  0.0958  2.5258
 5903SOL     OW29167   0.586   3.672   4.782  0.1478 -0.3728 -0.0966
 5903SOL    HW129168   0.633   3.698   4.861  2.3377 -0.9161 -1.2115
 5903SOL    HW229169   0.516   3.737   4.788  0.0462 -0.4489 -0.4124
 5904SOL     OW29170   0.657   2.129   9.875  0.3042 -0.1919  0.0606
 5904SOL    HW129171   0.567   2.099   9.889  0.6168 -0.8325  0.7373
 5904SOL    HW229172   0.647   2.224   9.874  0.5454 -0.1372  1.8174
 5905SOL     OW29173   1.104   3.749   5.391  0.1397  0.0651 -0.2527
 5905SOL    HW129174   1.114   3.837   5.356  1.0186 -1.1398 -3.0593
 5905SOL    HW229175   1.065   3.759   5.477  0.4306 -1.4856  0.0634
 5906SOL     OW29176   1.190   0.491  16.602 -0.6828  0.4896 -0.6853
 5906SOL    HW129177   1.196   0.586  16.613  1.4663  0.4403 -1.2886
 5906SOL    HW229178   1.105   0.487  16.645 -0.5346 -0.5744 -0.5033
 5907SOL     OW29179   4.323   1.881  13.595  0.0436 -0.1181  0.2387
 5907SOL    HW129180   4.247   1.903  13.541  0.7387 -0.3907 -0.8474
 5907SOL    HW229181   4.286   1.897  13.682 -3.9876 -0.6833 -1.3669
 5908SOL     OW29182   3.015   4.415   5.867  0.5189  0.5418  0.9639
 5908SOL    HW129183   2.935   4.449   5.828 -0.2868 -0.9211  1.3581
 5908SOL    HW229184   3.042   4.361   5.792 -1.1083  0.9976  0.0518
 5909SOL     OW29185   0.043   2.245   8.689  0.2142 -1.3719 -0.1825
 5909SOL    HW129186   4.706   2.185   8.643  0.1322  0.0448 -1.9042
 5909SOL    HW229187   0.087   2.289   8.617  0.2227  0.2315  0.7930
 5910SOL     OW29188   1.659   0.725   5.193  0.7906 -0.4840  0.6480
 5910SOL    HW129189   1.636   0.752   5.282 -3.4359 -3.3234  0.4253
 5910SOL    HW229190   1.603   0.768   5.128 -0.1050 -0.9864  1.0822
 5911SOL     OW29191   4.294   0.850   2.306 -0.0272  0.3680  0.0927
 5911SOL    HW129192   4.236   0.865   2.381 -1.3151 -1.9902 -0.4427
 5911SOL    HW229193   4.325   0.938   2.285 -1.2883  0.6498 -0.5805
 5912SOL     OW29194   1.687   2.312   6.504  0.2357 -0.1207  0.2130
 5912SOL    HW129195   1.648   2.392   6.470 -1.2139 -2.3137 -3.2949
 5912SOL    HW229196   1.649   2.310   6.592  0.4778 -0.1617  0.3170
 5913SOL     OW29197   2.550   0.930   6.665 -0.2455 -0.5593  0.4169
 5913SOL    HW129198   2.472   0.931   6.721 -1.2596  0.6133 -1.0189
 5913SOL    HW229199   2.526   0.848   6.620 -0.1865 -0.9725  1.1513
 5914SOL     OW29200   0.507   1.906   1.979 -0.3014  0.0005 -0.2009
 5914SOL    HW129201   0.519   1.970   1.908 -3.1967 -0.3238 -0.9836
 5914SOL    HW229202   0.441   1.849   1.940 -1.8527  3.3845 -2.6169
 5915SOL     OW29203   1.900   0.736   4.163 -0.0330 -0.0467  0.5195
 5915SOL    HW129204   1.816   0.698   4.188  0.3651 -1.4378 -0.2279
 5915SOL    HW229205   1.918   0.794   4.237 -0.8485 -0.8601  1.3538
 5916SOL     OW29206   4.601   1.977   8.734 -0.7988 -0.0381  0.2757
 5916SOL    HW129207   4.513   1.952   8.706 -0.9709 -0.2085  0.9811
 5916SOL    HW229208   4.657   1.960   8.658  2.1354  0.8497  2.2254
 5917SOL     OW29209   0.178   3.003  14.416  0.4158  0.1182  0.1870
 5917SOL    HW129210   0.241   3.074  14.429  1.7508 -0.8515 -0.9950
 5917SOL    HW229211   0.227   2.947  14.356 -1.2527 -1.7156  0.5345
 5918SOL     OW29212   2.128   2.050  15.975  0.0651 -0.0175 -1.3089
 5918SOL    HW129213   2.211   2.028  16.017 -0.4136  1.2701  0.3398
 5918SOL    HW229214   2.149   2.102  15.897 -0.6744  1.3126 -0.6201
 5919SOL     OW29215   2.518   4.144   4.135 -0.5697 -0.3091  0.4503
 5919SOL    HW129216   2.488   4.165   4.046  0.0986  1.3329  0.6033
 5919SOL    HW229217   2.546   4.055   4.113  1.8376  0.8307 -1.0612
 5920SOL     OW29218   1.841   4.049  12.210  0.0396  0.1901  0.1103
 5920SOL    HW129219   1.922   4.003  12.233 -0.2880  0.0618  0.9991
 5920SOL    HW229220   1.780   3.976  12.217 -1.1145  1.1233 -0.1929
 5921SOL     OW29221   1.895   0.046   8.472 -0.1329 -0.2424 -0.1365
 5921SOL    HW129222   1.822   0.105   8.491  1.5556  1.3108  1.5176
 5921SOL    HW229223   1.875   0.020   8.382 -1.2156 -0.2239  0.0884
 5922SOL     OW29224   3.757   1.808   5.724  0.1811  0.1228  0.3413
 5922SOL    HW129225   3.668   1.840   5.712 -0.1050 -1.5511 -1.8724
 5922SOL    HW229226   3.801   1.850   5.650  1.8080 -0.7531  0.8143
 5923SOL     OW29227   1.625   2.461   5.520  0.0766 -0.0087  0.8172
 5923SOL    HW129228   1.552   2.457   5.581  0.1530  0.7873  0.9673
 5923SOL    HW229229   1.603   2.530   5.458 -1.7228  0.4162  1.9544
 5924SOL     OW29230   3.119   0.094   4.612 -0.1679 -0.1337 -0.5788
 5924SOL    HW129231   3.114   4.721   4.620  0.6764 -0.0784  0.5816
 5924SOL    HW229232   3.140   0.104   4.519 -0.1203 -1.5581 -0.7314
 5925SOL     OW29233   2.476   0.609   8.251  0.3695 -0.0631  0.0352
 5925SOL    HW129234   2.540   0.542   8.276  1.5306  1.8212  2.1899
 5925SOL    HW229235   2.397   0.557   8.240  0.8211 -0.3711 -1.7786
 5926SOL     OW29236   1.732   2.988   2.485  0.0662 -0.0077  0.4316
 5926SOL    HW129237   1.652   2.946   2.454 -0.7687 -0.0230  2.6407
 5926SOL    HW229238   1.707   2.994   2.577  1.6648 -0.8281  0.9309
 5927SOL     OW29239   4.550   4.341   9.447  0.4163  0.2529 -0.2580
 5927SOL    HW129240   4.613   4.412   9.454 -0.6100  0.9602  1.8434
 5927SOL    HW229241   4.467   4.387   9.434  0.3492 -0.1784 -1.3882
 5928SOL     OW29242   1.428   2.268   1.997  0.3010 -0.0917 -0.1826
 5928SOL    HW129243   1.501   2.322   1.968  1.1556 -0.2098  1.7636
 5928SOL    HW229244   1.470   2.182   1.998 -0.5011 -0.5075 -1.7794
 5929SOL     OW29245   2.458   4.347   1.250  0.4720 -0.2349  0.4869
 5929SOL    HW129246   2.486   4.384   1.167 -1.2529  0.7008  0.3352
 5929SOL    HW229247   2.533   4.297   1.283 -1.2387 -1.8836  1.9131
 5930SOL     OW29248   1.866   0.215   4.507 -0.7402 -0.0870  0.0462
 5930SOL    HW129249   1.929   0.180   4.444 -1.1755  1.5618 -1.3095
 5930SOL    HW229250   1.906   0.185   4.588 -0.9189  0.6260  0.3990
 5931SOL     OW29251   1.338   4.677   7.731 -0.2101  0.2826 -0.3723
 5931SOL    HW129252   1.414   4.653   7.678 -0.4909  1.0404 -1.1077
 5931SOL    HW229253   1.376   0.032   7.773  0.1237  0.4554 -0.9874
 5932SOL     OW29254   0.449   3.771   1.862 -0.4136  0.3970  0.2221
 5932SOL    HW129255   0.527   3.818   1.835 -0.6962 -0.2433 -1.6881
 5932SOL    HW229256   0.396   3.790   1.785 -0.8797 -1.2498  0.1287
 5933SOL     OW29257   2.474   1.617   1.474 -0.0193  0.6094 -0.0271
 5933SOL    HW129258   2.505   1.647   1.388 -0.8023  1.0847 -0.1404
 5933SOL    HW229259   2.469   1.698   1.523  2.3708  0.3556  0.6353
 5934SOL     OW29260   1.809   3.592  10.887 -0.6644 -0.2593  0.6628
 5934SOL    HW129261   1.881   3.574  10.948  0.6954 -0.3491 -0.9706
 5934SOL    HW229262   1.808   3.687  10.874 -2.4660 -0.3417  0.2398
 5935SOL     OW29263   0.204   3.166   6.759  0.0920 -0.4245  0.4113
 5935SOL    HW129264   0.133   3.191   6.818  0.4072  1.0887  0.1507
 5935SOL    HW229265   0.280   3.219   6.784 -0.2135  0.4467 -0.4883
 5936SOL     OW29266   1.942   3.031   8.429 -0.4595 -0.3013  0.3058
 5936SOL    HW129267   1.954   3.089   8.504 -0.0351 -0.3712  0.2954
 5936SOL    HW229268   1.853   3.002   8.446 -1.2515  0.9117 -1.7430
 5937SOL     OW29269   3.526   4.368  14.567  0.5210  0.2256 -0.4287
 5937SOL    HW129270   3.449   4.316  14.592  0.1433  1.0605  0.1634
 5937SOL    HW229271   3.582   4.353  14.643 -3.1490 -2.7453  1.6855
 5938SOL     OW29272   4.032   3.901   4.846 -0.4536 -0.2126  1.2294
 5938SOL    HW129273   4.095   3.829   4.843 -0.1237  0.1738 -1.7491
 5938SOL    HW229274   3.949   3.852   4.847 -1.3857  1.2885 -1.5319
 5939SOL     OW29275   0.843   3.323  12.410  0.1604  0.4719  0.1303
 5939SOL    HW129276   0.885   3.238  12.399 -2.1132 -0.7762  1.1998
 5939SOL    HW229277   0.888   3.374  12.343  0.3089 -0.4139 -0.4373
 5940SOL     OW29278   2.445   2.685   2.899  0.3193  0.6976 -0.1022
 5940SOL    HW129279   2.499   2.651   2.828  0.2468  0.8733 -0.2439
 5940SOL    HW229280   2.378   2.712   2.837  1.3098  1.9984 -0.6246
 5941SOL     OW29281   1.190   0.228   5.467 -0.2827  0.4990 -0.1536
 5941SOL    HW129282   1.246   0.246   5.542 -1.8925  1.2931  0.8595
 5941SOL    HW229283   1.133   0.303   5.484  1.9801  2.1948 -0.1097
 5942SOL     OW29284   3.212   3.809  12.624 -0.4770 -0.6572  0.0263
 5942SOL    HW129285   3.266   3.796  12.546  1.4552  3.0142  0.7618
 5942SOL    HW229286   3.130   3.791  12.576 -0.4772  1.2280 -0.6726
 5943SOL     OW29287   2.954   4.591  17.122  0.1159  0.0688 -0.3156
 5943SOL    HW129288   2.900   4.658  17.163  0.4183  1.0469 -1.5082
 5943SOL    HW229289   2.919   4.601  17.033 -1.1586  0.1429  0.1968
 5944SOL     OW29290   1.133   3.854   9.169  0.7961 -0.6778 -0.0762
 5944SOL    HW129291   1.079   3.931   9.184  0.1528 -1.5433  2.0876
 5944SOL    HW229292   1.176   3.846   9.254  2.2203  0.8915 -0.6666
 5945SOL     OW29293   0.315   0.132  16.358  1.0065 -0.5017 -0.2086
 5945SOL    HW129294   0.354   0.215  16.383  0.7251  0.0361 -1.5563
 5945SOL    HW229295   0.316   0.087  16.443  1.0393 -0.3029 -0.1051
 5946SOL     OW29296   4.338   4.599   4.613  0.3379  0.3384  0.1311
 5946SOL    HW129297   4.322   4.672   4.552 -2.1469 -0.8705 -0.6803
 5946SOL    HW229298   4.423   4.620   4.651 -0.1089  0.6439  0.9558
 5947SOL     OW29299   4.325   3.109  13.650  0.1527 -0.4480 -0.4371
 5947SOL    HW129300   4.288   3.161  13.579 -1.0644  1.6833  1.7761
 5947SOL    HW229301   4.247   3.058  13.673 -0.0061 -0.0980 -0.2011
 5948SOL     OW29302   4.338   0.410   2.954  0.2623 -0.1865  0.1827
 5948SOL    HW129303   4.322   0.487   2.899 -0.4359 -1.6932 -1.7143
 5948SOL    HW229304   4.400   0.366   2.895 -1.4330 -2.7549  0.3222
 5949SOL     OW29305   2.019   3.859   4.478 -0.1038 -0.1927  0.0798
 5949SOL    HW129306   2.024   3.841   4.384 -1.3616 -1.4785  0.2606
 5949SOL    HW229307   2.045   3.777   4.520 -0.3675  0.0605  0.7406
 5950SOL     OW29308   3.340   3.961   8.906  0.1089 -0.8200 -0.4448
 5950SOL    HW129309   3.297   3.877   8.923 -0.5727 -0.2780  0.4925
 5950SOL    HW229310   3.331   3.982   8.813  0.5447  2.8634  0.3181
 5951SOL     OW29311   1.914   2.173   8.835 -0.0512 -0.0221  1.0552
 5951SOL    HW129312   2.009   2.165   8.842  0.0825  1.2240  0.7351
 5951SOL    HW229313   1.879   2.246   8.886  1.0596  0.8767  0.5172
 5952SOL     OW29314   3.694   4.633   7.770  0.5939  0.1780 -0.3122
 5952SOL    HW129315   3.674   4.641   7.677 -0.0365  0.3082 -0.1659
 5952SOL    HW229316   3.607   4.613   7.803 -0.0122 -0.9913 -2.6129
 5953SOL     OW29317   0.853   3.092   3.478  0.5789 -0.3582 -0.2943
 5953SOL    HW129318   0.777   3.083   3.537  0.2008  2.2725 -0.3423
 5953SOL    HW229319   0.825   3.177   3.444  0.7871 -0.7672 -1.4656
 5954SOL     OW29320   4.173   1.914   0.325  0.0342 -0.2177 -0.0274
 5954SOL    HW129321   4.139   1.995   0.286  0.2647  1.1116  2.5753
 5954SOL    HW229322   4.128   1.903   0.408  3.2760 -2.4386  1.4211
 5955SOL     OW29323   4.234   3.335  11.723  0.1417 -0.1900  0.5432
 5955SOL    HW129324   4.302   3.394  11.755 -1.2673  2.6442 -1.6325
 5955SOL    HW229325   4.183   3.319  11.803  1.3252  0.6333  1.4647
 5956SOL     OW29326   3.642   4.356  11.056  0.1940  0.4433 -0.4275
 5956SOL    HW129327   3.615   4.393  11.140 -2.5551 -1.0230 -0.6735
 5956SOL    HW229328   3.610   4.423  10.995 -0.5175  0.9913  0.5441
 5957SOL     OW29329   2.252   2.178   1.730  0.0661  0.2096  0.0308
 5957SOL    HW129330   2.268   2.267   1.762 -2.2858  0.4825  0.4467
 5957SOL    HW229331   2.158   2.166   1.741  0.0475  1.8312  1.5877
 5958SOL     OW29332   3.736   4.098   5.752 -0.5164 -1.0465 -0.5169
 5958SOL    HW129333   3.655   4.137   5.719 -0.5253 -0.6151  0.0271
 5958SOL    HW229334   3.688   4.055   5.823 -1.1943 -1.2315 -1.0846
 5959SOL     OW29335   2.781   0.987   6.757  0.2638  0.8493 -0.4329
 5959SOL    HW129336   2.693   0.965   6.726 -0.0780 -0.3719  1.3695
 5959SOL    HW229337   2.755   1.058   6.815 -0.5560  0.5556 -0.4360
 5960SOL     OW29338   3.718   0.548  12.101 -0.4250 -0.4449 -0.1039
 5960SOL    HW129339   3.682   0.468  12.063 -0.1193 -1.0699  0.9410
 5960SOL    HW229340   3.798   0.563  12.050 -0.1487  1.4777  0.8837
 5961SOL     OW29341   1.931   4.579   4.562 -0.2742  0.2352  0.0344
 5961SOL    HW129342   1.902   4.488   4.558 -1.9813  0.7504  0.6262
 5961SOL    HW229343   1.842   4.614   4.559 -0.6491 -0.5152  2.6005
 5962SOL     OW29344   0.394   0.811   8.997  0.4463  0.0819 -0.4130
 5962SOL    HW129345   0.378   0.866   8.920  1.9015  1.0444 -0.0385
 5962SOL    HW229346   0.343   0.738   8.962 -1.0540  0.6722  0.5761
 5963SOL     OW29347   0.153   2.107   4.576  0.0140 -0.1521 -0.3995
 5963SOL    HW129348   0.199   2.191   4.572 -0.4567  0.2051  1.5241
 5963SOL    HW229349   0.094   2.115   4.651 -0.6683 -3.0002 -0.6276
 5964SOL     OW29350   1.895   1.470   8.515 -0.1929  0.2540  0.3874
 5964SOL    HW129351   1.988   1.484   8.497  0.2067  0.1826  2.3586
 5964SOL    HW229352   1.853   1.555   8.526  1.0434  0.6054  2.2734
 5965SOL     OW29353   3.989   4.204   2.689 -0.3459 -0.5432  0.1737
 5965SOL    HW129354   3.915   4.245   2.643 -1.5865 -1.3268  1.4441
 5965SOL    HW229355   3.975   4.113   2.661  2.3861 -0.5676 -1.1246
 5966SOL     OW29356   1.493   0.232   1.430  0.6055  0.0658  0.0177
 5966SOL    HW129357   1.536   0.316   1.411  1.4558 -0.4317 -0.2770
 5966SOL    HW229358   1.423   0.268   1.485 -0.6708 -0.6464 -1.1612
 5967SOL     OW29359   0.363   1.689   8.935 -0.3742 -0.7467  0.1576
 5967SOL    HW129360   0.409   1.773   8.936 -0.9987 -0.3960 -0.6596
 5967SOL    HW229361   0.443   1.636   8.933 -0.4239 -0.8391  0.5419
 5968SOL     OW29362   2.331   1.271   8.395  0.1548 -0.1619 -0.1637
 5968SOL    HW129363   2.385   1.331   8.446 -0.5906  0.3396  0.0331
 5968SOL    HW229364   2.300   1.317   8.317  0.9924  1.0390  0.2064
 5969SOL     OW29365   3.183   2.851   0.679 -0.0575 -0.2144  0.2068
 5969SOL    HW129366   3.237   2.774   0.662  1.7517  0.9908  0.5824
 5969SOL    HW229367   3.151   2.853   0.589  0.6590  2.2968  0.0334
 5970SOL     OW29368   2.559   3.306   3.896  0.1436 -0.2888 -0.5066
 5970SOL    HW129369   2.556   3.349   3.810 -1.5259 -0.7419 -0.6834
 5970SOL    HW229370   2.630   3.243   3.888  0.8196  0.2018  1.8011
 5971SOL     OW29371   0.104   3.095   2.410 -0.7694  0.3577  0.1685
 5971SOL    HW129372   0.068   3.045   2.337 -2.0939  1.0473  0.3635
 5971SOL    HW229373   0.181   3.040   2.423  0.8853  2.3673 -1.0406
 5972SOL     OW29374   2.012   4.053   1.130  0.2910 -0.2822  0.2886
 5972SOL    HW129375   2.052   3.966   1.124  1.1330 -0.0065  1.9375
 5972SOL    HW229376   2.079   4.101   1.081 -0.2124 -0.0111 -0.1279
 5973SOL     OW29377   4.340   0.672  13.797 -0.2794 -0.7976  0.0949
 5973SOL    HW129378   4.274   0.742  13.802  1.1102  0.5051  0.1589
 5973SOL    HW229379   4.400   0.691  13.869 -2.4859  1.0092  1.5035
 5974SOL     OW29380   2.432   4.116   6.286  0.1245 -0.4126  0.2279
 5974SOL    HW129381   2.437   4.023   6.307  1.1659 -0.9487 -2.4299
 5974SOL    HW229382   2.524   4.138   6.271  0.0794 -1.1848 -1.2080
 5975SOL     OW29383   4.579   2.015  13.562 -0.3278  0.0284  0.1166
 5975SOL    HW129384   4.567   2.105  13.591 -1.1591  0.1111 -0.5041
 5975SOL    HW229385   4.490   1.986  13.579 -0.7650  0.9734 -0.5965
 5976SOL     OW29386   0.963   4.209   8.785 -0.3235 -0.4520 -0.2143
 5976SOL    HW129387   0.914   4.292   8.779  1.4552  0.6395  0.3969
 5976SOL    HW229388   1.005   4.211   8.699 -0.3656  1.5794 -0.2096
 5977SOL     OW29389   3.915   4.308  15.917 -0.3891  0.2290 -0.7665
 5977SOL    HW129390   3.937   4.214  15.917 -0.2137  0.2682 -0.1229
 5977SOL    HW229391   3.898   4.308  16.011 -0.7675  0.2700 -0.8370
 5978SOL     OW29392   2.877   1.012   5.175  0.1710  0.1270  0.6231
 5978SOL    HW129393   2.814   0.943   5.197  2.0395 -1.1740  1.9300
 5978SOL    HW229394   2.945   0.956   5.213  0.4121 -0.2791 -0.3916
 5979SOL     OW29395   0.655   0.012  16.349  0.3440 -0.3695  0.4109
 5979SOL    HW129396   0.586   0.014  16.415 -0.7123 -0.0457 -0.7018
 5979SOL    HW229397   0.733   0.007  16.405 -0.0854  2.1566  1.2362
 5980SOL     OW29398   1.010   3.719   4.532  0.8372 -0.5722  0.1782
 5980SOL    HW129399   0.980   3.754   4.449  0.0974  1.6429  1.3697
 5980SOL    HW229400   1.075   3.654   4.506 -0.8209 -1.5020 -1.6909
 5981SOL     OW29401   0.796   3.380  10.342 -0.9200 -0.5356  0.5093
 5981SOL    HW129402   0.866   3.430  10.300 -0.5142 -1.8163 -0.3455
 5981SOL    HW229403   0.756   3.346  10.261 -0.3262  0.5640 -0.2438
 5982SOL     OW29404   4.224   0.454   8.878  0.0974 -0.2392  0.7847
 5982SOL    HW129405   4.221   0.362   8.901  1.4065 -0.3608  0.4204
 5982SOL    HW229406   4.305   0.475   8.924 -0.1393 -0.2288  1.2040
 5983SOL     OW29407   3.966   0.938  13.537  0.2305 -0.4900 -0.4143
 5983SOL    HW129408   3.892   0.962  13.482 -0.8399  0.5750  1.4961
 5983SOL    HW229409   3.960   1.001  13.608  1.6535 -3.9211  2.7870
 5984SOL     OW29410   4.105   1.604  14.686  0.6947  0.2112 -0.1773
 5984SOL    HW129411   4.129   1.538  14.621 -2.7327 -1.8804  0.7092
 5984SOL    HW229412   4.078   1.678  14.630  4.0038  1.5155 -0.0532
 5985SOL     OW29413   3.736   1.225   8.110 -0.1262  0.0958  0.4347
 5985SOL    HW129414   3.771   1.151   8.061  0.4622 -0.5861  1.8742
 5985SOL    HW229415   3.652   1.221   8.063  1.4007  1.3441 -2.3708
 5986SOL     OW29416   2.238   1.990   1.380  0.1353 -0.0242  0.2119
 5986SOL    HW129417   2.303   1.984   1.311 -0.5827  2.0300 -0.6471
 5986SOL    HW229418   2.281   1.944   1.452  0.1734 -0.3297 -0.0107
 5987SOL     OW29419   1.729   4.632   2.940  0.0312 -0.6307 -0.3705
 5987SOL    HW129420   1.761   4.601   2.856  1.7456  1.4637 -0.4728
 5987SOL    HW229421   1.811   4.657   2.982 -0.4257  0.2478 -0.0067
 5988SOL     OW29422   0.842   3.840   6.000 -0.5773 -0.3264  0.0891
 5988SOL    HW129423   0.800   3.873   5.921  1.6340 -0.9146 -1.3302
 5988SOL    HW229424   0.917   3.791   5.965 -0.4084  0.5175 -0.7315
 5989SOL     OW29425   1.776   2.454   8.160  0.2745 -0.1844  0.4021
 5989SOL    HW129426   1.683   2.432   8.145  0.2849  0.4876 -0.6686
 5989SOL    HW229427   1.781   2.510   8.082 -0.3573  1.2109  1.3607
 5990SOL     OW29428   1.771   1.643  16.579 -0.3245 -0.0102 -0.2417
 5990SOL    HW129429   1.687   1.640  16.625 -1.4075 -0.2254 -2.2253
 5990SOL    HW229430   1.778   1.553  16.546 -0.5018  0.5676 -1.8340
 5991SOL     OW29431   4.679   0.506   9.169  0.3558  0.5121  0.6857
 5991SOL    HW129432   0.033   0.564   9.164  2.9312 -3.0317 -0.9372
 5991SOL    HW229433   4.627   0.537   9.095 -0.5625  1.3305  1.6737
 5992SOL     OW29434   1.443   2.452   5.198 -0.1144  0.1716  0.2340
 5992SOL    HW129435   1.395   2.446   5.115 -2.9400  0.3211  1.8412
 5992SOL    HW229436   1.405   2.524   5.248 -1.6485  0.2246 -1.0026
 5993SOL     OW29437   0.551   2.592   1.473 -0.0846 -0.2796 -0.1225
 5993SOL    HW129438   0.469   2.628   1.508  0.3393  0.4120  0.1683
 5993SOL    HW229439   0.614   2.655   1.507  0.7654 -1.2728  0.1348
 5994SOL     OW29440   1.627   0.433   9.215  1.0811 -0.0198  0.2219
 5994SOL    HW129441   1.545   0.480   9.196  1.3751 -0.4258 -2.0818
 5994SOL    HW229442   1.608   0.343   9.189  1.4899 -0.2498  0.7332
 5995SOL     OW29443   2.678   1.123   0.154  0.0594  0.5618 -0.2237
 5995SOL    HW129444   2.718   1.183   0.091 -0.9928  1.9477  0.4131
 5995SOL    HW229445   2.760   1.079   0.177 -1.8271 -1.9580  1.5760
 5996SOL     OW29446   1.847   3.604   5.573 -0.2657  0.6858 -0.1309
 5996SOL    HW129447   1.937   3.611   5.605 -0.6532  2.5036  0.5339
 5996SOL    HW229448   1.855   3.623   5.479 -0.2991 -0.3010 -0.3327
 5997SOL     OW29449   1.365   2.338  14.876  0.6985 -0.6466  0.2699
 5997SOL    HW129450   1.433   2.347  14.943 -0.1866  1.1751  0.9353
 5997SOL    HW229451   1.325   2.257  14.909 -1.0430  0.7274  1.5659
 5998SOL     OW29452   1.235   3.696   7.947  0.4789  0.2152 -0.2396
 5998SOL    HW129453   1.284   3.615   7.957  1.7402  1.2281  1.7873
 5998SOL    HW229454   1.202   3.722   8.033 -0.2277  0.5399 -0.6150
 5999SOL     OW29455   3.829   3.252  12.206  0.1986 -0.0852  0.2465
 5999SOL    HW129456   3.835   3.253  12.301  3.6998  1.1349 -0.0074
 5999SOL    HW229457   3.915   3.283  12.179 -0.4016  1.6963  0.3730
 6000SOL     OW29458   1.188   2.790   0.849  0.1329 -0.1207  0.6547
 6000SOL    HW129459   1.247   2.818   0.779 -1.3883  0.9185 -0.2104
 6000SOL    HW229460   1.122   2.737   0.805 -0.2566 -0.4131  1.6058
 6001SOL     OW29461   1.185   3.204   8.022  0.1737  0.2366 -1.1135
 6001SOL    HW129462   1.238   3.168   8.094 -0.9568  0.1753 -0.3012
 6001SOL    HW229463   1.098   3.172   8.048  0.9196  1.5120  3.0617
 6002SOL     OW29464   2.330   2.303   7.545 -0.1167 -0.4563  0.4074
 6002SOL    HW129465   2.395   2.240   7.516 -0.7508 -0.9388  0.0352
 6002SOL    HW229466   2.342   2.373   7.480  1.0597 -0.7338  0.3357
 6003SOL     OW29467   2.382   2.841   8.024 -0.1630 -0.0561  0.3944
 6003SOL    HW129468   2.474   2.851   8.000 -0.7019  1.9072 -0.8258
 6003SOL    HW229469   2.356   2.771   7.964 -0.1529  1.4001 -1.2769
 6004SOL     OW29470   0.548   3.308  16.253  0.0076 -0.4983  0.1126
 6004SOL    HW129471   0.461   3.276  16.227  0.0455 -0.9489  0.5249
 6004SOL    HW229472   0.594   3.269  16.179  1.4390  3.3827 -1.0186
 6005SOL     OW29473   4.166   2.125   6.109  0.2367 -0.2378  0.2545
 6005SOL    HW129474   4.110   2.104   6.184  0.8538 -0.0693  0.7676
 6005SOL    HW229475   4.108   2.104   6.037 -1.9004  0.0425  1.8902
 6006SOL     OW29476   3.925   2.364  13.334 -0.3486  0.5440 -0.2249
 6006SOL    HW129477   3.959   2.319  13.257  0.4217 -1.1033  1.0847
 6006SOL    HW229478   3.946   2.452  13.301 -0.1399  1.0203  1.1751
 6007SOL     OW29479   1.638   4.145  10.568  0.3948 -0.1955 -0.0657
 6007SOL    HW129480   1.708   4.202  10.600 -0.9149  1.3282  0.0848
 6007SOL    HW229481   1.561   4.173  10.617  1.3968  2.1832  0.1708
 6008SOL     OW29482   2.053   2.816  10.224  0.4918  0.0207 -0.5477
 6008SOL    HW129483   2.052   2.728  10.263  0.0752  0.2280 -0.0822
 6008SOL    HW229484   2.037   2.871  10.301  0.9309  1.3219 -1.3882
 6009SOL     OW29485   3.458   4.709   4.540  0.5678  0.0384  0.1545
 6009SOL    HW129486   3.403   4.722   4.617  0.3800 -0.5584  0.1260
 6009SOL    HW229487   3.408   4.640   4.496 -0.0765  1.3047 -1.0888
 6010SOL     OW29488   1.703   3.616  14.410 -0.1781  0.6842 -0.4829
 6010SOL    HW129489   1.729   3.704  14.438  1.2022 -0.7140  2.6643
 6010SOL    HW229490   1.608   3.617  14.423 -0.1533  1.8621 -0.3723
 6011SOL     OW29491   0.219   1.030   5.990 -0.6217  0.0335  0.0546
 6011SOL    HW129492   0.209   1.066   6.079 -1.8523 -0.9661  0.3149
 6011SOL    HW229493   0.273   0.951   6.003  1.4094  1.2211 -1.1662
 6012SOL     OW29494   4.064   4.100   4.665  0.0926 -0.1371 -0.0019
 6012SOL    HW129495   4.038   4.027   4.722 -2.1111  1.7194  1.3819
 6012SOL    HW229496   4.009   4.170   4.701  0.9173  1.1203 -1.1785
 6013SOL     OW29497   3.492   3.274   2.623 -0.2369 -0.1847  0.2356
 6013SOL    HW129498   3.536   3.355   2.596  1.8230 -1.1239  0.7957
 6013SOL    HW229499   3.573   3.225   2.634 -0.5460 -0.1274  2.8269
 6014SOL     OW29500   2.369   2.015   2.388  0.3224  0.0442 -0.0648
 6014SOL    HW129501   2.422   1.942   2.419 -1.9753 -1.2455  0.8750
 6014SOL    HW229502   2.289   1.972   2.357  0.1647 -0.3224  0.8578
 6015SOL     OW29503   3.295   4.054  11.634  0.7014 -0.3631  0.0853
 6015SOL    HW129504   3.249   3.986  11.683 -0.5136 -0.4744 -1.2068
 6015SOL    HW229505   3.218   4.110  11.620  1.6726  0.7914 -0.6621
 6016SOL     OW29506   1.153   3.436   1.640 -0.8184  0.0620 -0.2808
 6016SOL    HW129507   1.186   3.347   1.651  0.0238  0.2181 -1.5463
 6016SOL    HW229508   1.158   3.471   1.730  0.8462  0.5558 -0.5537
 6017SOL     OW29509   4.072   0.045   2.262  0.2299 -0.3522 -0.1770
 6017SOL    HW129510   4.085   0.108   2.192  0.0161 -1.6740 -1.4105
 6017SOL    HW229511   4.123   0.073   2.338 -0.5129  0.4483  0.0276
 6018SOL     OW29512   3.537   0.733  17.598  0.1905 -0.1056 -0.5475
 6018SOL    HW129513   3.579   0.786  17.530 -0.8970 -0.8747 -1.8180
 6018SOL    HW229514   3.475   0.793  17.639 -2.7424 -3.0020 -0.7829
 6019SOL     OW29515   1.606   4.612   5.690  0.3071  0.1974 -0.5516
 6019SOL    HW129516   1.649   4.637   5.772 -1.5081 -1.3972  0.8664
 6019SOL    HW229517   1.664   4.654   5.626  1.4803 -0.4451  0.0930
 6020SOL     OW29518   0.499   1.814   4.044 -1.2421  0.3566  0.5387
 6020SOL    HW129519   0.429   1.778   4.098 -0.4606  0.3977  1.5816
 6020SOL    HW229520   0.567   1.748   4.055 -2.4457 -0.6119  2.2258
 6021SOL     OW29521   0.130   0.413   4.514 -0.0396 -0.0496  0.0381
 6021SOL    HW129522   0.107   0.368   4.433 -3.2255 -0.9329  1.4211
 6021SOL    HW229523   0.059   0.477   4.517 -0.2521 -0.2726 -0.2289
 6022SOL     OW29524   3.849   1.019   6.445 -0.3457 -0.5917  0.3529
 6022SOL    HW129525   3.812   0.968   6.374 -0.3159 -0.5343  0.2955
 6022SOL    HW229526   3.774   1.023   6.504  0.7808  0.2704  1.7404
 6023SOL     OW29527   1.812   3.852   7.950 -0.0867 -0.5154  0.2615
 6023SOL    HW129528   1.796   3.943   7.927 -1.0901 -1.0638 -1.1898
 6023SOL    HW229529   1.887   3.860   8.010 -1.5071  0.0975  1.9346
 6024SOL     OW29530   4.196   3.724   1.749 -0.0068  0.2107  0.1444
 6024SOL    HW129531   4.173   3.788   1.817  2.0778  1.6660 -0.4853
 6024SOL    HW229532   4.256   3.777   1.696  0.4882 -0.5801 -0.0773
 6025SOL     OW29533   1.903   2.150   4.275  0.2808  0.1472 -0.3062
 6025SOL    HW129534   1.901   2.057   4.297 -3.1112 -0.0057 -1.2057
 6025SOL    HW229535   1.890   2.149   4.180 -2.4094 -1.7373  0.0728
 6026SOL     OW29536   1.657   1.461   2.878 -0.5233 -0.0576 -0.2675
 6026SOL    HW129537   1.575   1.420   2.848 -0.0173 -2.3006  1.3359
 6026SOL    HW229538   1.635   1.505   2.960  0.3590  2.5802 -1.4552
 6027SOL     OW29539   4.146   1.920   1.785  0.3092  0.6813  0.3558
 6027SOL    HW129540   4.113   1.981   1.719  0.1919  2.2452  1.8946
 6027SOL    HW229541   4.160   1.854   1.716  0.1689  1.6701 -0.6246
 6028SOL     OW29542   0.723   0.836   1.448 -0.1409 -0.4602  0.1736
 6028SOL    HW129543   0.695   0.822   1.358 -2.1951  1.4755  0.5098
 6028SOL    HW229544   0.781   0.913   1.438 -0.3584 -0.3819 -0.4832
 6029SOL     OW29545   1.420   2.018   2.441 -0.1767  0.2298  0.4699
 6029SOL    HW129546   1.443   2.067   2.519  1.6558  0.8370 -0.4444
 6029SOL    HW229547   1.355   2.076   2.401 -0.7067 -1.2714 -0.8871
 6030SOL     OW29548   1.341   2.776   3.397 -0.1045  0.0353 -0.4895
 6030SOL    HW129549   1.337   2.798   3.490  0.4140 -1.6000 -0.0774
 6030SOL    HW229550   1.305   2.855   3.356  1.5604  1.8016  1.4819
 6031SOL     OW29551   2.512   4.591   3.801 -0.2391 -0.4791 -0.0167
 6031SOL    HW129552   2.495   4.502   3.772  0.6257 -0.8226  0.5241
 6031SOL    HW229553   2.419   4.612   3.812 -0.8587 -1.8197 -2.7677
 6032SOL     OW29554   4.374   3.137   3.073 -0.4089  0.2678  0.2462
 6032SOL    HW129555   4.336   3.225   3.064  1.7596  1.2233  0.5524
 6032SOL    HW229556   4.468   3.146   3.084 -0.4212  1.8855 -1.0730
 6033SOL     OW29557   2.649   3.719   0.470 -0.6163 -0.1509 -0.9478
 6033SOL    HW129558   2.719   3.737   0.407  0.2824 -1.2825 -0.2746
 6033SOL    HW229559   2.688   3.657   0.532  1.3612  1.2354 -0.8041
 6034SOL     OW29560   3.401   4.470   2.424 -0.2348  0.2567  0.5658
 6034SOL    HW129561   3.444   4.467   2.509 -0.9105  3.5133  1.0069
 6034SOL    HW229562   3.479   4.486   2.371 -0.6335  1.6646  0.4086
 6035SOL     OW29563   4.597   2.985   0.237 -0.6439  0.0683  0.1640
 6035SOL    HW129564   4.576   2.922   0.306  2.6685  1.3095  2.2995
 6035SOL    HW229565   4.606   3.069   0.281  2.6592  0.7823 -1.8945
 6036SOL     OW29566   3.144   2.225   7.506  0.1286  0.1869 -0.2834
 6036SOL    HW129567   3.227   2.227   7.554  0.3865  0.0818 -0.7216
 6036SOL    HW229568   3.179   2.183   7.427  0.4777  1.4521 -0.8153
 6037SOL     OW29569   2.516   3.378   5.737 -0.0938 -0.1248  0.1383
 6037SOL    HW129570   2.549   3.395   5.825  0.2708 -0.0652 -0.0123
 6037SOL    HW229571   2.483   3.290   5.758  1.4221 -0.7938 -0.2624
 6038SOL     OW29572   2.424   0.267   4.408  0.1884  0.3193 -0.2547
 6038SOL    HW129573   2.502   0.319   4.387  0.5197 -0.5499 -1.1529
 6038SOL    HW229574   2.378   0.333   4.460  0.3884 -0.9513  1.5393
 6039SOL     OW29575   0.922   1.789   1.273  0.1667 -0.2031 -0.6233
 6039SOL    HW129576   0.844   1.841   1.292  0.3117 -0.1535 -0.1561
 6039SOL    HW229577   0.883   1.709   1.308  0.4863 -1.1046 -2.3026
 6040SOL     OW29578   0.894   0.832   6.824 -0.1084  0.3756  0.2730
 6040SOL    HW129579   0.805   0.801   6.840 -0.5349 -0.3547 -3.4554
 6040SOL    HW229580   0.889   0.838   6.728  0.8282 -1.4958  0.1079
 6041SOL     OW29581   0.820   4.577   7.387  0.0796 -0.1372 -0.2706
 6041SOL    HW129582   0.798   4.630   7.310 -0.7905  0.1499  0.1722
 6041SOL    HW229583   0.908   4.612   7.398  0.4980 -1.4279  0.5049
 6042SOL     OW29584   2.624   1.347   5.401 -0.2024  0.2360  0.2159
 6042SOL    HW129585   2.636   1.331   5.307 -0.3477 -0.4043  0.3012
 6042SOL    HW229586   2.700   1.298   5.432  1.7190  2.2038 -1.3949
 6043SOL     OW29587   2.127   3.293   0.184 -0.8657 -0.1402 -0.4239
 6043SOL    HW129588   2.070   3.318   0.111  1.8966  1.8649 -1.8604
 6043SOL    HW229589   2.148   3.378   0.223  0.0674  0.1321 -1.5407
 6044SOL     OW29590   2.026   1.337   1.489  0.5239  0.0463  0.3616
 6044SOL    HW129591   2.091   1.379   1.432  0.3283  1.1905  0.9870
 6044SOL    HW229592   2.090   1.302   1.552 -0.7955 -0.4467  1.4200
 6045SOL     OW29593   3.422   0.994   7.806  0.3394 -0.3270  0.0951
 6045SOL    HW129594   3.449   1.078   7.842 -0.4914  1.1724 -2.8366
 6045SOL    HW229595   3.327   1.006   7.811  0.0328 -1.8057 -2.1697
 6046SOL     OW29596   2.431   4.636   4.384  0.1978 -0.7048  0.0464
 6046SOL    HW129597   2.463   4.560   4.433 -0.9532 -1.3752 -0.2177
 6046SOL    HW229598   2.513   4.680   4.363 -0.2870 -1.1674 -2.7936
 6047SOL     OW29599   0.176   0.076   3.686  0.1165 -0.0732  0.7568
 6047SOL    HW129600   0.089   0.106   3.659  0.3153  0.2314  0.4556
 6047SOL    HW229601   0.220   0.051   3.605 -0.9181  1.7895 -0.3873
 6048SOL     OW29602   2.329   4.199   0.340 -0.3264 -0.5836 -0.4244
 6048SOL    HW129603   2.298   4.116   0.305  2.8245 -1.4085 -1.3246
 6048SOL    HW229604   2.268   4.259   0.295  0.5904  1.0834  0.5424
 6049SOL     OW29605   1.628   1.785   7.929 -0.4092 -0.6979 -0.2160
 6049SOL    HW129606   1.533   1.796   7.922 -0.2521  0.2016 -0.9222
 6049SOL    HW229607   1.632   1.780   8.024 -0.7518 -0.5137 -0.1906
 6050SOL     OW29608   4.324   4.413  10.125  0.6330 -0.0289  0.3974
 6050SOL    HW129609   4.244   4.373  10.090 -1.1727  1.9011  2.3590
 6050SOL    HW229610   4.346   4.353  10.197  1.6585  0.3624  0.4089
 6051SOL     OW29611   3.264   4.719  15.244  0.4667 -1.4177  0.2409
 6051SOL    HW129612   3.337   4.689  15.298 -0.7580 -1.5854  1.8198
 6051SOL    HW229613   3.233   0.069  15.299  0.4101 -1.1144 -0.1906
 6052SOL     OW29614   2.868   0.439  15.718  0.7849 -0.4338 -0.7356
 6052SOL    HW129615   2.929   0.416  15.789 -0.2022  3.4093  1.3254
 6052SOL    HW229616   2.822   0.357  15.702 -2.2424  1.1077  0.1270
 6053SOL     OW29617   4.257   4.464   2.614 -0.2142 -0.1485  0.1854
 6053SOL    HW129618   4.316   4.538   2.601 -1.2133  0.2029 -2.4901
 6053SOL    HW229619   4.316   4.418   2.673 -2.3581 -1.1742  1.5480
 6054SOL     OW29620   0.516   4.470   4.312  0.0072  0.9237  0.0435
 6054SOL    HW129621   0.610   4.459   4.296  0.0236 -0.8739  1.3930
 6054SOL    HW229622   0.507   4.559   4.278 -2.9501  0.0277 -1.4692
 6055SOL     OW29623   0.870   4.085   9.163  0.1006  0.1781 -0.2892
 6055SOL    HW129624   0.938   4.053   9.105  1.5970 -0.1908  1.6505
 6055SOL    HW229625   0.837   4.160   9.114  1.5631  0.0384 -1.4862
 6056SOL     OW29626   1.190   0.729   8.152 -0.2723  0.1263  0.0755
 6056SOL    HW129627   1.133   0.757   8.223 -0.6512  0.4667 -0.3662
 6056SOL    HW229628   1.150   0.777   8.079  0.2075  0.9910  0.3730
 6057SOL     OW29629   3.198   3.480   6.808  0.0868 -0.1157  0.1551
 6057SOL    HW129630   3.257   3.445   6.875 -0.0977 -0.1487  0.3018
 6057SOL    HW229631   3.156   3.549   6.858  2.6083  1.4096  0.1803
 6058SOL     OW29632   4.315   4.305   0.712 -0.1045  0.3270 -0.1568
 6058SOL    HW129633   4.274   4.373   0.658 -1.2073  1.6408  2.3202
 6058SOL    HW229634   4.240   4.258   0.750  0.9918 -0.0075  1.5872
 6059SOL     OW29635   1.524   1.407   9.508 -0.0545  0.4419 -0.0736
 6059SOL    HW129636   1.541   1.496   9.539 -2.1583  1.2992 -1.3850
 6059SOL    HW229637   1.430   1.401   9.529 -0.0168 -2.0373 -0.6814
 6060SOL     OW29638   0.621   2.575   7.245  0.4600 -0.3851 -0.3729
 6060SOL    HW129639   0.691   2.636   7.223  1.1696 -0.6148  1.2934
 6060SOL    HW229640   0.617   2.586   7.340 -0.5764 -2.1450 -0.2244
 6061SOL     OW29641   0.366   0.125  13.954 -0.4468 -0.3764  0.2358
 6061SOL    HW129642   0.387   0.098  14.044 -0.4929  1.0463  0.6855
 6061SOL    HW229643   0.327   0.041  13.931  1.5138 -0.8103 -1.4523
 6062SOL     OW29644   4.220   2.817   8.248  0.0246  0.4502 -0.2748
 6062SOL    HW129645   4.230   2.808   8.153 -1.9758 -3.4445 -0.0778
 6062SOL    HW229646   4.134   2.778   8.257 -0.2713  1.0859 -0.3056
 6063SOL     OW29647   1.837   3.441  12.578  0.5130  0.1396  0.1059
 6063SOL    HW129648   1.882   3.423  12.660 -2.0648 -0.0943  1.4736
 6063SOL    HW229649   1.854   3.360  12.530  0.8583  1.1715 -1.5192
 6064SOL     OW29650   2.392   2.356   9.736 -0.0199  0.4246  0.7118
 6064SOL    HW129651   2.365   2.298   9.807 -0.2657  0.2715  0.4940
 6064SOL    HW229652   2.449   2.421   9.777  1.3227 -0.4690  0.2879
 6065SOL     OW29653   3.351   4.363   6.383 -0.4982 -0.5390 -0.3248
 6065SOL    HW129654   3.433   4.334   6.344  1.7874  1.8026  2.6703
 6065SOL    HW229655   3.327   4.417   6.308  2.5909 -0.2720 -1.1352
 6066SOL     OW29656   0.205   2.558   7.529 -0.0648 -0.0083 -0.0436
 6066SOL    HW129657   0.229   2.489   7.466  4.1522  0.2992  1.2282
 6066SOL    HW229658   0.120   2.518   7.548  0.4227 -1.2711 -0.4884
 6067SOL     OW29659   3.177   3.951   7.859  0.2529 -0.6014  0.2298
 6067SOL    HW129660   3.252   3.893   7.844  1.9754  1.0274  2.4515
 6067SOL    HW229661   3.125   3.893   7.914 -1.1261  1.2392  0.8596
 6068SOL     OW29662   3.580   0.920   3.412 -0.0593  0.2213  0.5957
 6068SOL    HW129663   3.576   0.981   3.486  3.2512  1.2147 -0.0870
 6068SOL    HW229664   3.502   0.941   3.360 -0.1182 -0.6182  0.3407
 6069SOL     OW29665   1.161   1.867   8.289 -0.4617 -0.6520  0.5241
 6069SOL    HW129666   1.169   1.920   8.369 -1.8405  0.6940 -0.2351
 6069SOL    HW229667   1.232   1.901   8.236  0.5153  0.5047  2.5835
 6070SOL     OW29668   4.476   2.863   0.441  0.1577 -0.3714 -0.0520
 6070SOL    HW129669   4.458   2.932   0.504  1.8713 -0.3817  0.4266
 6070SOL    HW229670   4.485   2.785   0.497 -1.4574  0.4438  1.3311
 6071SOL     OW29671   2.633   1.950   7.577  0.1438  0.3491 -0.2135
 6071SOL    HW129672   2.648   2.027   7.631 -1.8370 -0.4190  1.4201
 6071SOL    HW229673   2.622   2.003   7.498  0.2567  0.6420 -0.0296
 6072SOL     OW29674   2.513   1.502   7.793 -0.0986 -0.3370  0.2350
 6072SOL    HW129675   2.420   1.499   7.815  0.0305 -0.1080  0.8018
 6072SOL    HW229676   2.537   1.594   7.785 -1.1450  0.0264  1.3720
 6073SOL     OW29677   1.952   2.847  13.474  0.0054 -0.4822 -0.1324
 6073SOL    HW129678   2.002   2.874  13.397  1.4959  1.4190  1.5145
 6073SOL    HW229679   1.861   2.835  13.448 -0.0341 -0.4624 -0.0042
 6074SOL     OW29680   3.274   1.285  12.665  0.1198  0.0375  0.2070
 6074SOL    HW129681   3.369   1.275  12.664  0.0618 -0.6257  0.8012
 6074SOL    HW229682   3.248   1.219  12.730 -0.0209  1.3724  1.4980
 6075SOL     OW29683   0.374   2.715   5.506 -1.2963  0.1614  0.1752
 6075SOL    HW129684   0.330   2.668   5.578 -3.0381  2.3985  0.5641
 6075SOL    HW229685   0.300   2.723   5.446 -0.3043 -3.5055 -1.5495
 6076SOL     OW29686   4.120   3.925   1.943 -0.1410 -0.2930 -0.3773
 6076SOL    HW129687   4.079   3.985   2.006 -1.6890 -1.9354  0.1774
 6076SOL    HW229688   4.104   3.844   1.992  2.5400 -0.8060 -0.3828
 6077SOL     OW29689   1.924   0.320   2.282  0.3176  0.4250  0.2939
 6077SOL    HW129690   1.937   0.256   2.352  0.9571 -1.0024 -1.1620
 6077SOL    HW229691   1.939   0.400   2.333  3.8164 -1.4339  2.1403
 6078SOL     OW29692   0.856   3.738  13.025 -0.3903  0.3927  0.1434
 6078SOL    HW129693   0.859   3.832  13.009  2.4835  0.2546 -0.0317
 6078SOL    HW229694   0.767   3.742  13.061 -0.4041 -2.0861  0.3839
 6079SOL     OW29695   2.070   2.955  13.239 -0.0944 -0.0972  0.0965
 6079SOL    HW129696   2.005   2.981  13.173 -0.9481 -2.3651  0.0633
 6079SOL    HW229697   2.121   3.036  13.240  2.3730 -1.6953  1.6863
 6080SOL     OW29698   4.319   0.880  13.355  0.2278 -0.1112 -0.3615
 6080SOL    HW129699   4.415   0.882  13.348  0.4306 -2.3141  1.5572
 6080SOL    HW229700   4.311   0.956  13.413 -0.6321 -1.7117  1.6115
 6081SOL     OW29701   2.477   0.683  17.302  0.2086 -0.5487  0.2264
 6081SOL    HW129702   2.514   0.643  17.224 -2.1957 -1.2895 -0.5197
 6081SOL    HW229703   2.384   0.703  17.289  0.9184  0.7564 -2.6626
 6082SOL     OW29704   0.537   2.160   2.971 -0.0007  0.0630  0.5353
 6082SOL    HW129705   0.544   2.255   2.971 -0.2577  0.0765  1.4943
 6082SOL    HW229706   0.443   2.153   2.983 -0.0121 -0.8023 -0.0116
 6083SOL     OW29707   3.179   1.307   9.680  0.6786  0.5584 -0.1292
 6083SOL    HW129708   3.159   1.224   9.723  1.6135 -0.3305 -1.3980
 6083SOL    HW229709   3.106   1.362   9.709 -0.1395  1.3499 -3.6968
 6084SOL     OW29710   1.161   0.830  12.196 -0.3243  0.3454 -0.0791
 6084SOL    HW129711   1.169   0.761  12.263  1.1800 -0.5634 -1.2034
 6084SOL    HW229712   1.070   0.860  12.198 -0.9029 -1.4910  1.4121
 6085SOL     OW29713   3.948   3.916  14.012 -0.6104 -0.1312  0.5320
 6085SOL    HW129714   4.037   3.919  14.045 -0.2548  0.2387 -0.4595
 6085SOL    HW229715   3.953   3.889  13.920  0.3795 -0.4646  0.6873
 6086SOL     OW29716   1.549   0.628   1.854  0.1740  0.4461  0.2116
 6086SOL    HW129717   1.611   0.566   1.893  1.1562  0.3177 -1.5301
 6086SOL    HW229718   1.493   0.657   1.926 -0.5371  1.0055 -0.5532
 6087SOL     OW29719   0.687   1.113   2.405 -0.1912  0.2983 -0.3088
 6087SOL    HW129720   0.681   1.090   2.498 -0.9892 -0.5053 -0.5696
 6087SOL    HW229721   0.664   1.206   2.398 -2.0756 -0.1614 -0.3297
 6088SOL     OW29722   2.497   1.448  12.511  0.1427  0.1846 -0.5978
 6088SOL    HW129723   2.558   1.390  12.558 -2.1650 -1.1158  0.8041
 6088SOL    HW229724   2.561   1.514  12.487 -0.3698  0.5344 -1.0007
 6089SOL     OW29725   1.466   0.453  16.615 -0.6525  0.2554  0.2141
 6089SOL    HW129726   1.371   0.444  16.603 -0.6083 -0.9454  0.8103
 6089SOL    HW229727   1.497   0.441  16.526  0.4852 -2.2296  0.9377
 6090SOL     OW29728   0.378   0.179  11.276 -0.1316  0.1288 -0.1290
 6090SOL    HW129729   0.454   0.219  11.318 -0.1866  0.8205 -0.7049
 6090SOL    HW229730   0.415   0.108  11.224  0.7396  1.1972 -0.9607
 6091SOL     OW29731   1.855   3.464   4.775  0.0058  0.2192  0.1859
 6091SOL    HW129732   1.857   3.454   4.870 -0.8381  0.6534  0.2457
 6091SOL    HW229733   1.882   3.378   4.745 -0.8894 -0.1568  0.4855
 6092SOL     OW29734   2.709   3.793   5.261 -0.2235 -0.3580  0.2282
 6092SOL    HW129735   2.739   3.753   5.180 -1.1935 -1.6993  0.5311
 6092SOL    HW229736   2.799   3.799   5.294  0.4870  1.7977 -2.1117
 6093SOL     OW29737   4.231   1.158   7.129 -0.4490 -0.0868  0.2613
 6093SOL    HW129738   4.199   1.070   7.110  0.2968 -0.4260  0.5868
 6093SOL    HW229739   4.254   1.152   7.222 -1.6668  0.3291  0.6035
 6094SOL     OW29740   1.149   3.076   4.096  0.2747 -0.4968 -0.0601
 6094SOL    HW129741   1.195   3.139   4.040 -0.3163  0.0298  0.0469
 6094SOL    HW229742   1.214   3.054   4.163 -0.2171 -3.8104 -0.6673
 6095SOL     OW29743   4.373   3.458   6.315 -0.1977  0.1455  0.1736
 6095SOL    HW129744   4.337   3.511   6.386 -3.3560 -2.0675  0.2276
 6095SOL    HW229745   4.460   3.427   6.343 -1.6338 -2.2303  2.0048
 6096SOL     OW29746   4.158   2.615   1.938 -0.6594  0.9032  0.4079
 6096SOL    HW129747   4.237   2.598   1.989 -0.9886  0.4692  0.7607
 6096SOL    HW229748   4.191   2.628   1.849  2.9659 -1.0254  1.4625
 6097SOL     OW29749   1.467   2.735   1.987  0.2388 -0.2868 -0.1511
 6097SOL    HW129750   1.381   2.764   2.017  1.1787  0.2033  2.0895
 6097SOL    HW229751   1.483   2.682   2.065  0.2951  0.8529  0.6173
 6098SOL     OW29752   2.311   4.408   2.977  0.4131  0.2978 -0.7513
 6098SOL    HW129753   2.360   4.432   2.899  0.8362  1.3101 -0.1852
 6098SOL    HW229754   2.219   4.401   2.951  0.5174 -0.0071 -1.0305
 6099SOL     OW29755   3.020   2.227  15.124 -0.2875 -0.2526  0.5810
 6099SOL    HW129756   2.989   2.314  15.148 -2.3610 -0.8384  0.0414
 6099SOL    HW229757   2.936   2.183  15.116  0.8630 -2.1063 -1.6806
 6100SOL     OW29758   4.016   3.985   3.852 -0.3066 -0.0257 -0.2711
 6100SOL    HW129759   4.092   4.033   3.818  1.8067 -2.6296  0.7634
 6100SOL    HW229760   3.970   3.964   3.771 -0.2144 -0.8093 -0.1152
 6101SOL     OW29761   4.256   3.996  10.921  0.7149  0.5654  0.2466
 6101SOL    HW129762   4.295   3.922  10.966  0.7532 -0.5323 -1.5931
 6101SOL    HW229763   4.328   4.060  10.918  1.6213 -0.3422  2.7155
 6102SOL     OW29764   1.912   2.369   4.756  0.3481  0.5488  0.0525
 6102SOL    HW129765   1.952   2.430   4.694  1.2742  1.6165  1.6969
 6102SOL    HW229766   1.971   2.294   4.743 -0.5475  0.1138 -1.6244
 6103SOL     OW29767   3.902   1.099   1.866  0.0148 -0.8370  0.1024
 6103SOL    HW129768   3.868   1.092   1.777 -0.0371 -0.8520  0.1232
 6103SOL    HW229769   3.975   1.157   1.846  0.3369 -0.3910  2.5880
 6104SOL     OW29770   4.711   1.191   2.252 -0.3479 -0.0024  0.2354
 6104SOL    HW129771   0.065   1.190   2.309  0.5386  1.8745 -0.9419
 6104SOL    HW229772   4.635   1.212   2.307  0.0935  0.3304  0.7128
 6105SOL     OW29773   2.508   0.372   0.172  0.1388  0.0778  0.3808
 6105SOL    HW129774   2.529   0.335   0.257  0.3647 -3.8576 -1.3938
 6105SOL    HW229775   2.413   0.364   0.164  0.1339  1.2921 -0.8114
 6106SOL     OW29776   4.308   2.254   1.814  0.1387  0.2971 -0.0782
 6106SOL    HW129777   4.325   2.166   1.780 -0.0729 -0.5460  1.9842
 6106SOL    HW229778   4.303   2.252   1.909  1.4166  0.1601 -0.0092
 6107SOL     OW29779   4.045   1.503   2.830  0.4061  0.0652 -0.0794
 6107SOL    HW129780   3.994   1.487   2.909 -1.2237  1.2809 -0.8646
 6107SOL    HW229781   4.024   1.439   2.762 -2.2945 -2.3408  3.1044
 6108SOL     OW29782   2.950   3.329   6.876  0.6742  0.2758 -0.0980
 6108SOL    HW129783   3.004   3.270   6.928  0.5416 -1.8474 -2.3899
 6108SOL    HW229784   2.955   3.403   6.936 -1.9055 -0.0139  0.4766
 6109SOL     OW29785   1.801   2.681   8.325 -0.5571 -0.0247 -0.1594
 6109SOL    HW129786   1.804   2.751   8.260  0.7073 -0.1131 -0.1810
 6109SOL    HW229787   1.784   2.599   8.279  2.8065 -1.4143  1.0965
 6110SOL     OW29788   3.774   4.572  15.111 -0.4097 -0.0369  1.0182
 6110SOL    HW129789   3.833   4.552  15.039 -1.9268 -0.6002 -0.0689
 6110SOL    HW229790   3.793   4.666  15.120  1.4027 -0.2184 -0.9929
 6111SOL     OW29791   2.277   3.525   2.915  0.0012  0.5169  0.0836
 6111SOL    HW129792   2.348   3.472   2.879  0.5168 -0.0936  1.9879
 6111SOL    HW229793   2.229   3.552   2.837 -0.4321 -0.7411 -0.0967
 6112SOL     OW29794   3.383   3.355  11.596 -0.3458  0.1830  0.0727
 6112SOL    HW129795   3.316   3.394  11.653 -0.4012  0.5467 -0.2451
 6112SOL    HW229796   3.457   3.333  11.653 -0.0346  0.0722 -0.3720
 6113SOL     OW29797   0.943   3.163   5.124  0.0576 -0.4143 -0.3703
 6113SOL    HW129798   0.877   3.093   5.125 -1.1091  0.6978  0.1092
 6113SOL    HW229799   0.996   3.122   5.055  0.5395 -1.2070  0.4716
 6114SOL     OW29800   4.117   3.127   9.665  0.7144  0.3947 -0.4734
 6114SOL    HW129801   4.095   3.217   9.640  3.9180  1.2107 -0.2937
 6114SOL    HW229802   4.199   3.140   9.711 -0.3036  0.3043  1.3407
 6115SOL     OW29803   2.006   4.299  11.980 -0.1784  0.7831  0.0458
 6115SOL    HW129804   2.046   4.212  11.986  1.2874  1.4928  0.6036
 6115SOL    HW229805   2.077   4.362  11.980 -1.0202  1.7208  0.3125
 6116SOL     OW29806   3.398   4.370  15.675 -0.0013 -0.0175 -0.3188
 6116SOL    HW129807   3.372   4.389  15.585  0.2100 -0.2072 -0.4232
 6116SOL    HW229808   3.380   4.457  15.709  0.5220  0.1574 -0.4835
 6117SOL     OW29809   0.470   2.914   0.674  0.2185  0.2141  0.3319
 6117SOL    HW129810   0.494   2.836   0.623 -1.7960  0.2102 -0.5827
 6117SOL    HW229811   0.391   2.878   0.714 -0.5376 -2.5758 -3.6645
 6118SOL     OW29812   3.845   4.496  12.870 -0.4332 -0.2012 -0.5339
 6118SOL    HW129813   3.921   4.456  12.911 -1.3950 -1.6914 -0.2179
 6118SOL    HW229814   3.769   4.450  12.907 -0.5218 -0.2892 -0.8219
 6119SOL     OW29815   1.822   1.831   1.779  0.1704 -0.0036  0.0251
 6119SOL    HW129816   1.745   1.838   1.723  0.6658 -0.7795 -0.7603
 6119SOL    HW229817   1.811   1.738   1.798  0.2922  0.1515  0.8610
 6120SOL     OW29818   0.828   4.548   6.471 -0.2848  0.1598 -0.1554
 6120SOL    HW129819   0.833   4.463   6.514 -0.6726  1.4029  2.3286
 6120SOL    HW229820   0.733   4.559   6.479 -0.1277 -0.5832  2.7063
 6121SOL     OW29821   4.579   3.801  14.533  0.0344 -0.1020 -0.2903
 6121SOL    HW129822   4.489   3.808  14.501 -0.6702  1.8034  2.1303
 6121SOL    HW229823   4.624   3.868  14.482  1.9819 -1.3435 -0.1810
 6122SOL     OW29824   2.437   3.943  10.079 -0.3145  0.3626  0.0210
 6122SOL    HW129825   2.483   3.862  10.100  1.7746  1.3975 -0.5329
 6122SOL    HW229826   2.349   3.907  10.068 -0.7798  2.0635 -1.9722
 6123SOL     OW29827   0.809   2.886  10.753  0.1587 -0.4045 -0.2363
 6123SOL    HW129828   0.852   2.900  10.669 -1.9243  1.3377 -1.0104
 6123SOL    HW229829   0.724   2.923  10.729  0.0117 -0.6202 -0.0398
 6124SOL     OW29830   0.936   1.861   9.617  0.1283  0.2190  0.5276
 6124SOL    HW129831   1.008   1.800   9.604 -1.7298 -1.5358 -1.7884
 6124SOL    HW229832   0.980   1.941   9.589 -1.4961  1.5388  1.7405
 6125SOL     OW29833   4.407   1.742   5.504  0.0364 -0.4896 -0.1894
 6125SOL    HW129834   4.368   1.663   5.467 -0.0804 -1.1041  1.2401
 6125SOL    HW229835   4.441   1.719   5.590 -0.3502 -1.6484 -0.3348
 6126SOL     OW29836   2.432   4.337   7.522 -0.4509  0.0587  0.0358
 6126SOL    HW129837   2.469   4.311   7.438  0.4736 -0.8636  0.7349
 6126SOL    HW229838   2.498   4.309   7.585  0.6189 -0.3979 -1.2711
 6127SOL     OW29839   1.452   4.353  15.000 -0.4080  0.2659  0.1111
 6127SOL    HW129840   1.371   4.354  15.050 -1.4850  2.0306 -1.6550
 6127SOL    HW229841   1.460   4.258  14.999  0.9455  0.3796  0.3002
 6128SOL     OW29842   0.930   1.937   2.642  0.4081 -0.3835 -0.4293
 6128SOL    HW129843   0.869   1.975   2.705  0.8237 -0.9379  0.3033
 6128SOL    HW229844   1.013   1.974   2.672  0.7493 -1.6100  0.1385
 6129SOL     OW29845   2.680   1.323   7.677 -0.2303 -0.1542  0.2627
 6129SOL    HW129846   2.753   1.383   7.691  0.7449 -0.8920 -1.6473
 6129SOL    HW229847   2.602   1.377   7.689 -1.2011 -1.8585  1.5319
 6130SOL     OW29848   3.249   1.417   1.247  0.6978  0.1974  0.1770
 6130SOL    HW129849   3.214   1.330   1.264  2.2787 -0.6896 -1.0913
 6130SOL    HW229850   3.300   1.394   1.170 -1.1974 -2.1519 -0.3844
 6131SOL     OW29851   1.676   0.325   4.278  0.3235  0.4156 -0.2667
 6131SOL    HW129852   1.605   0.290   4.224 -0.1001  3.9566 -2.0460
 6131SOL    HW229853   1.663   0.267   4.353  0.4162 -0.3783 -0.8632
 6132SOL     OW29854   4.617   1.498   3.852 -0.2223 -0.6364  0.6847
 6132SOL    HW129855   4.551   1.565   3.836 -1.6597 -0.8137  5.6994
 6132SOL    HW229856   4.614   1.466   3.762 -0.6865  2.0471 -0.2387
 6133SOL     OW29857   3.971   2.947   1.550  0.8339 -0.2089 -0.1996
 6133SOL    HW129858   3.962   2.884   1.622 -3.3663 -0.3807 -0.8960
 6133SOL    HW229859   3.887   2.993   1.557  0.7207 -0.2585 -1.2419
 6134SOL     OW29860   2.165   0.837   1.559 -0.2986 -0.3956 -0.1393
 6134SOL    HW129861   2.258   0.841   1.539 -0.7290 -0.4027 -2.1217
 6134SOL    HW229862   2.141   0.760   1.507 -0.2125 -0.7739  0.3803
 6135SOL     OW29863   1.795   1.476   1.512 -0.6347 -0.0353 -0.3920
 6135SOL    HW129864   1.866   1.412   1.508  1.2004  1.9221  0.8384
 6135SOL    HW229865   1.798   1.505   1.420  1.9128  0.2946 -0.2178
 6136SOL     OW29866   2.245   2.620   6.728  0.0208  0.1634 -0.1025
 6136SOL    HW129867   2.227   2.533   6.763  0.2318 -0.2609 -1.0429
 6136SOL    HW229868   2.290   2.664   6.800  2.5836 -0.6798 -1.1877
 6137SOL     OW29869   1.971   1.318   2.183  0.3440  0.3739  0.2064
 6137SOL    HW129870   1.934   1.367   2.256  1.5458  0.2278  0.9099
 6137SOL    HW229871   2.046   1.279   2.229 -0.2154  0.0960  0.8991
 6138SOL     OW29872   3.481   0.591   8.986 -0.4506 -0.6070 -0.3047
 6138SOL    HW129873   3.496   0.565   9.077  3.4848  1.6253 -0.3203
 6138SOL    HW229874   3.483   0.686   8.982 -0.5660 -0.5263  1.9270
 6139SOL     OW29875   3.626   3.810   0.491 -0.6333 -0.0874 -0.3613
 6139SOL    HW129876   3.586   3.857   0.417 -0.6706 -0.3764 -0.5235
 6139SOL    HW229877   3.546   3.781   0.534 -1.1003  0.8249 -0.6081
 6140SOL     OW29878   4.370   0.982   7.985 -0.3818  0.0825 -0.1588
 6140SOL    HW129879   4.308   0.917   8.019  0.9032 -0.9247  0.2361
 6140SOL    HW229880   4.306   1.049   7.960 -0.4235  0.1812  0.2232
 6141SOL     OW29881   4.595   1.597  12.856 -0.0700  0.4618  0.2952
 6141SOL    HW129882   4.519   1.551  12.819  0.0964  1.8408 -1.7471
 6141SOL    HW229883   4.600   1.543  12.935  0.2288 -2.1022 -1.4507
 6142SOL     OW29884   0.411   2.449  10.029  0.2513 -0.4456  0.2843
 6142SOL    HW129885   0.486   2.436   9.971 -0.3462 -0.7908 -0.4152
 6142SOL    HW229886   0.412   2.371  10.084  0.8638  0.2332  1.2375
 6143SOL     OW29887   3.002   4.246  10.593  0.0386  0.5067 -0.0054
 6143SOL    HW129888   2.906   4.246  10.598  0.1727  1.5051  2.5618
 6143SOL    HW229889   3.019   4.339  10.581 -0.2363  0.6096  0.3693
 6144SOL     OW29890   2.311   0.465   6.629  0.6557 -0.7998 -0.1859
 6144SOL    HW129891   2.218   0.477   6.612  0.8396  0.0139 -0.6325
 6144SOL    HW229892   2.322   0.370   6.635 -1.8497 -1.2279 -2.5722
 6145SOL     OW29893   3.688   3.542  16.694 -0.1074  0.3657 -0.2807
 6145SOL    HW129894   3.750   3.525  16.622 -0.1180 -1.9728  0.2522
 6145SOL    HW229895   3.736   3.586  16.764  0.8343 -1.4504  0.2281
 6146SOL     OW29896   3.913   3.132   5.133  0.2219 -0.4264 -0.1983
 6146SOL    HW129897   3.913   3.168   5.044 -0.5959  0.6597  0.2357
 6146SOL    HW229898   3.902   3.038   5.126  0.0169 -0.5195  1.6005
 6147SOL     OW29899   3.423   2.542   6.067  0.4413 -0.6945  0.0608
 6147SOL    HW129900   3.493   2.603   6.089 -0.3766  0.0844  0.5206
 6147SOL    HW229901   3.392   2.508   6.151  1.1827 -0.1390  0.5570
 6148SOL     OW29902   3.911   2.767   4.463  0.1420  0.2574  0.3539
 6148SOL    HW129903   3.819   2.785   4.479  0.3261  0.9713  0.6205
 6148SOL    HW229904   3.922   2.812   4.379  0.6891  0.5376  0.5765
 6149SOL     OW29905   2.465   3.167  12.003 -0.0633  0.3109  0.0030
 6149SOL    HW129906   2.440   3.085  11.961  3.9300 -0.4407 -0.9005
 6149SOL    HW229907   2.455   3.147  12.096  0.7628  0.1208  0.0546
 6150SOL     OW29908   1.789   1.721   6.170 -0.2316  0.3762 -0.4176
 6150SOL    HW129909   1.755   1.669   6.097 -1.4111  1.1754 -0.4443
 6150SOL    HW229910   1.740   1.803   6.166  1.5217  1.4464  0.0602
 6151SOL     OW29911   0.111   4.491   4.191  0.1996 -0.0017  0.2671
 6151SOL    HW129912   0.122   4.487   4.096 -0.4709 -1.2302  0.2429
 6151SOL    HW229913   0.178   4.546   4.231 -0.2089  0.9089 -0.3112
 6152SOL     OW29914   2.163   1.037   6.610  0.2903 -0.0807  0.2570
 6152SOL    HW129915   2.148   0.959   6.558 -0.4806  0.2262  0.0297
 6152SOL    HW229916   2.235   1.009   6.667  2.0975  0.5015 -1.7252
 6153SOL     OW29917   0.922   0.193  10.860  0.3356  0.5460  0.3031
 6153SOL    HW129918   0.842   0.244  10.843  1.8567  3.0022  0.5740
 6153SOL    HW229919   0.990   0.235  10.808  0.4812 -0.2366 -0.1543
 6154SOL     OW29920   0.567   3.960   8.308  0.0299  0.0484 -0.5384
 6154SOL    HW129921   0.546   3.985   8.398 -0.3301  0.6609 -0.7938
 6154SOL    HW229922   0.599   4.046   8.280 -0.3644  0.2364 -0.4116
 6155SOL     OW29923   1.908   2.397   0.896  0.0791 -0.3399  0.2921
 6155SOL    HW129924   1.993   2.407   0.940 -1.0113  0.6115  2.1956
 6155SOL    HW229925   1.854   2.443   0.961 -2.3140 -2.0030 -0.5466
 6156SOL     OW29926   3.835   0.339   7.456  0.0014  0.6090 -0.0619
 6156SOL    HW129927   3.767   0.383   7.404 -0.6790  0.1792  0.4600
 6156SOL    HW229928   3.851   0.395   7.532 -0.7212  1.4231 -0.5041
 6157SOL     OW29929   0.749   3.434   4.940 -0.3618 -0.9139  0.0007
 6157SOL    HW129930   0.841   3.432   4.913 -0.4474 -0.5214 -0.3126
 6157SOL    HW229931   0.702   3.373   4.883 -4.5434  0.0796  2.4234
 6158SOL     OW29932   1.312   0.452   9.558  0.6727 -0.2301 -0.1666
 6158SOL    HW129933   1.262   0.433   9.479  1.3500 -1.1725 -0.3704
 6158SOL    HW229934   1.354   0.537   9.543  1.1665 -0.8243 -2.0288
 6159SOL     OW29935   2.640   4.518  11.039  0.1182 -0.0274  0.0083
 6159SOL    HW129936   2.701   4.530  11.112  1.2565 -2.0358 -0.6051
 6159SOL    HW229937   2.706   4.511  10.969  0.6275 -1.9880  0.6863
 6160SOL     OW29938   0.855   4.628   7.903  0.0704  0.1592  0.0567
 6160SOL    HW129939   0.902   4.575   7.839  0.3040 -1.3925  1.5243
 6160SOL    HW229940   0.933   4.648   7.953 -0.3200  1.7802  0.0218
 6161SOL     OW29941   1.018   0.089  11.329 -0.1666 -0.0424 -0.5311
 6161SOL    HW129942   1.060   0.160  11.379 -0.9941 -0.6497  1.0422
 6161SOL    HW229943   1.045   0.014  11.381 -0.1980 -0.2325 -0.7925
 6162SOL     OW29944   1.216   2.951   5.699 -0.3792 -0.3584 -0.2058
 6162SOL    HW129945   1.308   2.968   5.679 -0.2298 -0.9654 -0.0343
 6162SOL    HW229946   1.211   3.005   5.778  0.6889 -1.0459  0.3329
 6163SOL     OW29947   1.091   1.253   4.411 -0.0929  0.1729  0.0293
 6163SOL    HW129948   1.121   1.343   4.418  0.2944  0.0002  0.6478
 6163SOL    HW229949   1.162   1.206   4.366 -1.6648 -1.9535 -0.2321
 6164SOL     OW29950   3.512   0.516   4.038 -0.5710  0.4778  0.0162
 6164SOL    HW129951   3.428   0.555   4.016 -1.3314 -0.0635  1.9706
 6164SOL    HW229952   3.558   0.502   3.955 -0.1668  4.1316 -0.3906
 6165SOL     OW29953   4.243   1.730   1.571 -0.1913  0.8137  0.0746
 6165SOL    HW129954   4.226   1.637   1.553  1.2597  0.3840  0.9831
 6165SOL    HW229955   4.210   1.766   1.488  0.3112 -1.7219 -1.2387
 6166SOL     OW29956   2.075   3.914   5.428  0.3798 -0.0649 -0.0672
 6166SOL    HW129957   2.032   3.997   5.411  1.9475  0.7855  0.0894
 6166SOL    HW229958   2.125   3.901   5.348  1.0569 -1.1968  0.5429
 6167SOL     OW29959   2.967   3.941   0.739 -0.0155 -0.0531  0.9272
 6167SOL    HW129960   2.949   3.979   0.825  1.7028  1.1562  0.7445
 6167SOL    HW229961   2.880   3.937   0.699  0.5074 -0.1665 -0.2039
 6168SOL     OW29962   1.786   0.710   8.923  0.1353 -0.3814  0.5437
 6168SOL    HW129963   1.837   0.789   8.938 -0.9156 -0.0456  2.3184
 6168SOL    HW229964   1.811   0.648   8.992 -1.8630 -0.6399  1.0282
 6169SOL     OW29965   2.853   3.340  12.632 -0.4397 -0.5148 -0.4185
 6169SOL    HW129966   2.920   3.409  12.631 -0.2251 -0.7266 -1.1282
 6169SOL    HW229967   2.866   3.318  12.724  1.5180 -0.4101 -0.6718
 6170SOL     OW29968   2.991   0.505  15.497  0.0134  0.0712 -0.3801
 6170SOL    HW129969   3.084   0.504  15.520 -0.2286  0.6416  0.5964
 6170SOL    HW229970   2.951   0.450  15.564  0.1099  1.5557  0.9052
 6171SOL     OW29971   4.177   3.871   5.801 -0.2003  0.1252  0.1805
 6171SOL    HW129972   4.208   3.780   5.801  1.5224  0.7272  2.5896
 6171SOL    HW229973   4.165   3.887   5.894 -0.3746 -0.3912  0.2509
 6172SOL     OW29974   3.317   3.888   7.163  0.7504 -0.3811  0.2105
 6172SOL    HW129975   3.264   3.967   7.151  1.8376  0.5801  1.7219
 6172SOL    HW229976   3.333   3.891   7.258  0.4481 -1.7916  0.3035
 6173SOL     OW29977   1.473   4.657   9.193  0.1992 -0.0046  0.5878
 6173SOL    HW129978   1.379   4.669   9.176  0.6095  1.0088 -1.0007
 6173SOL    HW229979   1.480   4.565   9.167 -0.2115  0.7811 -2.3033
 6174SOL     OW29980   2.319   3.203   4.311 -0.3094  0.2014 -0.2508
 6174SOL    HW129981   2.354   3.272   4.368  0.0245  0.3931 -0.6877
 6174SOL    HW229982   2.286   3.141   4.375  1.1983 -0.5043 -0.1607
 6175SOL     OW29983   3.470   1.827   6.758  0.0973 -0.0016 -0.0972
 6175SOL    HW129984   3.530   1.753   6.753 -2.7723 -2.3554 -0.0038
 6175SOL    HW229985   3.389   1.778   6.745 -0.6647  0.7665  1.6847
 6176SOL     OW29986   4.091   2.501  13.911 -0.1320  0.2965 -0.2620
 6176SOL    HW129987   4.057   2.559  13.979  2.2062  0.1944  0.9754
 6176SOL    HW229988   4.018   2.441  13.927  0.7850 -1.3352 -2.2151
 6177SOL     OW29989   0.466   0.467  10.506 -0.2065 -0.5432  0.0504
 6177SOL    HW129990   0.555   0.492  10.482 -0.1290 -0.4236  0.4727
 6177SOL    HW229991   0.443   0.532  10.572  0.1092 -1.6048  1.2098
 6178SOL     OW29992   3.205   2.738   1.958 -0.2843 -0.0404  0.3367
 6178SOL    HW129993   3.131   2.701   2.005 -0.3076  2.4659  2.2622
 6178SOL    HW229994   3.275   2.693   2.005  2.4124  4.1586  0.3944
 6179SOL     OW29995   0.310   3.252   6.168  0.0649 -0.4335  0.3912
 6179SOL    HW129996   0.388   3.203   6.142  2.0676  2.5331  0.8696
 6179SOL    HW229997   0.358   3.328   6.202  0.6618 -0.8248  0.4253
 6180SOL     OW29998   2.372   2.006   4.498 -0.2433  0.6037  0.2824
 6180SOL    HW129999   2.281   2.024   4.476 -0.1204  1.0576  0.1228
 6180SOL    HW230000   2.408   2.093   4.476  0.2839  0.8367  2.1204
 6181SOL     OW30001   1.105   0.971   9.920  0.6592  0.2861 -0.3947
 6181SOL    HW130002   1.050   1.022   9.980 -0.8088  0.4694 -1.8836
 6181SOL    HW230003   1.051   0.977   9.841  0.1069  0.8034  0.0228
 6182SOL     OW30004   4.001   4.163   7.853  0.3628  0.1591  0.0460
 6182SOL    HW130005   4.062   4.168   7.927 -0.2806 -0.2334  0.6017
 6182SOL    HW230006   4.059   4.173   7.778  1.3715 -0.0497  0.7979
 6183SOL     OW30007   3.936   3.235   0.856  0.2669 -0.5736  0.3835
 6183SOL    HW130008   3.942   3.141   0.871 -2.2337 -0.9643 -1.1356
 6183SOL    HW230009   3.918   3.251   0.948  4.2854 -0.2122  1.1289
 6184SOL     OW30010   3.952   3.018   1.974 -0.3059  0.2069 -0.0097
 6184SOL    HW130011   4.045   2.995   1.978  0.0395  1.9518  1.9769
 6184SOL    HW230012   3.954   3.094   1.916  0.1145 -0.6007 -1.0613
 6185SOL     OW30013   4.025   4.403  15.682  0.6611  0.5950  0.0945
 6185SOL    HW130014   4.113   4.437  15.697  1.4922 -1.0423 -1.1408
 6185SOL    HW230015   3.998   4.376  15.769  0.6762  3.8592  1.1303
 6186SOL     OW30016   2.820   1.326   8.115  0.0055 -0.0233  0.5103
 6186SOL    HW130017   2.798   1.309   8.206 -1.3858  2.3078  0.6142
 6186SOL    HW230018   2.807   1.238   8.081 -1.4356  0.6702 -0.7600
 6187SOL     OW30019   2.243   0.773   8.291  0.2346 -0.4523  0.5774
 6187SOL    HW130020   2.327   0.752   8.252 -0.8396 -0.7946 -1.5586
 6187SOL    HW230021   2.255   0.868   8.291  2.7450 -0.7774 -0.7221
 6188SOL     OW30022   2.071   0.781   7.978  0.4321 -0.0119 -0.1267
 6188SOL    HW130023   2.030   0.840   7.915 -0.2145  0.3087  0.5816
 6188SOL    HW230024   2.151   0.825   8.008  0.0440  0.6106  0.0039
 6189SOL     OW30025   1.856   0.257   0.518  1.0494 -0.2447  0.1051
 6189SOL    HW130026   1.835   0.332   0.462  0.3839 -0.1688  0.4600
 6189SOL    HW230027   1.865   0.184   0.456  1.5608  0.7274 -0.9651
 6190SOL     OW30028   3.760   3.014  16.733  0.5805 -0.4556  0.0495
 6190SOL    HW130029   3.815   2.946  16.693  1.0237  0.8989 -1.6662
 6190SOL    HW230030   3.797   3.098  16.708  0.0331 -0.1483  0.2774
 6191SOL     OW30031   3.841   0.634   0.754 -0.4477 -0.3693 -0.4438
 6191SOL    HW130032   3.830   0.568   0.686 -0.1892 -1.8733  0.9788
 6191SOL    HW230033   3.875   0.579   0.824  0.6895  0.0535 -0.6437
 6192SOL     OW30034   2.288   1.482   5.182 -0.2134  0.5048  0.5156
 6192SOL    HW130035   2.211   1.476   5.126 -0.4531 -0.1109  0.9092
 6192SOL    HW230036   2.335   1.399   5.172  0.2139  1.0629 -2.0783
 6193SOL     OW30037   3.006   0.396  17.597 -0.2297  0.6425 -0.1772
 6193SOL    HW130038   2.983   0.312  17.637  0.3419  0.2246 -0.7194
 6193SOL    HW230039   2.926   0.449  17.596 -0.3587  0.5034  2.8923
 6194SOL     OW30040   2.877   3.630   5.775  0.0549  0.1462 -0.4718
 6194SOL    HW130041   2.875   3.537   5.799  0.1365  0.7548  1.9054
 6194SOL    HW230042   2.939   3.655   5.843 -2.0526  1.0763  1.1266
 6195SOL     OW30043   1.753   4.710   5.493  0.0977 -0.8561  0.2151
 6195SOL    HW130044   1.833   0.009   5.445  0.2426 -1.1951  0.3050
 6195SOL    HW230045   1.699   0.064   5.474  0.1288 -1.1019 -0.8738
 6196SOL     OW30046   3.393   3.428   5.485  0.2943  0.0130  0.2481
 6196SOL    HW130047   3.484   3.458   5.487  0.8333 -1.4060 -2.3392
 6196SOL    HW230048   3.392   3.333   5.496  1.6639 -0.1377 -0.8119
 6197SOL     OW30049   1.980   3.357   5.301  0.7379  0.1105 -0.4461
 6197SOL    HW130050   2.009   3.398   5.219 -0.3942 -1.4603 -1.6111
 6197SOL    HW230051   2.026   3.417   5.360  1.5487 -0.6590 -0.3008
 6198SOL     OW30052   0.263   1.201  11.921  0.6431  0.3486 -0.2888
 6198SOL    HW130053   0.211   1.221  11.999  0.8766 -0.2411  0.0205
 6198SOL    HW230054   0.244   1.272  11.860  1.0199 -0.6751 -1.6030
 6199SOL     OW30055   2.643   0.407   5.067  0.3601 -0.2137 -0.3394
 6199SOL    HW130056   2.677   0.480   5.119 -1.2692  1.1265 -1.1965
 6199SOL    HW230057   2.604   0.441   4.987 -0.3158  0.5144  0.2966
 6200SOL     OW30058   3.616   2.182   2.744 -0.5629 -0.7008 -0.8130
 6200SOL    HW130059   3.663   2.201   2.826  0.7258 -0.1360 -1.6856
 6200SOL    HW230060   3.533   2.152   2.781 -1.1544  3.7550  1.3935
 6201SOL     OW30061   0.449   2.277   3.917  0.7872  0.5305  0.3270
 6201SOL    HW130062   0.396   2.197   3.920  0.6504  0.6560  1.3773
 6201SOL    HW230063   0.538   2.242   3.916 -0.6339 -3.0404  0.3509
 6202SOL     OW30064   0.168   1.131  10.574 -0.0624  0.3556 -0.4139
 6202SOL    HW130065   0.262   1.120  10.563  0.0626  0.5202  0.5169
 6202SOL    HW230066   0.141   1.181  10.497 -2.2795 -0.0320  0.1019
 6203SOL     OW30067   1.861   3.342   9.029 -0.4199  0.4363 -0.1533
 6203SOL    HW130068   1.906   3.403   8.971  0.8965 -0.6711 -0.3057
 6203SOL    HW230069   1.852   3.264   8.974 -0.1272 -0.6729  1.3883
 6204SOL     OW30070   3.495   0.682  15.468 -0.4875  0.0325  0.7239
 6204SOL    HW130071   3.539   0.678  15.384 -2.8405  2.7837 -0.6384
 6204SOL    HW230072   3.456   0.770  15.472 -1.4172 -0.4035  1.3917
 6205SOL     OW30073   2.870   0.196   4.496 -0.0705  0.0991 -0.3556
 6205SOL    HW130074   2.861   0.144   4.416 -1.0622  0.7945 -0.6918
 6205SOL    HW230075   2.941   0.152   4.542 -1.1218  0.0946  1.2737
 6206SOL     OW30076   1.081   3.875   3.611 -0.3981  0.4409  0.4309
 6206SOL    HW130077   1.122   3.921   3.684  1.0020 -0.2281  0.0691
 6206SOL    HW230078   1.066   3.788   3.648  3.3913 -0.7283 -0.7921
 6207SOL     OW30079   0.832   2.633  17.069 -0.2999 -0.8235 -0.0538
 6207SOL    HW130080   0.743   2.646  17.036  0.6503  3.6110 -0.8634
 6207SOL    HW230081   0.843   2.714  17.119 -1.5354 -2.1263  2.3750
 6208SOL     OW30082   2.225   4.067   8.108 -0.3418  0.4528  0.4132
 6208SOL    HW130083   2.143   4.028   8.140  1.1923  1.4266  5.4554
 6208SOL    HW230084   2.226   4.142   8.167  3.2067 -0.2016  1.1694
 6209SOL     OW30085   4.599   0.528   6.369  0.5857  0.2754 -0.2982
 6209SOL    HW130086   4.623   0.594   6.304  1.2138 -1.0345 -1.3920
 6209SOL    HW230087   4.563   0.580   6.440  1.2896  0.5904 -0.1743
 6210SOL     OW30088   3.168   1.534  10.471 -0.3762  0.7564  0.0447
 6210SOL    HW130089   3.247   1.481  10.485 -0.1434  0.8066 -1.1026
 6210SOL    HW230090   3.137   1.519  10.560 -0.2024 -0.1001 -0.0424
 6211SOL     OW30091   1.454   2.967  12.347  0.0948 -0.4181 -0.8340
 6211SOL    HW130092   1.518   2.896  12.334 -2.8440 -3.2280  0.0860
 6211SOL    HW230093   1.517   3.039  12.337 -1.4107  0.7752 -1.7595
 6212SOL     OW30094   3.829   0.360   9.526 -0.4386  0.3199 -0.1685
 6212SOL    HW130095   3.743   0.402   9.534 -0.3589  0.3688  0.4417
 6212SOL    HW230096   3.822   0.290   9.591  1.0675  0.6162  0.2939
 6213SOL     OW30097   3.315   2.993   2.937 -0.1370 -0.1905  0.4070
 6213SOL    HW130098   3.298   3.065   2.875 -2.4638 -0.7069  0.4358
 6213SOL    HW230099   3.407   2.968   2.931  0.1499  0.5479  1.6737
 6214SOL     OW30100   4.287   1.435   2.075  0.8579 -0.4673 -0.2151
 6214SOL    HW130101   4.300   1.490   1.998  0.7416 -2.1397 -1.4475
 6214SOL    HW230102   4.301   1.348   2.038  0.3243 -0.6161 -0.0733
 6215SOL     OW30103   4.122   3.097   1.764  0.4973 -0.4692 -0.5090
 6215SOL    HW130104   4.209   3.129   1.740  0.0307  1.2430  0.0509
 6215SOL    HW230105   4.089   3.070   1.678 -0.3636  0.2130 -0.3982
 6216SOL     OW30106   3.048   3.338   2.528  0.2685  0.1701  0.2127
 6216SOL    HW130107   3.118   3.387   2.572 -2.3300  3.3590  0.7194
 6216SOL    HW230108   2.978   3.401   2.539 -0.3763 -0.3709 -0.8516
 6217SOL     OW30109   0.541   2.184   9.206  0.4284 -0.0688  0.4850
 6217SOL    HW130110   0.470   2.120   9.199  1.2549 -0.7994 -1.2059
 6217SOL    HW230111   0.588   2.166   9.125 -0.0081 -0.0248  0.2239
 6218SOL     OW30112   0.328   0.454  17.563 -0.2478  0.1262  0.1744
 6218SOL    HW130113   0.391   0.515  17.601 -2.5552  3.2684 -1.0522
 6218SOL    HW230114   0.252   0.505  17.591 -0.3689  0.3889 -0.6299
 6219SOL     OW30115   2.391   3.501   5.525  0.4380  0.6352  0.2997
 6219SOL    HW130116   2.474   3.543   5.502  0.9019 -0.2319  0.4166
 6219SOL    HW230117   2.420   3.456   5.604  0.4361 -0.2577 -0.2062
 6220SOL     OW30118   3.217   1.691   7.535 -0.1774  0.1202 -0.1122
 6220SOL    HW130119   3.269   1.727   7.607  0.3895  0.2825 -0.6022
 6220SOL    HW230120   3.132   1.676   7.578  0.5905 -2.8269  0.4117
 6221SOL     OW30121   2.460   2.657   2.027 -0.3995  0.0945 -0.2389
 6221SOL    HW130122   2.550   2.631   2.048 -0.3279 -0.2117 -0.9252
 6221SOL    HW230123   2.424   2.571   2.050  1.6534 -1.2837 -2.1011
 6222SOL     OW30124   4.528   2.239   9.181  1.0246  0.3132  0.1163
 6222SOL    HW130125   4.570   2.186   9.114 -2.0105 -1.3982 -0.4267
 6222SOL    HW230126   4.453   2.263   9.127  0.1517 -0.2928  1.0760
 6223SOL     OW30127   1.574   1.111   0.756 -0.2320  0.0323 -0.4644
 6223SOL    HW130128   1.586   1.192   0.706  0.8411 -0.3001 -0.7298
 6223SOL    HW230129   1.647   1.059   0.724  0.3860  0.3590  0.4315
 6224SOL     OW30130   2.295   2.652   5.757  0.1222  0.4827  0.5614
 6224SOL    HW130131   2.359   2.704   5.708  0.6077 -1.3607 -0.7282
 6224SOL    HW230132   2.231   2.626   5.691 -1.1182  3.4160  0.5713
 6225SOL     OW30133   4.091   4.188   3.364  0.6984  0.5092 -0.0727
 6225SOL    HW130134   4.165   4.155   3.417 -0.1263 -1.9236 -0.4329
 6225SOL    HW230135   4.026   4.118   3.375  1.4731 -0.1059  0.6400
 6226SOL     OW30136   2.994   0.059   2.344  0.1744  0.0390  0.0934
 6226SOL    HW130137   2.973   0.129   2.281 -0.2652  2.1511  2.6077
 6226SOL    HW230138   3.056   4.721   2.304  1.7242  0.9060  1.1805
 6227SOL     OW30139   0.453   3.826   2.831  0.5166  0.6910 -0.1306
 6227SOL    HW130140   0.511   3.826   2.907  2.0353  0.0218 -1.3004
 6227SOL    HW230141   0.435   3.920   2.818  0.8676  0.7167 -0.4346
 6228SOL     OW30142   0.005   2.095   8.218  0.2630 -0.2906 -0.3021
 6228SOL    HW130143   0.092   2.056   8.224 -0.2119 -1.7619 -2.8852
 6228SOL    HW230144   0.030   2.185   8.236  0.2419 -0.0593 -1.3982
 6229SOL     OW30145   2.086   0.648  15.988  0.6207  0.0238  0.3121
 6229SOL    HW130146   2.114   0.704  16.060  0.5281  0.8690 -0.3200
 6229SOL    HW230147   2.127   0.687  15.911 -1.4161 -2.4548 -2.0282
 6230SOL     OW30148   3.758   4.184  13.714  0.4122 -0.2686 -0.1273
 6230SOL    HW130149   3.680   4.207  13.763  0.5219 -0.8667  0.3308
 6230SOL    HW230150   3.832   4.210  13.768 -0.5250 -0.2713  1.1369
 6231SOL     OW30151   1.363   1.557   6.200  0.1857  0.3869 -0.2269
 6231SOL    HW130152   1.331   1.553   6.291 -1.8575 -3.0017 -1.0871
 6231SOL    HW230153   1.458   1.549   6.204  0.0891  0.2353  1.6869
 6232SOL     OW30154   2.564   3.293   9.944 -0.2203 -0.4054  0.2171
 6232SOL    HW130155   2.538   3.216   9.895 -1.3808 -1.2863  2.2445
 6232SOL    HW230156   2.534   3.364   9.887 -0.2679  1.5142  2.5959
 6233SOL     OW30157   3.465   4.652   9.000  0.1445  0.2370  0.1128
 6233SOL    HW130158   3.439   4.719   8.937  0.4436  0.3430  0.1021
 6233SOL    HW230159   3.519   4.701   9.062 -0.7391 -2.5487  3.0926
 6234SOL     OW30160   0.083   4.363   9.121 -0.1155 -0.0096  0.0745
 6234SOL    HW130161   0.099   4.373   9.215  0.1889 -0.1530  0.0369
 6234SOL    HW230162   0.029   4.284   9.111 -0.6212  0.2374  0.8021
 6235SOL     OW30163   2.302   0.265  14.588  0.2549  0.2647 -0.3549
 6235SOL    HW130164   2.275   0.272  14.496  0.5242 -2.9220 -0.6985
 6235SOL    HW230165   2.216   0.261  14.631 -0.2249  1.1859 -1.2324
 6236SOL     OW30166   2.630   1.457   1.659  0.3223  0.2443  0.0384
 6236SOL    HW130167   2.593   1.528   1.607  0.7284  1.6771  1.7237
 6236SOL    HW230168   2.676   1.418   1.585 -3.3894 -1.5184 -1.3122
 6237SOL     OW30169   4.091   2.486   8.685 -0.0137  0.2612 -0.0161
 6237SOL    HW130170   4.136   2.410   8.649 -1.0474 -0.7376  0.7975
 6237SOL    HW230171   4.011   2.481   8.634 -0.0294 -0.8386  0.1122
 6238SOL     OW30172   3.501   2.346   4.573 -0.2338 -0.5953 -0.6677
 6238SOL    HW130173   3.547   2.332   4.656 -0.1181  1.8309 -0.3235
 6238SOL    HW230174   3.484   2.440   4.584  0.1273 -0.7084  0.8149
 6239SOL     OW30175   0.863   1.862  16.585 -0.0345 -0.2357 -0.0359
 6239SOL    HW130176   0.835   1.821  16.666  2.2040 -3.1030 -0.7084
 6239SOL    HW230177   0.818   1.946  16.594  1.7738  0.5625  1.5491
 6240SOL     OW30178   4.434   3.052  13.344 -0.1257  0.1714 -0.2537
 6240SOL    HW130179   4.431   2.957  13.360  4.8282  0.0736  0.1126
 6240SOL    HW230180   4.442   3.088  13.432 -1.6177  0.5947 -0.2946
 6241SOL     OW30181   2.401   1.003  16.139  0.3821  0.1587  0.0857
 6241SOL    HW130182   2.469   1.002  16.072 -0.0026  0.3786 -0.3123
 6241SOL    HW230183   2.432   1.078  16.190  0.8840 -0.9813  1.4593
 6242SOL     OW30184   0.983   2.556   5.214  0.1917  0.0310 -0.4627
 6242SOL    HW130185   1.004   2.471   5.253 -0.7498 -0.1572 -0.3787
 6242SOL    HW230186   0.998   2.542   5.121 -1.7824  1.8694 -1.0662
 6243SOL     OW30187   1.440   2.931  15.099  0.0324  0.2347 -0.0253
 6243SOL    HW130188   1.376   2.895  15.037 -0.5647 -1.1715  1.4013
 6243SOL    HW230189   1.496   2.989  15.047  1.7276 -0.6754  0.7896
 6244SOL     OW30190   1.587   2.060   5.949 -0.3914  0.1143 -0.4319
 6244SOL    HW130191   1.534   1.993   5.905  1.6322 -1.2094 -0.8600
 6244SOL    HW230192   1.523   2.129   5.963  0.6735  1.1119 -0.5322
 6245SOL     OW30193   1.425   0.826   6.059 -0.2661  0.3253  0.3507
 6245SOL    HW130194   1.445   0.847   6.150  0.4570  0.0619  0.2485
 6245SOL    HW230195   1.329   0.835   6.063 -0.3978 -0.5536 -0.9316
 6246SOL     OW30196   4.376   3.060   8.755 -0.2461 -0.0053  0.3341
 6246SOL    HW130197   4.376   2.970   8.786  2.5217 -0.4248 -0.8269
 6246SOL    HW230198   4.394   3.052   8.661  1.8294 -1.2047  0.8306
 6247SOL     OW30199   1.122   4.122   6.042 -0.0676  0.4426  0.4405
 6247SOL    HW130200   1.026   4.127   6.046 -0.0623  0.3831  0.6065
 6247SOL    HW230201   1.139   4.042   5.991 -2.0297 -2.0927  3.7734
 6248SOL     OW30202   1.506   1.236   2.069 -0.1442 -0.0108  0.0670
 6248SOL    HW130203   1.581   1.201   2.116  0.5786  1.8679  0.3212
 6248SOL    HW230204   1.468   1.154   2.038  2.5188 -1.2515  0.0852
 6249SOL     OW30205   4.575   4.416  15.233  0.2676  0.1433  0.7529
 6249SOL    HW130206   4.508   4.399  15.299 -0.3940  1.4793  0.4256
 6249SOL    HW230207   4.654   4.404  15.286  0.9945  2.1889  0.1254
 6250SOL     OW30208   0.258   1.061   7.941 -0.7124  0.3908  0.5424
 6250SOL    HW130209   0.307   1.074   7.859 -1.2204 -0.6292  0.0727
 6250SOL    HW230210   0.188   1.125   7.927  0.1564  1.3358  0.5088
 6251SOL     OW30211   1.077   2.157   0.945  0.0559  0.6133 -0.0574
 6251SOL    HW130212   0.990   2.161   0.905 -0.6160  3.8864  1.8081
 6251SOL    HW230213   1.066   2.220   1.016 -2.5038  0.6777 -0.4915
 6252SOL     OW30214   4.611   4.509   8.730 -0.0042 -0.0778 -0.2037
 6252SOL    HW130215   4.676   4.561   8.683 -0.9705  0.6549 -0.7538
 6252SOL    HW230216   4.633   4.522   8.822  2.1262 -3.9138 -0.1950
 6253SOL     OW30217   3.866   1.031   2.688 -0.7376 -0.1789 -0.0175
 6253SOL    HW130218   3.891   0.945   2.721 -2.3757 -0.2592  1.0427
 6253SOL    HW230219   3.771   1.020   2.689 -0.6793 -0.5412  1.9405
 6254SOL     OW30220   1.864   2.530   1.147 -0.3604  0.1408 -0.7859
 6254SOL    HW130221   1.916   2.590   1.094 -1.0445 -0.5180 -2.1991
 6254SOL    HW230222   1.781   2.577   1.155 -1.3748 -1.8977  0.8538
 6255SOL     OW30223   1.495   2.299   4.189  0.1011 -0.3276  0.5183
 6255SOL    HW130224   1.472   2.383   4.150  0.2278 -0.4069  0.2693
 6255SOL    HW230225   1.584   2.297   4.154  0.1927 -0.0320  0.7307
 6256SOL     OW30226   1.814   0.093   7.849  0.1303 -0.5048  0.1374
 6256SOL    HW130227   1.839   0.180   7.819 -1.3199 -0.2687 -0.4085
 6256SOL    HW230228   1.886   0.070   7.908 -0.4511  1.2874  1.5288
 6257SOL     OW30229   2.752   0.458   5.771 -0.0209 -0.0680 -0.1187
 6257SOL    HW130230   2.839   0.420   5.785  0.0058 -0.3738 -1.1159
 6257SOL    HW230231   2.767   0.542   5.728  1.2087 -0.3380 -0.2227
 6258SOL     OW30232   4.173   0.373   6.154 -0.0345  0.7265 -0.1610
 6258SOL    HW130233   4.116   0.305   6.189  0.3513  0.5371  0.1000
 6258SOL    HW230234   4.253   0.328   6.128 -0.9992  0.7075 -3.1242
 6259SOL     OW30235   3.025   3.258  16.571  0.2986  0.3883  0.5303
 6259SOL    HW130236   3.052   3.348  16.585  2.2800 -0.4985  2.3597
 6259SOL    HW230237   3.100   3.213  16.611  0.2532  1.3070  1.6393
 6260SOL     OW30238   4.328   3.452   9.784 -0.5105 -0.3129 -0.0749
 6260SOL    HW130239   4.372   3.393   9.722 -0.2237 -0.0132 -0.1513
 6260SOL    HW230240   4.318   3.390   9.856 -1.5728  0.0745  0.1117
 6261SOL     OW30241   3.079   0.706   4.382 -0.2992  0.5918 -0.2756
 6261SOL    HW130242   3.098   0.739   4.470  0.4564 -4.7348  1.5033
 6261SOL    HW230243   3.017   0.635   4.397  0.5694  0.0112  0.5449
 6262SOL     OW30244   2.778   3.482   1.898  0.7129 -0.3215 -0.4921
 6262SOL    HW130245   2.696   3.531   1.910  0.0015 -1.4637 -0.7563
 6262SOL    HW230246   2.846   3.546   1.920  0.5590 -0.6871  1.0690
 6263SOL     OW30247   0.076   2.951   2.112 -0.1838  0.0018 -0.1755
 6263SOL    HW130248   0.097   2.858   2.116 -0.4153 -0.0001  0.9499
 6263SOL    HW230249   4.717   2.939   2.062 -0.7201 -1.4509  1.0514
 6264SOL     OW30250   3.836   0.194   8.582  0.2891 -0.1854 -0.0295
 6264SOL    HW130251   3.778   0.120   8.601  0.6560 -0.4625  0.0185
 6264SOL    HW230252   3.884   0.153   8.510 -0.8002  0.8688 -1.3587
 6265SOL     OW30253   1.632   4.641  14.384  0.3196  0.0732 -0.4197
 6265SOL    HW130254   1.661   4.556  14.351  2.6911 -0.1141  2.1767
 6265SOL    HW230255   1.713   4.684  14.412 -0.7379  0.1907  2.3798
 6266SOL     OW30256   4.614   3.563   6.140 -0.4640  0.2962  0.1839
 6266SOL    HW130257   4.671   3.496   6.101 -0.6019  0.1215  0.2874
 6266SOL    HW230258   4.532   3.550   6.093 -1.4700  2.8913  1.2159
 6267SOL     OW30259   3.323   4.270   3.379  0.7989 -0.1294 -0.3650
 6267SOL    HW130260   3.385   4.339   3.401 -1.2405  1.6891 -0.2791
 6267SOL    HW230261   3.260   4.326   3.333  1.0322 -0.3657 -0.9608
 6268SOL     OW30262   2.051   3.458  14.521 -0.6867 -0.2122 -0.4877
 6268SOL    HW130263   1.995   3.471  14.444  0.6017 -0.0897 -1.4209
 6268SOL    HW230264   2.109   3.395  14.479  0.8536  1.9940 -1.6676
 6269SOL     OW30265   3.346   1.492   6.762  0.0270  0.4587 -0.3648
 6269SOL    HW130266   3.350   1.413   6.709 -2.6516  0.5010 -0.6281
 6269SOL    HW230267   3.435   1.520   6.783  0.5208 -1.2187 -0.1968
 6270SOL     OW30268   1.627   1.419   0.501  0.3497 -0.0130 -0.5666
 6270SOL    HW130269   1.554   1.477   0.478  0.3848 -0.6218 -2.2634
 6270SOL    HW230270   1.651   1.440   0.591  1.7909 -1.5161 -0.6072
 6271SOL     OW30271   4.154   0.519   9.527  0.2621  0.1439  0.9395
 6271SOL    HW130272   4.248   0.530   9.510 -0.2516  0.7505 -1.5736
 6271SOL    HW230273   4.152   0.436   9.573  0.0230  0.0216  0.7104
 6272SOL     OW30274   3.285   1.914   4.352 -0.0190  0.0851 -0.3879
 6272SOL    HW130275   3.353   1.944   4.412 -0.3333  2.3092 -1.1228
 6272SOL    HW230276   3.277   1.822   4.379  1.5203  0.2400  0.5923
 6273SOL     OW30277   0.447   4.471   4.574  0.0109  0.6903 -0.3362
 6273SOL    HW130278   0.489   4.405   4.517  1.5222  1.8499 -0.5828
 6273SOL    HW230279   0.378   4.428   4.623  1.7969 -0.4945  1.1553
 6274SOL     OW30280   4.374   0.116  10.919 -0.2886  0.6285  0.1863
 6274SOL    HW130281   4.380   0.182  10.988  0.4960  2.3620 -1.5219
 6274SOL    HW230282   4.300   0.064  10.949  0.7692  0.8459  3.1895
 6275SOL     OW30283   4.503   0.282   7.550 -0.2738  0.0313 -0.0237
 6275SOL    HW130284   4.511   0.263   7.457  1.2607 -3.8781  0.9461
 6275SOL    HW230285   4.462   0.369   7.553  1.0819  0.7101 -1.2471
 6276SOL     OW30286   3.428   4.210   1.845 -0.4347  0.3685 -0.1709
 6276SOL    HW130287   3.340   4.248   1.843 -0.4955  0.3005  1.8473
 6276SOL    HW230288   3.468   4.288   1.806 -0.2086  0.6450  0.6077
 6277SOL     OW30289   1.206   2.509  14.761 -0.4120 -0.1272  0.1135
 6277SOL    HW130290   1.225   2.455  14.837  3.1116 -1.6654 -1.8393
 6277SOL    HW230291   1.282   2.482  14.710 -1.6006 -2.3374 -0.5058
 6278SOL     OW30292   1.005   2.738   1.945 -0.0503 -0.4358 -0.2258
 6278SOL    HW130293   0.929   2.732   1.888  1.5784  1.1506 -2.5404
 6278SOL    HW230294   0.988   2.831   1.961 -2.1867 -0.5647 -1.8528
 6279SOL     OW30295   1.897   0.048   6.792  0.7273  0.1357  0.2225
 6279SOL    HW130296   1.886   4.687   6.746 -0.0411  0.5575 -0.3613
 6279SOL    HW230297   1.813   0.067   6.834  1.4245 -0.8354  2.0432
 6280SOL     OW30298   2.349   1.496  13.766 -0.2922 -0.6525  0.2820
 6280SOL    HW130299   2.416   1.460  13.824 -0.7379 -0.8305  0.6826
 6280SOL    HW230300   2.341   1.585  13.799  0.7484 -1.4248  2.5852
 6281SOL     OW30301   2.497   2.181   2.060  0.7098 -0.1138 -0.2766
 6281SOL    HW130302   2.565   2.130   2.104 -0.8178 -1.3338  0.6828
 6281SOL    HW230303   2.420   2.124   2.066  1.1717 -0.7016  0.0124
 6282SOL     OW30304   2.250   3.320   1.884  0.6067 -0.1508  0.1693
 6282SOL    HW130305   2.162   3.282   1.879 -0.4110  2.4827 -1.9642
 6282SOL    HW230306   2.268   3.331   1.977  1.7459 -1.3408  0.0892
 6283SOL     OW30307   1.053   2.493   5.552 -0.3857 -0.3965 -0.3782
 6283SOL    HW130308   1.054   2.419   5.613  4.1389 -0.7410 -0.8703
 6283SOL    HW230309   0.964   2.525   5.566 -0.5587 -1.2274  0.4460
 6284SOL     OW30310   0.461   3.955   6.149 -0.2017  0.4928  0.4008
 6284SOL    HW130311   0.545   4.001   6.152  1.2526 -2.1807  0.0553
 6284SOL    HW230312   0.499   3.875   6.184 -1.1751 -0.3532 -0.5033
 6285SOL     OW30313   0.406   4.040   9.230 -0.1897  0.0763 -0.0132
 6285SOL    HW130314   0.356   3.976   9.281  3.4268 -0.9361  2.2020
 6285SOL    HW230315   0.496   4.012   9.244  0.0541  1.2560  0.7325
 6286SOL     OW30316   4.683   1.290   8.740 -0.0171 -0.0941 -0.4666
 6286SOL    HW130317   4.602   1.326   8.704  0.6173  1.6504 -0.1457
 6286SOL    HW230318   0.022   1.301   8.668 -0.5947  0.5930 -0.8427
 6287SOL     OW30319   4.347   4.388  15.449  0.0579  0.2686 -0.1365
 6287SOL    HW130320   4.303   4.466  15.418  0.4011  1.4592  2.3425
 6287SOL    HW230321   4.335   4.391  15.544  1.7469 -0.8282  0.1214
 6288SOL     OW30322   0.890   4.425   2.150  0.1638  0.3906 -0.0968
 6288SOL    HW130323   0.810   4.479   2.148 -0.0877 -0.0353 -1.4389
 6288SOL    HW230324   0.880   4.369   2.073 -0.5955 -0.6273  0.7381
 6289SOL     OW30325   1.095   4.122   1.682 -0.2892 -0.3332  0.2746
 6289SOL    HW130326   1.031   4.052   1.695 -0.6610 -0.1313 -0.5155
 6289SOL    HW230327   1.045   4.203   1.698  1.4193  0.7178  0.3202
 6290SOL     OW30328   3.704   3.233  15.974  0.4226 -0.0297  0.0053
 6290SOL    HW130329   3.764   3.300  16.007 -2.2590  2.5492 -0.3242
 6290SOL    HW230330   3.755   3.186  15.908  0.3057  0.4338 -0.4153
 6291SOL     OW30331   1.335   4.027   1.759  0.1431 -0.5191  0.7313
 6291SOL    HW130332   1.331   3.953   1.699 -1.3064 -0.3964  0.6625
 6291SOL    HW230333   1.255   4.076   1.737  0.2445  0.2497  2.0797
 6292SOL     OW30334   0.964   3.147   5.756  0.2448  0.9317 -0.2628
 6292SOL    HW130335   1.049   3.187   5.773  1.0679 -0.9112 -0.0446
 6292SOL    HW230336   0.976   3.065   5.709  0.0692  0.6937  0.1089
 6293SOL     OW30337   3.124   1.404   6.082  0.7845 -0.3440 -0.6612
 6293SOL    HW130338   3.170   1.393   5.998  0.5470  0.8853 -0.9584
 6293SOL    HW230339   3.107   1.496   6.064 -3.4557 -1.2619 -1.2039
 6294SOL     OW30340   4.230   3.712  10.771 -0.0708  0.5811 -0.1760
 6294SOL    HW130341   4.282   3.735  10.849 -1.5745  1.8667  0.4574
 6294SOL    HW230342   4.242   3.617  10.775  0.1903  0.6917  1.6004
 6295SOL     OW30343   3.219   2.882   8.488 -0.5155 -0.0422  0.5919
 6295SOL    HW130344   3.231   2.813   8.553 -1.1136 -1.3445 -0.6896
 6295SOL    HW230345   3.289   2.862   8.427 -0.6776  1.7400 -0.1931
 6296SOL     OW30346   2.805   3.174   2.547  0.2137  0.6022  0.5129
 6296SOL    HW130347   2.887   3.126   2.563  2.0275  3.3783 -0.5583
 6296SOL    HW230348   2.835   3.259   2.579 -1.4153  1.1169  0.6580
 6297SOL     OW30349   2.020   2.739   5.022 -0.5024  0.1960  0.9681
 6297SOL    HW130350   1.946   2.679   5.011  1.8362 -2.6209  0.4730
 6297SOL    HW230351   2.075   2.710   4.949 -1.7878  0.8569 -0.2523
 6298SOL     OW30352   0.454   4.545   7.305  0.3479 -0.1759  0.1715
 6298SOL    HW130353   0.469   4.590   7.388 -0.7524  0.8838 -0.2035
 6298SOL    HW230354   0.537   4.529   7.260 -0.0404 -1.5933 -0.0361
 6299SOL     OW30355   2.556   1.077   8.757 -0.3820 -0.0550 -1.1589
 6299SOL    HW130356   2.563   1.172   8.744 -0.5467  0.2289  0.8644
 6299SOL    HW230357   2.468   1.072   8.720 -0.1546 -0.6690 -1.6092
 6300SOL     OW30358   3.249   2.286   2.241 -0.5578  0.2589  0.1630
 6300SOL    HW130359   3.183   2.292   2.172 -2.4898 -1.0707  1.9264
 6300SOL    HW230360   3.208   2.209   2.280  0.2293  0.0259  0.5404
 6301SOL     OW30361   1.016   1.569   6.575 -0.5321  0.2514  0.0521
 6301SOL    HW130362   1.078   1.542   6.508  0.4019 -0.3045  1.1463
 6301SOL    HW230363   1.026   1.496   6.636 -3.9944 -0.5215 -0.2810
 6302SOL     OW30364   1.598   2.962  13.031 -0.3702  0.4669  0.1971
 6302SOL    HW130365   1.510   2.950  12.997 -0.2675  0.5865 -0.1098
 6302SOL    HW230366   1.603   2.880  13.080  0.0196  1.3977  1.7224
 6303SOL     OW30367   3.787   3.929  11.841 -0.0065  0.4063 -0.1635
 6303SOL    HW130368   3.697   3.913  11.869 -0.6654  1.0049 -1.9535
 6303SOL    HW230369   3.814   3.987  11.912 -0.4665 -0.1429  0.4552
 6304SOL     OW30370   3.615   0.281  12.043  0.3964  0.1513  0.3814
 6304SOL    HW130371   3.699   0.291  11.999 -0.1436 -0.0199 -0.6902
 6304SOL    HW230372   3.644   0.279  12.134 -0.4412 -1.2884  0.6250
 6305SOL     OW30373   1.756   3.403   8.399  0.4438  0.0384  0.6167
 6305SOL    HW130374   1.845   3.393   8.433  1.3880 -2.4774 -2.6889
 6305SOL    HW230375   1.730   3.485   8.442 -0.1856 -0.5050  1.2604
 6306SOL     OW30376   3.008   2.403   9.570  0.8767 -0.0628 -0.6047
 6306SOL    HW130377   2.969   2.373   9.653  2.0261 -0.3366 -0.1687
 6306SOL    HW230378   3.101   2.407   9.591  0.5233  1.9082  0.7014
 6307SOL     OW30379   2.398   2.042   7.092 -0.2957  0.3025 -0.3400
 6307SOL    HW130380   2.461   2.098   7.046 -2.5891  1.8604 -1.5560
 6307SOL    HW230381   2.413   1.952   7.063  1.5050  0.1089  1.1812
 6308SOL     OW30382   1.280   3.817   4.879  0.1187 -0.9992 -0.6204
 6308SOL    HW130383   1.305   3.738   4.925  0.2816 -0.8557 -0.4629
 6308SOL    HW230384   1.333   3.887   4.916 -0.9311 -0.7934  0.4949
 6309SOL     OW30385   2.163   4.264   9.386 -0.3095 -0.1183 -0.3408
 6309SOL    HW130386   2.113   4.289   9.308 -0.8627 -1.9076 -0.5523
 6309SOL    HW230387   2.224   4.211   9.336 -1.1753 -2.7139  1.3869
 6310SOL     OW30388   1.875   1.033   0.656  0.0242  0.0585 -0.2991
 6310SOL    HW130389   1.953   1.001   0.610 -0.5331  3.0528 -3.3638
 6310SOL    HW230390   1.868   1.123   0.623 -0.1992 -0.2350 -1.0534
 6311SOL     OW30391   2.290   0.877   9.250 -0.0492  0.1921  0.2615
 6311SOL    HW130392   2.358   0.824   9.208 -0.3210  1.3763 -1.6829
 6311SOL    HW230393   2.249   0.814   9.309 -2.3615 -0.6089 -2.1901
 6312SOL     OW30394   0.444   1.134   4.580  0.1616 -0.4537 -0.4964
 6312SOL    HW130395   0.431   1.182   4.499  0.4751  1.1844  0.4235
 6312SOL    HW230396   0.470   1.051   4.539 -0.3502 -0.2563 -1.2105
 6313SOL     OW30397   2.893   1.104   9.941 -0.1448 -0.6041  0.0599
 6313SOL    HW130398   2.887   1.110   9.846  1.3841 -1.3918 -0.0839
 6313SOL    HW230399   2.958   1.173   9.955 -1.2592  0.4305  0.1287
 6314SOL     OW30400   0.354   3.185   4.263 -0.4695  0.4412  0.1859
 6314SOL    HW130401   0.440   3.226   4.275  0.0011 -0.0206 -1.5971
 6314SOL    HW230402   0.352   3.112   4.324 -2.4489  0.6168  0.3461
 6315SOL     OW30403   0.038   4.177  11.148 -0.1207  0.2854 -0.1180
 6315SOL    HW130404   0.113   4.125  11.176 -1.2251 -0.3804  1.5785
 6315SOL    HW230405   0.057   4.264  11.184 -2.2030  1.2648 -1.3845
 6316SOL     OW30406   0.517   1.862   3.367 -0.1720 -0.3802  0.1354
 6316SOL    HW130407   0.572   1.931   3.404 -1.1946  0.7611 -0.5136
 6316SOL    HW230408   0.576   1.791   3.340  1.2638 -0.1023  2.5652
 6317SOL     OW30409   3.347   3.852  10.919  0.1841 -0.1558 -0.1270
 6317SOL    HW130410   3.405   3.914  10.963 -1.2948 -0.0880  1.7748
 6317SOL    HW230411   3.338   3.882  10.829  1.5218  2.7107  0.7124
 6318SOL     OW30412   1.444   3.941   7.357  0.4226 -0.8320 -0.4200
 6318SOL    HW130413   1.468   3.899   7.274  1.1043 -2.4703  0.5921
 6318SOL    HW230414   1.512   4.008   7.362  0.7654 -1.2130  0.1064
 6319SOL     OW30415   3.668   3.857  10.882  0.0907  0.4719 -0.1928
 6319SOL    HW130416   3.631   3.867  10.969 -2.1255 -0.6787 -1.0131
 6319SOL    HW230417   3.703   3.768  10.885  0.2871  0.4990 -1.8442
 6320SOL     OW30418   1.166   4.446   4.806  0.7537 -0.3456  0.0858
 6320SOL    HW130419   1.209   4.373   4.850 -2.5677 -2.6007 -0.3947
 6320SOL    HW230420   1.091   4.405   4.765  0.8030 -0.9909  0.6466
 6321SOL     OW30421   3.055   4.470  17.343  0.2947 -0.3664  0.0005
 6321SOL    HW130422   3.106   4.392  17.320  1.4914  0.3915  0.0724
 6321SOL    HW230423   3.021   4.500  17.258  0.3556  1.6741  0.6982
 6322SOL     OW30424   3.088   3.854  15.574  0.3537  0.2806 -0.3296
 6322SOL    HW130425   3.102   3.944  15.604  0.0505 -0.0116  0.6519
 6322SOL    HW230426   3.047   3.873  15.489 -1.7532 -1.1026  0.3857
 6323SOL     OW30427   2.121   1.896  10.510 -0.3945  0.0520  0.6791
 6323SOL    HW130428   2.079   1.845  10.580 -1.8382  2.7540  1.7805
 6323SOL    HW230429   2.192   1.836  10.489  0.3843  1.6837 -1.3731
 6324SOL     OW30430   3.039   4.000   9.060 -0.9359 -0.2963  0.3081
 6324SOL    HW130431   2.999   4.085   9.074  0.8051  0.4668  0.7238
 6324SOL    HW230432   3.037   4.005   8.965 -0.8030 -1.5831  0.2345
 6325SOL     OW30433   4.521   3.884  13.578  0.0071 -0.0798 -0.2776
 6325SOL    HW130434   4.464   3.959  13.596 -1.1561 -0.7333 -1.2872
 6325SOL    HW230435   4.453   3.826  13.543 -1.0800  0.3374  1.1484
 6326SOL     OW30436   4.094   0.776   2.037 -0.9143 -0.0318  0.0568
 6326SOL    HW130437   4.097   0.799   1.944 -1.0466  0.4049  0.1636
 6326SOL    HW230438   4.012   0.823   2.048 -1.8456 -1.3596 -1.2341
 6327SOL     OW30439   1.117   1.267   7.872 -0.5681 -0.1126 -0.3829
 6327SOL    HW130440   1.121   1.183   7.827  0.9083 -1.2168  1.8221
 6327SOL    HW230441   1.078   1.320   7.802 -1.0343 -0.9371 -0.7478
 6328SOL     OW30442   1.925   2.940   4.543  0.3456 -0.0771  0.3775
 6328SOL    HW130443   1.874   2.932   4.624  0.7997  0.2829  0.6949
 6328SOL    HW230444   1.856   2.923   4.478  2.2489  0.8250 -1.8837
 6329SOL     OW30445   0.099   2.272   4.350 -0.1150  0.0101  0.0722
 6329SOL    HW130446   0.159   2.235   4.285  1.1229  0.4034  0.9915
 6329SOL    HW230447   0.110   2.218   4.429  2.1346 -0.1654 -0.3389
 6330SOL     OW30448   0.052   1.243   6.052  0.5650 -0.1619 -0.4371
 6330SOL    HW130449   4.691   1.202   6.072 -0.0673  0.7314 -1.2335
 6330SOL    HW230450   0.118   1.205   6.109  2.1112  0.1411 -2.0103
 6331SOL     OW30451   3.295   0.079   8.028  0.1913  0.6837 -1.1247
 6331SOL    HW130452   3.271   4.718   8.068  0.9364 -0.1899 -2.5486
 6331SOL    HW230453   3.371   0.089   8.085 -0.6138 -0.9402  0.2412
 6332SOL     OW30454   0.871   4.707   2.749  0.1213 -0.7481  0.1026
 6332SOL    HW130455   0.838   0.073   2.764 -1.3717 -1.3018  0.0102
 6332SOL    HW230456   0.787   4.662   2.756 -0.1593 -0.0823  1.0616
 6333SOL     OW30457   4.076   2.487   2.884 -0.7515  0.6009 -0.1110
 6333SOL    HW130458   4.039   2.422   2.945 -2.2817  0.9828 -0.6184
 6333SOL    HW230459   4.010   2.469   2.817 -2.2430  2.6076  0.7995
 6334SOL     OW30460   0.760   2.700   5.181  0.0687 -0.0060  0.6514
 6334SOL    HW130461   0.726   2.743   5.259 -3.3856  1.1223 -1.4818
 6334SOL    HW230462   0.841   2.658   5.210 -0.5724 -0.0152  2.4184
 6335SOL     OW30463   4.098   2.340   6.726 -0.1330 -0.0159 -0.3220
 6335SOL    HW130464   4.175   2.370   6.775 -0.8325 -2.3581  2.1968
 6335SOL    HW230465   4.077   2.257   6.768  2.1586 -0.5054 -0.1454
 6336SOL     OW30466   0.591   2.293  12.020  0.0704  0.0995  0.0294
 6336SOL    HW130467   0.578   2.306  12.114 -2.6511  0.8426 -0.4402
 6336SOL    HW230468   0.676   2.250  12.024 -0.4313 -0.7274  1.8891
 6337SOL     OW30469   2.825   0.662   0.033 -0.1247 -0.6394  0.6500
 6337SOL    HW130470   2.732   0.664   0.058  0.7496 -1.0041  3.9749
 6337SOL    HW230471   2.818   0.613  17.643  1.5678  1.0725 -0.5096
 6338SOL     OW30472   3.771   4.518   4.476  0.1995 -0.5176 -0.1529
 6338SOL    HW130473   3.716   4.486   4.405  0.3892  1.8145 -1.3066
 6338SOL    HW230474   3.704   4.511   4.544 -2.9485  0.7117 -3.1371
 6339SOL     OW30475   3.153   2.512   2.634  0.2677 -0.0192 -0.2427
 6339SOL    HW130476   3.213   2.480   2.566 -0.7804 -0.8852 -0.7445
 6339SOL    HW230477   3.201   2.593   2.651 -1.6712  1.0280  0.1358
 6340SOL     OW30478   3.864   0.127   0.167 -0.1304  0.3823  0.1100
 6340SOL    HW130479   3.795   0.186   0.139  0.9352  1.5720 -0.0176
 6340SOL    HW230480   3.913   0.132   0.085  1.6649 -1.1550  1.0785
 6341SOL     OW30481   4.326   2.490   2.993 -0.2110 -0.2463 -0.3601
 6341SOL    HW130482   4.347   2.560   3.054  1.1656  0.1293 -1.2617
 6341SOL    HW230483   4.235   2.504   2.967  0.1373  2.0776 -0.3278
 6342SOL     OW30484   3.897   1.023   5.071 -0.4038 -0.7215 -0.3288
 6342SOL    HW130485   3.832   0.953   5.075 -0.1575 -1.0947 -2.6058
 6342SOL    HW230486   3.969   0.970   5.103 -1.7510 -1.5176  1.4023
 6343SOL     OW30487   2.368   2.137  11.482 -0.2739  0.8067 -0.2667
 6343SOL    HW130488   2.429   2.074  11.521 -1.1128  0.3306  0.2934
 6343SOL    HW230489   2.324   2.173  11.559 -0.0138  1.0083 -0.2131
 6344SOL     OW30490   1.471   4.424   6.468  0.2821 -0.1330  0.3853
 6344SOL    HW130491   1.473   4.504   6.521 -1.2323 -0.6518  1.2292
 6344SOL    HW230492   1.431   4.437   6.382 -0.5004  0.2357  0.8011
 6345SOL     OW30493   0.292   0.874   7.611  0.2102 -0.7811 -0.3380
 6345SOL    HW130494   0.309   0.964   7.638  0.2973 -1.1542  0.8752
 6345SOL    HW230495   0.320   0.875   7.520 -1.0074  0.5595 -0.7013
 6346SOL     OW30496   1.777   1.855   2.050  0.1634 -0.3494  0.2797
 6346SOL    HW130497   1.685   1.829   2.052 -0.1950  0.9744  1.5249
 6346SOL    HW230498   1.796   1.876   1.958 -1.7222 -0.2905 -0.1013
 6347SOL     OW30499   1.462   4.585   8.086  0.2026  0.0533 -0.0642
 6347SOL    HW130500   1.498   4.627   8.008 -0.2099 -0.6432 -0.6348
 6347SOL    HW230501   1.438   4.659   8.141  0.4994  0.6475 -0.7308
 6348SOL     OW30502   3.668   1.754   2.373 -0.2287 -0.1460 -0.0530
 6348SOL    HW130503   3.682   1.791   2.460 -0.1425  0.3985 -0.3039
 6348SOL    HW230504   3.607   1.817   2.337 -1.6260  0.1708  2.8890
 6349SOL     OW30505   3.318   4.704  15.608  0.3035  0.5556 -0.1747
 6349SOL    HW130506   3.226   4.679  15.597  0.2284  1.3097 -1.2373
 6349SOL    HW230507   3.371   4.664  15.539  0.1075  0.6442 -0.3761
 6350SOL     OW30508   2.681   1.574  14.121  0.1602  0.2719 -0.2013
 6350SOL    HW130509   2.743   1.503  14.110  0.3080  0.7623 -2.6359
 6350SOL    HW230510   2.712   1.601  14.207 -1.8432  0.3173  0.5155
 6351SOL     OW30511   3.752   1.553   3.502  0.0947  0.3972 -0.3379
 6351SOL    HW130512   3.832   1.526   3.548 -1.1742 -1.5124  0.7307
 6351SOL    HW230513   3.766   1.638   3.460  1.0486  1.1585  1.5253
 6352SOL     OW30514   1.715   2.158  10.429 -0.2936  0.0413 -0.6983
 6352SOL    HW130515   1.689   2.156  10.522 -0.2002  1.2714 -0.6390
 6352SOL    HW230516   1.797   2.109  10.434 -0.0240  0.7923  2.4615
 6353SOL     OW30517   4.356   4.718   3.282  0.2527  0.1757  0.1931
 6353SOL    HW130518   4.337   4.658   3.209  0.1279  0.6497 -0.1635
 6353SOL    HW230519   4.364   4.649   3.348  0.4270  0.8135  0.8445
 6354SOL     OW30520   1.505   1.968   6.645 -0.3497  0.4242 -0.8546
 6354SOL    HW130521   1.599   1.949   6.635 -0.4781 -1.5180  1.5459
 6354SOL    HW230522   1.471   1.976   6.556 -0.8270  0.5205 -0.6593
 6355SOL     OW30523   3.917   3.326   2.171  0.1253 -0.0706 -0.3577
 6355SOL    HW130524   3.956   3.316   2.084 -2.1153  2.0246 -1.6337
 6355SOL    HW230525   3.975   3.269   2.220  0.5613  1.6252  1.1017
 6356SOL     OW30526   1.465   1.183   7.487 -0.1349 -0.3258 -0.1736
 6356SOL    HW130527   1.550   1.217   7.514 -0.4849  1.1434 -0.9169
 6356SOL    HW230528   1.475   1.181   7.392 -0.7923 -1.3142 -0.2214
 6357SOL     OW30529   2.171   1.228   9.634 -0.4430 -0.3898 -0.5586
 6357SOL    HW130530   2.171   1.191   9.723 -2.6021 -3.5383 -1.8773
 6357SOL    HW230531   2.084   1.269   9.633 -0.8077 -1.1162  0.6238
 6358SOL     OW30532   0.052   4.391   7.133 -0.0487 -0.2023  0.9042
 6358SOL    HW130533   4.682   4.366   7.132  0.3099 -1.5255  0.4809
 6358SOL    HW230534   0.068   4.406   7.039 -1.4134 -2.2964  0.3449
 6359SOL     OW30535   0.987   2.402   2.302 -0.0763  0.1737 -0.2685
 6359SOL    HW130536   0.946   2.405   2.388 -0.1624 -0.4033 -0.2877
 6359SOL    HW230537   0.926   2.348   2.252 -0.3516  0.5262 -0.3113
 6360SOL     OW30538   3.403   3.576  10.946 -0.4698 -0.2813 -0.1945
 6360SOL    HW130539   3.374   3.660  10.910  2.4785  0.4200 -0.9369
 6360SOL    HW230540   3.499   3.578  10.946 -0.5592  3.2775 -0.3610
 6361SOL     OW30541   1.682   2.044  15.926 -0.3743 -0.1945  0.6745
 6361SOL    HW130542   1.687   2.033  15.831  2.3598 -1.1918  0.9392
 6361SOL    HW230543   1.764   2.090  15.948  0.4168 -1.9748  1.4347
 6362SOL     OW30544   1.389   3.222   7.550 -0.0537 -0.7733 -0.0986
 6362SOL    HW130545   1.310   3.260   7.511 -1.0680 -1.8015  0.9674
 6362SOL    HW230546   1.347   3.166   7.615 -1.7501  0.9909  0.3292
 6363SOL     OW30547   0.168   0.255   0.255 -0.3341 -0.2431  0.4625
 6363SOL    HW130548   0.136   0.181   0.306 -0.4548 -0.2569  0.3662
 6363SOL    HW230549   0.163   0.213   0.169  0.0743  0.4848  0.0845
 6364SOL     OW30550   1.415   4.421  16.054 -0.0926 -0.0266 -0.9687
 6364SOL    HW130551   1.394   4.340  16.006 -4.0883 -0.8547  2.1241
 6364SOL    HW230552   1.343   4.401  16.114  0.6698  2.4256  0.7245
 6365SOL     OW30553   0.961   4.056   2.973  0.1294  0.1132 -0.0345
 6365SOL    HW130554   0.989   4.129   2.917 -2.2507  1.0513 -0.0247
 6365SOL    HW230555   1.003   3.983   2.928 -0.5113  0.1551 -0.7050
 6366SOL     OW30556   3.209   0.020   5.393 -0.1121 -0.9527 -0.6068
 6366SOL    HW130557   3.117   0.015   5.421 -0.4381  0.4793 -1.4114
 6366SOL    HW230558   3.194   4.713   5.303 -2.9610  2.4396 -1.2423
 6367SOL     OW30559   2.714   2.938  17.421 -0.0723  0.2189  0.0567
 6367SOL    HW130560   2.794   2.887  17.431 -0.6402 -0.5833  0.5222
 6367SOL    HW230561   2.677   2.916  17.507  0.0960  0.5434  0.2103
 6368SOL     OW30562   4.044   3.228   8.634  0.6078  0.9421  0.8237
 6368SOL    HW130563   4.074   3.198   8.719  0.2546 -0.2469  0.5251
 6368SOL    HW230564   3.985   3.300   8.659  0.4405  2.0896 -2.8128
 6369SOL     OW30565   1.803   3.904   1.963 -0.3009 -0.2303  0.1797
 6369SOL    HW130566   1.752   3.984   1.964  0.6282  0.3486  1.0471
 6369SOL    HW230567   1.734   3.840   1.946  0.6678 -1.2260 -0.0188
 6370SOL     OW30568   0.414   0.982   2.383  0.2290  0.1585  0.3389
 6370SOL    HW130569   0.444   1.054   2.327  1.6737  0.2719  1.2398
 6370SOL    HW230570   0.337   1.026   2.418 -1.1249  1.0106 -3.7944
 6371SOL     OW30571   3.255   4.135   8.177  0.1605 -0.4194 -0.3594
 6371SOL    HW130572   3.290   4.221   8.155  2.7312 -0.5843  3.0302
 6371SOL    HW230573   3.308   4.075   8.123  1.9942  2.2959 -1.5899
 6372SOL     OW30574   4.072   0.074   0.868  0.3681 -0.2766 -0.2302
 6372SOL    HW130575   4.081   0.046   0.959 -0.4713 -0.7766 -0.2965
 6372SOL    HW230576   3.988   0.119   0.878  0.6986 -0.0813  1.6685
 6373SOL     OW30577   0.308   2.348   7.780 -0.1632 -0.2104  0.4092
 6373SOL    HW130578   0.233   2.299   7.814  0.1439 -1.0910 -0.1775
 6373SOL    HW230579   0.328   2.398   7.859  0.6111  1.9550 -1.1578
 6374SOL     OW30580   1.774   2.494  16.983  0.2969 -0.0804  0.0193
 6374SOL    HW130581   1.710   2.535  17.041 -0.1347 -0.1926 -0.3799
 6374SOL    HW230582   1.779   2.547  16.903 -0.0491  0.0541  0.0858
 6375SOL     OW30583   2.438   4.198   2.007 -0.0455 -0.2121  0.2371
 6375SOL    HW130584   2.495   4.195   2.084 -1.6420 -0.1428  1.4350
 6375SOL    HW230585   2.489   4.147   1.944 -0.5301 -0.1868 -0.1709
 6376SOL     OW30586   0.584   3.663  12.763 -0.4213 -0.2082  0.8124
 6376SOL    HW130587   0.670   3.682  12.725 -0.3073  0.2438  1.3085
 6376SOL    HW230588   0.544   3.747  12.784 -0.9960 -0.0912 -0.7003
 6377SOL     OW30589   1.546   3.191   3.135 -0.4613  0.0134 -0.4925
 6377SOL    HW130590   1.542   3.096   3.140 -1.1830  0.1736  2.1597
 6377SOL    HW230591   1.458   3.215   3.165  0.8768  3.0730  1.0230
 6378SOL     OW30592   3.214   3.533   2.644 -0.9022  0.2375 -0.1895
 6378SOL    HW130593   3.259   3.596   2.588 -0.6990 -0.8685 -1.2724
 6378SOL    HW230594   3.176   3.581   2.718 -0.5336  1.4086 -0.7532
 6379SOL     OW30595   0.264   4.694   8.340 -0.0924  0.4518  0.0813
 6379SOL    HW130596   0.256   0.067   8.345  1.2746  0.6835 -1.9563
 6379SOL    HW230597   0.256   4.680   8.246 -0.2167  1.6993 -0.1001
 6380SOL     OW30598   4.108   0.776  16.902  0.0816  0.2490  0.4722
 6380SOL    HW130599   4.161   0.706  16.863  2.7584  1.3980  2.0928
 6380SOL    HW230600   4.174   0.844  16.890  1.0873 -1.3758 -3.3151
 6381SOL     OW30601   4.031   1.279   8.590  0.6131  0.2153 -0.2148
 6381SOL    HW130602   3.956   1.295   8.646  0.4639 -0.0596 -0.3378
 6381SOL    HW230603   3.970   1.262   8.519  1.3339  0.1764 -0.8323
 6382SOL     OW30604   0.686   1.359  14.003  0.0168  0.4289 -0.1918
 6382SOL    HW130605   0.761   1.340  13.947 -0.0066  0.8933 -0.3830
 6382SOL    HW230606   0.644   1.426  13.949 -0.9185 -0.4333 -0.5414
 6383SOL     OW30607   0.579   3.717   6.155  0.3140 -0.0540  0.1998
 6383SOL    HW130608   0.588   3.656   6.082  2.6876 -0.1467  0.5568
 6383SOL    HW230609   0.636   3.681   6.223  0.0308 -0.5236  0.1837
 6384SOL     OW30610   0.894   2.742   3.409  0.2757  0.4262  0.3658
 6384SOL    HW130611   0.909   2.693   3.329  4.2166 -0.9944  2.0010
 6384SOL    HW230612   0.800   2.745   3.426  0.6190 -0.2062  2.3573
 6385SOL     OW30613   2.363   1.554   6.439  0.4196 -0.1392  0.3146
 6385SOL    HW130614   2.313   1.474   6.453 -1.1239  0.9326  0.8883
 6385SOL    HW230615   2.442   1.540   6.490 -0.2310 -2.3912  0.7000
 6386SOL     OW30616   4.291   3.340   2.113 -0.2360  0.1771 -0.4050
 6386SOL    HW130617   4.365   3.328   2.173 -0.0376  0.0180 -0.6812
 6386SOL    HW230618   4.317   3.426   2.082  1.6316  0.1974  1.2131
 6387SOL     OW30619   3.962   0.348  17.660 -0.1198 -0.1553  0.6334
 6387SOL    HW130620   3.978   0.267  17.613  0.4369  0.9362 -1.0581
 6387SOL    HW230621   4.048   0.375  17.691 -1.2801  2.2309  1.7966
 6388SOL     OW30622   1.713   1.721   3.776  0.2320  0.4128 -0.3770
 6388SOL    HW130623   1.731   1.632   3.806  0.7265  1.2033  1.6821
 6388SOL    HW230624   1.735   1.706   3.684  0.0522  0.9542 -0.5030
 6389SOL     OW30625   4.064   2.385   7.805 -0.4444  0.1726  0.1415
 6389SOL    HW130626   4.069   2.290   7.816 -0.3010  0.3582  1.7918
 6389SOL    HW230627   4.008   2.388   7.728  1.5687  2.1893 -1.2420
 6390SOL     OW30628   3.203   1.041   3.465 -0.2491  0.3364  0.2080
 6390SOL    HW130629   3.109   1.031   3.482  0.1344  0.5684  2.4397
 6390SOL    HW230630   3.231   1.057   3.555  0.0423 -0.9397  0.3444
 6391SOL     OW30631   1.678   1.616   6.886 -0.4086 -0.1846 -0.0711
 6391SOL    HW130632   1.604   1.655   6.933 -0.2397 -0.1577  0.1698
 6391SOL    HW230633   1.632   1.596   6.804 -0.2215  1.1732 -0.5147
 6392SOL     OW30634   0.602   3.456  16.573 -0.4575  0.0683  0.2684
 6392SOL    HW130635   0.528   3.476  16.516 -1.4374 -0.4216  1.3771
 6392SOL    HW230636   0.655   3.536  16.573  0.7451 -0.7267  1.2888
 6393SOL     OW30637   3.216   4.284  15.870 -0.4401  0.1262 -0.6204
 6393SOL    HW130638   3.265   4.283  15.788  1.6226  1.2843  0.6023
 6393SOL    HW230639   3.260   4.208  15.908  1.7938  0.7195 -2.0404
 6394SOL     OW30640   1.576   0.007   1.637  0.1581 -0.4535 -0.1061
 6394SOL    HW130641   1.526   0.057   1.573  2.9447  1.7165 -0.5869
 6394SOL    HW230642   1.608   4.659   1.581  1.1676  2.6345 -3.4309
 6395SOL     OW30643   1.406   1.274   3.591  0.1280 -0.0608  0.1905
 6395SOL    HW130644   1.474   1.293   3.656  0.7348 -0.2951 -0.3755
 6395SOL    HW230645   1.354   1.352   3.610  1.0318  0.3277  1.0720
 6396SOL     OW30646   1.968   1.502   5.388 -0.1345 -0.4255 -0.0502
 6396SOL    HW130647   1.992   1.440   5.319 -0.0764  0.3454 -0.7208
 6396SOL    HW230648   1.956   1.584   5.341  0.3821 -1.7821 -2.5713
 6397SOL     OW30649   3.432   3.991   8.029 -0.1528 -0.1585  0.2181
 6397SOL    HW130650   3.478   3.907   8.029  0.9327  0.4489  1.5066
 6397SOL    HW230651   3.349   3.970   7.985 -0.3745  2.8413 -0.7906
 6398SOL     OW30652   3.150   1.039   5.949 -0.4246  0.4948  0.0681
 6398SOL    HW130653   3.112   0.995   6.025  0.5236 -0.2254  0.1172
 6398SOL    HW230654   3.085   1.023   5.880 -0.7865 -1.4153  0.8328
 6399SOL     OW30655   3.999   1.216   6.296 -0.2640 -0.2641  0.2074
 6399SOL    HW130656   4.088   1.181   6.292 -0.2387 -0.1835  0.0229
 6399SOL    HW230657   3.955   1.139   6.330 -1.9275  0.9195  0.7362
 6400SOL     OW30658   4.313   3.664  13.362  0.4731 -0.1455 -0.2162
 6400SOL    HW130659   4.358   3.605  13.301 -0.1646 -3.0868  2.1427
 6400SOL    HW230660   4.289   3.608  13.436  0.5647  1.1792  0.7957
 6401SOL     OW30661   1.579   1.377   1.844  0.7437 -0.4807  0.1296
 6401SOL    HW130662   1.556   1.300   1.793 -1.1968  0.0433  0.2020
 6401SOL    HW230663   1.577   1.338   1.932  0.6321 -1.0278 -0.1189
 6402SOL     OW30664   2.652   0.884   5.285  0.2740  0.1294 -0.5079
 6402SOL    HW130665   2.578   0.825   5.271  0.3104 -0.4394  1.7677
 6402SOL    HW230666   2.614   0.939   5.354 -0.2711 -1.9778  0.8558
 6403SOL     OW30667   3.062   2.415  11.774 -0.1204  0.2100 -0.5158
 6403SOL    HW130668   2.974   2.428  11.810 -0.4772 -2.1815 -0.5107
 6403SOL    HW230669   3.042   2.386  11.685  1.3696 -1.5938 -0.2492
 6404SOL     OW30670   3.367   0.832   6.124  0.2757 -0.8064  0.6336
 6404SOL    HW130671   3.440   0.849   6.065 -0.8832  4.6149  0.7535
 6404SOL    HW230672   3.318   0.781   6.059 -0.4281  0.3468  0.2500
 6405SOL     OW30673   3.088   1.462   6.857  0.4777 -0.0339  0.2187
 6405SOL    HW130674   3.086   1.502   6.944 -0.3735  2.0262 -0.7414
 6405SOL    HW230675   3.181   1.466   6.837  0.3537  0.6435 -0.2324
 6406SOL     OW30676   1.353   0.686   2.059  0.8210 -0.3461  0.0529
 6406SOL    HW130677   1.398   0.621   2.113  2.6501  0.8607 -0.0007
 6406SOL    HW230678   1.312   0.747   2.120  0.4889 -1.8116  1.2952
 6407SOL     OW30679   4.104   3.016   3.108  0.0925  0.5205 -0.0671
 6407SOL    HW130680   4.113   2.948   3.041  1.3941 -2.0382  2.6811
 6407SOL    HW230681   4.172   3.079   3.087 -1.1104  0.8883 -2.8483
 6408SOL     OW30682   1.055   3.369   6.634  0.0260  0.0302 -0.5361
 6408SOL    HW130683   1.080   3.288   6.590 -0.6463 -0.2960 -0.3100
 6408SOL    HW230684   1.024   3.335   6.717 -0.4398 -0.3003 -0.8494
 6409SOL     OW30685   2.897   4.071   1.579 -0.0033 -0.1249 -0.0710
 6409SOL    HW130686   2.959   4.047   1.510  2.7340  1.4653  1.8532
 6409SOL    HW230687   2.922   4.013   1.651 -1.3493 -1.6005 -0.7863
 6410SOL     OW30688   3.952   3.840   7.244 -0.1565  0.4488  0.2910
 6410SOL    HW130689   3.945   3.782   7.320  0.6018  0.8380  0.6674
 6410SOL    HW230690   3.991   3.912   7.293 -0.0032  1.3709 -1.1937
 6411SOL     OW30691   2.987   3.755   9.484 -0.0495  0.3882 -0.0917
 6411SOL    HW130692   2.903   3.770   9.525 -2.2624 -1.3239 -4.0009
 6411SOL    HW230693   2.971   3.780   9.393 -0.8499  1.8348  0.4571
 6412SOL     OW30694   0.537   2.323   0.945  0.2159 -0.4581  0.2352
 6412SOL    HW130695   0.609   2.338   1.006  1.4391 -0.5901 -1.1761
 6412SOL    HW230696   0.559   2.395   0.886 -1.1046  0.4367  0.8362
 6413SOL     OW30697   4.016   4.335  10.183  0.0875  0.3831  0.1595
 6413SOL    HW130698   4.052   4.246  10.189 -0.4249  0.2703  1.5739
 6413SOL    HW230699   3.942   4.325  10.124  0.6239  0.7782 -0.5763
 6414SOL     OW30700   1.778   0.977   7.695 -0.1045  0.1756  0.1280
 6414SOL    HW130701   1.706   0.938   7.745 -0.3901 -0.4399 -0.7598
 6414SOL    HW230702   1.818   1.039   7.756 -1.1034  0.7880  0.1448
 6415SOL     OW30703   3.730   0.385  11.315 -0.0618  0.7038 -0.6382
 6415SOL    HW130704   3.688   0.366  11.230  0.4827  0.9260 -0.9544
 6415SOL    HW230705   3.795   0.448  11.286 -0.9778  1.1365 -1.7811
 6416SOL     OW30706   1.932   3.650   0.008  0.0771 -0.2197 -0.3093
 6416SOL    HW130707   1.876   3.624   0.082  0.6330  2.4552  1.0535
 6416SOL    HW230708   1.904   3.739  17.677 -3.3506 -1.4325 -0.8528
 6417SOL     OW30709   4.579   1.664   2.328 -0.3708  0.2988  0.0061
 6417SOL    HW130710   4.628   1.586   2.353 -0.8867  0.2615  0.9096
 6417SOL    HW230711   4.647   1.718   2.288  0.2527  0.6802  1.5852
 6418SOL     OW30712   2.165   3.643  13.252 -0.5773  0.1869  0.5513
 6418SOL    HW130713   2.204   3.600  13.176  0.7684  2.0095  0.1984
 6418SOL    HW230714   2.074   3.630  13.224 -0.6356  0.7009  0.5003
 6419SOL     OW30715   4.491   0.920   1.034 -0.0988  0.3116 -0.0794
 6419SOL    HW130716   4.447   0.841   1.065  0.2516  0.0314 -0.2960
 6419SOL    HW230717   4.420   0.955   0.980 -0.3290  1.0370  0.6869
 6420SOL     OW30718   2.085   2.730   5.320 -0.3103  0.0150 -0.6541
 6420SOL    HW130719   2.033   2.809   5.325  0.9507  0.7072  2.0728
 6420SOL    HW230720   2.063   2.699   5.232 -1.9863  0.7442 -0.4763
 6421SOL     OW30721   0.105   1.215   3.752 -0.0327 -0.0700 -0.2790
 6421SOL    HW130722   0.181   1.244   3.701  0.1429  0.6787  0.4010
 6421SOL    HW230723   0.045   1.175   3.689 -0.3354  0.7013 -0.4806
 6422SOL     OW30724   0.274   2.161   3.043 -0.2248 -0.3875  0.1305
 6422SOL    HW130725   0.195   2.177   2.992  1.9099  4.2961 -1.7940
 6422SOL    HW230726   0.259   2.219   3.118  3.4046 -0.1670  0.7172
 6423SOL     OW30727   4.655   4.650  13.953  0.3462 -0.7719  0.4114
 6423SOL    HW130728   4.665   4.601  14.035  2.2673 -0.9274  0.0808
 6423SOL    HW230729   4.632   0.012  13.992  0.7966  0.0806 -1.1950
 6424SOL     OW30730   3.868   4.568   5.075 -0.0291  0.3479  0.3435
 6424SOL    HW130731   3.791   4.618   5.102 -0.3288  1.1412 -1.9827
 6424SOL    HW230732   3.885   4.618   4.995  3.2763  0.8659  1.3801
 6425SOL     OW30733   1.459   1.091  11.197  0.9579  0.2195  0.8334
 6425SOL    HW130734   1.382   1.041  11.225  1.1114  0.4263  1.6387
 6425SOL    HW230735   1.518   1.030  11.154 -0.1520 -1.6301  1.9116
 6426SOL     OW30736   2.972   3.458   7.112  0.5216  0.1586 -0.4870
 6426SOL    HW130737   3.037   3.506   7.163 -0.7343 -0.1573  1.3880
 6426SOL    HW230738   2.901   3.449   7.176 -0.2093  0.5389 -1.2479
 6427SOL     OW30739   2.774   0.485  17.504  0.1051  0.0213 -0.5918
 6427SOL    HW130740   2.690   0.447  17.530  1.2146 -1.8994  0.1468
 6427SOL    HW230741   2.786   0.449  17.416 -1.7818  1.6175 -1.5055
 6428SOL     OW30742   0.004   0.163   5.950 -0.6816  0.4591 -0.1073
 6428SOL    HW130743   4.692   0.247   5.980  1.2122  0.7521  1.3001
 6428SOL    HW230744   0.043   0.151   6.037  0.0226 -0.2856 -0.5214
 6429SOL     OW30745   2.083   4.424   7.957 -0.5338 -0.4331 -0.1752
 6429SOL    HW130746   2.106   4.383   7.873  0.1744  0.8556 -0.6092
 6429SOL    HW230747   1.995   4.457   7.943 -1.2863 -1.9919  0.9208
 6430SOL     OW30748   0.400   3.646   9.033  0.2914  0.5273 -0.5346
 6430SOL    HW130749   0.314   3.684   9.016 -0.0698 -0.7812 -1.6445
 6430SOL    HW230750   0.450   3.710   8.982 -0.3525  2.1153  0.8464
 6431SOL     OW30751   2.352   3.914   2.650  0.0696  0.1766  0.2519
 6431SOL    HW130752   2.389   3.891   2.564  0.4431  2.2845 -0.1315
 6431SOL    HW230753   2.422   3.889   2.711 -0.9721 -0.7879  1.0467
 6432SOL     OW30754   3.852   1.151   4.343  0.3230  0.3545  0.4631
 6432SOL    HW130755   3.908   1.193   4.407  0.5914  1.1832 -0.3197
 6432SOL    HW230756   3.777   1.210   4.344  0.3129  0.3132  1.6029
 6433SOL     OW30757   2.823   1.404  13.745  0.1606  0.0595  0.3180
 6433SOL    HW130758   2.840   1.310  13.741  0.3855  0.2006 -1.8199
 6433SOL    HW230759   2.804   1.414  13.838 -0.2522 -0.1447  0.2588
 6434SOL     OW30760   3.664   4.400   8.042  0.3122  0.0782  0.0600
 6434SOL    HW130761   3.682   4.339   7.970  0.9272 -0.8869  1.0281
 6434SOL    HW230762   3.741   4.455   8.032  3.0161 -3.5527  0.8377
 6435SOL     OW30763   2.234   3.871   4.202 -0.3500 -0.2155 -0.5869
 6435SOL    HW130764   2.304   3.806   4.205 -0.0660  0.1480  0.6718
 6435SOL    HW230765   2.156   3.819   4.184 -1.0826  0.6247  0.2508
 6436SOL     OW30766   3.893   2.075   4.373 -0.0254 -0.8058 -0.0399
 6436SOL    HW130767   3.894   2.001   4.433  1.5062 -0.8325 -0.1021
 6436SOL    HW230768   3.918   2.034   4.291  0.6537  0.2642 -0.3733
 6437SOL     OW30769   3.487   0.788   9.771 -0.2620  0.0298  0.2626
 6437SOL    HW130770   3.459   0.778   9.862 -0.2089  0.9933  0.3778
 6437SOL    HW230771   3.533   0.872   9.772  0.4313 -0.3355 -0.6683
 6438SOL     OW30772   1.680   4.651   4.659  0.5022 -0.1685  0.0850
 6438SOL    HW130773   1.615   4.611   4.717 -0.5225  1.9253  0.3788
 6438SOL    HW230774   1.725   4.704   4.726  0.1172  1.3815 -0.8950
 6439SOL     OW30775   3.306   0.774  16.484  0.2952 -0.1337  0.0382
 6439SOL    HW130776   3.392   0.731  16.486  0.5183  0.3424  0.6924
 6439SOL    HW230777   3.288   0.791  16.392 -1.3641 -0.0951  0.3750
 6440SOL     OW30778   4.698   1.467  12.629  0.5019 -0.7498 -0.0042
 6440SOL    HW130779   4.703   1.540  12.691  0.1941 -1.1186  0.4594
 6440SOL    HW230780   0.023   1.404  12.683  1.6704  1.5180  1.6311
 6441SOL     OW30781   4.422   1.717   4.793 -0.0140 -0.4433 -0.3591
 6441SOL    HW130782   4.367   1.789   4.765 -1.6727 -1.4996  0.1580
 6441SOL    HW230783   4.374   1.642   4.758 -1.5468  0.6675 -0.5810
 6442SOL     OW30784   1.232   3.254   2.777 -0.2815  0.0001  0.1876
 6442SOL    HW130785   1.189   3.252   2.863  0.7410  0.8511  0.7093
 6442SOL    HW230786   1.318   3.279   2.810 -0.0488 -1.4452  0.6744
 6443SOL     OW30787   4.408   4.660   2.512 -0.3807 -0.0362  0.2960
 6443SOL    HW130788   4.394   0.006   2.446  0.0132  0.4763  0.7392
 6443SOL    HW230789   4.487   4.688   2.559 -0.2937  1.3274 -0.6483
 6444SOL     OW30790   4.239   3.380   3.026  0.2455 -0.4044  0.1624
 6444SOL    HW130791   4.225   3.470   3.055 -0.3229 -0.1173 -1.0572
 6444SOL    HW230792   4.239   3.385   2.931  0.0166 -0.5984  0.1527
 6445SOL     OW30793   4.024   0.066   3.188 -0.0164 -0.7686 -0.0609
 6445SOL    HW130794   3.947   0.104   3.146  0.2635 -0.4548 -0.2932
 6445SOL    HW230795   3.988   4.713   3.234 -0.5892 -0.8800 -0.6958
 6446SOL     OW30796   3.046   0.748  11.012  0.4795  0.1684 -0.0828
 6446SOL    HW130797   3.044   0.664  11.058 -1.3065 -0.1938 -0.8470
 6446SOL    HW230798   2.989   0.797  11.072 -1.7329 -3.0530  0.4240
 6447SOL     OW30799   2.733   1.600   5.791 -1.1257  0.2210  0.0349
 6447SOL    HW130800   2.669   1.667   5.811 -2.7988 -1.4081  0.1827
 6447SOL    HW230801   2.706   1.543   5.863  0.7114 -1.5686 -0.6747
 6448SOL     OW30802   3.414   3.669   3.009 -0.1346 -0.0163  0.0858
 6448SOL    HW130803   3.470   3.630   2.942 -1.4850 -1.1435 -0.3846
 6448SOL    HW230804   3.449   3.757   2.992 -1.4424  0.6734  0.9234
 6449SOL     OW30805   0.760   0.566   4.391 -0.3022 -0.0344 -0.2614
 6449SOL    HW130806   0.844   0.561   4.345 -0.7114 -0.0757 -1.0027
 6449SOL    HW230807   0.719   0.642   4.350 -0.9161  0.9210  2.0821
 6450SOL     OW30808   1.732   1.495   0.759  0.3255 -0.1442 -0.6588
 6450SOL    HW130809   1.786   1.564   0.798  0.0523 -0.0490 -0.4479
 6450SOL    HW230810   1.645   1.535   0.760 -0.3570 -1.5887 -1.3127
 6451SOL     OW30811   0.137   3.696   5.317 -0.3981 -0.6471 -0.2057
 6451SOL    HW130812   0.181   3.764   5.367 -1.9101  0.2992 -0.1453
 6451SOL    HW230813   0.212   3.644   5.288 -0.4710 -0.6223 -0.4467
 6452SOL     OW30814   1.574   3.324   4.015  0.9732 -0.3107  0.0350
 6452SOL    HW130815   1.645   3.345   3.954  2.0553  0.7020  1.6568
 6452SOL    HW230816   1.585   3.399   4.074 -0.9799  0.8295 -1.0588
 6453SOL     OW30817   0.073   0.127   1.010  0.6051 -0.5000 -0.7995
 6453SOL    HW130818   0.087   0.068   1.084 -0.5231  0.8301  0.4939
 6453SOL    HW230819   0.040   0.202   1.060  0.8096 -1.1524  0.3145
 6454SOL     OW30820   1.740   1.177   9.840  0.8652  0.2617  0.2520
 6454SOL    HW130821   1.825   1.145   9.870  0.1748 -1.3771  0.4666
 6454SOL    HW230822   1.713   1.232   9.913  2.3185  0.2035  0.8182
 6455SOL     OW30823   4.514   0.443   5.376 -0.3384  0.3046 -0.2159
 6455SOL    HW130824   4.581   0.390   5.333 -1.2020 -2.7766  2.1677
 6455SOL    HW230825   4.463   0.375   5.420  0.2385  0.4866  0.7193
 6456SOL     OW30826   4.458   2.100   8.179 -0.4750 -0.1921  0.4699
 6456SOL    HW130827   4.552   2.101   8.195 -0.5528 -0.5377  0.9641
 6456SOL    HW230828   4.421   2.173   8.229 -0.3062 -0.6796  1.3112
 6457SOL     OW30829   0.525   0.939   6.280  0.2453 -0.0995  0.3265
 6457SOL    HW130830   0.459   0.907   6.341  1.7166 -0.8502  1.5125
 6457SOL    HW230831   0.598   0.885   6.308 -0.4275 -0.6552  1.0045
 6458SOL     OW30832   1.996   2.760   7.443 -0.3907  0.2885  0.0380
 6458SOL    HW130833   2.010   2.812   7.522  0.5080  0.8621 -0.4938
 6458SOL    HW230834   2.072   2.783   7.389  0.4346  2.4428  2.1493
 6459SOL     OW30835   1.191   1.892  12.231 -0.2316 -0.6817 -0.1262
 6459SOL    HW130836   1.201   1.884  12.136 -1.7429 -0.7838 -0.2796
 6459SOL    HW230837   1.202   1.801  12.256 -0.2780 -1.0881 -1.5572
 6460SOL     OW30838   0.890   1.895  17.088  0.0380  0.1604  0.0383
 6460SOL    HW130839   0.894   1.976  17.037  0.0965 -0.3859 -0.8328
 6460SOL    HW230840   0.974   1.906  17.132  0.2161  1.4540 -0.6407
 6461SOL     OW30841   1.015   1.674   8.915 -0.2885 -0.6752  0.3989
 6461SOL    HW130842   1.067   1.636   8.844  0.9778  0.5720  0.6496
 6461SOL    HW230843   1.073   1.674   8.991  0.7248 -2.9562 -0.3730
 6462SOL     OW30844   1.085   0.046  12.821  0.5122  0.0460  0.5685
 6462SOL    HW130845   1.023   0.042  12.748 -2.4672 -0.8272  3.1547
 6462SOL    HW230846   1.076   4.677  12.846  0.6195  0.5351  2.4042
 6463SOL     OW30847   4.271   4.377   1.440 -0.3327 -0.2371 -0.0738
 6463SOL    HW130848   4.325   4.326   1.379 -3.3610 -2.0821 -1.1778
 6463SOL    HW230849   4.240   4.307   1.497 -1.9908  0.4255 -0.1720
 6464SOL     OW30850   0.619   1.551   8.116  0.1294 -0.1959 -0.1705
 6464SOL    HW130851   0.613   1.532   8.210 -1.4568 -3.2269 -0.8899
 6464SOL    HW230852   0.543   1.508   8.078  0.6271 -0.3930 -0.9579
 6465SOL     OW30853   0.322   2.168   4.192 -0.0575 -0.0042 -0.1916
 6465SOL    HW130854   0.292   2.083   4.223 -1.8680  1.2620  1.5110
 6465SOL    HW230855   0.332   2.158   4.097  2.2490 -1.8492  0.2443
 6466SOL     OW30856   1.088   3.215   2.519  0.1708  0.6569 -0.0920
 6466SOL    HW130857   1.145   3.224   2.595  1.4651  1.2669 -1.1355
 6466SOL    HW230858   1.049   3.302   2.520  0.8359  0.9289  2.4582
 6467SOL     OW30859   3.954   0.953   3.375 -0.0769  0.0441 -0.0459
 6467SOL    HW130860   3.935   0.875   3.323  0.2165 -0.3012  0.3705
 6467SOL    HW230861   3.976   1.011   3.302  0.8933  0.6334  0.7165
 6468SOL     OW30862   2.972   0.428   4.384  0.3277  0.1001  0.7387
 6468SOL    HW130863   2.954   0.339   4.414  1.7273 -0.7009 -0.7645
 6468SOL    HW230864   2.900   0.432   4.320 -0.2096  0.6390  1.3803
 6469SOL     OW30865   3.652   2.871   5.768  0.0293  0.3354 -0.2385
 6469SOL    HW130866   3.649   2.780   5.739 -0.1162 -0.0576  1.0269
 6469SOL    HW230867   3.587   2.867   5.838  2.1231  0.7709  1.7211
 6470SOL     OW30868   1.563   1.237   6.212  0.4736 -0.1473  0.5507
 6470SOL    HW130869   1.497   1.250   6.144  2.0073 -0.3410 -0.9741
 6470SOL    HW230870   1.615   1.165   6.177  0.1848 -1.6138  3.1477
 6471SOL     OW30871   2.693   1.885   6.971  0.3066 -0.3063  0.7174
 6471SOL    HW130872   2.665   1.929   6.891  0.6267  0.8492  1.2457
 6471SOL    HW230873   2.780   1.923   6.982  0.7123 -1.2663  0.8695
 6472SOL     OW30874   3.598   0.752  15.924  0.4629 -0.3318 -0.2828
 6472SOL    HW130875   3.589   0.688  15.853  0.1320 -0.1502 -0.4028
 6472SOL    HW230876   3.571   0.698  15.998  0.9336 -0.2465 -0.0486
 6473SOL     OW30877   1.605   3.553   5.332  0.2043  0.0638 -0.2116
 6473SOL    HW130878   1.615   3.479   5.273  2.0213  0.0831  0.0669
 6473SOL    HW230879   1.684   3.597   5.301  0.4164 -0.1692 -0.0038
 6474SOL     OW30880   1.320   2.943   7.995  0.4554 -0.2250  0.1789
 6474SOL    HW130881   1.326   2.957   8.090  0.9308 -0.0298  0.1180
 6474SOL    HW230882   1.277   3.023   7.966 -1.2397 -0.9227  0.7938
 6475SOL     OW30883   4.314   3.573   6.603 -0.5558 -0.7014 -0.3815
 6475SOL    HW130884   4.251   3.503   6.619 -1.5911  0.0699 -1.0716
 6475SOL    HW230885   4.391   3.548   6.654  0.3142  1.8363 -0.4909
 6476SOL     OW30886   1.778   3.280   2.423  0.2696  0.0465 -0.5681
 6476SOL    HW130887   1.743   3.191   2.420  1.6825 -0.5559  1.1732
 6476SOL    HW230888   1.869   3.267   2.446  0.2299  0.0626 -0.4016
 6477SOL     OW30889   0.476   2.153   6.031 -0.3807  0.3817 -0.1091
 6477SOL    HW130890   0.487   2.087   5.963 -0.9065  0.1012  0.0731
 6477SOL    HW230891   0.427   2.101   6.095 -1.0230  0.6411 -0.3900
 6478SOL     OW30892   1.194   0.480   7.402  0.5071 -0.0489 -0.1936
 6478SOL    HW130893   1.168   0.495   7.493  0.0905  0.9887 -0.4752
 6478SOL    HW230894   1.165   0.562   7.363 -0.5943 -1.4434 -2.3176
 6479SOL     OW30895   4.240   3.909  15.739  0.2672 -0.0919  0.1060
 6479SOL    HW130896   4.205   3.866  15.661  1.9692 -1.0583 -0.1291
 6479SOL    HW230897   4.280   3.987  15.702  0.5735 -0.1452  0.3176
 6480SOL     OW30898   1.733   1.273   7.540  0.1214  0.3299  0.4832
 6480SOL    HW130899   1.812   1.311   7.501 -0.9896  0.8583 -1.2815
 6480SOL    HW230900   1.770   1.250   7.625 -0.0559 -1.8113 -0.0407
 6481SOL     OW30901   1.603   3.318   9.562  0.2004 -0.3806 -0.0047
 6481SOL    HW130902   1.583   3.403   9.601 -0.4901 -0.0609 -1.0580
 6481SOL    HW230903   1.568   3.248   9.618  1.0310 -0.7030  0.1028
 6482SOL     OW30904   0.147   1.837   1.990  0.4657  0.1920 -0.3963
 6482SOL    HW130905   0.106   1.751   1.994 -0.6605  0.7541  0.0584
 6482SOL    HW230906   0.214   1.814   1.926  1.9926  0.8685  0.9356
 6483SOL     OW30907   1.791   1.521   4.507  0.3374  0.0345  0.4036
 6483SOL    HW130908   1.883   1.500   4.491  0.2000 -0.6825  0.5594
 6483SOL    HW230909   1.779   1.463   4.582  1.1551 -0.6619  0.0079
 6484SOL     OW30910   1.195   2.461   5.032 -0.2615 -0.5354 -0.0013
 6484SOL    HW130911   1.170   2.373   5.004 -1.0924 -0.8807  1.8370
 6484SOL    HW230912   1.255   2.479   4.959  0.6308 -2.9118  0.1487
 6485SOL     OW30913   0.229   0.384   6.628  0.3802  0.3966 -0.4858
 6485SOL    HW130914   0.154   0.421   6.582  1.1848  0.5205 -1.6889
 6485SOL    HW230915   0.221   0.295   6.594 -0.2623 -0.1312  1.0228
 6486SOL     OW30916   3.020   2.782   3.202 -0.6500 -0.2671 -0.1936
 6486SOL    HW130917   2.979   2.699   3.177 -2.3752  0.1254  1.3478
 6486SOL    HW230918   3.060   2.766   3.288  0.4070 -0.8171 -0.7847
 6487SOL     OW30919   3.431   4.396  16.069 -0.6328  0.4439  0.1098
 6487SOL    HW130920   3.432   4.482  16.111 -1.1511  0.5307 -0.0506
 6487SOL    HW230921   3.392   4.351  16.144 -0.7329 -0.9659 -0.7822
 6488SOL     OW30922   1.607   2.605   3.425 -0.3456 -0.2231 -0.0688
 6488SOL    HW130923   1.562   2.522   3.441  2.4254 -1.3656  1.8755
 6488SOL    HW230924   1.537   2.668   3.412 -0.7439 -1.0745 -1.9794
 6489SOL     OW30925   1.640   0.803   3.954  0.1372 -0.1703  0.3944
 6489SOL    HW130926   1.573   0.832   3.892  0.3441  1.6978  1.0419
 6489SOL    HW230927   1.660   0.885   3.999 -1.5764  1.0167 -0.9713
 6490SOL     OW30928   1.265   1.677  14.364  0.1296  0.3379 -0.3166
 6490SOL    HW130929   1.323   1.601  14.360  0.7287  0.6971  1.6183
 6490SOL    HW230930   1.187   1.622  14.356  0.5936 -0.5682  1.2197
 6491SOL     OW30931   0.975   0.089   6.374 -0.8462 -0.0720 -0.7798
 6491SOL    HW130932   1.042   0.101   6.307  0.1378  1.5350  0.4772
 6491SOL    HW230933   0.950   4.720   6.362 -0.1714 -0.5192  1.1315
 6492SOL     OW30934   4.595   1.108   5.160  0.2331 -0.4242 -0.3694
 6492SOL    HW130935   4.679   1.152   5.171  0.4522 -0.1590 -2.9895
 6492SOL    HW230936   4.603   1.086   5.067  0.4610 -1.5189 -0.0967
 6493SOL     OW30937   2.259   1.324  12.460  0.5144 -0.0024  0.1166
 6493SOL    HW130938   2.352   1.333  12.480  0.3286 -0.2037  1.0871
 6493SOL    HW230939   2.255   1.397  12.398  1.1722  0.1865  0.2941
 6494SOL     OW30940   2.203   3.219  16.014  0.5634  0.2195  0.0898
 6494SOL    HW130941   2.254   3.168  15.951  1.2915 -2.7117  3.0729
 6494SOL    HW230942   2.110   3.200  15.998  0.6201  0.3215 -0.3508
 6495SOL     OW30943   4.257   3.743   5.426  0.3170  0.3342 -0.6060
 6495SOL    HW130944   4.334   3.689   5.408 -0.7870 -1.3708 -0.2161
 6495SOL    HW230945   4.282   3.771   5.514  1.3853  0.1773 -0.8571
 6496SOL     OW30946   4.059   2.976   8.048  0.4123 -0.1982  0.3683
 6496SOL    HW130947   4.002   2.920   7.996 -3.5088  3.1436  1.0691
 6496SOL    HW230948   4.144   2.943   8.018  0.0609  1.4271 -2.4493
 6497SOL     OW30949   0.281   0.526   5.083  0.2958  0.1278 -0.3067
 6497SOL    HW130950   0.320   0.484   5.006  2.4453  0.4834  0.5706
 6497SOL    HW230951   0.298   0.461   5.152  0.0689  0.7778  0.3640
 6498SOL     OW30952   0.116   3.263  12.615  0.3458  0.0554  0.4611
 6498SOL    HW130953   0.109   3.248  12.521  1.5287  0.9997  0.2211
 6498SOL    HW230954   0.029   3.291  12.641  1.5258  1.0897  3.3637
 6499SOL     OW30955   3.549   2.636   4.625 -0.3989  0.5360  0.0312
 6499SOL    HW130956   3.607   2.687   4.569 -1.5651  1.6389 -0.1766
 6499SOL    HW230957   3.460   2.669   4.614 -1.3033 -2.5326 -1.8445
 6500SOL     OW30958   1.447   3.591   2.631 -0.4187 -0.0059  0.6348
 6500SOL    HW130959   1.496   3.560   2.555  0.1556  1.5398  0.3761
 6500SOL    HW230960   1.441   3.513   2.686  0.5863 -0.7123 -0.2776
 6501SOL     OW30961   4.167   2.133   4.270 -0.7053  0.2087  0.2553
 6501SOL    HW130962   4.161   2.042   4.300  0.1585  0.6205  1.6543
 6501SOL    HW230963   4.183   2.190   4.345 -1.7147 -1.3866  1.6766
 6502SOL     OW30964   1.217   1.758   2.096  0.4280 -0.0712 -0.1783
 6502SOL    HW130965   1.195   1.851   2.089  2.6105  0.6008  1.7537
 6502SOL    HW230966   1.189   1.723   2.012 -0.0102  1.5969 -0.7236
 6503SOL     OW30967   1.496   4.627   6.679 -0.2273 -0.4540 -0.9087
 6503SOL    HW130968   1.407   4.610   6.710 -0.4442  0.8373 -0.7968
 6503SOL    HW230969   1.500   4.722   6.693 -1.8567 -0.3068 -1.3521
 6504SOL     OW30970   1.959   3.606   8.309  0.4969 -0.5170  0.2009
 6504SOL    HW130971   1.884   3.555   8.340 -0.3863  0.4543 -0.3499
 6504SOL    HW230972   1.905   3.683   8.298  0.4444 -0.3683  1.4948
 6505SOL     OW30973   2.786   1.751   8.613 -0.6432  0.1334  0.2788
 6505SOL    HW130974   2.762   1.842   8.597  0.4184  0.3715  0.0682
 6505SOL    HW230975   2.826   1.751   8.700  0.7860 -3.8932 -0.3508
 6506SOL     OW30976   3.345   3.850  12.394 -0.6436 -0.4555  0.4455
 6506SOL    HW130977   3.365   3.778  12.334 -0.3536  1.3990 -1.7096
 6506SOL    HW230978   3.386   3.928  12.355  0.3011 -0.7763  0.7932
 6507SOL     OW30979   2.612   2.447   7.390 -0.1465  0.2618 -0.3099
 6507SOL    HW130980   2.588   2.436   7.482 -0.9375 -0.5236 -0.6117
 6507SOL    HW230981   2.541   2.505   7.361  0.4217  0.3946 -1.4647
 6508SOL     OW30982   1.818   2.054   8.180 -0.0454  0.0734 -0.5345
 6508SOL    HW130983   1.842   2.146   8.193  0.0292  0.1793 -1.3984
 6508SOL    HW230984   1.725   2.064   8.161 -0.4438 -2.0782  0.2196
 6509SOL     OW30985   2.206   0.801  16.166  0.3155 -0.1641 -0.2786
 6509SOL    HW130986   2.263   0.878  16.162  0.2087 -0.0809 -0.1860
 6509SOL    HW230987   2.203   0.773  16.258 -2.7787  1.1949  0.0107
 6510SOL     OW30988   4.304   2.214   5.663 -0.3807  0.2599  0.2485
 6510SOL    HW130989   4.383   2.207   5.717 -0.4617  2.7834  0.7114
 6510SOL    HW230990   4.258   2.132   5.683  0.7484 -0.5698 -0.6219
 6511SOL     OW30991   2.094   2.969   9.146  0.2713  0.2188 -0.2003
 6511SOL    HW130992   2.055   3.048   9.184 -0.6911  0.3496 -1.4780
 6511SOL    HW230993   2.175   3.003   9.107  0.2212  1.7083  0.9912
 6512SOL     OW30994   3.805   3.570   6.854  0.4050 -0.0963  0.0852
 6512SOL    HW130995   3.768   3.614   6.930 -1.1893 -3.2738  1.1740
 6512SOL    HW230996   3.728   3.556   6.799 -0.4970  0.1520  1.2754
 6513SOL     OW30997   4.433   3.978  10.163 -0.1692  0.4344 -0.0944
 6513SOL    HW130998   4.483   3.952  10.240  0.8945  1.5211 -0.4177
 6513SOL    HW230999   4.348   4.004  10.200 -1.0581 -0.0872 -1.7704
 6514SOL     OW31000   4.553   0.583   2.221 -0.0472  0.2501 -0.6654
 6514SOL    HW131001   4.555   0.612   2.130  0.5800 -0.2213 -0.7991
 6514SOL    HW231002   4.571   0.668   2.262  2.4291  0.3309 -1.9368
 6515SOL     OW31003   4.364   3.269   2.557  0.1792  0.4752 -1.0473
 6515SOL    HW131004   4.442   3.323   2.547  0.9628  0.2098  3.5468
 6515SOL    HW231005   4.331   3.276   2.467 -1.1977  0.5091 -0.5429
 6516SOL     OW31006   3.544   1.604   7.554 -0.1534  0.0096 -0.2220
 6516SOL    HW131007   3.540   1.523   7.502  1.9631  1.2142 -2.2637
 6516SOL    HW231008   3.457   1.601   7.594 -1.3278 -1.5378 -2.8734
 6517SOL     OW31009   2.090   1.754   9.749  0.4516 -0.0966  0.0844
 6517SOL    HW131010   2.094   1.814   9.824  2.4754 -0.5419  0.3289
 6517SOL    HW231011   2.139   1.682   9.789 -2.8838 -1.4194  1.8201
 6518SOL     OW31012   2.861   4.329   1.468 -0.4939 -0.5200  0.0262
 6518SOL    HW131013   2.927   4.390   1.502  0.9083 -1.8375 -0.3225
 6518SOL    HW231014   2.871   4.255   1.528 -1.1207 -0.8968 -0.3351
 6519SOL     OW31015   2.297   0.286   5.636 -0.2832  0.0582 -0.1592
 6519SOL    HW131016   2.253   0.356   5.587 -1.7498  2.4357  4.5700
 6519SOL    HW231017   2.229   0.257   5.697  1.3185  1.0005  2.0653
 6520SOL     OW31018   0.247   0.556   0.806 -0.4206 -0.3857  0.5838
 6520SOL    HW131019   0.310   0.577   0.875 -1.1093 -0.8951  1.3639
 6520SOL    HW231020   0.169   0.604   0.832 -1.3974 -0.8944 -1.3458
 6521SOL     OW31021   2.049   2.985   6.635  0.6440  0.3517 -0.7495
 6521SOL    HW131022   1.968   2.942   6.661 -0.6229  1.9871 -1.9506
 6521SOL    HW231023   2.102   2.910   6.607  1.9661 -0.1801  3.1207
 6522SOL     OW31024   1.363   0.244  11.542  0.0447  0.0946  0.0765
 6522SOL    HW131025   1.314   0.315  11.582  1.3228  1.4123 -0.6942
 6522SOL    HW231026   1.452   0.274  11.560  1.3952 -1.8232 -3.4220
 6523SOL     OW31027   2.877   2.471   7.403  0.2620 -0.6744  0.3299
 6523SOL    HW131028   2.784   2.470   7.380  0.2452  1.6035  0.3390
 6523SOL    HW231029   2.889   2.376   7.410  2.9019 -0.2136  2.0088
 6524SOL     OW31030   2.975   2.086   5.244  0.1581  0.1239 -0.0701
 6524SOL    HW131031   2.884   2.117   5.239  0.1061 -0.2929 -1.5177
 6524SOL    HW231032   2.969   2.003   5.198 -1.4415 -1.4478  2.9453
 6525SOL     OW31033   2.611   0.928   3.176  0.0254  0.1148  0.4366
 6525SOL    HW131034   2.615   0.958   3.085 -0.7970  1.1076  0.7370
 6525SOL    HW231035   2.524   0.939   3.214  0.0354  2.2747 -0.1909
 6526SOL     OW31036   0.392   3.056   5.462 -0.0832 -0.0536  0.3033
 6526SOL    HW131037   0.444   3.045   5.382 -0.2256  0.2980  0.1641
 6526SOL    HW231038   0.311   3.091   5.423 -0.2485  0.6990  1.3106
 6527SOL     OW31039   4.322   3.634   5.810  0.0285  0.0850  0.0603
 6527SOL    HW131040   4.315   3.585   5.892  1.8726 -2.0849 -1.0842
 6527SOL    HW231041   4.304   3.571   5.740 -1.3118  1.8742 -1.1993
 6528SOL     OW31042   1.023   3.506   4.908 -0.2928 -0.3482  0.4214
 6528SOL    HW131043   0.980   3.574   4.856 -0.6706  0.7399  2.1631
 6528SOL    HW231044   1.029   3.547   4.994 -0.5189 -2.4689  1.4338
 6529SOL     OW31045   3.346   3.386   8.822 -0.3130  0.3729  0.3224
 6529SOL    HW131046   3.425   3.362   8.871 -1.2050 -1.0392  1.0670
 6529SOL    HW231047   3.303   3.442   8.886  1.6039  1.8951  0.2747
 6530SOL     OW31048   4.600   4.484  13.750 -0.4998  0.6116 -0.2089
 6530SOL    HW131049   4.682   4.523  13.721 -0.5468 -0.7814 -2.2471
 6530SOL    HW231050   4.592   4.524  13.837 -1.5866  0.1999 -0.1212
 6531SOL     OW31051   1.834   0.254   9.011  0.1392 -0.2385 -0.0419
 6531SOL    HW131052   1.755   0.274   9.061  0.0804 -0.2476 -0.1297
 6531SOL    HW231053   1.803   0.189   8.948  0.8319 -0.3045 -0.3087
 6532SOL     OW31054   3.594   0.916   5.942  0.0447  0.1665  0.1089
 6532SOL    HW131055   3.602   0.841   5.883 -2.9262  1.1702 -1.5299
 6532SOL    HW231056   3.561   0.980   5.879  0.5487 -0.1945 -0.5229
 6533SOL     OW31057   4.452   1.318  10.128  0.8644 -0.1789  0.0679
 6533SOL    HW131058   4.417   1.304  10.040 -1.1273 -2.0520  1.1608
 6533SOL    HW231059   4.423   1.406  10.153 -1.9294 -0.6406 -1.6200
 6534SOL     OW31060   2.302   0.649   3.907  0.1417 -0.1455 -0.0630
 6534SOL    HW131061   2.395   0.637   3.927  0.4483  2.5408  0.0337
 6534SOL    HW231062   2.256   0.566   3.922 -1.5695  0.1830 -3.5639
 6535SOL     OW31063   2.942   0.805   7.930 -0.4500  0.1717 -0.0775
 6535SOL    HW131064   2.996   0.728   7.912  0.7636  0.7110  1.2653
 6535SOL    HW231065   2.892   0.761   7.999 -0.7055 -0.0530 -0.4086
 6536SOL     OW31066   2.080   0.485   3.231 -0.2892  0.0374 -0.0025
 6536SOL    HW131067   2.008   0.500   3.170 -0.6457 -1.4126  0.0618
 6536SOL    HW231068   2.121   0.404   3.200  1.3984  0.3397  1.4542
 6537SOL     OW31069   4.232   2.774   4.393 -0.0367 -0.7920  0.2770
 6537SOL    HW131070   4.202   2.756   4.304  1.7787  0.0825 -0.5132
 6537SOL    HW231071   4.160   2.739   4.444  0.6814 -1.8042  0.6116
 6538SOL     OW31072   1.545   3.994   0.605  0.0968  0.4477 -0.5661
 6538SOL    HW131073   1.487   3.948   0.666  2.3255 -0.1114  1.1576
 6538SOL    HW231074   1.612   3.929   0.583  1.3585  0.9583  1.6963
 6539SOL     OW31075   0.870   2.462   9.540  0.6081 -0.2559 -0.3237
 6539SOL    HW131076   0.838   2.375   9.560 -1.4516  1.1472  2.4330
 6539SOL    HW231077   0.965   2.457   9.530  1.1002  0.9703  3.7103
 6540SOL     OW31078   4.714   3.422   4.972  0.0856 -0.2809 -0.4649
 6540SOL    HW131079   0.028   3.339   4.941  1.8155  0.0515  0.6802
 6540SOL    HW231080   0.016   3.423   5.064 -1.1276 -0.9961 -0.1324
 6541SOL     OW31081   4.527   0.030   9.874  0.2220  1.0627  0.1748
 6541SOL    HW131082   4.590   0.043   9.803  1.9806  1.1300  1.7280
 6541SOL    HW231083   4.476   4.684   9.831  1.5163  1.5555 -2.1547
 6542SOL     OW31084   3.665   4.659   2.560  0.4844 -0.5035 -0.2275
 6542SOL    HW131085   3.758   4.681   2.563  0.5993 -0.9534 -0.4195
 6542SOL    HW231086   3.629   0.019   2.528 -1.6651 -0.9536  1.0187
 6543SOL     OW31087   1.879   2.804   1.379  0.2645  0.2408  0.5755
 6543SOL    HW131088   1.855   2.890   1.413 -1.6000 -0.1271  0.2047
 6543SOL    HW231089   1.946   2.768   1.437  0.4430 -1.6844 -0.8366
 6544SOL     OW31090   0.486   2.967   1.616 -0.2411  0.3848  0.5941
 6544SOL    HW131091   0.555   3.030   1.635  1.4491 -1.1006 -0.5487
 6544SOL    HW231092   0.541   2.904   1.570 -1.3998  0.6670 -1.1873
 6545SOL     OW31093   0.685   1.610  12.531 -0.0295  0.3501  0.1045
 6545SOL    HW131094   0.727   1.675  12.586 -1.7577 -1.3077  3.3726
 6545SOL    HW231095   0.611   1.580  12.584 -0.6175  1.5643 -0.0281
 6546SOL     OW31096   3.786   2.738  10.807 -0.4993 -0.5278 -0.0504
 6546SOL    HW131097   3.777   2.673  10.876 -1.0751 -2.3370 -1.8248
 6546SOL    HW231098   3.856   2.701  10.753  0.3386  4.3705 -2.3428
 6547SOL     OW31099   0.316   0.676   3.300  0.0145  0.6559  0.2140
 6547SOL    HW131100   0.395   0.714   3.340  0.7771 -1.2682  0.5456
 6547SOL    HW231101   0.284   0.625   3.374 -0.4370 -2.0780 -1.8520
 6548SOL     OW31102   0.282   1.495   8.236 -0.1632 -0.1607 -0.2055
 6548SOL    HW131103   0.268   1.574   8.288 -0.5201 -0.6130  0.3958
 6548SOL    HW231104   0.210   1.497   8.173 -0.8867 -2.6013  0.5345
 6549SOL     OW31105   0.918   3.061   7.636  0.1532  0.4236 -0.3265
 6549SOL    HW131106   0.833   3.021   7.618  0.6597 -0.5437 -0.5660
 6549SOL    HW231107   0.976   3.016   7.574 -1.5937 -0.9214 -0.9837
 6550SOL     OW31108   2.563   4.480  16.738  0.3393 -0.8665 -0.0493
 6550SOL    HW131109   2.540   4.387  16.740  0.9109 -0.9502  2.6642
 6550SOL    HW231110   2.485   4.519  16.777  1.2989  1.8620 -0.8842
 6551SOL     OW31111   0.792   1.073   1.111  0.2580  0.6767 -0.3676
 6551SOL    HW131112   0.752   0.991   1.140 -0.0042  0.3427 -1.6826
 6551SOL    HW231113   0.885   1.060   1.131  0.3384  3.0009  0.7791
 6552SOL     OW31114   2.999   1.274   8.593  0.0104 -0.4280 -0.1533
 6552SOL    HW131115   2.946   1.353   8.583  1.2946  0.1562 -2.3551
 6552SOL    HW231116   2.949   1.229   8.661  0.7120 -0.5337  0.2982
 6553SOL     OW31117   4.365   1.124   2.917 -0.2278 -0.3327  0.3882
 6553SOL    HW131118   4.363   1.140   2.823  0.7134 -1.0060  0.2578
 6553SOL    HW231119   4.324   1.201   2.956 -2.5650 -2.0300  1.2520
 6554SOL     OW31120   3.853   3.276   7.375 -0.4561 -0.1962  0.6845
 6554SOL    HW131121   3.880   3.356   7.420 -0.2307 -0.7507  1.5399
 6554SOL    HW231122   3.780   3.314   7.326  0.4849 -0.7786 -1.1591
 6555SOL     OW31123   4.382   2.727  13.630  0.3491 -0.1178  0.1097
 6555SOL    HW131124   4.312   2.745  13.567  0.8174 -0.0018 -0.3774
 6555SOL    HW231125   4.344   2.649  13.671 -1.9413  1.5928  1.2152
 6556SOL     OW31126   0.764   1.605  13.220  0.2319  0.7226 -0.0911
 6556SOL    HW131127   0.841   1.609  13.163  1.3591  1.0489  1.4676
 6556SOL    HW231128   0.749   1.697  13.241  1.4176  0.6741  1.0079
 6557SOL     OW31129   1.168   2.477   4.623 -0.5730 -0.1670  0.3250
 6557SOL    HW131130   1.115   2.473   4.544  0.6027 -0.8066 -0.4285
 6557SOL    HW231131   1.097   2.492   4.686 -0.1812 -0.6746  0.8880
 6558SOL     OW31132   0.804   1.237  16.304  0.1468  0.2716  0.4215
 6558SOL    HW131133   0.862   1.246  16.380  0.5646  0.1906  0.1132
 6558SOL    HW231134   0.733   1.297  16.327 -0.8128 -1.4000  1.8180
 6559SOL     OW31135   2.511   2.605  16.232 -0.7410  0.2705  0.3014
 6559SOL    HW131136   2.500   2.677  16.170 -1.5259  0.2379  0.4074
 6559SOL    HW231137   2.527   2.531  16.173 -1.6308  1.2460 -1.1574
 6560SOL     OW31138   1.941   2.315   6.088 -0.4368  0.6393  0.8602
 6560SOL    HW131139   1.945   2.265   6.170 -0.1274 -0.5999  0.0982
 6560SOL    HW231140   2.031   2.341   6.072 -0.0101 -0.8268  0.8440
 6561SOL     OW31141   1.708   2.791  14.521  0.0862 -0.0933  0.1058
 6561SOL    HW131142   1.756   2.744  14.452  0.0912  0.6547 -0.4008
 6561SOL    HW231143   1.780   2.814  14.579 -1.0869 -1.4260  2.0958
 6562SOL     OW31144   1.710   3.897  12.853  0.4789 -0.0490 -0.4719
 6562SOL    HW131145   1.783   3.836  12.843 -0.6668 -1.4326 -0.3511
 6562SOL    HW231146   1.645   3.840  12.810  1.6793 -0.8355 -1.2384
 6563SOL     OW31147   1.887   4.681  10.305 -0.3693  0.1028  0.0331
 6563SOL    HW131148   1.808   0.000  10.339 -0.9989  0.0181 -1.3306
 6563SOL    HW231149   1.860   4.589  10.298  0.6468 -0.2389  0.5457
 6564SOL     OW31150   1.105   1.312   8.997 -0.1470  0.4538 -0.4011
 6564SOL    HW131151   1.183   1.347   9.040 -0.8254  0.9825  0.3817
 6564SOL    HW231152   1.141   1.268   8.919  0.5255  0.2517  0.0211
 6565SOL     OW31153   4.451   2.835  15.893 -0.2052  0.2280  0.0848
 6565SOL    HW131154   4.485   2.754  15.930 -0.6082 -0.0155 -0.0802
 6565SOL    HW231155   4.462   2.818  15.799  1.6913  3.5650 -0.3059
 6566SOL     OW31156   0.062   1.058   5.788 -0.3354  0.6447  0.6811
 6566SOL    HW131157   0.062   0.963   5.786  0.1242  0.6489  0.6249
 6566SOL    HW231158   0.102   1.073   5.874 -0.5863  1.3193  0.6812
 6567SOL     OW31159   2.733   1.455   6.919 -0.5273 -0.3439  0.3801
 6567SOL    HW131160   2.770   1.511   6.851 -3.8926  1.5875  0.1569
 6567SOL    HW231161   2.649   1.423   6.886  0.5591 -1.1541 -1.5847
 6568SOL     OW31162   2.682   1.847  14.269 -0.2450  0.1742 -0.1514
 6568SOL    HW131163   2.768   1.889  14.275 -0.2588 -0.1498  2.2955
 6568SOL    HW231164   2.676   1.786  14.342  0.4056  2.0111  1.4396
 6569SOL     OW31165   1.179   1.996  13.338  0.4296  0.3149 -0.2710
 6569SOL    HW131166   1.261   2.013  13.292 -0.1284 -0.9092 -1.7100
 6569SOL    HW231167   1.118   2.065  13.314 -0.1843 -1.4815 -3.8753
 6570SOL     OW31168   3.032   0.534   8.278 -0.0853  0.0482  0.8815
 6570SOL    HW131169   2.977   0.607   8.306 -1.2769 -1.1532  1.7207
 6570SOL    HW231170   3.115   0.579   8.292 -0.1558  0.9056 -1.6073
 6571SOL     OW31171   3.031   1.601   7.072 -0.3979 -0.4226  0.1862
 6571SOL    HW131172   3.093   1.655   7.120  1.3190 -0.6190 -1.8354
 6571SOL    HW231173   2.957   1.618   7.131  0.0230  2.1664 -0.0644
 6572SOL     OW31174   2.609   2.225   3.851  0.1869 -0.3024  0.7517
 6572SOL    HW131175   2.647   2.215   3.938  0.5830 -0.3409  0.5743
 6572SOL    HW231176   2.642   2.311   3.824  0.2225 -0.5377  0.0455
 6573SOL     OW31177   1.599   0.193   5.401  0.5347  0.1890 -0.4630
 6573SOL    HW131178   1.571   0.229   5.316  1.4287  0.6261 -0.5729
 6573SOL    HW231179   1.536   0.236   5.459 -0.3013  0.6670 -1.7115
 6574SOL     OW31180   4.309   3.232  15.755  0.3961  0.2265 -0.0112
 6574SOL    HW131181   4.390   3.282  15.745  0.7472 -0.4801 -0.6887
 6574SOL    HW231182   4.315   3.170  15.683  0.0106  0.8987 -0.6289
 6575SOL     OW31183   2.784   3.195   9.297 -0.1993 -0.3781  0.0718
 6575SOL    HW131184   2.758   3.245   9.375  0.3771  2.6005 -1.6134
 6575SOL    HW231185   2.879   3.206   9.309  0.2083 -2.7150 -1.1318
 6576SOL     OW31186   1.704   2.353  12.065  0.5122 -0.1060 -0.1958
 6576SOL    HW131187   1.710   2.338  12.159 -1.1362  0.8867  0.0533
 6576SOL    HW231188   1.800   2.352  12.062  0.6178  2.7614  2.7646
 6577SOL     OW31189   3.896   3.430  16.139 -0.1241  0.7193  0.0256
 6577SOL    HW131190   3.824   3.493  16.127 -0.2637  0.2339 -1.6556
 6577SOL    HW231191   3.966   3.495  16.139  3.0352 -2.7795 -1.5621
 6578SOL     OW31192   1.448   4.469   2.642 -0.5983  0.1247 -0.4862
 6578SOL    HW131193   1.425   4.482   2.550  0.6788 -0.2568 -0.8623
 6578SOL    HW231194   1.423   4.554   2.678 -1.0073  0.0759 -0.6576
 6579SOL     OW31195   0.688   0.013  13.989 -0.2142 -0.2865  0.1401
 6579SOL    HW131196   0.617   0.021  14.052 -1.2671 -1.4892 -0.8722
 6579SOL    HW231197   0.657   0.072  13.920 -0.5156 -0.9698 -0.3065
 6580SOL     OW31198   0.593   1.514  13.777 -0.0688 -0.0963 -0.2012
 6580SOL    HW131199   0.510   1.493  13.733 -1.0645  0.6923  1.3397
 6580SOL    HW231200   0.666   1.507  13.715  0.6820 -0.5790  0.7449
 6581SOL     OW31201   1.651   3.845   7.181  0.6956  0.6584 -0.2112
 6581SOL    HW131202   1.719   3.838   7.114  1.2576 -1.6669  0.6017
 6581SOL    HW231203   1.698   3.810   7.256 -0.5675  0.8186  0.6652
 6582SOL     OW31204   4.150   2.351  14.423 -0.3518  0.0733  0.0884
 6582SOL    HW131205   4.069   2.387  14.457 -0.1865  1.8342 -1.4011
 6582SOL    HW231206   4.120   2.338  14.333 -1.4084  0.7516  0.3531
 6583SOL     OW31207   1.392   3.579  13.370  0.3093  0.6631  0.0070
 6583SOL    HW131208   1.439   3.556  13.450  1.1247  1.2949 -0.2976
 6583SOL    HW231209   1.315   3.619  13.410 -0.4829  1.1567 -2.0101
 6584SOL     OW31210   1.531   3.037  14.195 -0.0569 -0.5606  0.0795
 6584SOL    HW131211   1.481   2.962  14.162 -0.7193 -1.4025  2.9573
 6584SOL    HW231212   1.525   3.018  14.289 -1.6260 -3.1137 -0.5298
 6585SOL     OW31213   3.705   3.965   1.831  0.3141  0.4118 -0.0859
 6585SOL    HW131214   3.705   4.022   1.908  0.1046  2.5047 -1.6420
 6585SOL    HW231215   3.641   4.002   1.770  0.5520  1.1750  0.1415
 6586SOL     OW31216   2.117   2.036   9.424  0.2351  0.5984  0.3741
 6586SOL    HW131217   2.203   2.050   9.385 -0.0550 -0.4413 -0.6240
 6586SOL    HW231218   2.144   2.052   9.515 -1.0939  1.8435  0.5669
 6587SOL     OW31219   1.176   2.314   8.412  0.1176 -0.2775  0.3994
 6587SOL    HW131220   1.105   2.378   8.407  2.7162  2.5062 -1.5134
 6587SOL    HW231221   1.240   2.360   8.466  1.0326  0.6756 -1.4697
 6588SOL     OW31222   0.098   4.645   1.189  0.1877  1.0058  0.1918
 6588SOL    HW131223   0.055   4.679   1.267 -1.8092 -0.5284 -0.2285
 6588SOL    HW231224   0.061   4.558   1.175  1.1494  0.5802  0.3098
 6589SOL     OW31225   2.063   1.605   3.926  0.1683 -0.0009 -0.2860
 6589SOL    HW131226   2.011   1.525   3.919 -0.9875  0.9223 -2.5419
 6589SOL    HW231227   2.135   1.582   3.867  0.5347  0.6274 -0.0826
 6590SOL     OW31228   3.379   4.390   0.860 -0.2167 -0.8789  0.1466
 6590SOL    HW131229   3.379   4.464   0.799 -1.5059 -1.5258 -0.6453
 6590SOL    HW231230   3.419   4.430   0.936 -1.2950  2.0594 -0.8220
 6591SOL     OW31231   4.415   2.568   2.707 -0.2979  0.6056  0.3266
 6591SOL    HW131232   4.360   2.498   2.673  0.9757 -2.6234  4.8228
 6591SOL    HW231233   4.416   2.543   2.800  0.5079 -1.6686 -0.2893
 6592SOL     OW31234   3.104   2.832   5.365  0.3608  0.4427  0.3034
 6592SOL    HW131235   3.070   2.921   5.356  1.1256  0.7992  0.9088
 6592SOL    HW231236   3.109   2.790   5.279 -0.1084  0.3784  0.3070
 6593SOL     OW31237   3.253   1.977  14.245 -0.0661  0.1962  0.2415
 6593SOL    HW131238   3.294   1.912  14.188  0.1349 -0.6428  1.3520
 6593SOL    HW231239   3.306   2.050  14.214 -1.2395  0.8146 -0.3425
 6594SOL     OW31240   1.041   0.840   1.488 -0.1396  0.0585  0.0914
 6594SOL    HW131241   1.132   0.826   1.462 -0.3246  1.2412 -1.1822
 6594SOL    HW231242   1.019   0.924   1.447 -0.3353  0.0168  0.1131
 6595SOL     OW31243   2.745   3.368   8.889 -0.4791  0.4284  0.2520
 6595SOL    HW131244   2.814   3.327   8.942 -0.9627 -1.9535 -0.9375
 6595SOL    HW231245   2.794   3.410   8.818 -0.8050 -2.0207 -1.4176
 6596SOL     OW31246   0.728   1.913   8.138  0.0114  0.3527  0.2368
 6596SOL    HW131247   0.693   1.880   8.221 -0.6501 -0.7245 -0.4625
 6596SOL    HW231248   0.661   1.979   8.121  0.3685  0.3996 -0.9757
 6597SOL     OW31249   0.983   1.171   8.195  0.1156 -0.5200  0.0769
 6597SOL    HW131250   0.907   1.218   8.161  0.0049 -0.6398  0.1598
 6597SOL    HW231251   1.008   1.117   8.120 -0.3047 -0.9160  0.2140
 6598SOL     OW31252   2.573   2.987   3.010 -0.2888  0.0723  0.0154
 6598SOL    HW131253   2.587   2.919   2.945  1.8157 -1.1507  1.7487
 6598SOL    HW231254   2.492   2.958   3.052 -0.3050 -0.4878 -0.4092
 6599SOL     OW31255   3.220   1.708  13.559  0.1797 -0.0035  0.1200
 6599SOL    HW131256   3.245   1.765  13.487 -1.5501 -1.8101 -1.8976
 6599SOL    HW231257   3.254   1.623  13.531  0.0639 -0.0459  0.1096
 6600SOL     OW31258   2.860   2.019   7.832 -0.3871  0.0514 -0.1321
 6600SOL    HW131259   2.881   1.930   7.861  0.6888  1.5114  3.6139
 6600SOL    HW231260   2.921   2.032   7.759  1.0166 -0.1914  0.9852
 6601SOL     OW31261   2.232   2.618   1.717  0.1959  0.1677  0.0253
 6601SOL    HW131262   2.272   2.662   1.792  2.1364 -0.4153 -0.6739
 6601SOL    HW231263   2.266   2.531   1.737 -0.7976  0.3299  2.3786
 6602SOL     OW31264   2.913   2.913   9.054 -0.1469  0.7074 -0.6867
 6602SOL    HW131265   2.959   2.937   9.135 -0.1451  1.3479 -0.8719
 6602SOL    HW231266   2.871   2.829   9.072  1.2261 -0.2687 -2.1250
 6603SOL     OW31267   2.753   3.123   5.185  0.5313 -0.0167  0.3602
 6603SOL    HW131268   2.708   3.186   5.242 -0.4645  0.2810 -0.7519
 6603SOL    HW231269   2.742   3.181   5.110 -1.4302 -0.4672  0.2923
 6604SOL     OW31270   2.230   0.080   2.365  0.0790 -0.5247  0.1554
 6604SOL    HW131271   2.252   0.054   2.275 -1.6610 -0.6797 -0.2259
 6604SOL    HW231272   2.279   0.162   2.366  0.4981 -0.7667 -0.9508
 6605SOL     OW31273   1.372   1.078   9.428 -0.1404  0.4266  0.2762
 6605SOL    HW131274   1.345   1.150   9.486  0.4547  0.3083  0.7104
 6605SOL    HW231275   1.312   1.094   9.356 -0.6195 -0.1089  0.5535
 6606SOL     OW31276   4.228   1.643   4.073 -0.0834 -0.1460  0.6437
 6606SOL    HW131277   4.143   1.679   4.099 -0.7859 -0.1305 -1.6603
 6606SOL    HW231278   4.215   1.561   4.024  0.6785 -0.2486  0.6102
 6607SOL     OW31279   0.770   1.873   7.527  0.7030 -0.5927 -0.6231
 6607SOL    HW131280   0.686   1.913   7.547  1.3169 -0.1103  0.9209
 6607SOL    HW231281   0.826   1.895   7.601  1.1574 -3.9488  0.0557
 6608SOL     OW31282   0.880   1.898   1.661 -0.5866  0.3086  0.2744
 6608SOL    HW131283   0.851   1.814   1.695 -2.1711  1.0691  0.8379
 6608SOL    HW231284   0.813   1.924   1.598  0.7139 -0.3999 -1.4003
 6609SOL     OW31285   3.741   4.497   9.072  0.2171  0.1561 -0.3281
 6609SOL    HW131286   3.741   4.464   9.162 -1.2467  3.5001  0.8726
 6609SOL    HW231287   3.834   4.520   9.065 -0.2364  2.5343  1.6314
 6610SOL     OW31288   0.335   0.517   4.239 -0.0983 -0.1690  0.3204
 6610SOL    HW131289   0.386   0.493   4.161 -2.0597  0.4299 -1.1372
 6610SOL    HW231290   0.274   0.444   4.252  0.0105 -0.5495 -1.3320
 6611SOL     OW31291   0.216   1.730   9.147 -0.2700  0.8308  0.5164
 6611SOL    HW131292   0.289   1.745   9.207  0.2901 -2.2533  0.5952
 6611SOL    HW231293   0.265   1.721   9.065  1.3953 -3.0949  1.9306
 6612SOL     OW31294   4.201   2.498   8.921  0.5614 -0.9973 -0.0225
 6612SOL    HW131295   4.136   2.540   8.977 -0.8640 -3.1503 -0.0712
 6612SOL    HW231296   4.158   2.501   8.836  0.3488  0.4736  0.1397
 6613SOL     OW31297   0.869   0.475   1.780  0.0191  0.6388 -0.3798
 6613SOL    HW131298   0.873   0.542   1.849  1.3892  1.0068 -0.8267
 6613SOL    HW231299   0.790   0.492   1.728 -0.2010 -0.9957 -0.5624
 6614SOL     OW31300   1.717   2.284   1.075 -0.2220  0.1359  0.1271
 6614SOL    HW131301   1.799   2.234   1.085 -0.3552 -0.0629  0.2176
 6614SOL    HW231302   1.728   2.338   1.153  2.9197  1.1432 -0.9948
 6615SOL     OW31303   3.550   4.211   3.105 -0.4084  0.2454  0.0730
 6615SOL    HW131304   3.510   4.158   3.173  0.8713  2.1860  2.3059
 6615SOL    HW231305   3.625   4.159   3.075 -0.5804 -0.3175  0.6248
 6616SOL     OW31306   2.319   3.045  15.839  0.0846 -0.5765  0.2724
 6616SOL    HW131307   2.339   3.060  15.747  0.7692 -2.1681  0.1659
 6616SOL    HW231308   2.272   2.961  15.845  0.2772 -1.0021 -3.9565
 6617SOL     OW31309   0.693   0.566   5.427 -0.0717  0.3836 -0.1257
 6617SOL    HW131310   0.604   0.533   5.440 -1.0406  2.4980 -1.5006
 6617SOL    HW231311   0.716   0.546   5.336  0.6451  0.3105  0.0719
 6618SOL     OW31312   1.972   1.920  15.389  0.4405  0.5325  1.2662
 6618SOL    HW131313   1.945   1.989  15.450 -2.6201  1.0542 -0.6609
 6618SOL    HW231314   1.958   1.842  15.442  1.2657 -1.2312 -1.0852
 6619SOL     OW31315   4.225   3.672   8.532  0.1281  0.1799  0.0474
 6619SOL    HW131316   4.219   3.579   8.549 -1.7470 -0.1469 -2.3936
 6619SOL    HW231317   4.137   3.703   8.507 -0.9455 -1.9293  1.2774
 6620SOL     OW31318   0.603   1.257   3.477  0.1585 -0.0635 -0.7066
 6620SOL    HW131319   0.601   1.353   3.474 -1.6168 -0.0972 -0.5084
 6620SOL    HW231320   0.658   1.227   3.550  0.6201 -1.8383 -1.8065
 6621SOL     OW31321   4.707   0.961   7.343  0.4400 -0.0265  0.4435
 6621SOL    HW131322   4.658   0.959   7.260 -0.1396 -1.5618  0.8226
 6621SOL    HW231323   0.007   0.871   7.365 -1.3585 -0.3402  0.9812
 6622SOL     OW31324   3.385   0.373   4.417 -0.1944 -0.0729 -0.7143
 6622SOL    HW131325   3.378   0.463   4.386 -2.3186 -0.1904 -0.5688
 6622SOL    HW231326   3.369   0.381   4.511 -0.2907 -0.4048 -0.7039
 6623SOL     OW31327   2.801   3.116   8.713  0.1571 -0.4191  0.0020
 6623SOL    HW131328   2.895   3.122   8.729 -0.0970 -1.8339  2.0448
 6623SOL    HW231329   2.771   3.199   8.749  0.2144 -0.5263  0.2956
 6624SOL     OW31330   1.298   4.369   5.444  0.1879  0.1459  0.0670
 6624SOL    HW131331   1.237   4.442   5.449 -1.1379 -0.9740  0.0473
 6624SOL    HW231332   1.334   4.366   5.355  0.7729  2.6318  0.1991
 6625SOL     OW31333   4.027   2.873   6.881 -0.3464  0.1611 -0.5630
 6625SOL    HW131334   3.974   2.813   6.933 -2.0472  1.2987 -0.9574
 6625SOL    HW231335   4.109   2.827   6.862  2.0179  4.1972 -0.2657
 6626SOL     OW31336   4.232   2.848   0.279 -0.2571  0.0316 -0.0468
 6626SOL    HW131337   4.324   2.852   0.305 -0.0849 -1.7819 -0.3781
 6626SOL    HW231338   4.197   2.862   0.367 -0.4346 -0.2674 -0.0700
 6627SOL     OW31339   4.659   0.144  15.242 -0.3341 -0.2301  0.0121
 6627SOL    HW131340   0.016   0.162  15.191 -1.0863  0.6222 -0.8542
 6627SOL    HW231341   4.689   0.185  15.323 -1.5943  1.5593 -0.4152
 6628SOL     OW31342   3.775   1.394   9.378 -0.1771  0.3077 -0.0157
 6628SOL    HW131343   3.811   1.482   9.368  0.2390 -0.0626 -1.7437
 6628SOL    HW231344   3.859   1.351   9.394 -0.2991 -0.3636 -1.2148
 6629SOL     OW31345   4.513   0.621   2.744 -0.2536 -0.2656 -0.0442
 6629SOL    HW131346   4.595   0.577   2.766  0.6477  2.0133  1.0925
 6629SOL    HW231347   4.474   0.571   2.672  1.0041  1.5425 -1.9383
 6630SOL     OW31348   3.683   2.631  16.580 -0.4340 -0.6581 -0.3521
 6630SOL    HW131349   3.772   2.661  16.562 -0.2674 -2.0471 -1.8332
 6630SOL    HW231350   3.632   2.702  16.542 -1.1816 -2.0696 -1.9743
 6631SOL     OW31351   2.953   1.972  17.431  0.3507 -0.6848  0.6617
 6631SOL    HW131352   2.990   2.045  17.382 -1.6278  1.9221  3.0750
 6631SOL    HW231353   3.031   1.958  17.486 -0.7993 -2.4530  1.8722
 6632SOL     OW31354   3.048   1.270  11.224  0.2087 -0.1125  0.0890
 6632SOL    HW131355   3.026   1.181  11.198  2.0289 -0.3805 -0.5492
 6632SOL    HW231356   3.113   1.254  11.291  0.6828  1.8022  0.0798
 6633SOL     OW31357   0.468   1.272   9.597 -0.0429 -0.3217 -0.0700
 6633SOL    HW131358   0.499   1.285   9.507 -0.1148 -1.7544 -0.2948
 6633SOL    HW231359   0.481   1.177   9.603  1.9111 -0.2353 -2.7207
 6634SOL     OW31360   3.191   2.043   6.700  0.3911 -0.5468  0.4145
 6634SOL    HW131361   3.261   2.076   6.643  0.0381  0.8474  0.7816
 6634SOL    HW231362   3.187   1.949   6.681  0.0442 -0.4569  0.0246
 6635SOL     OW31363   1.953   2.286  16.269 -0.3363 -0.6524  0.2781
 6635SOL    HW131364   1.941   2.356  16.334 -1.4809 -2.6934  2.2515
 6635SOL    HW231365   1.932   2.209  16.321  0.0126 -1.5657 -0.9298
 6636SOL     OW31366   2.805   4.149   4.518  0.0378 -0.2348 -1.2561
 6636SOL    HW131367   2.772   4.209   4.451 -0.3542  1.3152  0.3209
 6636SOL    HW231368   2.734   4.088   4.538  1.2157 -0.5090  2.1476
 6637SOL     OW31369   4.556   4.301   0.837  0.3662 -0.3501  0.2084
 6637SOL    HW131370   4.470   4.320   0.801  1.1043  1.7124 -0.4883
 6637SOL    HW231371   4.594   4.385   0.808 -2.8156  1.2507  0.6992
 6638SOL     OW31372   3.279   4.254   8.462  0.3096  0.2688 -0.0297
 6638SOL    HW131373   3.341   4.193   8.422 -0.6996 -0.6095 -0.2809
 6638SOL    HW231374   3.324   4.338   8.461  1.3566 -0.2955 -0.5914
 6639SOL     OW31375   2.192   1.365   8.172  0.2067  0.3380 -0.2058
 6639SOL    HW131376   2.101   1.335   8.166  0.5393 -1.0062  1.3838
 6639SOL    HW231377   2.176   1.457   8.193 -0.8470 -0.1253  1.0160
 6640SOL     OW31378   1.765   1.040   2.815  0.4244 -0.2174 -0.2613
 6640SOL    HW131379   1.726   0.975   2.873  1.2638 -1.4209 -1.0446
 6640SOL    HW231380   1.829   0.986   2.770 -0.3126 -1.9741  0.8173
 6641SOL     OW31381   1.587   4.418   5.248 -0.5458 -0.3795  0.6885
 6641SOL    HW131382   1.682   4.429   5.243 -0.6552 -1.2631 -3.3124
 6641SOL    HW231383   1.572   4.357   5.176 -2.2335 -1.2941  1.8039
 6642SOL     OW31384   2.814   3.838  16.022 -0.5013  0.2675 -0.4807
 6642SOL    HW131385   2.731   3.817  15.979 -1.0137  0.6884  0.2949
 6642SOL    HW231386   2.812   3.807  16.112 -1.6216 -2.1074 -1.3348
 6643SOL     OW31387   1.094   4.649   8.291  0.1746  0.2642  0.3963
 6643SOL    HW131388   1.148   4.693   8.226 -0.5921 -0.1314 -0.5037
 6643SOL    HW231389   1.009   4.667   8.252 -0.5653 -2.2056  0.9008
 6644SOL     OW31390   3.550   0.317  11.105 -0.4482 -0.3289  0.7286
 6644SOL    HW131391   3.537   0.233  11.061 -0.5600  1.1026 -1.9338
 6644SOL    HW231392   3.508   0.296  11.189 -1.4010  0.9097  0.5519
 6645SOL     OW31393   1.644   0.498   3.546  0.0239  0.6116  0.9680
 6645SOL    HW131394   1.553   0.527   3.549 -1.2956 -3.4917  1.0372
 6645SOL    HW231395   1.648   0.435   3.619  0.2046  1.3072  1.5641
 6646SOL     OW31396   3.067   3.991   2.204  0.7023 -0.6338  0.0316
 6646SOL    HW131397   3.093   3.923   2.267  0.6997 -1.9916 -1.4368
 6646SOL    HW231398   3.149   4.029   2.173 -1.3239  2.3302 -1.5691
 6647SOL     OW31399   2.952   4.229   1.221  0.2355  0.3607  0.5173
 6647SOL    HW131400   3.048   4.227   1.221  0.2144 -0.2667 -1.7791
 6647SOL    HW231401   2.934   4.265   1.308 -0.2028  1.5815 -0.0728
 6648SOL     OW31402   3.252   2.754   2.380  0.4833  0.5931  0.4459
 6648SOL    HW131403   3.288   2.725   2.464  0.5616  1.9431  0.8771
 6648SOL    HW231404   3.295   2.837   2.358 -1.5707  1.3915 -0.5572
 6649SOL     OW31405   4.613   2.421  14.485  0.6327  0.1193  0.2688
 6649SOL    HW131406   4.697   2.465  14.491  0.7997 -0.1139 -0.3374
 6649SOL    HW231407   4.645   2.338  14.448 -1.3673 -0.5573  0.0496
 6650SOL     OW31408   2.085   4.606   6.977 -0.1036  0.3368  0.1433
 6650SOL    HW131409   2.046   4.593   7.063 -0.4412 -0.0886 -0.0702
 6650SOL    HW231410   2.006   4.644   6.938 -1.7423 -2.2337  0.9735
 6651SOL     OW31411   1.537   3.945   2.355  0.0783 -0.4773 -0.2342
 6651SOL    HW131412   1.605   3.878   2.347  0.7990  0.2044  0.2952
 6651SOL    HW231413   1.545   3.971   2.263 -0.7925 -0.3956 -0.2918
 6652SOL     OW31414   3.258   0.796   2.495 -0.1520  0.0393  0.5062
 6652SOL    HW131415   3.333   0.777   2.438 -1.6837  0.0472 -1.5247
 6652SOL    HW231416   3.203   0.844   2.433 -0.5781 -0.1649  0.7244
 6653SOL     OW31417   2.798   2.286   7.721  0.5742  0.1855  0.1687
 6653SOL    HW131418   2.837   2.217   7.666 -1.3264 -0.7368 -0.0212
 6653SOL    HW231419   2.871   2.338   7.754 -0.0489  1.9792 -1.2695
 6654SOL     OW31420   2.884   2.600  16.378  0.1289 -0.2837 -0.0371
 6654SOL    HW131421   2.881   2.687  16.338 -1.2363 -0.0736  0.5452
 6654SOL    HW231422   2.876   2.626  16.470  0.6139 -1.8273  0.4479
 6655SOL     OW31423   0.644   0.799   2.797 -0.3753  0.3335  0.4664
 6655SOL    HW131424   0.655   0.888   2.764  1.3009 -0.6056 -1.4805
 6655SOL    HW231425   0.671   0.809   2.889  0.6531 -2.7138  0.5064
 6656SOL     OW31426   3.439   3.514   3.720  1.0003  0.3243  0.6162
 6656SOL    HW131427   3.348   3.498   3.697  0.8728  0.2328  1.2014
 6656SOL    HW231428   3.439   3.537   3.813  0.3860 -0.4558  0.7986
 6657SOL     OW31429   0.948   4.237   1.117  0.4856 -0.6123 -0.3393
 6657SOL    HW131430   0.992   4.270   1.196  1.7131 -2.6605 -0.1626
 6657SOL    HW231431   0.909   4.314   1.077  4.3218  0.8362 -1.2853
 6658SOL     OW31432   3.876   0.661  12.624  0.2918 -0.4474 -0.4722
 6658SOL    HW131433   3.787   0.626  12.621  0.1451 -0.0030 -1.1138
 6658SOL    HW231434   3.930   0.596  12.580  2.2159  2.0657 -1.7781
 6659SOL     OW31435   3.087   1.713   3.050  0.3369 -0.1142  0.2208
 6659SOL    HW131436   3.028   1.637   3.054 -0.8425  0.7279 -1.0005
 6659SOL    HW231437   3.071   1.755   2.966  2.8437 -0.0670 -0.2217
 6660SOL     OW31438   4.477   3.088   4.943 -0.0902 -0.3055 -0.4945
 6660SOL    HW131439   4.385   3.065   4.927 -0.7549  1.4813  0.6369
 6660SOL    HW231440   4.500   3.159   4.884  1.5231 -1.1814 -0.9037
 6661SOL     OW31441   0.748   0.273   5.601 -0.1246 -0.4550 -0.4360
 6661SOL    HW131442   0.788   0.353   5.635 -1.7574  1.0851 -2.0860
 6661SOL    HW231443   0.664   0.313   5.579 -0.1610 -0.2139  0.1721
 6662SOL     OW31444   2.001   3.377   8.504 -0.5022  0.2441  0.5064
 6662SOL    HW131445   2.079   3.431   8.490  0.8914 -2.1291 -0.7489
 6662SOL    HW231446   2.026   3.295   8.545 -1.9063 -0.7069 -0.5453
 6663SOL     OW31447   4.119   0.158   5.934 -0.0443 -0.1646 -0.5084
 6663SOL    HW131448   4.153   0.069   5.942  0.1960 -0.2095 -2.0865
 6663SOL    HW231449   4.080   0.155   6.021 -0.2165  0.6410 -0.5602
 6664SOL     OW31450   1.699   1.606  17.255  0.4564 -0.6171  0.0074
 6664SOL    HW131451   1.633   1.540  17.276 -0.2842  0.4066  0.8651
 6664SOL    HW231452   1.775   1.557  17.287  0.9141  0.6246  0.7671
 6665SOL     OW31453   0.469   1.923   5.324 -0.5548 -0.3402  0.1041
 6665SOL    HW131454   0.402   1.949   5.388  0.5480  3.5146 -0.2941
 6665SOL    HW231455   0.475   2.012   5.289  4.4039 -0.8185 -0.2949
 6666SOL     OW31456   1.528   0.580  15.320  0.1746  0.1650 -0.1562
 6666SOL    HW131457   1.610   0.579  15.271  0.3692  0.8635  0.1538
 6666SOL    HW231458   1.542   0.494  15.360  0.3248  1.7375  3.2256
 6667SOL     OW31459   2.200   0.909   2.535  0.7075 -0.3192 -0.1073
 6667SOL    HW131460   2.219   1.001   2.550 -0.0844 -0.0279 -0.8641
 6667SOL    HW231461   2.207   0.913   2.439 -0.3571  1.2258 -0.1294
 6668SOL     OW31462   2.310   0.369   5.981  0.0000  0.1317 -0.2305
 6668SOL    HW131463   2.251   0.301   5.951 -0.4252  0.1735  0.4980
 6668SOL    HW231464   2.386   0.335   5.935 -1.0319 -0.2274 -1.6447
 6669SOL     OW31465   2.507   2.932   4.781  1.2751 -0.0374 -0.2491
 6669SOL    HW131466   2.457   2.851   4.786 -0.9021  1.3260  0.3101
 6669SOL    HW231467   2.472   2.967   4.699  3.1729 -1.7657 -1.7919
 6670SOL     OW31468   1.316   4.501  10.763 -0.3565 -0.1131  0.0541
 6670SOL    HW131469   1.354   4.533  10.845  2.4273 -2.5048 -0.2891
 6670SOL    HW231470   1.231   4.544  10.759  0.1796  0.9120 -0.3488
 6671SOL     OW31471   4.567   4.215   8.716 -0.0655 -0.0027  0.0464
 6671SOL    HW131472   4.613   4.183   8.638 -1.5226 -0.7334 -0.5049
 6671SOL    HW231473   4.573   4.309   8.695 -0.4591  0.5584  2.4921
 6672SOL     OW31474   1.322   1.792  16.430  0.4565 -0.1008 -0.2837
 6672SOL    HW131475   1.404   1.744  16.438  1.1362  1.2701  1.1168
 6672SOL    HW231476   1.329   1.827  16.342  1.5349  2.8116  0.9616
 6673SOL     OW31477   4.120   4.341  12.817 -0.4443 -0.4548  0.6669
 6673SOL    HW131478   4.190   4.364  12.878  0.0272 -0.4876  0.1306
 6673SOL    HW231479   4.135   4.397  12.741 -2.1610  1.6774  1.8788
 6674SOL     OW31480   3.488   3.491   9.207 -1.1535  0.0826  0.5285
 6674SOL    HW131481   3.548   3.475   9.280  0.1108 -0.4765 -0.6383
 6674SOL    HW231482   3.502   3.584   9.189  0.3725  0.0429  1.5272
 6675SOL     OW31483   1.257   0.411   6.205  0.5501  0.6974  0.2232
 6675SOL    HW131484   1.194   0.478   6.177 -0.3603 -0.3069 -0.1060
 6675SOL    HW231485   1.335   0.445   6.161  0.3841 -0.9348 -1.3064
 6676SOL     OW31486   0.825   0.599   8.741 -0.3247  0.3781  0.4347
 6676SOL    HW131487   0.885   0.622   8.812 -3.0573  0.3111  2.7591
 6676SOL    HW231488   0.742   0.631   8.775  0.9176  1.3379  2.5218
 6677SOL     OW31489   0.261   1.677   7.553  0.3047 -0.4463  0.3956
 6677SOL    HW131490   0.284   1.759   7.508 -2.8510 -0.4576 -1.2124
 6677SOL    HW231491   0.202   1.693   7.627 -1.1378  0.9633 -1.0557
 6678SOL     OW31492   0.320   3.705   8.537  0.0369  0.1256 -0.9632
 6678SOL    HW131493   0.385   3.698   8.607  0.1819 -2.0992 -1.3310
 6678SOL    HW231494   0.370   3.669   8.463  1.3153 -0.0956  0.0016
 6679SOL     OW31495   2.233   1.073   1.032 -0.2447  0.0315  0.1438
 6679SOL    HW131496   2.229   1.088   1.126  0.1622  0.0296  0.1586
 6679SOL    HW231497   2.169   1.138   1.000  1.2376  2.2813  1.7508
 6680SOL     OW31498   1.554   3.097   5.176  1.0072 -0.2248  0.3018
 6680SOL    HW131499   1.527   3.040   5.248 -0.4257  2.6204  2.0216
 6680SOL    HW231500   1.478   3.114   5.121 -0.1996  2.1355  2.6893
 6681SOL     OW31501   3.104   1.079   7.370  0.3299  0.6265 -0.0819
 6681SOL    HW131502   3.086   1.163   7.328  1.5450  1.0677  0.2871
 6681SOL    HW231503   3.066   1.096   7.456  0.2215 -0.0240  0.0042
 6682SOL     OW31504   2.300   3.374  10.032  0.2954  0.0853 -0.3691
 6682SOL    HW131505   2.350   3.439   9.983  0.3325 -0.9944 -1.7826
 6682SOL    HW231506   2.316   3.296   9.978  1.2713  0.5208 -0.7003
 6683SOL     OW31507   3.894   2.486   0.683 -0.3264 -0.3323  0.4047
 6683SOL    HW131508   3.907   2.391   0.684  2.9000  0.0912 -1.5348
 6683SOL    HW231509   3.891   2.514   0.774 -1.3907  0.6982  0.0632
 6684SOL     OW31510   1.754   2.294   4.512 -0.3816  0.0557 -0.2158
 6684SOL    HW131511   1.789   2.314   4.599 -0.5299  0.6159 -0.2813
 6684SOL    HW231512   1.827   2.326   4.460 -1.7670  2.5221 -0.6728
 6685SOL     OW31513   3.634   2.828   8.383  0.5041  0.3442  0.2523
 6685SOL    HW131514   3.646   2.911   8.429 -1.9931 -0.0889  1.7145
 6685SOL    HW231515   3.609   2.781   8.462 -0.7713 -0.2395 -0.4849
 6686SOL     OW31516   3.932   4.309  11.414 -0.0619 -0.2027 -0.1490
 6686SOL    HW131517   3.839   4.319  11.434 -0.0020 -1.9325  1.0562
 6686SOL    HW231518   3.969   4.396  11.400  0.2647 -0.1629  0.9341
 6687SOL     OW31519   1.998   4.467   4.045  0.0436 -0.1783  0.5737
 6687SOL    HW131520   2.021   4.492   3.955 -1.3497 -0.6892  0.0823
 6687SOL    HW231521   2.075   4.490   4.098  0.6284  0.5881 -0.6089
 6688SOL     OW31522   0.162   1.711   9.643  0.1000 -0.6167  0.3117
 6688SOL    HW131523   0.103   1.702   9.718  2.1987  1.4919  2.2229
 6688SOL    HW231524   0.234   1.769   9.666  0.2816 -1.1002  0.9363
 6689SOL     OW31525   0.653   1.536   1.965 -0.5880  0.0969  0.2342
 6689SOL    HW131526   0.699   1.496   2.038  1.2246  1.8045  0.0162
 6689SOL    HW231527   0.676   1.629   1.963  0.6099 -0.1868  1.0239
 6690SOL     OW31528   4.424   0.300   5.788 -0.0799  0.0154  0.4582
 6690SOL    HW131529   4.371   0.351   5.850 -1.4479  0.8769 -1.4191
 6690SOL    HW231530   4.487   0.366   5.759 -1.3772  0.4048 -1.4936
 6691SOL     OW31531   3.224   4.454   7.381 -0.4976  0.1686 -0.1275
 6691SOL    HW131532   3.277   4.383   7.346 -2.5419 -3.5165  4.1667
 6691SOL    HW231533   3.155   4.403   7.424 -0.4126  1.2742  1.3128
 6692SOL     OW31534   1.800   3.012   3.289 -0.0314 -0.2285  0.6375
 6692SOL    HW131535   1.720   3.022   3.238 -0.7982 -1.8644  1.5169
 6692SOL    HW231536   1.837   2.924   3.275 -1.7702 -0.7947 -0.3292
 6693SOL     OW31537   0.860   1.692   2.506  0.0242  0.5810 -1.4813
 6693SOL    HW131538   0.877   1.675   2.413  0.0910  1.1017 -1.5644
 6693SOL    HW231539   0.899   1.777   2.524 -0.6755 -0.0178  2.8189
 6694SOL     OW31540   0.033   4.525   9.653 -0.0988 -0.3753  0.5069
 6694SOL    HW131541   4.695   4.454   9.673 -0.9349  0.0433 -0.5697
 6694SOL    HW231542   0.111   4.482   9.688  0.9879  0.5593 -0.7600
 6695SOL     OW31543   2.283   0.257   3.848  0.3747  0.1827 -0.4762
 6695SOL    HW131544   2.210   0.207   3.810  0.8305  0.2531 -1.4458
 6695SOL    HW231545   2.237   0.332   3.886  2.5441  2.0735 -1.5997
 6696SOL     OW31546   2.426   4.427   0.707  0.0778  0.7530 -0.0485
 6696SOL    HW131547   2.480   4.359   0.746 -0.5997 -0.0580 -0.5425
 6696SOL    HW231548   2.348   4.384   0.672  0.9251  0.7650 -1.9589
 6697SOL     OW31549   4.466   2.310   3.154 -0.5446  0.3034  0.3000
 6697SOL    HW131550   4.405   2.340   3.086  1.9678 -0.2908 -2.2203
 6697SOL    HW231551   4.412   2.321   3.233  1.8506 -2.9344  2.3521
 6698SOL     OW31552   2.091   3.731   6.855  0.5978  0.4624 -0.3781
 6698SOL    HW131553   2.094   3.826   6.857 -1.5585  0.4520  2.2679
 6698SOL    HW231554   2.094   3.710   6.762  0.1056  1.0463 -0.5209
 6699SOL     OW31555   3.764   4.049   3.059 -0.4900  0.3522  0.5357
 6699SOL    HW131556   3.851   4.088   3.068 -0.5979  0.8029 -0.4964
 6699SOL    HW231557   3.762   3.987   3.133  0.4713  1.1671  1.2389
 6700SOL     OW31558   3.519   4.596  17.623  0.3990  0.0527 -0.1336
 6700SOL    HW131559   3.493   4.676  17.669 -0.3761  0.5251 -1.4095
 6700SOL    HW231560   3.543   4.552   0.013  1.1473  0.4500 -0.1347
 6701SOL     OW31561   3.601   3.340   7.661 -0.9690 -0.4175 -0.6143
 6701SOL    HW131562   3.688   3.332   7.621 -0.6513 -1.0584  0.2000
 6701SOL    HW231563   3.609   3.392   7.741 -1.8500 -1.1080 -0.0682
 6702SOL     OW31564   1.510   1.268   8.816 -0.4852 -0.4166  0.6411
 6702SOL    HW131565   1.585   1.220   8.850 -0.9001 -2.7278 -1.6873
 6702SOL    HW231566   1.438   1.205   8.814 -1.9764  1.2898 -0.0509
 6703SOL     OW31567   2.076   2.576   5.592  0.4677 -0.5338 -0.4348
 6703SOL    HW131568   2.016   2.502   5.589  0.2632 -0.3951  0.3487
 6703SOL    HW231569   2.075   2.610   5.502  2.3201 -0.9464 -0.6011
 6704SOL     OW31570   4.383   2.587   2.097 -0.1008 -0.6838  0.3617
 6704SOL    HW131571   4.439   2.585   2.175  0.0271  0.1759  0.2920
 6704SOL    HW231572   4.440   2.644   2.046 -0.9724 -2.5595 -2.6540
 6705SOL     OW31573   1.756   1.726   8.635 -0.4214 -0.8698 -0.4094
 6705SOL    HW131574   1.707   1.656   8.678 -0.1782 -1.3846 -0.9702
 6705SOL    HW231575   1.814   1.761   8.703 -0.6054 -0.1541 -0.6170
 6706SOL     OW31576   1.415   3.405   6.416 -0.1147  0.0160  0.0324
 6706SOL    HW131577   1.413   3.310   6.419 -2.3050  0.0567  0.4009
 6706SOL    HW231578   1.485   3.423   6.478 -0.5160 -0.0970  0.5210
 6707SOL     OW31579   2.782   0.261  13.318 -0.4445 -0.0797  0.6998
 6707SOL    HW131580   2.723   0.188  13.339 -0.8823  0.8584  2.7308
 6707SOL    HW231581   2.747   0.287  13.233 -1.9469 -2.1074  0.7027
 6708SOL     OW31582   1.682   0.715   0.423  0.4038 -0.1370  0.0830
 6708SOL    HW131583   1.612   0.726   0.487 -2.0594 -0.3760 -2.5344
 6708SOL    HW231584   1.672   0.620   0.421 -3.0219  0.2217 -0.0768
 6709SOL     OW31585   2.407   3.167  12.255 -0.0168 -0.9248  0.0738
 6709SOL    HW131586   2.382   3.230  12.323  0.8657 -1.2075  0.6563
 6709SOL    HW231587   2.384   3.082  12.292 -1.8914 -0.1569  0.6982
 6710SOL     OW31588   4.278   0.006   7.685  0.1783 -0.1221  0.2143
 6710SOL    HW131589   4.282   0.101   7.698 -1.4242 -0.3137  2.0858
 6710SOL    HW231590   4.183   4.717   7.682  0.1825 -0.4220  1.1648
 6711SOL     OW31591   3.714   1.469   8.339 -0.0846  0.1340 -0.2757
 6711SOL    HW131592   3.641   1.468   8.400 -0.7718  0.7855 -1.0857
 6711SOL    HW231593   3.670   1.477   8.254 -1.7589 -0.7776  0.5080
 6712SOL     OW31594   0.228   3.208   3.523 -0.0690  0.7992  0.1223
 6712SOL    HW131595   0.292   3.269   3.487  0.9621 -1.2446 -1.4481
 6712SOL    HW231596   0.160   3.262   3.483 -0.1559  0.6229  0.0311
 6713SOL     OW31597   2.772   3.680  16.245  0.1525  0.2375 -0.3263
 6713SOL    HW131598   2.812   3.595  16.229 -1.6849 -0.6275 -0.3282
 6713SOL    HW231599   2.710   3.659  16.315  0.4496  1.0980  0.2057
 6714SOL     OW31600   3.684   0.426   9.192  0.0293 -0.2984 -0.2051
 6714SOL    HW131601   3.775   0.421   9.220 -0.4348 -2.7769  0.8152
 6714SOL    HW231602   3.662   0.516   9.218 -2.9511 -1.1215  0.1684
 6715SOL     OW31603   0.754   3.118   8.814  0.4275  0.1257 -0.2607
 6715SOL    HW131604   0.827   3.106   8.874 -1.7519 -1.2003  2.1314
 6715SOL    HW231605   0.680   3.142   8.870  0.6126 -1.3019  0.5941
 6716SOL     OW31606   2.935   0.292   5.934  0.0497  0.9779  0.0719
 6716SOL    HW131607   2.985   0.337   6.001 -1.1031  0.3551  1.3424
 6716SOL    HW231608   2.883   0.225   5.979  1.3036 -0.4447 -0.5656
 6717SOL     OW31609   2.154   0.022   6.617 -0.7059 -0.5498 -0.1003
 6717SOL    HW131610   2.085   0.049   6.677  0.2800  1.1103  0.2845
 6717SOL    HW231611   2.197   0.107   6.607 -2.5037  0.3897  0.1255
 6718SOL     OW31612   2.993   3.884   1.760 -0.4149  0.3651  0.1876
 6718SOL    HW131613   3.061   3.853   1.820 -0.9504 -0.2674  0.4647
 6718SOL    HW231614   2.917   3.880   1.818 -1.3343 -1.9312 -1.1876
 6719SOL     OW31615   1.497   3.491   9.742 -0.6230  0.2637  0.0744
 6719SOL    HW131616   1.511   3.399   9.765  0.9401 -0.0678 -2.2057
 6719SOL    HW231617   1.461   3.523   9.825 -0.3964 -2.0004  1.0316
 6720SOL     OW31618   1.749   4.295   0.391 -0.2427  0.2863 -0.1729
 6720SOL    HW131619   1.661   4.289   0.356  0.0617  0.7517 -1.0004
 6720SOL    HW231620   1.789   4.208   0.386 -1.2612 -0.2340  0.7899
 6721SOL     OW31621   0.843   0.455   0.715 -0.0306 -0.2413  0.1395
 6721SOL    HW131622   0.873   0.541   0.684  1.4004 -0.7834  0.0367
 6721SOL    HW231623   0.801   0.418   0.637  1.3512 -2.0495  0.2548
 6722SOL     OW31624   0.683   4.135   0.473  0.5708 -0.1733  0.3056
 6722SOL    HW131625   0.628   4.080   0.417  1.0367  1.5265 -1.8279
 6722SOL    HW231626   0.760   4.081   0.489  0.2573 -0.4321  0.9461
 6723SOL     OW31627   1.974   2.782   8.988  0.5472 -0.1676  0.0004
 6723SOL    HW131628   2.029   2.848   9.031  1.7559  0.5609 -2.6124
 6723SOL    HW231629   2.026   2.703   9.005  2.5212  1.2793  0.7788
 6724SOL     OW31630   0.851   1.102   9.445 -0.6518  0.0205  0.2322
 6724SOL    HW131631   0.892   1.135   9.365 -0.7235 -0.6353 -0.0809
 6724SOL    HW231632   0.824   1.018   9.407  1.8773 -1.4574  1.7095
 6725SOL     OW31633   1.203   3.833   6.211  0.2057 -0.9360  0.3256
 6725SOL    HW131634   1.110   3.820   6.190 -0.4247  2.5932  0.9208
 6725SOL    HW231635   1.235   3.870   6.129 -0.6630 -1.4370 -0.2360
 6726SOL     OW31636   1.245   1.447   0.646  0.4354 -0.2146  0.1547
 6726SOL    HW131637   1.235   1.540   0.628  1.4631  0.2611  1.9995
 6726SOL    HW231638   1.185   1.413   0.580 -0.9866 -1.4448  2.0707
 6727SOL     OW31639   0.449   2.445  15.080  0.1911 -0.3573  0.5978
 6727SOL    HW131640   0.469   2.401  15.163  3.2141 -0.7221 -0.3048
 6727SOL    HW231641   0.409   2.526  15.110  0.6048  0.0947 -0.0691
 6728SOL     OW31642   2.827   2.275   6.305 -0.7464  0.0040  0.1739
 6728SOL    HW131643   2.821   2.336   6.378  3.3851 -1.2145  1.5565
 6728SOL    HW231644   2.812   2.342   6.238  0.3849  0.9436  0.8633
 6729SOL     OW31645   0.603   1.745   7.923 -0.1096  0.3357  0.7084
 6729SOL    HW131646   0.580   1.676   7.986  5.0314  1.4471  3.7474
 6729SOL    HW231647   0.618   1.811   7.991  2.0547  0.9633 -0.3818
 6730SOL     OW31648   1.947   1.192   5.834 -0.0029  0.2660 -0.3016
 6730SOL    HW131649   1.988   1.264   5.882 -0.2840  0.2855 -0.0941
 6730SOL    HW231650   1.977   1.208   5.745  2.1549 -1.6408  0.0897
 6731SOL     OW31651   3.259   4.254   5.152  0.0177 -0.1446  0.0681
 6731SOL    HW131652   3.301   4.237   5.236  0.5347  0.0347 -0.1515
 6731SOL    HW231653   3.168   4.277   5.172  0.1831 -0.4945  1.2191
 6732SOL     OW31654   4.653   0.291   2.185  0.3494 -0.1452 -0.1216
 6732SOL    HW131655   4.605   0.255   2.110  0.8766 -0.3290 -0.3732
 6732SOL    HW231656   4.605   0.374   2.186  2.0726  0.8373  0.0021
 6733SOL     OW31657   0.205   4.685   9.208 -0.1403  0.1411 -0.1123
 6733SOL    HW131658   0.215   0.019   9.285  2.6428 -1.1878  0.4713
 6733SOL    HW231659   0.188   4.597   9.243  0.4604  0.6719  1.5311
 6734SOL     OW31660   2.475   3.941   8.160 -1.0219 -0.1557  0.9232
 6734SOL    HW131661   2.485   3.854   8.123 -2.1408 -0.7914  2.1352
 6734SOL    HW231662   2.382   3.954   8.143 -0.6582  1.0066 -0.2337
 6735SOL     OW31663   2.950   1.244   9.023  0.1645 -0.6720  0.6229
 6735SOL    HW131664   2.906   1.217   9.103  2.1244 -0.0236  1.9374
 6735SOL    HW231665   2.890   1.225   8.951  3.4177  0.9837 -2.5470
 6736SOL     OW31666   2.374   1.242   2.579  0.3909  0.4020  0.2887
 6736SOL    HW131667   2.333   1.303   2.518 -0.6227  0.9780  1.5545
 6736SOL    HW231668   2.468   1.241   2.559  0.5753 -2.6652  1.3300
 6737SOL     OW31669   3.161   2.508   7.418  0.5450 -0.1674 -0.4619
 6737SOL    HW131670   3.082   2.559   7.399 -1.6316 -1.9195  4.0797
 6737SOL    HW231671   3.118   2.422   7.420 -0.3696  0.4458  4.7701
 6738SOL     OW31672   4.495   4.249  11.857  0.2520 -0.2067 -0.5486
 6738SOL    HW131673   4.543   4.326  11.826  0.9276 -1.3428 -2.3289
 6738SOL    HW231674   4.414   4.273  11.814  1.2104  1.5917 -1.3419
 6739SOL     OW31675   0.472   2.288   3.289 -0.7977 -0.3636  0.0474
 6739SOL    HW131676   0.557   2.256   3.320  0.0476  0.5240 -1.3756
 6739SOL    HW231677   0.503   2.365   3.241 -0.4577  0.7076  1.9859
 6740SOL     OW31678   1.671   3.894  10.687  0.4528  0.2218 -0.1828
 6740SOL    HW131679   1.634   3.960  10.628 -0.9358  1.1465  1.6943
 6740SOL    HW231680   1.731   3.946  10.740  0.7744 -2.3860  2.0091
 6741SOL     OW31681   2.697   4.208   7.420 -0.1124 -0.1389  0.1135
 6741SOL    HW131682   2.664   4.147   7.354 -0.0539 -0.2239  0.1632
 6741SOL    HW231683   2.676   4.165   7.503 -1.6270  1.1934  0.4102
 6742SOL     OW31684   0.900   1.002  11.658 -0.1965  0.7287  0.5747
 6742SOL    HW131685   0.995   1.004  11.666 -0.0327  2.8860 -1.9693
 6742SOL    HW231686   0.889   0.917  11.615  0.5889 -0.1395  2.0968
 6743SOL     OW31687   2.252   3.082   5.398 -0.1059  0.1856 -0.2587
 6743SOL    HW131688   2.204   3.063   5.478  1.0297  1.6447  0.7531
 6743SOL    HW231689   2.316   3.011   5.391  1.2832  1.5771 -1.5872
 6744SOL     OW31690   1.739   4.381   7.202 -0.6999 -0.5409  0.5855
 6744SOL    HW131691   1.719   4.293   7.233 -3.5592 -0.1082 -0.0338
 6744SOL    HW231692   1.825   4.371   7.161 -0.0836 -0.6364  1.8807
 6745SOL     OW31693   4.667   4.027   7.275  0.0637  0.6749 -0.1117
 6745SOL    HW131694   4.582   3.992   7.250  0.9435 -0.9354 -0.8995
 6745SOL    HW231695   4.648   4.120   7.281  0.1533  0.7112 -0.3762
 6746SOL     OW31696   1.889   4.671  16.828  0.2190  0.0186 -0.1300
 6746SOL    HW131697   1.965   0.008  16.833  0.7043 -0.6823  0.7914
 6746SOL    HW231698   1.824   0.016  16.809 -1.6273 -1.9011 -0.5583
 6747SOL     OW31699   1.446   1.678  13.322  0.2829  0.0043 -0.3086
 6747SOL    HW131700   1.520   1.618  13.314  0.5248  0.4461 -1.5692
 6747SOL    HW231701   1.416   1.671  13.231 -2.6553 -0.9897  0.7502
 6748SOL     OW31702   3.960   1.243   5.185  0.0871  0.4117 -0.0483
 6748SOL    HW131703   4.023   1.194   5.238 -0.0299  0.3108 -0.0030
 6748SOL    HW231704   3.932   1.168   5.132  1.2508  0.7146 -1.1045
 6749SOL     OW31705   3.028   1.534  12.829 -0.0810  0.1654 -0.5713
 6749SOL    HW131706   2.991   1.446  12.832 -1.1169  0.6567  0.9386
 6749SOL    HW231707   2.962   1.579  12.777  0.4441  0.6325 -0.8287
 6750SOL     OW31708   1.980   2.217   3.128  0.2782 -0.7825 -0.0269
 6750SOL    HW131709   1.961   2.280   3.198  1.7409 -1.8575  1.3329
 6750SOL    HW231710   2.041   2.158   3.171  1.0145  1.4144  1.9912
 6751SOL     OW31711   3.481   2.223   7.734 -0.5875  0.2310 -0.6768
 6751SOL    HW131712   3.414   2.280   7.696 -1.1967  0.9618  1.4882
 6751SOL    HW231713   3.486   2.248   7.826  2.3367 -0.5895 -0.5974
 6752SOL     OW31714   4.608   1.767  15.184  0.0500  0.0756 -0.3350
 6752SOL    HW131715   4.676   1.786  15.119  0.0245  0.2253 -0.3167
 6752SOL    HW231716   4.603   1.845  15.239  1.5246 -0.6031  0.7564
 6753SOL     OW31717   2.237   3.845   3.253  0.0806 -0.1986  0.1006
 6753SOL    HW131718   2.205   3.909   3.189  2.0065  1.6969  1.0250
 6753SOL    HW231719   2.232   3.762   3.206  0.2047 -0.9026  1.3276
 6754SOL     OW31720   3.324   3.575   4.883 -0.4518 -0.4767  0.1491
 6754SOL    HW131721   3.321   3.666   4.854  2.1388 -0.4320 -0.0415
 6754SOL    HW231722   3.383   3.535   4.819 -0.9770 -0.0907 -0.5700
 6755SOL     OW31723   4.060   1.579   7.015  0.1109  0.5789 -0.3340
 6755SOL    HW131724   4.046   1.672   7.032 -0.0368  0.5927 -0.5348
 6755SOL    HW231725   4.084   1.544   7.101 -2.6039 -0.2133  0.1174
 6756SOL     OW31726   1.994   0.944   6.015 -0.1982  0.8041 -0.0802
 6756SOL    HW131727   2.059   0.874   6.019 -1.8049 -0.7470 -0.9907
 6756SOL    HW231728   2.045   1.012   5.971  0.1495  1.1388  0.8471
 6757SOL     OW31729   0.930   3.348  17.311  0.6245  0.0207 -0.2606
 6757SOL    HW131730   0.929   3.371  17.404 -1.0733 -0.4519 -0.1603
 6757SOL    HW231731   0.948   3.254  17.310  2.9143  0.4504  1.5049
 6758SOL     OW31732   2.535   2.139  14.669 -0.8025 -0.0745  0.4435
 6758SOL    HW131733   2.559   2.072  14.733  0.6699 -0.4305 -0.4747
 6758SOL    HW231734   2.506   2.085  14.595  0.3073  0.8003 -0.6370
 6759SOL     OW31735   1.560   3.883   9.443 -0.0366  0.0351  0.1222
 6759SOL    HW131736   1.516   3.848   9.521 -2.8016 -0.2792 -1.5615
 6759SOL    HW231737   1.597   3.804   9.404  0.7315 -0.4121  1.7675
 6760SOL     OW31738   0.688   4.614   2.133  0.2432 -0.8846  0.2844
 6760SOL    HW131739   0.732   4.689   2.172  2.0974 -0.7576 -2.0995
 6760SOL    HW231740   0.609   4.624   2.187 -0.4430 -3.5127 -0.2367
 6761SOL     OW31741   4.325   2.902   9.501  0.2771  0.6915  0.4016
 6761SOL    HW131742   4.298   2.833   9.440  1.9574 -0.0960  0.5294
 6761SOL    HW231743   4.246   2.949   9.527  0.1608  0.8231 -0.1846
 6762SOL     OW31744   2.254   2.029   9.673  0.4437 -0.2845  0.3199
 6762SOL    HW131745   2.285   2.109   9.631  1.9183 -0.9555  0.1149
 6762SOL    HW231746   2.284   2.021   9.763  1.1908 -0.4135  0.0602
 6763SOL     OW31747   3.136   2.449   8.658 -0.2487 -0.1596  0.3320
 6763SOL    HW131748   3.091   2.524   8.621  0.5278  0.3836  0.4845
 6763SOL    HW231749   3.219   2.494   8.675  0.2065 -0.8990  0.0757
 6764SOL     OW31750   0.831   1.156   6.603  0.2186 -0.0503  0.1712
 6764SOL    HW131751   0.853   1.072   6.564  2.0981  0.0806  0.9512
 6764SOL    HW231752   0.784   1.129   6.682  0.6803 -0.7182  0.2196
 6765SOL     OW31753   3.108   2.281   1.993 -0.6583  0.0337  0.5252
 6765SOL    HW131754   3.098   2.197   1.948  1.1324 -0.7548  1.5953
 6765SOL    HW231755   3.092   2.344   1.924  2.2499  0.4315  0.1976
 6766SOL     OW31756   2.995   2.335  16.351 -0.6187 -0.2055  0.0432
 6766SOL    HW131757   3.052   2.325  16.274 -0.1840 -0.3517  0.3835
 6766SOL    HW231758   2.977   2.428  16.365 -0.6126 -0.5929  2.5801
 6767SOL     OW31759   4.521   2.824   6.142 -0.6273 -0.6000  0.5434
 6767SOL    HW131760   4.587   2.758   6.127 -0.5668 -0.3976 -0.0598
 6767SOL    HW231761   4.509   2.865   6.057  1.1341  0.8485  0.9963
 6768SOL     OW31762   4.135   1.132   8.309  0.3681  0.2781  0.3054
 6768SOL    HW131763   4.128   1.099   8.219 -0.0417 -1.6745  1.0516
 6768SOL    HW231764   4.043   1.146   8.333  0.5127  0.5900  0.6772
 6769SOL     OW31765   1.966   3.526  16.228  0.1660 -0.2595 -0.8679
 6769SOL    HW131766   2.003   3.564  16.148  0.0954  3.5400  0.9074
 6769SOL    HW231767   1.885   3.485  16.197 -0.9443  1.3126 -0.0204
 6770SOL     OW31768   2.039   1.592   6.179  0.2213  0.5713  0.4048
 6770SOL    HW131769   1.954   1.636   6.179  0.5616  1.2178  1.1677
 6770SOL    HW231770   2.032   1.525   6.246 -2.5214  0.8474  0.4053
 6771SOL     OW31771   0.737   3.199   6.263  0.3406  0.0039 -0.3571
 6771SOL    HW131772   0.796   3.222   6.191 -0.8498  1.4959 -0.8633
 6771SOL    HW231773   0.722   3.277   6.317  0.2757  0.0555 -0.4500
 6772SOL     OW31774   4.053   2.769   4.698  0.2682 -0.1224  0.2192
 6772SOL    HW131775   4.054   2.673   4.698 -0.4169 -0.1291 -1.7054
 6772SOL    HW231776   3.991   2.784   4.626  1.7210 -0.7857 -1.1784
 6773SOL     OW31777   2.595   3.185   5.998  0.7235 -0.4256 -0.1556
 6773SOL    HW131778   2.564   3.256   6.052 -1.3458 -1.9306  0.6292
 6773SOL    HW231779   2.634   3.123   6.060 -1.0657 -0.7468  0.6349
 6774SOL     OW31780   4.494   2.395   1.683 -0.4858  0.1976  0.2514
 6774SOL    HW131781   4.424   2.345   1.724 -0.3438 -0.0145  0.2317
 6774SOL    HW231782   4.434   2.450   1.632  1.1141  1.2494 -0.5101
 6775SOL     OW31783   0.589   2.715   2.688  0.1144  0.1522  0.2814
 6775SOL    HW131784   0.518   2.715   2.751  0.2524  2.8940  0.4460
 6775SOL    HW231785   0.661   2.744   2.744  1.6615 -2.7999 -0.1671
 6776SOL     OW31786   1.248   2.623   1.380 -0.1205  0.2427 -0.0852
 6776SOL    HW131787   1.191   2.579   1.317  1.9765 -0.8285 -1.2457
 6776SOL    HW231788   1.277   2.700   1.331 -1.4497  0.9828  0.2999
 6777SOL     OW31789   1.123   3.930   3.864 -0.4765 -0.5765  0.2060
 6777SOL    HW131790   1.099   3.870   3.936 -0.4073  1.1080  1.6294
 6777SOL    HW231791   1.182   3.979   3.921 -3.2937  0.0395  2.5727
 6778SOL     OW31792   0.823   2.261   8.580 -0.2735 -0.2243 -0.6246
 6778SOL    HW131793   0.872   2.319   8.522  1.7992 -1.0882  0.2698
 6778SOL    HW231794   0.838   2.176   8.541 -1.1699 -0.3906 -0.6192
 6779SOL     OW31795   1.993   3.353   4.023 -0.1443 -0.1844 -0.8804
 6779SOL    HW131796   2.023   3.303   3.947 -1.4633  0.6550 -1.9541
 6779SOL    HW231797   2.080   3.390   4.040 -0.7992 -0.2147  2.3742
 6780SOL     OW31798   0.693   0.448   4.957 -0.3746 -0.1239 -0.1059
 6780SOL    HW131799   0.701   0.355   4.936  0.0025 -0.2313  0.5255
 6780SOL    HW231800   0.598   0.454   4.948 -0.2715 -1.3352 -2.1054
 6781SOL     OW31801   3.581   0.351   5.900 -0.3964 -0.0328 -0.2527
 6781SOL    HW131802   3.599   0.417   5.833  2.8426  0.4862  1.1496
 6781SOL    HW231803   3.665   0.352   5.947  0.2990 -0.6313 -1.4856
 6782SOL     OW31804   3.821   3.507   2.331  0.4636  0.1633  0.2577
 6782SOL    HW131805   3.835   3.587   2.279  1.8611  0.3418  0.9111
 6782SOL    HW231806   3.855   3.438   2.273  1.1683  0.4108  0.3774
 6783SOL     OW31807   4.068   2.904  12.359 -0.3682  0.7552 -0.4934
 6783SOL    HW131808   3.974   2.897  12.345 -0.6444  2.5209  0.4775
 6783SOL    HW231809   4.081   2.870  12.448  1.2755 -0.1834 -1.0804
 6784SOL     OW31810   3.207   3.415  16.271  0.1273  0.1521  0.7059
 6784SOL    HW131811   3.250   3.337  16.305  1.3786  0.8952  0.8191
 6784SOL    HW231812   3.231   3.406  16.179 -1.7476  0.8024  0.1441
 6785SOL     OW31813   0.682   0.417   1.151  0.1436  0.1609 -0.2039
 6785SOL    HW131814   0.653   0.508   1.161 -3.5480 -0.9310 -1.2739
 6785SOL    HW231815   0.601   0.388   1.110 -0.7113 -1.7098  2.8696
 6786SOL     OW31816   0.483   3.100  17.532 -0.4517 -0.4301  0.2367
 6786SOL    HW131817   0.397   3.099  17.489 -0.5220 -2.1326  0.4000
 6786SOL    HW231818   0.470   3.045  17.610 -1.4527  0.1951  0.5153
 6787SOL     OW31819   0.048   4.680   2.389 -0.3943 -0.2430 -0.2260
 6787SOL    HW131820   0.065   4.649   2.300  0.5504  0.0930 -0.1641
 6787SOL    HW231821   0.134   4.696   2.428  0.0979 -2.9077 -0.2085
 6788SOL     OW31822   1.035   4.062  15.336 -0.9698 -0.4173  0.0004
 6788SOL    HW131823   0.950   4.058  15.380  0.5388 -0.8697  2.9033
 6788SOL    HW231824   1.044   3.971  15.308 -0.6856  0.0843 -1.5082
 6789SOL     OW31825   3.335   1.240  11.579  0.6601 -0.6347  0.6237
 6789SOL    HW131826   3.380   1.319  11.609  0.8976  0.0124 -1.4367
 6789SOL    HW231827   3.396   1.180  11.622  0.2513 -1.3467  0.2054
 6790SOL     OW31828   1.677   1.088   9.253 -0.0789 -0.0698 -0.2591
 6790SOL    HW131829   1.637   1.005   9.228 -0.7285 -0.8412  3.4240
 6790SOL    HW231830   1.757   1.070   9.302 -0.5625 -0.3281  0.4272
 6791SOL     OW31831   1.927   2.955   2.248 -0.3035 -0.1805  0.7449
 6791SOL    HW131832   1.883   2.986   2.327  0.7965  0.5726  1.0599
 6791SOL    HW231833   1.870   2.885   2.217 -1.9532  1.4444  0.0629
 6792SOL     OW31834   1.665   0.849  12.851  0.4253  0.2146 -0.1204
 6792SOL    HW131835   1.580   0.806  12.850  0.8614 -0.6425 -0.6339
 6792SOL    HW231836   1.674   0.863  12.757 -1.1822 -3.2270 -0.7778
 6793SOL     OW31837   2.727   2.589  12.895  0.1267 -0.4255  0.5320
 6793SOL    HW131838   2.761   2.618  12.811  0.1548 -0.1516  0.6391
 6793SOL    HW231839   2.698   2.503  12.864  2.5402 -0.1264 -2.5978
 6794SOL     OW31840   4.571   0.399   6.058 -0.0444 -0.1732 -0.2068
 6794SOL    HW131841   4.620   0.451   6.122 -1.1128 -0.3934  0.7925
 6794SOL    HW231842   4.498   0.453   6.027 -1.7859 -1.1259  2.1674
 6795SOL     OW31843   0.898   1.298   6.006  0.6487  0.5682 -0.0389
 6795SOL    HW131844   0.902   1.392   6.025 -1.1956  0.5297  0.5041
 6795SOL    HW231845   0.991   1.288   6.029  0.3170 -0.9050  0.6148
 6796SOL     OW31846   0.240   0.653  12.588 -0.2974  0.2355  0.0882
 6796SOL    HW131847   0.286   0.618  12.664 -1.2337 -0.7078  0.2147
 6796SOL    HW231848   0.187   0.721  12.631  1.6678  2.4273 -0.9442
 6797SOL     OW31849   1.094   2.581   1.138 -0.6846 -0.5354  0.2138
 6797SOL    HW131850   1.114   2.565   1.045  0.7107 -3.7987  1.0773
 6797SOL    HW231851   1.005   2.614   1.133 -0.1827  0.8518  0.4203
 6798SOL     OW31852   1.803   0.047   0.293 -0.5385  0.2688  0.6740
 6798SOL    HW131853   1.744   0.075   0.223  0.9446  0.2556 -0.5811
 6798SOL    HW231854   1.887   0.050   0.247 -0.5405  0.1960  0.6653
 6799SOL     OW31855   0.645   1.291   1.180 -0.5601  0.0177  0.0261
 6799SOL    HW131856   0.696   1.210   1.177  0.4024  0.6179  0.2702
 6799SOL    HW231857   0.568   1.264   1.230  0.4426 -1.4711  0.7666
 6800SOL     OW31858   3.095   1.638   0.632  0.9647  0.1214 -0.0649
 6800SOL    HW131859   3.082   1.703   0.564  2.2413 -0.7428 -1.1241
 6800SOL    HW231860   3.190   1.628   0.639  1.1052  0.4740 -1.5327
 6801SOL     OW31861   2.151   4.323   5.241  0.0013 -0.0657  0.7547
 6801SOL    HW131862   2.206   4.271   5.300 -0.7640 -2.1972 -0.3971
 6801SOL    HW231863   2.078   4.263   5.227  2.4324 -3.1830  1.3391
 6802SOL     OW31864   3.430   4.240  16.494 -0.1541  0.0112  0.8322
 6802SOL    HW131865   3.372   4.201  16.559  0.4732  2.1642  2.6683
 6802SOL    HW231866   3.359   4.266  16.435 -0.4196  0.1318  1.2077
 6803SOL     OW31867   2.268   4.447  17.663  0.4901  0.0038  0.2801
 6803SOL    HW131868   2.261   4.374  17.601 -1.8244  0.0538  0.4690
 6803SOL    HW231869   2.331   4.507  17.623 -0.9984  0.7413 -0.9753
 6804SOL     OW31870   2.105   0.278   3.018 -0.0280 -0.1164 -0.1621
 6804SOL    HW131871   2.072   0.192   2.992  0.8458 -0.0240 -1.5639
 6804SOL    HW231872   2.057   0.339   2.962  1.9654  0.2835 -1.4283
 6805SOL     OW31873   4.589   1.680   6.365 -0.1988  0.0139  0.5325
 6805SOL    HW131874   4.557   1.685   6.455  2.0821  3.2258  1.1598
 6805SOL    HW231875   4.547   1.599   6.334 -2.6709  0.9632  1.3747
 6806SOL     OW31876   0.155   1.002   1.511 -0.7086 -0.2348  0.0345
 6806SOL    HW131877   0.134   0.963   1.426 -1.7484  1.5107 -0.5044
 6806SOL    HW231878   0.104   1.081   1.493 -0.3470  0.1350  0.6165
 6807SOL     OW31879   1.864   4.242   6.058  0.3306  0.2954 -0.3574
 6807SOL    HW131880   1.793   4.284   6.105 -0.7902 -1.0865 -0.8234
 6807SOL    HW231881   1.884   4.307   5.991  1.5158  0.9570  0.6381
 6808SOL     OW31882   2.690   3.018  17.175  0.3079  0.3581 -0.2209
 6808SOL    HW131883   2.633   3.094  17.188 -1.0691 -0.8977  1.2018
 6808SOL    HW231884   2.697   2.990  17.267  1.5219 -2.5208 -1.1954
 6809SOL     OW31885   2.422   3.217   4.849  0.0555 -0.0686  0.3663
 6809SOL    HW131886   2.499   3.185   4.802  0.7945  1.9658  0.1496
 6809SOL    HW231887   2.456   3.220   4.939 -1.6089 -0.0518  1.0059
 6810SOL     OW31888   2.477   3.315  14.135  0.4662  0.1095 -0.2939
 6810SOL    HW131889   2.473   3.261  14.056 -1.2048 -0.7274  0.3655
 6810SOL    HW231890   2.408   3.378  14.112  0.8125  0.9042  0.8486
 6811SOL     OW31891   0.141   1.146   5.233 -0.7081  0.0257  0.4055
 6811SOL    HW131892   0.172   1.072   5.286 -0.1570  0.1374  0.2452
 6811SOL    HW231893   0.193   1.213   5.277  0.1330 -0.4043  0.0782
 6812SOL     OW31894   3.867   2.713   9.278 -0.6141 -0.0340  0.2282
 6812SOL    HW131895   3.772   2.717   9.283 -0.5915  1.5139 -0.6551
 6812SOL    HW231896   3.874   2.654   9.354 -1.6732  0.7316  0.9188
 6813SOL     OW31897   1.849   3.870   7.524 -0.5093  0.3238  0.4495
 6813SOL    HW131898   1.756   3.855   7.541 -0.5462 -1.3734 -1.1285
 6813SOL    HW231899   1.853   3.962   7.499  2.1799 -0.3234 -1.4664
 6814SOL     OW31900   2.372   0.434  13.923  0.0717 -1.0502 -0.2354
 6814SOL    HW131901   2.304   0.419  13.989 -0.9695  3.5500 -0.2895
 6814SOL    HW231902   2.447   0.481  13.961  1.0870  0.0521 -3.6057
 6815SOL     OW31903   4.319   2.627   1.693  0.3597  0.4354 -0.0404
 6815SOL    HW131904   4.391   2.649   1.753 -1.7132  1.2327  2.1592
 6815SOL    HW231905   4.310   2.692   1.624 -0.4569  1.0542  0.6500
 6816SOL     OW31906   2.775   3.940  10.067 -0.2557 -0.1331  0.6356
 6816SOL    HW131907   2.801   3.901  10.151 -0.1889 -0.2137  0.5766
 6816SOL    HW231908   2.754   4.028  10.100  2.7190  0.5864  0.5755
 6817SOL     OW31909   1.591   1.674   3.048 -0.1967  0.0544 -0.0125
 6817SOL    HW131910   1.539   1.614   3.102 -1.4912  1.6776  0.5300
 6817SOL    HW231911   1.551   1.759   3.063 -1.0744 -0.2928 -0.3989
 6818SOL     OW31912   2.739   2.256   6.876 -0.4382  0.0348 -0.0393
 6818SOL    HW131913   2.721   2.274   6.969  0.2235  0.0202  0.0921
 6818SOL    HW231914   2.822   2.299   6.856  0.1763 -1.4277 -0.6379
 6819SOL     OW31915   4.081   4.160   4.151 -0.1617  0.1418 -0.2748
 6819SOL    HW131916   4.052   4.070   4.166 -1.5735  0.0721 -3.3960
 6819SOL    HW231917   4.141   4.174   4.224  0.8514 -3.2898 -0.4645
 6820SOL     OW31918   1.521   1.106   1.765 -0.1900  0.4204 -0.1894
 6820SOL    HW131919   1.569   1.024   1.772 -0.3447  0.4588  1.2905
 6820SOL    HW231920   1.543   1.129   1.675  2.1529 -1.5828 -0.1134
 6821SOL     OW31921   2.434   1.693   9.197  0.1346 -0.0598  0.0447
 6821SOL    HW131922   2.435   1.718   9.289  1.0869 -1.7187  0.4785
 6821SOL    HW231923   2.494   1.755   9.156 -1.4015  1.7509  0.5371
 6822SOL     OW31924   0.984   4.444   7.758 -0.2097  0.4224 -0.1965
 6822SOL    HW131925   1.075   4.415   7.769 -0.1535  0.6449 -0.0717
 6822SOL    HW231926   0.986   4.478   7.669  3.5300 -0.0302 -0.2739
 6823SOL     OW31927   1.200   0.876  13.924  0.4763  0.0469  0.1245
 6823SOL    HW131928   1.247   0.897  13.843  0.3922 -0.6602 -0.1119
 6823SOL    HW231929   1.193   0.780  13.922 -0.4690  0.1547 -2.9070
 6824SOL     OW31930   4.141   2.947  13.730 -0.5655 -0.6256 -0.1799
 6824SOL    HW131931   4.124   2.947  13.825  1.4607 -1.2231  0.1866
 6824SOL    HW231932   4.101   2.869  13.691  0.3802  0.0137 -2.3814
 6825SOL     OW31933   4.715   1.528  16.862  0.1659  0.0507 -0.4494
 6825SOL    HW131934   0.014   1.589  16.792 -0.9748 -0.4912 -1.2758
 6825SOL    HW231935   4.623   1.554  16.869  1.1780  2.5749  3.4839
 6826SOL     OW31936   4.195   3.692  16.780 -0.2449  0.1296 -0.1111
 6826SOL    HW131937   4.182   3.775  16.825  0.8746 -0.2725  0.9665
 6826SOL    HW231938   4.288   3.699  16.759 -0.2059  0.7445  0.2604
 6827SOL     OW31939   3.453   2.901  14.282  0.0617 -0.1643  0.3033
 6827SOL    HW131940   3.443   2.906  14.377 -1.7720 -2.2133  0.2168
 6827SOL    HW231941   3.537   2.853  14.285  0.4717  0.6576  1.9823
 6828SOL     OW31942   0.846   2.055   2.024  0.1603 -0.6342  0.2618
 6828SOL    HW131943   0.922   2.074   2.079  0.4313  1.0924 -0.7161
 6828SOL    HW231944   0.860   2.101   1.942  1.8599  0.2348  1.0427
 6829SOL     OW31945   0.399   1.737  10.277  0.8866 -0.0669 -0.2276
 6829SOL    HW131946   0.372   1.813  10.329 -1.7649 -2.0279  1.2546
 6829SOL    HW231947   0.317   1.689  10.269  2.0009 -2.2399  1.6128
 6830SOL     OW31948   0.649   4.442  17.462  0.2493  0.0471  0.0684
 6830SOL    HW131949   0.724   4.500  17.466 -0.6897  1.1804  1.0907
 6830SOL    HW231950   0.667   4.355  17.499 -1.9842 -0.1587  0.7008
 6831SOL     OW31951   3.966   1.963   3.533 -0.0713  0.3293 -0.2946
 6831SOL    HW131952   4.050   2.007   3.523  0.9028 -1.2689  0.7283
 6831SOL    HW231953   3.984   1.879   3.490 -1.6409 -0.5680  0.7784
 6832SOL     OW31954   2.449   4.125   2.830  0.7585  0.4405 -0.1191
 6832SOL    HW131955   2.400   4.192   2.783  2.0112  1.1527 -0.4114
 6832SOL    HW231956   2.427   4.039   2.794  1.3631  0.2008  0.0696
 6833SOL     OW31957   0.747   1.878  13.276  0.2107  0.3398  0.4593
 6833SOL    HW131958   0.762   1.892  13.182 -2.4328  2.8512  0.4121
 6833SOL    HW231959   0.662   1.917  13.293  0.3175  0.6837  0.2158
 6834SOL     OW31960   2.955   1.752   7.954  0.1491  0.1488 -0.3698
 6834SOL    HW131961   2.943   1.658   7.967 -0.6538  0.1734 -0.9375
 6834SOL    HW231962   2.979   1.787   8.040 -0.9580 -1.7837  0.7374
 6835SOL     OW31963   0.291   2.636   5.119 -0.3127 -0.0936 -0.1018
 6835SOL    HW131964   0.273   2.720   5.162 -2.1436  0.1152 -1.2923
 6835SOL    HW231965   0.225   2.587   5.166 -3.0263  2.4008 -1.2921
 6836SOL     OW31966   1.458   1.690   9.520 -0.4763 -0.2350 -0.3808
 6836SOL    HW131967   1.371   1.652   9.529  0.4056 -1.9969  0.6634
 6836SOL    HW231968   1.460   1.734   9.606  0.2563  1.6322 -1.3445
 6837SOL     OW31969   3.895   3.461   8.682  0.0690 -0.0502 -0.5142
 6837SOL    HW131970   3.948   3.538   8.660  0.2651 -0.3559 -1.1135
 6837SOL    HW231971   3.855   3.480   8.767  0.4800 -0.3346 -0.2625
 6838SOL     OW31972   2.842   1.597   6.722  0.2148  0.1113  0.7354
 6838SOL    HW131973   2.876   1.635   6.641  1.3313  2.0400  2.1023
 6838SOL    HW231974   2.927   1.583   6.765  0.5318 -0.0070  0.0716
 6839SOL     OW31975   2.983   4.050   7.000  0.0799 -0.1386 -0.3234
 6839SOL    HW131976   3.023   4.025   6.917  0.6609 -1.1895  0.2741
 6839SOL    HW231977   3.057   4.068   7.058  0.0202 -1.0527  0.0253
 6840SOL     OW31978   4.428   2.235  13.633  0.3279  0.0104  0.2534
 6840SOL    HW131979   4.400   2.292  13.561 -1.8920 -1.1382  0.2082
 6840SOL    HW231980   4.393   2.283  13.708 -0.0024 -0.7636  0.5903
 6841SOL     OW31981   4.651   2.460   7.687 -0.6729 -0.3009 -0.3348
 6841SOL    HW131982   4.657   2.410   7.768 -4.0023  0.2853  0.2824
 6841SOL    HW231983   4.558   2.447   7.668 -0.0756 -2.4292 -1.8282
 6842SOL     OW31984   3.748   0.258  12.301  0.2403  0.0785 -0.5544
 6842SOL    HW131985   3.720   0.187  12.360  0.0037 -0.2410 -1.0570
 6842SOL    HW231986   3.842   0.241  12.310  0.2786  0.5090 -0.1523
 6843SOL     OW31987   1.065   0.981   7.213 -0.1155 -0.3465  0.3154
 6843SOL    HW131988   1.081   1.010   7.303 -0.4483  2.2441 -0.4567
 6843SOL    HW231989   1.117   1.045   7.163  2.4981 -1.2539  1.8474
 6844SOL     OW31990   0.311   1.334  12.419  0.6931 -0.0193 -0.1101
 6844SOL    HW131991   0.345   1.299  12.337  0.2557 -0.0630 -0.2746
 6844SOL    HW231992   0.218   1.315  12.409  1.0897 -2.3522  0.7437
 6845SOL     OW31993   0.981   2.772   3.098 -0.2663 -0.1056 -0.1857
 6845SOL    HW131994   0.998   2.840   3.163  0.8175 -2.2055  1.7142
 6845SOL    HW231995   1.062   2.722   3.096 -1.3605 -1.8741  0.0431
 6846SOL     OW31996   2.798   3.916   6.462  0.3521 -0.7139  0.1434
 6846SOL    HW131997   2.754   3.991   6.503  2.6113  0.8406 -0.2846
 6846SOL    HW231998   2.765   3.914   6.372  2.5533 -0.0039 -0.6670
 6847SOL     OW31999   2.934   4.166   4.904  0.3823 -0.0335  0.3219
 6847SOL    HW132000   3.016   4.139   4.946  1.8647  1.8646 -1.3730
 6847SOL    HW232001   2.860   4.130   4.954 -0.2480  1.8575  0.7584
 6848SOL     OW32002   1.428   1.001   5.497 -0.1773  0.6197  0.1072
 6848SOL    HW132003   1.430   1.097   5.487 -1.2702  0.5135 -1.1179
 6848SOL    HW232004   1.431   0.998   5.593  0.0708  1.4858  0.1282
 6849SOL     OW32005   4.498   4.389   7.845 -0.7014 -0.5368  0.3703
 6849SOL    HW132006   4.493   4.336   7.924 -1.0536  0.9279  1.3281
 6849SOL    HW232007   4.479   4.473   7.887 -1.2424 -0.7981  0.6465
 6850SOL     OW32008   3.070   1.378   5.290 -0.1010  0.3130  0.4230
 6850SOL    HW132009   3.145   1.320   5.297  1.0063  1.6952 -0.1035
 6850SOL    HW232010   3.109   1.463   5.272 -1.7020  0.3671 -2.7290
 6851SOL     OW32011   2.628   4.150   7.660  0.2782  0.1116 -0.3312
 6851SOL    HW132012   2.585   4.066   7.668  0.4825 -0.1532 -1.9412
 6851SOL    HW232013   2.594   4.185   7.742 -0.3968  1.4457 -1.1763
 6852SOL     OW32014   1.577   4.336   3.709 -0.4528  0.7101  0.1255
 6852SOL    HW132015   1.641   4.401   3.677 -0.3524  0.4857 -0.1265
 6852SOL    HW232016   1.601   4.273   3.642  1.0176  1.5609 -0.1612
 6853SOL     OW32017   1.646   4.163   1.868  0.0087 -0.7672 -0.2310
 6853SOL    HW132018   1.597   4.199   1.794  2.2865 -0.8594 -1.7733
 6853SOL    HW232019   1.736   4.186   1.844 -0.1478  1.1523  1.0057
 6854SOL     OW32020   2.436   1.576   4.534 -0.1506  0.7900 -0.6391
 6854SOL    HW132021   2.497   1.505   4.515  0.6489  1.2843  0.0770
 6854SOL    HW232022   2.360   1.543   4.486  0.0579 -0.5715 -0.0222
 6855SOL     OW32023   0.897   3.370   4.000  0.1871 -0.3492  0.1826
 6855SOL    HW132024   0.978   3.381   4.051 -0.4668 -0.1500  1.1731
 6855SOL    HW232025   0.915   3.412   3.915 -0.3887 -1.8771 -0.6935
 6856SOL     OW32026   3.074   2.998  10.480  0.1480 -0.1371 -0.4196
 6856SOL    HW132027   2.988   2.964  10.457 -0.5681  0.9244  0.6921
 6856SOL    HW232028   3.057   3.036  10.566 -0.2360 -1.6519  0.1637
 6857SOL     OW32029   0.985   3.382   7.927 -0.0556 -0.2781  0.0676
 6857SOL    HW132030   1.012   3.438   8.000  0.2881  0.2202 -0.4423
 6857SOL    HW232031   1.032   3.303   7.952 -1.8772 -1.8052 -1.3394
 6858SOL     OW32032   3.447   0.355   5.405  0.2893  0.0655 -0.4001
 6858SOL    HW132033   3.504   0.408   5.461 -0.1831  1.3707 -1.1501
 6858SOL    HW232034   3.363   0.402   5.405 -1.6969 -3.4810  1.9140
 6859SOL     OW32035   1.821   4.477   7.938  0.6600  0.0561 -0.0074
 6859SOL    HW132036   1.756   4.514   7.997  0.4381  2.0187 -1.4880
 6859SOL    HW232037   1.773   4.405   7.897 -0.1538  0.4536  0.2568
 6860SOL     OW32038   3.673   1.327   4.300  0.2064  0.0855 -0.1064
 6860SOL    HW132039   3.677   1.418   4.330  4.2676 -0.2693  0.5112
 6860SOL    HW232040   3.578   1.319   4.308  0.0912  1.0259 -0.5084
 6861SOL     OW32041   2.423   1.225   3.708 -0.6655  0.2363  0.1519
 6861SOL    HW132042   2.368   1.218   3.786  3.0179  0.9169  2.8385
 6861SOL    HW232043   2.363   1.231   3.634  0.2489  0.4762 -0.5722
 6862SOL     OW32044   0.198   3.490   0.676 -0.3014 -0.0410  0.4985
 6862SOL    HW132045   0.113   3.510   0.716 -1.1184 -3.6526  0.5356
 6862SOL    HW232046   0.239   3.577   0.676  0.9649 -0.6352  1.0108
 6863SOL     OW32047   2.999   2.180  17.232 -0.3396 -0.0868 -0.1764
 6863SOL    HW132048   2.960   2.109  17.181  3.1025 -2.6889  0.7081
 6863SOL    HW232049   3.066   2.222  17.179 -0.3011  1.9728  1.4886
 6864SOL     OW32050   3.253   4.510   1.906  0.0772  0.0738 -0.3470
 6864SOL    HW132051   3.222   4.444   1.844 -0.0647  0.6836 -0.9252
 6864SOL    HW232052   3.229   4.588   1.856  1.6713 -0.4415 -1.9053
 6865SOL     OW32053   0.402   2.900   3.693  0.3290 -0.0802  0.2917
 6865SOL    HW132054   0.328   2.943   3.735 -2.1115 -3.2541 -0.7544
 6865SOL    HW232055   0.391   2.807   3.713 -0.9811  0.6738  2.9580
 6866SOL     OW32056   3.407   2.598   6.598  0.3687  0.1445 -0.4097
 6866SOL    HW132057   3.379   2.612   6.508  1.0015  2.0216 -0.3147
 6866SOL    HW232058   3.329   2.625   6.646 -1.0984 -1.0519 -2.1371
 6867SOL     OW32059   2.430   4.214  10.035  0.2081 -0.5195  0.5454
 6867SOL    HW132060   2.432   4.122  10.008  1.6073  0.4717 -2.7286
 6867SOL    HW232061   2.525   4.222  10.035  0.0912  0.6254 -2.8923
 6868SOL     OW32062   2.391   0.316  10.434  0.2157  0.6683  0.4295
 6868SOL    HW132063   2.397   0.399  10.388 -0.7602  0.5386  0.0552
 6868SOL    HW232064   2.485   0.297  10.436 -0.1537 -1.2043 -0.1596
 6869SOL     OW32065   2.282   0.817   4.135  0.9293  0.1063  0.2585
 6869SOL    HW132066   2.377   0.828   4.143  0.9361  1.9062 -2.2422
 6869SOL    HW232067   2.278   0.756   4.061  1.8727  1.5422 -0.9843
 6870SOL     OW32068   0.441   1.308   4.363  0.4981 -0.1050  0.1069
 6870SOL    HW132069   0.486   1.349   4.289  0.7411  2.5710  1.7429
 6870SOL    HW232070   0.350   1.318   4.336  0.3779  0.7411  0.8351
 6871SOL     OW32071   2.168   2.157   8.837  0.2611 -0.3740 -0.3420
 6871SOL    HW132072   2.227   2.153   8.913 -0.6047  0.0375  0.3596
 6871SOL    HW232073   2.231   2.144   8.766  1.3408  1.1990  0.3362
 6872SOL     OW32074   0.078   2.244  14.645 -0.1803  0.4515 -0.6456
 6872SOL    HW132075   0.072   2.149  14.657  0.0047  0.6821  1.2634
 6872SOL    HW232076   0.069   2.238  14.550 -2.6481  3.6732 -0.5924
 6873SOL     OW32077   0.764   2.633   5.652  0.1653  0.2182  0.7224
 6873SOL    HW132078   0.751   2.584   5.734 -1.1302 -0.3110  0.1993
 6873SOL    HW232079   0.791   2.718   5.688 -1.7792  1.6129 -1.1411
 6874SOL     OW32080   1.018   1.509   3.172  0.2763  0.0343 -0.3130
 6874SOL    HW132081   1.094   1.469   3.214 -0.3584 -1.6078 -0.7133
 6874SOL    HW232082   1.059   1.574   3.115  1.9576  0.5984  1.5564
 6875SOL     OW32083   4.396   2.532   8.442  0.7197  0.3153 -0.4321
 6875SOL    HW132084   4.472   2.523   8.384  3.6044 -0.7750  3.5527
 6875SOL    HW232085   4.346   2.460   8.403 -1.1179  2.7637 -2.5338
 6876SOL     OW32086   3.292   3.680   8.272  0.0397  0.3512  0.1396
 6876SOL    HW132087   3.197   3.687   8.263 -0.0298 -0.0295  0.5600
 6876SOL    HW232088   3.294   3.600   8.325  3.3125  0.3019 -0.0236
 6877SOL     OW32089   0.887   4.395   3.165  0.5120 -0.1849  0.3632
 6877SOL    HW132090   0.953   4.434   3.107  1.7247 -1.3796  0.9237
 6877SOL    HW232091   0.923   4.432   3.246 -0.0846  0.2855  0.4134
 6878SOL     OW32092   3.639   3.132   5.702 -0.9161 -0.4951  0.1183
 6878SOL    HW132093   3.572   3.169   5.760 -1.0512 -0.5707  0.0122
 6878SOL    HW232094   3.658   3.044   5.732 -0.2717  0.2635  1.8885
 6879SOL     OW32095   2.173   2.898   8.388  0.0748  0.3017  0.1993
 6879SOL    HW132096   2.202   2.957   8.318 -1.3242  2.1903  1.2326
 6879SOL    HW232097   2.091   2.941   8.411  0.5814  2.4561 -2.0038
 6880SOL     OW32098   3.424   1.851   3.119  0.1221 -0.2446 -0.3621
 6880SOL    HW132099   3.377   1.790   3.175  0.7186  0.7573  1.2219
 6880SOL    HW232100   3.394   1.942   3.129 -2.0622 -1.1488  1.1709
 6881SOL     OW32101   3.898   3.017   5.448 -0.1788 -0.3070 -0.5887
 6881SOL    HW132102   3.920   3.036   5.357 -1.3140 -1.7917 -1.1705
 6881SOL    HW232103   3.929   2.927   5.457 -1.2902 -0.5981  0.2306
 6882SOL     OW32104   2.399   0.047   0.167 -0.4243  0.0826 -0.2873
 6882SOL    HW132105   2.338   0.118   0.191  3.1518  2.2887  2.2196
 6882SOL    HW232106   2.362   4.687   0.201  1.6417 -0.0623  1.6364
 6883SOL     OW32107   4.399   2.701  16.922  0.0377  0.4961  0.6866
 6883SOL    HW132108   4.431   2.654  16.846 -0.6530  0.3701  0.4731
 6883SOL    HW232109   4.406   2.637  16.993 -1.2946  0.0612  0.4362
 6884SOL     OW32110   3.758   2.161   7.839  0.0057  0.1627 -0.0063
 6884SOL    HW132111   3.822   2.108   7.792  0.1503  0.6799 -0.3895
 6884SOL    HW232112   3.685   2.158   7.777 -0.6377  1.2497  0.6825
 6885SOL     OW32113   2.204   3.251  17.382  0.3617 -0.1471 -0.1805
 6885SOL    HW132114   2.256   3.235  17.460 -1.5926 -3.0043  0.5701
 6885SOL    HW232115   2.159   3.170  17.355 -0.3233  0.9946 -2.4527
 6886SOL     OW32116   1.707   1.938   5.485  0.4789 -0.3227 -0.4199
 6886SOL    HW132117   1.704   1.911   5.576 -1.3590  3.0427  0.5380
 6886SOL    HW232118   1.613   1.925   5.470  0.5456 -1.4334  0.2206
 6887SOL     OW32119   2.532   4.653  15.089  0.4754  0.0571  0.5420
 6887SOL    HW132120   2.440   4.669  15.109 -0.0413 -3.5523  1.0292
 6887SOL    HW232121   2.552   4.589  15.158 -1.0471 -1.8413 -0.7790
 6888SOL     OW32122   1.481   0.469   4.940 -0.4278  0.0449 -0.0866
 6888SOL    HW132123   1.528   0.424   4.870 -0.3948 -0.0016 -0.0354
 6888SOL    HW232124   1.394   0.478   4.901 -1.1257 -0.3193  1.3862
 6889SOL     OW32125   3.083   4.137   4.541  0.1140  0.1644  0.2316
 6889SOL    HW132126   3.095   4.132   4.636  0.9701  0.5351  0.1404
 6889SOL    HW232127   2.989   4.129   4.525 -0.2043  2.5496  0.9082
 6890SOL     OW32128   3.411   0.493  16.143 -0.1627 -0.0696 -0.1991
 6890SOL    HW132129   3.462   0.557  16.194 -0.7778 -0.1528  0.5122
 6890SOL    HW232130   3.378   0.427  16.204 -2.1961  0.3591 -0.8581
 6891SOL     OW32131   1.436   0.653   3.560  0.0811  0.4730  0.2225
 6891SOL    HW132132   1.422   0.718   3.491  0.3670 -1.1069 -1.3301
 6891SOL    HW232133   1.423   0.712   3.634  0.3439  2.4233 -1.2842
 6892SOL     OW32134   4.031   1.387   6.052  0.5269  0.4122  0.0266
 6892SOL    HW132135   4.056   1.298   6.028 -0.0405 -0.1639  1.5404
 6892SOL    HW232136   3.976   1.370   6.129  1.7075  0.4505  0.8765
 6893SOL     OW32137   2.781   4.630   0.742 -0.3226  0.2307  0.3025
 6893SOL    HW132138   2.854   4.636   0.803 -0.4465  1.4689  0.3261
 6893SOL    HW232139   2.705   4.657   0.793 -1.7208 -0.7491 -1.2391
 6894SOL     OW32140   3.828   3.599   3.093 -0.0074  0.4969 -0.0582
 6894SOL    HW132141   3.782   3.516   3.105 -1.3944  1.0515 -1.6121
 6894SOL    HW232142   3.905   3.577   3.145 -0.1357 -1.3789 -0.6947
 6895SOL     OW32143   2.917   4.134   7.722  0.1723 -0.3134  0.5023
 6895SOL    HW132144   2.829   4.138   7.684 -0.4971  2.5880  2.3503
 6895SOL    HW232145   2.898   4.140   7.815  0.7170  0.8006  0.5551
 6896SOL     OW32146   4.385   3.761  10.981 -0.2310 -0.1888 -0.0822
 6896SOL    HW132147   4.466   3.806  10.959  0.0074 -0.0868  1.0275
 6896SOL    HW232148   4.366   3.765  11.074  1.2187 -0.7598  0.2469
 6897SOL     OW32149   4.112   1.639   7.986  0.1364  0.1147 -0.3535
 6897SOL    HW132150   4.021   1.610   7.984  0.3302 -0.4647 -1.1945
 6897SOL    HW232151   4.148   1.608   8.069 -0.6864 -1.3501 -0.5444
 6898SOL     OW32152   3.657   2.410   7.457 -0.2857  0.1453  0.3293
 6898SOL    HW132153   3.673   2.503   7.436 -0.0542 -0.1054 -0.5987
 6898SOL    HW232154   3.562   2.408   7.461 -0.5687  5.0896 -3.3802
 6899SOL     OW32155   2.253   0.949   9.737  0.3530  0.5420  0.0616
 6899SOL    HW132156   2.200   0.890   9.683  3.1577 -3.8334  2.0407
 6899SOL    HW232157   2.340   0.909   9.734  0.8069  1.5074  0.5889
 6900SOL     OW32158   2.806   4.323   2.609 -0.2601  0.1264  0.6976
 6900SOL    HW132159   2.775   4.233   2.597  2.0426 -0.5929  0.1669
 6900SOL    HW232160   2.754   4.365   2.541  3.2927  1.1720 -1.3555
 6901SOL     OW32161   2.678   3.464   5.942  0.2006 -0.1359  0.1807
 6901SOL    HW132162   2.714   3.410   6.013  3.1304 -0.0114 -1.2178
 6901SOL    HW232163   2.678   3.555   5.973 -1.0768 -0.5703  1.4535
 6902SOL     OW32164   0.282   4.357   0.850 -0.5256  0.6142  0.1403
 6902SOL    HW132165   0.305   4.449   0.862 -0.2237  0.2698  2.1578
 6902SOL    HW232166   0.289   4.348   0.755 -1.0784  0.3483  0.1251
 6903SOL     OW32167   1.824   1.133   3.600  0.5781  0.7506  0.4778
 6903SOL    HW132168   1.759   1.069   3.572  1.1152 -0.5287  2.1440
 6903SOL    HW232169   1.826   1.137   3.696  2.5259  1.9890  0.3769
 6904SOL     OW32170   1.489   0.464   7.352 -0.4019  0.5811 -0.7890
 6904SOL    HW132171   1.467   0.502   7.266 -2.3959  0.9937 -0.0924
 6904SOL    HW232172   1.410   0.495   7.396 -0.1349 -0.5985  0.4790
 6905SOL     OW32173   2.626   3.905   9.120  0.0814 -0.7426  0.7165
 6905SOL    HW132174   2.556   3.954   9.078  0.9498 -0.0954  0.0206
 6905SOL    HW232175   2.577   3.827   9.145 -1.0915  0.4173  1.9821
 6906SOL     OW32176   1.507   0.898   8.242  0.2324 -0.3615 -0.3349
 6906SOL    HW132177   1.434   0.880   8.184 -0.4815 -0.5179  0.6042
 6906SOL    HW232178   1.490   0.838   8.315 -1.4563 -1.3418 -1.5342
 6907SOL     OW32179   4.109   2.672  13.522  0.8123  0.4796 -0.4800
 6907SOL    HW132180   4.022   2.642  13.547  1.1193  0.9266  1.1378
 6907SOL    HW232181   4.082   2.741  13.462 -0.8307  0.3613  0.1208
 6908SOL     OW32182   0.005   1.900   0.694 -0.0809  0.1340  0.0506
 6908SOL    HW132183   0.062   1.959   0.743  3.5627 -3.6873  0.4873
 6908SOL    HW232184   0.076   1.842   0.665  0.5349  0.9050  0.0043
 6909SOL     OW32185   2.071   1.062   3.459 -0.5043 -0.6077  0.0768
 6909SOL    HW132186   1.983   1.081   3.493 -0.4764 -2.0225  0.9340
 6909SOL    HW232187   2.053   1.062   3.365  0.5200  0.4061 -0.1255
 6910SOL     OW32188   1.578   2.627   1.756 -0.2846 -0.0772 -0.0780
 6910SOL    HW132189   1.604   2.548   1.804 -0.0419  0.7203  1.1023
 6910SOL    HW232190   1.528   2.670   1.826  0.0035  0.5091 -0.2319
 6911SOL     OW32191   3.333   0.230   5.886  0.0789 -0.4275  0.2588
 6911SOL    HW132192   3.348   0.189   5.971 -1.2423  1.6709  1.5147
 6911SOL    HW232193   3.420   0.267   5.868  0.4013 -2.0410 -1.4624
 6912SOL     OW32194   4.069   3.180   8.937 -0.1326  0.6800  0.7302
 6912SOL    HW132195   4.099   3.092   8.959 -0.2498  0.0734 -1.5791
 6912SOL    HW232196   4.151   3.231   8.935 -0.3638  1.1835  3.5083
 6913SOL     OW32197   3.713   4.323   2.801  0.7175  0.1807 -0.3913
 6913SOL    HW132198   3.661   4.369   2.735  0.1076  0.8508  0.5501
 6913SOL    HW232199   3.692   4.386   2.870  0.1136  0.2538 -0.6382
 6914SOL     OW32200   1.339   3.681   3.671 -0.0280  0.3132 -0.1407
 6914SOL    HW132201   1.388   3.762   3.683 -0.0911  0.4795 -1.0054
 6914SOL    HW232202   1.310   3.662   3.760  0.2429  0.7718  0.0479
 6915SOL     OW32203   4.446   3.417   0.080  0.4524  0.2998 -0.5483
 6915SOL    HW132204   4.368   3.368   0.055 -0.8389  1.0014  2.0347
 6915SOL    HW232205   4.487   3.356   0.141  0.0671  0.9149  0.3348
 6916SOL     OW32206   0.974   1.706  12.753 -0.5708 -0.4362  0.4779
 6916SOL    HW132207   0.923   1.625  12.763 -1.4335  0.0214 -0.2310
 6916SOL    HW232208   0.911   1.773  12.730 -0.5337 -0.1099  1.3232
 6917SOL     OW32209   3.045   1.717  12.368  0.4330 -0.3578 -0.3971
 6917SOL    HW132210   3.119   1.766  12.404  0.6936  0.1625 -1.6015
 6917SOL    HW232211   3.056   1.634  12.413  0.4100 -0.3786 -0.4292
 6918SOL     OW32212   1.966   0.122   2.488  0.3288  0.3769  0.0682
 6918SOL    HW132213   1.916   0.042   2.470 -1.0361  0.7034  2.5242
 6918SOL    HW232214   2.054   0.094   2.462  0.2857  0.7072 -0.4420
 6919SOL     OW32215   2.168   0.160   3.561  0.5811  0.6778 -0.2438
 6919SOL    HW132216   2.241   0.221   3.566  1.0277  0.1802 -0.6752
 6919SOL    HW232217   2.199   0.111   3.485  1.2508 -0.4355  0.7366
 6920SOL     OW32218   0.840   0.834   7.227  0.2025 -0.1640 -0.0005
 6920SOL    HW132219   0.790   0.881   7.160 -0.2235 -0.3611  0.1789
 6920SOL    HW232220   0.918   0.888   7.229  1.0939 -1.4689  0.5816
 6921SOL     OW32221   2.508   0.874   3.575 -0.1721  0.6222 -0.5169
 6921SOL    HW132222   2.453   0.858   3.651  0.4286  1.7760  0.1524
 6921SOL    HW232223   2.451   0.903   3.504  0.7151 -0.3601 -1.6397
 6922SOL     OW32224   4.529   1.580   4.102 -0.1929 -0.0157 -0.4030
 6922SOL    HW132225   4.434   1.576   4.090 -0.2446 -2.0476  0.8327
 6922SOL    HW232226   4.558   1.561   4.013  0.9185 -1.8978  0.3763
 6923SOL     OW32227   0.111   2.661   5.433  0.3610  0.3755 -0.0823
 6923SOL    HW132228   0.039   2.641   5.493 -0.5246 -1.2308 -1.6648
 6923SOL    HW232229   0.067   2.700   5.357 -2.6362 -1.0620  0.9023
 6924SOL     OW32230   3.420   2.077   4.537  0.2875 -0.2544 -0.3601
 6924SOL    HW132231   3.445   2.077   4.629  0.0051  0.2553 -0.2879
 6924SOL    HW232232   3.471   2.151   4.505  0.8442  0.1597  1.5094
 6925SOL     OW32233   0.987   0.344  15.883  0.2081 -0.0727 -0.3003
 6925SOL    HW132234   0.980   0.267  15.827 -0.3690 -1.0420  1.0972
 6925SOL    HW232235   0.894   0.366  15.895  0.4845  1.3366 -0.6786
 6926SOL     OW32236   2.192   0.771  11.856 -0.3395  0.2057 -0.4489
 6926SOL    HW132237   2.165   0.680  11.861  1.4489 -0.2983  0.1705
 6926SOL    HW232238   2.110   0.818  11.871 -0.0127 -0.0120  1.9708
 6927SOL     OW32239   4.426   1.334   5.476 -0.2460  0.4934 -0.2946
 6927SOL    HW132240   4.349   1.280   5.460  2.1609 -2.9430 -0.3865
 6927SOL    HW232241   4.407   1.374   5.561 -2.6464 -1.1394 -0.0877
 6928SOL     OW32242   2.053   1.397   6.379 -0.6471  0.1162 -0.3658
 6928SOL    HW132243   2.104   1.335   6.431  0.3409  0.8224 -0.4880
 6928SOL    HW232244   2.019   1.334   6.316 -1.8868  0.9413 -0.5310
 6929SOL     OW32245   4.008   4.543   9.023 -0.1234  0.1695 -0.6300
 6929SOL    HW132246   4.040   4.453   9.034 -0.0994  0.2076 -0.3818
 6929SOL    HW232247   4.017   4.555   8.928 -1.0650  1.0161 -0.6157
 6930SOL     OW32248   1.895   3.377   4.467  0.0517  0.0780 -0.3900
 6930SOL    HW132249   1.879   3.324   4.389  0.7685  1.2460 -1.3457
 6930SOL    HW232250   1.946   3.448   4.428 -0.1104  0.3731 -0.0642
 6931SOL     OW32251   1.322   3.424   7.913  0.2860  0.6618  0.1336
 6931SOL    HW132252   1.278   3.341   7.932  1.8963 -0.3972 -0.6549
 6931SOL    HW232253   1.382   3.392   7.845 -0.8380 -1.8395  0.3216
 6932SOL     OW32254   0.289   1.859  16.973  0.2447  0.0453  0.3065
 6932SOL    HW132255   0.344   1.927  17.011 -1.3209  1.8608 -0.6754
 6932SOL    HW232256   0.300   1.883  16.881  0.8269 -0.8391  0.1412
 6933SOL     OW32257   0.108   0.340   7.898 -0.2226  0.6580  0.7631
 6933SOL    HW132258   0.089   0.348   7.805  1.8928  0.5304  0.3321
 6933SOL    HW232259   0.038   0.279   7.923 -0.2450  1.1630  1.9708
 6934SOL     OW32260   0.271   3.346   3.839 -0.1716  0.0923 -0.0358
 6934SOL    HW132261   0.349   3.390   3.805  0.0323  0.2296  0.6143
 6934SOL    HW232262   0.278   3.369   3.931 -1.0134  2.0893 -0.4813
 6935SOL     OW32263   3.493   4.632  10.596  0.2367 -0.5377  0.1691
 6935SOL    HW132264   3.441   4.702  10.635  0.6439  1.4006 -2.7091
 6935SOL    HW232265   3.574   4.641  10.647  1.2825 -0.8015 -1.4397
 6936SOL     OW32266   2.225   4.482   8.812  0.0886 -0.0039 -0.0539
 6936SOL    HW132267   2.275   4.509   8.734 -3.8781  1.1738 -2.2218
 6936SOL    HW232268   2.222   4.562   8.864 -0.8868 -1.7107  2.5221
 6937SOL     OW32269   1.605   0.825   9.222  0.8702 -0.0818 -0.7481
 6937SOL    HW132270   1.578   0.851   9.311 -1.4078  2.0615 -2.0430
 6937SOL    HW232271   1.693   0.791   9.236  0.6340 -0.6470 -0.6692
 6938SOL     OW32272   1.034   0.832   6.299 -0.0768 -0.2992 -0.3303
 6938SOL    HW132273   1.086   0.762   6.260  0.2921 -1.4134  2.1186
 6938SOL    HW232274   0.989   0.863   6.221  0.3558 -0.6954 -0.7313
 6939SOL     OW32275   0.773   2.054   3.225 -0.2342  0.0927  0.2979
 6939SOL    HW132276   0.759   2.048   3.320  0.1999  1.6606  0.4581
 6939SOL    HW232277   0.690   2.029   3.184  0.7526 -2.8189  0.0485
 6940SOL     OW32278   2.558   3.302   8.495 -0.3375 -0.2160 -0.0353
 6940SOL    HW132279   2.519   3.327   8.411 -0.6636  2.4468  0.8882
 6940SOL    HW232280   2.652   3.297   8.477 -0.1363 -1.8151  1.4265
 6941SOL     OW32281   0.167   0.194  17.446 -0.6007 -0.0900  0.2396
 6941SOL    HW132282   0.155   0.283  17.478 -0.3624 -0.4597  1.3730
 6941SOL    HW232283   0.230   0.159  17.510  1.2688  0.6303 -1.2063
 6942SOL     OW32284   1.415   3.958   6.632  0.1403  0.2109  0.3599
 6942SOL    HW132285   1.446   4.047   6.645  0.8245 -0.1424  1.1893
 6942SOL    HW232286   1.396   3.953   6.539  0.8337 -0.7638  0.2642
 6943SOL     OW32287   0.562   3.157   9.281 -0.7064  0.6435 -0.5074
 6943SOL    HW132288   0.491   3.204   9.324  0.2330  0.8505  0.8068
 6943SOL    HW232289   0.537   3.066   9.299 -0.2975  0.8261  0.9798
 6944SOL     OW32290   2.071   1.626  16.588  0.5547 -0.1380  0.0125
 6944SOL    HW132291   1.977   1.609  16.596  0.4276  0.2582 -0.6380
 6944SOL    HW232292   2.102   1.580  16.666  3.2653 -0.3324 -1.1859
 6945SOL     OW32293   0.877   4.156  17.052  0.3074  0.0381 -0.1772
 6945SOL    HW132294   0.850   4.169  17.142  0.4889 -1.2881  0.0710
 6945SOL    HW232295   0.800   4.185  17.003 -1.1171 -3.4986 -0.0073
 6946SOL     OW32296   1.964   4.465   2.215  0.1110 -0.1725 -0.0994
 6946SOL    HW132297   1.887   4.493   2.166  0.1668 -1.7853 -1.1291
 6946SOL    HW232298   1.957   4.370   2.205 -0.0823 -0.0484 -1.1538
 6947SOL     OW32299   2.674   2.389   1.725 -0.2156  0.2824  0.0821
 6947SOL    HW132300   2.669   2.299   1.692  0.9937 -0.0121  0.6858
 6947SOL    HW232301   2.754   2.418   1.681  0.4229  1.4619  2.0100
 6948SOL     OW32302   0.627   1.770   9.429 -0.0319  0.0902 -0.1751
 6948SOL    HW132303   0.693   1.732   9.487  0.0033 -0.2541 -0.4426
 6948SOL    HW232304   0.640   1.708   9.357  0.1836 -0.9239  0.7439
 6949SOL     OW32305   1.635   2.641   5.778  0.1847  0.2525  0.4998
 6949SOL    HW132306   1.695   2.581   5.736  1.5779  1.0069  1.4287
 6949SOL    HW232307   1.580   2.588   5.837  0.1040  0.8183  0.9338
 6950SOL     OW32308   1.727   2.264   7.842  0.0351 -0.2505 -0.1919
 6950SOL    HW132309   1.646   2.233   7.882 -0.3903  0.8229 -0.2441
 6950SOL    HW232310   1.763   2.175   7.840 -0.3626 -0.4098 -0.3592
 6951SOL     OW32311   0.430   2.050   7.951 -0.8299 -0.7059  0.1556
 6951SOL    HW132312   0.365   1.982   7.970 -0.0782 -1.0777  1.4153
 6951SOL    HW232313   0.441   2.075   8.043  0.9587  0.3614 -0.3622
 6952SOL     OW32314   4.642   2.972   8.145 -0.3371  0.4817 -0.3201
 6952SOL    HW132315   4.596   2.915   8.207 -1.5957  1.4160 -0.3766
 6952SOL    HW232316   4.715   3.001   8.199 -1.5713 -0.3855  1.8161
 6953SOL     OW32317   3.851   2.017   2.894 -0.1655  0.1559 -0.7418
 6953SOL    HW132318   3.794   1.959   2.945 -1.4958  0.8946 -1.3859
 6953SOL    HW232319   3.891   1.952   2.838  0.3097  1.0899 -1.4907
 6954SOL     OW32320   3.369   2.087   6.115  1.0399  0.2660  0.6241
 6954SOL    HW132321   3.331   2.044   6.192  0.5271  0.6355  0.5843
 6954SOL    HW232322   3.347   2.179   6.134 -0.3430 -0.3696  2.1404
 6955SOL     OW32323   0.057   4.663  10.551  0.1303  0.1034 -0.0454
 6955SOL    HW132324   0.058   4.642  10.457  1.0861 -1.3046  0.2722
 6955SOL    HW232325   4.715   4.599  10.581 -1.6265  3.8384  4.0758
 6956SOL     OW32326   1.412   3.726   6.393  0.8203 -0.1245  0.2822
 6956SOL    HW132327   1.365   3.655   6.436  0.3178  0.0975  0.1000
 6956SOL    HW232328   1.341   3.786   6.370  1.5460  0.8313  0.5391
 6957SOL     OW32329   0.826   0.625   7.711  0.2238 -0.1140  0.0704
 6957SOL    HW132330   0.755   0.666   7.662  0.8810 -0.3463 -1.0669
 6957SOL    HW232331   0.775   0.599   7.788  0.6642 -2.6549 -0.4945
 6958SOL     OW32332   4.023   2.043   8.264 -0.0202  0.0952  0.2458
 6958SOL    HW132333   3.981   1.970   8.218  0.1583 -1.2516  2.2112
 6958SOL    HW232334   4.110   2.011   8.289 -0.4527  0.4447  2.1390
 6959SOL     OW32335   2.357   4.108   9.242  0.8156 -0.0654  0.8381
 6959SOL    HW132336   2.423   4.126   9.175 -2.0138  1.4902 -1.4765
 6959SOL    HW232337   2.323   4.027   9.203  0.9059  2.0526 -3.6778
 6960SOL     OW32338   3.850   2.708   2.787  1.0776  0.5240  0.0316
 6960SOL    HW132339   3.860   2.742   2.876 -0.4758 -0.2844  0.5079
 6960SOL    HW232340   3.809   2.622   2.794 -0.3326  1.3277  1.3898
 6961SOL     OW32341   3.566   2.167   7.156  0.3588  0.4360 -0.1559
 6961SOL    HW132342   3.610   2.213   7.085 -0.8342 -0.2509 -1.3419
 6961SOL    HW232343   3.509   2.114   7.101  1.1377  0.5056 -1.0251
 6962SOL     OW32344   3.338   4.385   3.686 -0.0255 -0.2873 -0.4408
 6962SOL    HW132345   3.415   4.394   3.630  0.3847 -0.5463  0.0825
 6962SOL    HW232346   3.272   4.431   3.634  0.2180  0.9477  0.3623
 6963SOL     OW32347   4.445   2.065   4.990 -0.3111  0.1902  0.6195
 6963SOL    HW132348   4.432   1.975   5.020  0.0942 -0.4690 -1.2439
 6963SOL    HW232349   4.515   2.091   5.051  0.2123 -0.7045  0.3988
 6964SOL     OW32350   1.222   1.722  14.843 -0.2412 -0.0137  0.0795
 6964SOL    HW132351   1.240   1.662  14.771  1.4986 -0.0263  0.5109
 6964SOL    HW232352   1.128   1.733  14.834 -0.5711 -1.2267  2.1094
 6965SOL     OW32353   2.386   0.948   6.924 -0.5492 -0.1066 -0.2790
 6965SOL    HW132354   2.463   0.912   6.967 -0.9273 -0.5572  0.0209
 6965SOL    HW232355   2.339   0.996   6.992 -1.1412  0.1399 -0.8629
 6966SOL     OW32356   2.569   3.228   2.356 -0.0599  0.0113 -0.0340
 6966SOL    HW132357   2.630   3.203   2.426 -0.5261 -2.4893 -0.5177
 6966SOL    HW232358   2.601   3.310   2.320  0.2519 -1.4232 -2.9950
 6967SOL     OW32359   0.276   1.008  13.505  0.4311  0.4207 -0.3535
 6967SOL    HW132360   0.347   0.976  13.450  2.4387  3.0351  0.7137
 6967SOL    HW232361   0.324   1.072  13.558 -0.5312  1.2166 -0.4407
 6968SOL     OW32362   4.588   3.972   7.847  0.4987 -0.0125  0.1743
 6968SOL    HW132363   4.498   4.000   7.863  1.2212  1.8854  0.9568
 6968SOL    HW232364   4.573   3.886   7.808 -1.8990  0.9886 -1.0242
 6969SOL     OW32365   2.307   1.324   9.913 -0.3425 -0.3862  0.0875
 6969SOL    HW132366   2.294   1.399   9.856  1.4680 -0.1804 -0.0489
 6969SOL    HW232367   2.390   1.342   9.958 -1.0712  0.8532  0.9255
 6970SOL     OW32368   3.329   1.217   8.163  0.4716  0.1628 -0.1814
 6970SOL    HW132369   3.255   1.171   8.123  0.2476 -3.5140  4.4391
 6970SOL    HW232370   3.401   1.156   8.145 -0.5785 -1.7579  2.1900
 6971SOL     OW32371   4.711   0.076   5.162 -0.4061 -0.3215 -0.4400
 6971SOL    HW132372   4.642   0.011   5.149 -1.6484  0.7720  0.8041
 6971SOL    HW232373   0.043   0.066   5.083 -0.8825  4.2282 -1.3467
 6972SOL     OW32374   4.642   4.429   0.181  0.1478  0.0072 -0.3457
 6972SOL    HW132375   4.643   4.345   0.136 -1.6576 -0.2157  0.0342
 6972SOL    HW232376   4.633   4.393   0.269 -0.0927  0.8105 -0.0387
 6973SOL     OW32377   0.275   3.688   3.931 -0.2556  0.4153 -0.4902
 6973SOL    HW132378   0.339   3.635   3.978 -0.3062 -0.3394 -1.2654
 6973SOL    HW232379   0.203   3.626   3.944  0.3902 -0.3543 -0.6045
 6974SOL     OW32380   4.063   2.980   3.597  0.2612  0.0394 -0.0939
 6974SOL    HW132381   4.015   2.971   3.679 -0.2653  1.9713 -0.1875
 6974SOL    HW232382   4.012   3.048   3.552  0.9333  0.6525  0.0686
 6975SOL     OW32383   1.403   1.570  15.622  0.5472 -0.3698  0.4020
 6975SOL    HW132384   1.480   1.519  15.648  0.4161 -0.3170  0.9006
 6975SOL    HW232385   1.328   1.518  15.653  1.0568 -1.4261 -0.1284
 6976SOL     OW32386   4.259   0.270   0.405  0.0936  0.3328  0.2946
 6976SOL    HW132387   4.220   0.239   0.486  0.7471  1.6977  1.1343
 6976SOL    HW232388   4.310   0.343   0.440  1.0494  0.2630 -0.9438
 6977SOL     OW32389   1.512   0.327   0.242  0.9840  0.1277  0.4840
 6977SOL    HW132390   1.597   0.293   0.215  1.0602 -0.3336  1.3093
 6977SOL    HW232391   1.541   0.379   0.317  0.1786  0.1207  0.8021
 6978SOL     OW32392   0.215   3.606   5.682 -0.0718  0.4340  1.0469
 6978SOL    HW132393   0.286   3.613   5.618 -1.0909 -0.1540 -0.1271
 6978SOL    HW232394   0.231   3.683   5.737 -1.5812  1.6157 -0.1654
 6979SOL     OW32395   1.003   0.822  10.895  0.0076 -0.2865 -0.3166
 6979SOL    HW132396   1.054   0.782  10.823 -0.9831 -2.6005  0.2749
 6979SOL    HW232397   0.938   0.753  10.903  0.1728 -0.5939 -1.5691
 6980SOL     OW32398   1.648   3.829   5.018  0.4341 -0.1042 -0.0030
 6980SOL    HW132399   1.684   3.744   4.993 -0.8283 -1.0565  1.4167
 6980SOL    HW232400   1.730   3.876   5.026 -0.1984  1.4347 -2.3853
 6981SOL     OW32401   4.602   2.256  15.088  0.3841 -0.3792 -0.2921
 6981SOL    HW132402   4.656   2.177  15.083  0.3968 -0.4750  1.3950
 6981SOL    HW232403   4.625   2.302  15.007 -1.2056  0.0111 -0.5227
 6982SOL     OW32404   2.204   0.431   9.568 -0.1510 -0.2053  0.1054
 6982SOL    HW132405   2.231   0.461   9.654  2.3913 -1.3893 -0.2830
 6982SOL    HW232406   2.213   0.336   9.580 -0.5757 -0.2872 -0.2033
 6983SOL     OW32407   1.661   0.481   5.587  0.7846  0.5567  0.2463
 6983SOL    HW132408   1.739   0.527   5.618  0.6887 -0.4409  1.9520
 6983SOL    HW232409   1.693   0.457   5.500  1.1156  0.7986  0.3038
 6984SOL     OW32410   0.057   2.276   3.847 -0.4082  0.4076  0.0582
 6984SOL    HW132411   4.685   2.294   3.851 -0.3441  0.8219 -0.2836
 6984SOL    HW232412   0.050   2.182   3.860  1.0184  0.2865 -0.0941
 6985SOL     OW32413   2.281   1.994   3.549 -0.1321  0.1389 -0.2434
 6985SOL    HW132414   2.373   2.022   3.544  0.0369 -0.4585 -0.4515
 6985SOL    HW232415   2.276   1.963   3.640 -1.5733 -0.5919 -0.5803
 6986SOL     OW32416   2.216   4.436   6.119  0.1108 -0.5842 -0.3297
 6986SOL    HW132417   2.129   4.437   6.078  0.2060  5.5540 -0.2767
 6986SOL    HW232418   2.194   4.461   6.209  3.5512 -0.8229  0.5818
 6987SOL     OW32419   3.190   0.307  16.793  0.1226  0.2865  0.1717
 6987SOL    HW132420   3.125   0.242  16.769  0.7476 -0.4532  0.4634
 6987SOL    HW232421   3.190   0.305  16.889 -0.7294 -0.5575  0.1497
 6988SOL     OW32422   1.119   2.473   8.011 -0.1437  0.1703 -0.3467
 6988SOL    HW132423   1.065   2.520   8.075 -1.5768  1.8259 -2.7491
 6988SOL    HW232424   1.173   2.549   7.990  0.2706 -0.4903 -1.6644
 6989SOL     OW32425   4.565   0.192   3.264 -0.0997  0.0274  0.4523
 6989SOL    HW132426   4.507   0.117   3.250  0.3798 -0.4398  0.9713
 6989SOL    HW232427   4.509   0.268   3.249 -0.2758 -0.2520 -0.2948
 6990SOL     OW32428   0.181   0.619   6.352 -0.0546  0.9379  0.6146
 6990SOL    HW132429   0.262   0.569   6.347 -0.4868  0.5461 -2.2664
 6990SOL    HW232430   0.163   0.609   6.259 -1.3396  0.3787  0.9274
 6991SOL     OW32431   1.599   3.183   6.156 -0.6430 -0.3472  0.3228
 6991SOL    HW132432   1.646   3.099   6.162 -0.5847 -0.3201  0.2283
 6991SOL    HW232433   1.676   3.238   6.142  1.2385 -3.1004 -0.3611
 6992SOL     OW32434   3.892   1.871   6.777 -0.6315  0.4482  0.3097
 6992SOL    HW132435   3.823   1.895   6.840  1.3673  1.7627  1.9893
 6992SOL    HW232436   3.936   1.809   6.836  0.0500 -0.6955 -1.4231
 6993SOL     OW32437   2.963   0.918  11.782 -0.1180 -0.3119  0.0994
 6993SOL    HW132438   2.952   0.830  11.817 -0.3293 -0.4593 -0.3404
 6993SOL    HW232439   3.057   0.923  11.802 -0.2124 -3.0655  1.2585
 6994SOL     OW32440   4.415   3.010   5.962  0.4084  0.2888 -0.3831
 6994SOL    HW132441   4.326   3.022   5.928 -1.4812 -1.7223  3.8406
 6994SOL    HW232442   4.439   3.102   5.973 -2.9916  1.3712 -2.0250
 6995SOL     OW32443   2.617   0.264   0.623 -0.5682 -0.7636 -1.0924
 6995SOL    HW132444   2.606   0.223   0.537 -3.0275 -3.6786  0.5948
 6995SOL    HW232445   2.527   0.266   0.656  0.4197 -1.7615  1.6222
 6996SOL     OW32446   1.309   2.423   6.877 -0.6598  0.0630 -0.2274
 6996SOL    HW132447   1.240   2.466   6.827 -0.8628 -0.8313 -0.7269
 6996SOL    HW232448   1.308   2.489   6.946 -2.9848 -1.6957  1.4220
 6997SOL     OW32449   2.923   0.073   8.725 -0.5076  0.3234 -0.0898
 6997SOL    HW132450   2.975   0.118   8.792  0.5427 -1.3071  0.1804
 6997SOL    HW232451   2.848   0.132   8.734 -0.8380 -0.0031 -0.7303
 6998SOL     OW32452   0.420   2.421  15.381 -0.0535  0.5856  0.3195
 6998SOL    HW132453   0.425   2.480  15.456 -0.8273 -0.0330  0.8529
 6998SOL    HW232454   0.513   2.404  15.366  0.1108 -0.2896  2.2929
 6999SOL     OW32455   0.049   1.786   8.235 -0.3258 -0.2365 -0.0295
 6999SOL    HW132456   0.066   1.760   8.325  0.3686 -4.1744 -1.3031
 6999SOL    HW232457   4.704   1.854   8.243 -0.0104  0.0103  0.5554
 7000SOL     OW32458   4.520   2.839   1.401  0.4224 -0.1491 -0.3124
 7000SOL    HW132459   4.428   2.818   1.418  0.4062 -0.4758 -0.7790
 7000SOL    HW232460   4.562   2.753   1.409  3.8771  1.5608 -0.3307
 7001SOL     OW32461   1.746   4.649  10.796 -0.4215 -0.1038 -0.0522
 7001SOL    HW132462   1.807   4.635  10.869  0.0392 -0.8718 -0.5819
 7001SOL    HW232463   1.755   0.021  10.789 -0.7700 -0.0708 -0.0641
 7002SOL     OW32464   1.760   2.009   9.163  0.1627 -0.2684 -0.4053
 7002SOL    HW132465   1.711   1.960   9.229  0.3815  0.3858  0.2345
 7002SOL    HW232466   1.698   2.076   9.134  0.5174 -0.3401 -1.3296
 7003SOL     OW32467   3.920   4.264  11.773 -0.3343  0.2610 -0.3705
 7003SOL    HW132468   3.960   4.177  11.775 -0.3038  0.3084  1.5056
 7003SOL    HW232469   3.845   4.249  11.716  1.2623  0.3595 -2.4983
 7004SOL     OW32470   1.955   4.232   0.047 -0.3982  0.2202  0.9438
 7004SOL    HW132471   2.049   4.228   0.065 -0.2598 -1.9264 -0.2861
 7004SOL    HW232472   1.929   4.300   0.108 -0.3608  0.2364  0.9416
 7005SOL     OW32473   2.986   3.456  13.145 -0.6133 -0.1570  0.5963
 7005SOL    HW132474   3.032   3.539  13.160  0.3083 -0.5162 -0.1963
 7005SOL    HW232475   2.931   3.496  13.077  1.1945  0.8790 -0.2854
 7006SOL     OW32476   2.176   2.000   2.580  0.6118  0.7498  0.2873
 7006SOL    HW132477   2.243   2.022   2.516  0.4040  2.6728  0.7161
 7006SOL    HW232478   2.224   1.996   2.663 -1.4952 -2.9782  1.3481
 7007SOL     OW32479   4.098   4.382   2.202  0.0427  0.1045  0.1164
 7007SOL    HW132480   4.117   4.296   2.165 -0.4076  0.2082 -0.3538
 7007SOL    HW232481   4.154   4.441   2.151 -1.1649  0.0526 -1.2763
 7008SOL     OW32482   4.621   3.969   6.865 -0.3055  0.1499 -0.1449
 7008SOL    HW132483   4.565   3.937   6.794  0.1699  0.8468 -0.8337
 7008SOL    HW232484   4.566   4.034   6.908  1.4396  1.4584  0.1111
 7009SOL     OW32485   4.450   3.498  11.778 -0.5903 -0.5078 -0.7604
 7009SOL    HW132486   4.472   3.485  11.686 -1.5902  3.2680 -1.5352
 7009SOL    HW232487   4.498   3.573  11.812  0.5427 -1.2862 -0.6336
 7010SOL     OW32488   2.660   1.487   2.711 -0.1301 -0.1726 -0.5968
 7010SOL    HW132489   2.674   1.568   2.760  1.8681 -0.1861 -1.1430
 7010SOL    HW232490   2.603   1.519   2.640  0.1282  1.0014 -0.2786
 7011SOL     OW32491   0.312   2.459   2.530 -0.4482 -0.5825 -0.2048
 7011SOL    HW132492   0.385   2.447   2.469 -0.0354 -2.6328  0.7085
 7011SOL    HW232493   0.309   2.369   2.562  0.2018  0.6389  3.1906
 7012SOL     OW32494   4.306   3.851   6.690 -0.5973 -0.2602  0.0402
 7012SOL    HW132495   4.311   3.763   6.653  1.5576  0.6101 -1.7079
 7012SOL    HW232496   4.308   3.828   6.784  2.4644  1.0029  0.2795
 7013SOL     OW32497   3.600   2.596  16.295 -0.6300  0.2950  0.4483
 7013SOL    HW132498   3.681   2.573  16.341 -0.3550 -0.7034 -0.5430
 7013SOL    HW232499   3.568   2.507  16.283  0.1204 -0.1022  1.3470
 7014SOL     OW32500   2.845   4.333   4.726 -0.2908  0.1308  0.0212
 7014SOL    HW132501   2.840   4.263   4.660 -1.7761  0.8789 -0.6589
 7014SOL    HW232502   2.886   4.281   4.796 -1.5095 -0.1605  0.5055
 7015SOL     OW32503   2.491   2.920   4.007  0.2784  0.1628  0.1002
 7015SOL    HW132504   2.433   2.872   3.948  0.0439  0.9663 -0.3252
 7015SOL    HW232505   2.454   3.007   4.020 -3.8601 -1.4608 -0.6531
 7016SOL     OW32506   1.316   3.686   2.855  0.1900 -0.0008 -0.0089
 7016SOL    HW132507   1.357   3.772   2.857 -0.3887  0.2931 -1.0671
 7016SOL    HW232508   1.341   3.643   2.774  1.1825  2.2230 -0.8751
 7017SOL     OW32509   3.205   1.366   7.544 -0.1795  0.2910 -0.2164
 7017SOL    HW132510   3.158   1.377   7.461 -0.7006 -3.4952 -0.4479
 7017SOL    HW232511   3.129   1.359   7.603  0.0183 -1.0095 -0.1217
 7018SOL     OW32512   3.646   4.317   6.695 -0.4633 -0.1095 -0.2860
 7018SOL    HW132513   3.671   4.296   6.605  0.6330  0.4999 -0.1262
 7018SOL    HW232514   3.630   4.229   6.730 -0.4502  0.1016  0.2524
 7019SOL     OW32515   0.949   1.132   1.820 -0.4816 -0.2009 -0.5280
 7019SOL    HW132516   0.880   1.195   1.798 -0.7659  0.4116  2.0046
 7019SOL    HW232517   0.907   1.048   1.804 -0.9365  0.1777 -1.3185
 7020SOL     OW32518   3.235   3.078  17.195  0.6400  0.1367 -0.1634
 7020SOL    HW132519   3.236   3.094  17.290  0.6284  0.9125 -0.2941
 7020SOL    HW232520   3.282   2.994  17.193 -0.5656 -0.5796  1.6640
 7021SOL     OW32521   3.608   3.012   4.647 -0.2785  0.2693  0.1461
 7021SOL    HW132522   3.669   3.083   4.669  0.0021  0.0929 -0.0666
 7021SOL    HW232523   3.590   2.980   4.735  2.5098  0.1502  0.6740
 7022SOL     OW32524   0.080   3.533   8.987  0.2216 -0.0945 -0.2365
 7022SOL    HW132525   0.024   3.609   8.971  1.8746  0.7046 -2.2593
 7022SOL    HW232526   0.040   3.515   9.072  2.7292  2.0270  1.3947
 7023SOL     OW32527   3.841   3.176   9.204 -0.3956  0.4123  0.1199
 7023SOL    HW132528   3.779   3.138   9.142 -1.1364  1.2043  0.3757
 7023SOL    HW232529   3.905   3.108   9.224 -0.1727  0.9308  1.1446
 7024SOL     OW32530   0.207   2.097  16.261  0.3645  0.1948  0.2217
 7024SOL    HW132531   0.244   2.087  16.173 -0.2524  0.5293 -0.0773
 7024SOL    HW232532   0.120   2.061  16.246  1.4802 -1.6346 -1.9792
 7025SOL     OW32533   2.518   1.144   6.482 -0.5143  0.5243 -0.5320
 7025SOL    HW132534   2.586   1.110   6.423  0.7414  1.1620  0.5583
 7025SOL    HW232535   2.531   1.085   6.556  0.8173 -0.2202 -1.3504
 7026SOL     OW32536   1.242   2.572   5.346  0.1582  0.4688 -0.0802
 7026SOL    HW132537   1.183   2.566   5.270  0.6762 -3.2759 -0.1726
 7026SOL    HW232538   1.173   2.563   5.411  0.8268  2.4196  0.9088
 7027SOL     OW32539   2.907   4.545   1.659  0.6586 -0.0130  0.5235
 7027SOL    HW132540   2.916   4.634   1.626 -1.7108 -0.1571 -0.5287
 7027SOL    HW232541   2.998   4.516   1.652  0.6836  1.0209 -3.1552
 7028SOL     OW32542   3.165   0.539   8.717  0.3340 -0.4884 -0.3975
 7028SOL    HW132543   3.085   0.572   8.676  0.5077 -0.3708 -0.6459
 7028SOL    HW232544   3.233   0.588   8.671  0.0131 -0.3672 -0.7466
 7029SOL     OW32545   1.424   2.502   5.896 -0.1517 -0.3238  0.2457
 7029SOL    HW132546   1.365   2.517   5.822 -2.0429  0.1287  1.8309
 7029SOL    HW232547   1.410   2.409   5.915  0.2150 -1.1165 -3.3184
 7030SOL     OW32548   3.796   2.864  11.961 -0.3259 -0.4419 -0.5736
 7030SOL    HW132549   3.827   2.942  11.915 -1.1888  1.1831  1.5744
 7030SOL    HW232550   3.767   2.902  12.044 -1.7845 -1.6269 -0.5298
 7031SOL     OW32551   2.285   0.576   2.324 -0.4537  0.2252 -0.0094
 7031SOL    HW132552   2.294   0.492   2.279  4.0565 -1.0078  3.1345
 7031SOL    HW232553   2.374   0.602   2.350 -0.0721 -0.9705 -0.1466
 7032SOL     OW32554   2.330   4.054  10.423  0.2607  0.2359 -0.3447
 7032SOL    HW132555   2.380   3.984  10.381 -0.3925  1.4995 -3.2062
 7032SOL    HW232556   2.397   4.118  10.446  0.3098  0.0285  0.0925
 7033SOL     OW32557   2.413   4.433   0.980  0.4935  0.5583 -0.0248
 7033SOL    HW132558   2.399   4.430   0.886  0.6476  1.6184 -0.0866
 7033SOL    HW232559   2.392   4.524   1.001  0.4396  0.5855 -0.1978
 7034SOL     OW32560   0.394   1.850   1.225  0.0588  0.2548 -0.2497
 7034SOL    HW132561   0.448   1.895   1.290 -0.0802 -0.4219  0.3247
 7034SOL    HW232562   0.314   1.903   1.225 -0.4948 -0.6316  2.4991
 7035SOL     OW32563   3.552   4.259   2.307 -0.4317  0.5787  0.4022
 7035SOL    HW132564   3.631   4.282   2.356  1.0262 -1.6187 -0.9182
 7035SOL    HW232565   3.553   4.332   2.245  0.7934  0.2340  0.0204
 7036SOL     OW32566   3.885   2.830   6.431 -0.5909 -0.8549 -0.1842
 7036SOL    HW132567   3.869   2.843   6.338 -0.1801 -1.1606 -0.2981
 7036SOL    HW232568   3.947   2.758   6.419  0.1336  0.0191 -1.6423
 7037SOL     OW32569   0.897   4.580  13.996  0.2893  0.9967 -0.1010
 7037SOL    HW132570   0.824   4.641  13.987 -0.1031  0.6960  0.9456
 7037SOL    HW232571   0.970   4.639  14.015  0.4555  0.3307  1.3746
 7038SOL     OW32572   3.362   0.962   8.634 -0.0485  0.0042 -0.2015
 7038SOL    HW132573   3.391   1.033   8.692 -1.9612  2.4190 -2.1795
 7038SOL    HW232574   3.316   1.007   8.563 -2.7960 -0.3729  1.3440
 7039SOL     OW32575   2.684   3.874   4.171 -0.2688 -0.4395  0.0731
 7039SOL    HW132576   2.630   3.818   4.227  0.0184 -1.0847 -0.2894
 7039SOL    HW232577   2.759   3.899   4.224 -2.3438  1.0366  2.2923
 7040SOL     OW32578   0.012   3.779  14.191  0.0329 -0.0146 -0.2089
 7040SOL    HW132579   4.660   3.722  14.205  0.3162 -0.8693 -2.2442
 7040SOL    HW232580   4.709   3.859  14.238  3.1979  0.3138  0.9315
 7041SOL     OW32581   2.094   4.481   1.812  0.3972  0.0712 -0.2263
 7041SOL    HW132582   2.066   4.437   1.732 -2.3905  2.4418 -0.5750
 7041SOL    HW232583   2.009   4.522   1.830  1.3662  1.7725  0.5397
 7042SOL     OW32584   0.194   4.394   5.338  0.3670  0.2486 -0.2381
 7042SOL    HW132585   0.144   4.321   5.375  1.1200  0.6500  1.5339
 7042SOL    HW232586   0.156   4.388   5.250  1.1556  1.8906 -0.6958
 7043SOL     OW32587   0.383   3.481   4.060  0.1198  0.1861 -0.0956
 7043SOL    HW132588   0.360   3.480   4.153 -1.8109 -1.2041 -0.6059
 7043SOL    HW232589   0.471   3.444   4.069  0.0042 -0.0032  0.2470
 7044SOL     OW32590   2.071   0.218   8.870 -0.8288  0.4813 -0.0467
 7044SOL    HW132591   2.026   0.197   8.952 -0.2446 -3.0367 -0.6277
 7044SOL    HW232592   2.142   0.265   8.914  0.7636 -1.6607 -0.3287
 7045SOL     OW32593   3.314   3.008  16.895 -0.1071  0.0465  0.2389
 7045SOL    HW132594   3.382   3.014  16.829 -0.6453 -0.7267 -0.3865
 7045SOL    HW232595   3.329   2.923  16.936 -0.2075 -0.4254 -0.7270
 7046SOL     OW32596   0.512   2.714  14.516 -0.1141 -0.4932  0.1279
 7046SOL    HW132597   0.452   2.641  14.502  0.7410 -0.8675 -1.5052
 7046SOL    HW232598   0.575   2.681  14.580 -1.1609  0.7017  1.7644
 7047SOL     OW32599   3.684   4.480   3.129  0.2744  0.4615 -0.3656
 7047SOL    HW132600   3.775   4.457   3.146 -0.3977 -0.3749  2.0179
 7047SOL    HW232601   3.631   4.403   3.147  0.7066  0.3921  0.6042
 7048SOL     OW32602   0.067   0.877   7.995  0.1634  0.1757  0.1136
 7048SOL    HW132603   0.145   0.932   8.002 -0.0328  0.5687 -0.8171
 7048SOL    HW232604   0.096   0.818   7.926  1.3347 -1.3702  1.9279
 7049SOL     OW32605   2.999   0.639   7.268 -0.6478 -0.2623  0.0908
 7049SOL    HW132606   2.986   0.606   7.179  2.1514 -3.3802  0.8350
 7049SOL    HW232607   3.094   0.627   7.277 -0.3998  0.2541 -1.9818
 7050SOL     OW32608   0.072   2.338   0.065 -1.1667 -0.4658 -0.1711
 7050SOL    HW132609   0.025   2.273   0.118 -0.7257 -0.1370  0.6182
 7050SOL    HW232610   4.720   2.388   0.030  0.2729  1.8744  0.0911
 7051SOL     OW32611   4.647   4.002   8.891 -0.1690 -0.0758  0.2843
 7051SOL    HW132612   4.674   4.054   8.966 -1.4779 -0.9971  1.3858
 7051SOL    HW232613   4.634   4.064   8.820 -2.9527 -2.3895 -1.2294
 7052SOL     OW32614   4.699   2.609   0.332  0.0438  0.4088 -0.8471
 7052SOL    HW132615   0.051   2.661   0.362 -0.2788  0.0167  0.6579
 7052SOL    HW232616   0.007   2.520   0.350 -2.7733  0.0572  2.2069
 7053SOL     OW32617   3.328   1.286   6.600  0.4223  0.4662 -0.5092
 7053SOL    HW132618   3.287   1.268   6.515 -0.3918  0.7268 -0.1794
 7053SOL    HW232619   3.302   1.201   6.635  1.0406  0.7313  0.6098
 7054SOL     OW32620   1.497   4.469  13.537  0.2942  0.0726 -0.4536
 7054SOL    HW132621   1.559   4.407  13.501  1.7298 -1.2045  4.3123
 7054SOL    HW232622   1.421   4.412  13.526  0.8969 -0.3335 -2.4169
 7055SOL     OW32623   1.044   1.468   8.154 -0.5282 -0.4087 -0.4662
 7055SOL    HW132624   1.002   1.539   8.104 -0.8477  0.9087  1.6453
 7055SOL    HW232625   0.965   1.413   8.156 -0.6853 -0.1903 -0.5644
 7056SOL     OW32626   0.760   0.004   5.661  0.2272 -0.0450 -0.1121
 7056SOL    HW132627   0.667   0.001   5.684  0.6595 -2.4308  1.3281
 7056SOL    HW232628   0.755   0.100   5.663 -2.4931 -0.1618 -1.3892
 7057SOL     OW32629   2.040   1.429  10.560  0.9165 -0.0688  0.1684
 7057SOL    HW132630   2.106   1.373  10.519  0.6773  1.0982 -1.8449
 7057SOL    HW232631   2.063   1.440  10.652  0.9057  3.1375 -0.2290
 7058SOL     OW32632   4.120   0.353   5.381  0.5850 -0.2600 -0.0060
 7058SOL    HW132633   4.199   0.326   5.426 -0.1169  0.1036  1.4293
 7058SOL    HW232634   4.135   0.335   5.288  1.2249  2.5611 -0.4546
 7059SOL     OW32635   4.421   0.470  12.220 -0.1222 -0.6612  0.5745
 7059SOL    HW132636   4.515   0.489  12.228  0.1481 -0.9506 -2.1077
 7059SOL    HW232637   4.414   0.448  12.128  0.4163 -0.0282  0.3815
 7060SOL     OW32638   1.823   3.337   9.392  0.6772  0.0669 -0.0418
 7060SOL    HW132639   1.856   3.427   9.396  0.6702 -0.0029  1.4261
 7060SOL    HW232640   1.758   3.339   9.462 -2.2777  2.6114 -2.8236
 7061SOL     OW32641   4.719   0.164   4.014  0.3988  0.6616  0.0466
 7061SOL    HW132642   4.630   0.128   4.022 -0.1558  1.4661 -2.4677
 7061SOL    HW232643   0.056   0.091   3.996 -0.0337  0.5778 -1.0245
 7062SOL     OW32644   0.280   4.257  11.380  0.0133  0.2358  0.5094
 7062SOL    HW132645   0.276   4.308  11.298  3.8302 -1.3386 -0.6538
 7062SOL    HW232646   0.289   4.171  11.339  1.5289 -0.6682  2.7793
 7063SOL     OW32647   2.693   0.936  14.328  0.2277 -0.1859 -0.0910
 7063SOL    HW132648   2.663   0.994  14.398 -2.5847 -0.0999 -1.3683
 7063SOL    HW232649   2.740   0.991  14.265 -0.5707 -0.4378 -0.8960
 7064SOL     OW32650   1.012   1.971   3.474 -0.6463  0.1837 -0.1245
 7064SOL    HW132651   1.024   1.971   3.569 -0.7013 -0.1643 -0.1202
 7064SOL    HW232652   0.955   2.048   3.472 -3.2752 -1.7848 -1.1324
 7065SOL     OW32653   1.468   0.227   6.268 -0.2764  0.4614 -0.4021
 7065SOL    HW132654   1.531   0.268   6.327  0.9571  0.3038 -1.6102
 7065SOL    HW232655   1.389   0.278   6.284 -0.8707 -0.7759  0.5730
 7066SOL     OW32656   3.396   2.122   6.519  0.1784  0.0443  0.2119
 7066SOL    HW132657   3.393   2.218   6.525 -1.9793 -0.0211  0.2972
 7066SOL    HW232658   3.478   2.107   6.565 -0.0789 -0.7221  0.4141
 7067SOL     OW32659   4.228   3.781   7.767  0.0807  0.4533  0.2333
 7067SOL    HW132660   4.274   3.725   7.829 -0.7859  0.9191  1.3046
 7067SOL    HW232661   4.138   3.785   7.801 -0.4607  0.6311 -1.1944
 7068SOL     OW32662   1.512   1.601  14.125 -0.0046  0.1441 -0.0482
 7068SOL    HW132663   1.425   1.642  14.134 -0.7977 -2.3178  3.2074
 7068SOL    HW232664   1.521   1.531  14.190 -1.0757 -0.0066 -0.0592
 7069SOL     OW32665   4.117   0.614   2.488  0.2572 -0.0254  0.2388
 7069SOL    HW132666   4.179   0.613   2.416  3.2306  1.0942  2.8267
 7069SOL    HW232667   4.102   0.708   2.488 -0.4185 -0.1352  3.8112
 7070SOL     OW32668   0.810   0.479   7.227  0.5571 -0.1293 -0.1843
 7070SOL    HW132669   0.870   0.421   7.181 -0.7938 -1.0766 -0.7588
 7070SOL    HW232670   0.760   0.520   7.156  0.3371 -1.2814 -0.6814
 7071SOL     OW32671   4.217   3.395   7.941 -0.2731  0.4496 -0.1500
 7071SOL    HW132672   4.125   3.375   7.921 -0.4765  0.0842  1.1784
 7071SOL    HW232673   4.246   3.314   7.984  0.0947  0.8624  0.3716
 7072SOL     OW32674   4.365   4.512   8.486  0.4691  0.2675 -0.1086
 7072SOL    HW132675   4.312   4.435   8.506 -2.1353  1.6151 -1.7962
 7072SOL    HW232676   4.332   4.543   8.401 -1.3794 -1.7652 -0.1209
 7073SOL     OW32677   3.228   3.893   6.523  0.2560 -0.2793 -0.0896
 7073SOL    HW132678   3.322   3.882   6.510  0.4418  0.1191  0.8611
 7073SOL    HW232679   3.192   3.807   6.503 -2.2018  0.3468  1.5544
 7074SOL     OW32680   2.128   0.343   2.095  0.5282  0.0996 -0.2365
 7074SOL    HW132681   2.143   0.426   2.052 -0.7592 -0.9313 -2.6418
 7074SOL    HW232682   2.065   0.358   2.165  0.6848 -0.6951  0.0818
 7075SOL     OW32683   0.691   4.217   8.327 -0.3151  0.3106 -0.2612
 7075SOL    HW132684   0.696   4.285   8.261  2.1360 -1.1034 -1.5291
 7075SOL    HW232685   0.784   4.197   8.340 -1.1250 -2.3745  1.4863
 7076SOL     OW32686   3.897   0.953   2.083 -0.4284 -0.0366  0.4660
 7076SOL    HW132687   3.854   0.995   2.158 -1.2171  0.4742 -0.2743
 7076SOL    HW232688   3.896   1.018   2.013  3.0798 -1.5700 -0.9646
 7077SOL     OW32689   1.838   3.914  17.669 -0.1632  0.4526  0.1472
 7077SOL    HW132690   1.871   3.998   0.010  0.8766  0.1620 -0.1562
 7077SOL    HW232691   1.803   3.939  17.584  0.9073 -0.1795 -0.4822
 7078SOL     OW32692   3.706   1.143   0.144  0.2130  0.0471  0.0430
 7078SOL    HW132693   3.677   1.173   0.231 -0.8211 -2.0123  0.4209
 7078SOL    HW232694   3.681   1.051   0.153  1.1909  0.0242  2.6797
 7079SOL     OW32695   2.879   3.836   9.179  0.2457 -0.0519  0.8302
 7079SOL    HW132696   2.943   3.898   9.144  0.7439  0.0334  1.8605
 7079SOL    HW232697   2.793   3.874   9.166  0.8066  0.4068 -1.4405
 7080SOL     OW32698   4.201   2.395  13.491 -0.8270 -0.3926 -0.0497
 7080SOL    HW132699   4.235   2.368  13.406 -2.0627 -1.2180 -0.2885
 7080SOL    HW232700   4.185   2.489  13.480  0.0809  0.1417  3.1968
 7081SOL     OW32701   3.076   4.509  10.577  0.1633  0.7333 -0.7365
 7081SOL    HW132702   3.063   4.542  10.488  1.9138  1.2850 -0.7895
 7081SOL    HW232703   3.064   4.589  10.628  2.6365 -1.3019  3.0384
 7082SOL     OW32704   4.498   2.103   3.005  0.5386 -0.3298 -0.6065
 7082SOL    HW132705   4.496   2.180   3.061  0.1355  0.2325 -1.4018
 7082SOL    HW232706   4.550   2.131   2.930  1.1518  0.9468  0.3028
 7083SOL     OW32707   2.748   2.004   8.507 -0.3206  0.7176  0.3546
 7083SOL    HW132708   2.760   2.062   8.582  1.6058 -1.2972  1.6076
 7083SOL    HW232709   2.793   2.043   8.433 -0.1122 -0.2043 -0.0072
 7084SOL     OW32710   4.159   0.656  14.334  0.1281 -0.2745  0.5387
 7084SOL    HW132711   4.099   0.582  14.341 -1.1969  0.7847  0.3213
 7084SOL    HW232712   4.237   0.620  14.377 -0.3540 -3.4745 -1.2100
 7085SOL     OW32713   3.322   4.089   7.567  0.0098 -0.1606  0.3200
 7085SOL    HW132714   3.394   4.095   7.630  1.2584 -0.4767 -1.0556
 7085SOL    HW232715   3.340   4.166   7.512  0.2636  1.3213  2.4793
 7086SOL     OW32716   4.650   4.513   7.409 -0.1177  0.1051 -0.9591
 7086SOL    HW132717   4.637   4.506   7.504  0.1027 -0.5211 -0.9738
 7086SOL    HW232718   4.693   4.434   7.375  0.7496  0.5276 -0.8376
 7087SOL     OW32719   3.307   2.740   2.723 -0.4216 -0.3301  0.5739
 7087SOL    HW132720   3.236   2.755   2.786  1.8002  1.8171  2.5625
 7087SOL    HW232721   3.377   2.768   2.782 -0.6323 -0.4239  0.8721
 7088SOL     OW32722   1.613   1.546  10.029  0.2835  0.4805 -0.4230
 7088SOL    HW132723   1.615   1.642  10.025  0.6683  0.5187  0.7298
 7088SOL    HW232724   1.544   1.531   9.964 -0.2992 -1.3994  0.6335
 7089SOL     OW32725   0.158   0.963   6.945 -0.0976  0.2566 -0.4922
 7089SOL    HW132726   0.237   1.007   6.976 -1.3673  2.3434 -0.2011
 7089SOL    HW232727   0.185   0.905   6.873 -0.5989  0.8619 -1.1760
 7090SOL     OW32728   0.758   4.153   3.107 -0.1054 -0.7959 -0.5297
 7090SOL    HW132729   0.790   4.236   3.142 -0.1397  0.2298 -2.9308
 7090SOL    HW232730   0.839   4.118   3.069 -0.4260 -2.5115  0.3594
 7091SOL     OW32731   0.928   4.432   6.134 -0.2907 -0.1673  0.0239
 7091SOL    HW132732   0.994   4.413   6.067  0.0485  0.2823  0.2297
 7091SOL    HW232733   0.844   4.402   6.098 -0.7025 -0.8039  1.4995
 7092SOL     OW32734   4.380   0.359  11.119  0.0655  0.4081  0.2777
 7092SOL    HW132735   4.448   0.366  11.186  2.5516 -1.3538 -2.0572
 7092SOL    HW232736   4.333   0.442  11.113  0.2552  0.6535  2.2411
 7093SOL     OW32737   2.561   3.965   0.926  0.2321 -0.3957 -0.6691
 7093SOL    HW132738   2.524   3.878   0.910  0.0398 -0.6441  1.1502
 7093SOL    HW232739   2.565   3.972   1.021 -1.0060  1.3893 -0.7348
 7094SOL     OW32740   4.306   0.389   3.769  0.5257  0.6521 -0.6204
 7094SOL    HW132741   4.245   0.458   3.794 -1.9796 -1.3515 -1.1587
 7094SOL    HW232742   4.291   0.329   3.842  0.8047  0.6348 -0.5797
 7095SOL     OW32743   1.485   4.595   5.417 -0.6163 -0.0603  0.3286
 7095SOL    HW132744   1.561   4.634   5.461 -1.3746  0.9279  0.7582
 7095SOL    HW232745   1.536   4.532   5.367 -0.3055 -0.1927  0.8146
 7096SOL     OW32746   4.529   3.097   6.286 -0.1868  0.1815  0.2560
 7096SOL    HW132747   4.504   3.173   6.233 -0.8661 -0.2571 -0.0528
 7096SOL    HW232748   4.507   3.022   6.231  4.6774 -0.9542 -0.1562
 7097SOL     OW32749   0.341   0.313   6.070 -0.0025  0.2311 -0.5253
 7097SOL    HW132750   0.373   0.386   6.124 -0.4480  0.1208 -0.1188
 7097SOL    HW232751   0.423   0.271   6.043  1.1122  0.1419  3.0581
 7098SOL     OW32752   3.737   4.239   8.961 -0.2071 -0.0531 -0.4825
 7098SOL    HW132753   3.656   4.229   8.911  0.5994 -4.4308 -0.9513
 7098SOL    HW232754   3.730   4.331   8.988  0.5585  0.0248 -0.5530
 7099SOL     OW32755   0.774   3.315  11.446 -0.5160 -0.3892  0.0548
 7099SOL    HW132756   0.721   3.251  11.494 -0.1050  0.0371  1.0970
 7099SOL    HW232757   0.855   3.318  11.497  0.0721  2.3716 -1.0373
 7100SOL     OW32758   1.893   1.126   5.530 -0.4887  0.2235 -0.3743
 7100SOL    HW132759   1.818   1.163   5.483 -0.7357  0.8838  0.5404
 7100SOL    HW232760   1.940   1.208   5.542  0.0160  0.2175 -2.3233
 7101SOL     OW32761   3.442   0.128   7.323  0.4131  0.0153  0.4529
 7101SOL    HW132762   3.382   0.150   7.251 -1.4190  0.2406  2.0623
 7101SOL    HW232763   3.383   0.131   7.398 -1.9196 -2.1418 -1.2950
 7102SOL     OW32764   1.477   2.737  15.763  0.2018  0.0614  0.8029
 7102SOL    HW132765   1.520   2.722  15.679 -1.0706  0.6915  0.0441
 7102SOL    HW232766   1.539   2.693  15.822  2.0647  0.2823 -0.9629
 7103SOL     OW32767   0.695   1.379  11.452  0.6120  1.0064 -0.4157
 7103SOL    HW132768   0.602   1.389  11.430  0.1647 -1.3232  0.3639
 7103SOL    HW232769   0.680   1.310  11.517  0.8828  1.3218 -0.0176
 7104SOL     OW32770   2.359   3.261  14.819 -0.0450  0.2383 -0.0124
 7104SOL    HW132771   2.336   3.181  14.772 -1.1490 -0.6648  2.0455
 7104SOL    HW232772   2.452   3.265  14.797 -0.0373  0.9643  0.1643
 7105SOL     OW32773   2.997   0.564   4.920  0.0341 -0.1466  0.1799
 7105SOL    HW132774   3.091   0.563   4.939  0.3291 -2.1483 -1.4448
 7105SOL    HW232775   2.986   0.471   4.902  1.2406 -0.5253  1.4253
 7106SOL     OW32776   4.593   2.585  13.535  0.0485  0.4291  0.4217
 7106SOL    HW132777   4.633   2.657  13.486 -0.5598  0.3283 -0.2276
 7106SOL    HW232778   4.526   2.634  13.583 -0.5035 -0.1526  0.2321
 7107SOL     OW32779   3.817   0.665   6.104  0.1341 -0.1017  0.5826
 7107SOL    HW132780   3.849   0.696   6.020 -1.9812  0.2343 -0.1045
 7107SOL    HW232781   3.780   0.580   6.081 -0.8191 -0.0703  1.9981
 7108SOL     OW32782   1.637   0.838  10.224  0.1046 -0.8207  0.1550
 7108SOL    HW132783   1.555   0.801  10.191 -0.8581  3.1537 -1.8657
 7108SOL    HW232784   1.612   0.827  10.316 -0.0151 -0.6340  0.1450
 7109SOL     OW32785   0.474   4.677   4.802  0.0220 -0.0190  0.1769
 7109SOL    HW132786   0.527   4.671   4.722  0.8158 -2.1648  0.8529
 7109SOL    HW232787   0.463   4.582   4.813  1.7778  0.2187  3.9279
 7110SOL     OW32788   1.961   4.366   4.301  0.0913  0.2900 -0.0475
 7110SOL    HW132789   2.013   4.287   4.291  2.0558  1.4825  0.8598
 7110SOL    HW232790   1.957   4.404   4.213  3.7484  0.9991  0.1085
 7111SOL     OW32791   4.118   4.506  12.580  0.2587  0.0050 -0.1660
 7111SOL    HW132792   4.161   4.562  12.516 -0.1156 -0.2635 -0.6539
 7111SOL    HW232793   4.075   4.568  12.639  3.0611  2.5092 -0.7698
 7112SOL     OW32794   0.043   3.729   2.276 -0.1862 -0.2690 -0.5244
 7112SOL    HW132795   4.714   3.786   2.333  3.4011  1.1721  1.3167
 7112SOL    HW232796   0.111   3.701   2.337  2.3424  0.3550 -3.0362
 7113SOL     OW32797   1.366   4.647   7.162  0.0296 -0.3845  0.4292
 7113SOL    HW132798   1.430   4.597   7.111  1.2017 -0.1047  1.6586
 7113SOL    HW232799   1.425   4.721   7.173  0.5822 -0.7239 -0.2437
 7114SOL     OW32800   1.110   1.470   0.353  0.5353  0.2516  0.4919
 7114SOL    HW132801   1.027   1.450   0.396 -0.7873 -0.2012 -2.2882
 7114SOL    HW232802   1.075   1.532   0.288 -1.4045 -0.8089  0.5082
 7115SOL     OW32803   1.484   1.633   0.725 -0.1923 -0.5199  0.4839
 7115SOL    HW132804   1.422   1.628   0.798  0.9759  0.4542  1.5302
 7115SOL    HW232805   1.432   1.625   0.644 -2.2058  1.4163  1.5807
 7116SOL     OW32806   2.693   0.640   7.641 -0.1056  0.0878 -0.7076
 7116SOL    HW132807   2.754   0.710   7.617  2.2827 -1.4981  0.7620
 7116SOL    HW232808   2.741   0.561   7.615  1.7717  0.2042  2.3777
 7117SOL     OW32809   3.556   4.297  14.846 -0.5237  0.5405  0.6407
 7117SOL    HW132810   3.565   4.222  14.905 -1.2911  1.0978  1.4729
 7117SOL    HW232811   3.537   4.366  14.910 -0.7226  1.8822 -0.8876
 7118SOL     OW32812   0.467   0.757   9.447  0.0443 -0.3418 -0.0433
 7118SOL    HW132813   0.374   0.734   9.450 -0.2021  0.6170 -0.3398
 7118SOL    HW232814   0.486   0.811   9.370  0.6340  0.0149  0.3442
 7119SOL     OW32815   2.515   4.456  12.592  0.1386 -0.4199 -0.2450
 7119SOL    HW132816   2.563   4.378  12.562 -0.7419 -0.9820 -0.2005
 7119SOL    HW232817   2.570   4.500  12.657 -0.4007 -3.2862  2.1797
 7120SOL     OW32818   4.040   3.783   4.513  0.1643 -0.0755 -0.7298
 7120SOL    HW132819   4.025   3.742   4.428 -0.6695 -1.5218  0.1086
 7120SOL    HW232820   4.130   3.815   4.505  0.4643 -0.5236  0.8038
 7121SOL     OW32821   0.426   0.206  17.571  0.2968  0.2962 -0.0310
 7121SOL    HW132822   0.392   0.295  17.570  1.7620  0.8496 -1.2691
 7121SOL    HW232823   0.476   0.200  17.652  1.6172 -0.9020 -0.9266
 7122SOL     OW32824   0.689   3.446   6.076  0.3081 -0.8085  0.1799
 7122SOL    HW132825   0.665   3.476   5.988  0.6151  0.0915  0.4101
 7122SOL    HW232826   0.783   3.463   6.080  0.3985 -1.3873  0.5129
 7123SOL     OW32827   3.288   0.194   7.568 -0.0372 -0.2864  0.2961
 7123SOL    HW132828   3.213   0.136   7.554 -1.0691  0.5661  2.1602
 7123SOL    HW232829   3.279   0.208   7.662  0.2422  0.0861  0.2686
 7124SOL     OW32830   0.995   3.430   0.567  0.0713  0.0131 -0.3600
 7124SOL    HW132831   1.008   3.402   0.476  1.0824 -0.9162  0.0659
 7124SOL    HW232832   0.901   3.413   0.575  0.0121  0.1337 -0.7586
 7125SOL     OW32833   0.906   1.680  11.592 -0.7601  0.3213 -0.3772
 7125SOL    HW132834   0.819   1.641  11.601  0.0121 -1.1095  1.0459
 7125SOL    HW232835   0.962   1.625  11.647  0.8702  0.3664 -1.9879
 7126SOL     OW32836   0.680   0.459   4.631  0.4912  0.9310 -0.3504
 7126SOL    HW132837   0.704   0.476   4.540  2.3672  2.7575  0.4930
 7126SOL    HW232838   0.754   0.482   4.686  1.1282 -1.5599 -0.1706
 7127SOL     OW32839   0.439   3.871   5.093  0.6051 -0.0873  0.4898
 7127SOL    HW132840   0.524   3.840   5.063 -0.1619 -1.0779 -0.6763
 7127SOL    HW232841   0.376   3.800   5.081 -0.0098  0.5908 -0.3081
 7128SOL     OW32842   1.506   2.841   5.631  0.7508 -0.7412 -0.7117
 7128SOL    HW132843   1.535   2.766   5.682  0.7360 -2.6266 -3.4400
 7128SOL    HW232844   1.571   2.900   5.668  0.5071 -0.9770  0.0879
 7129SOL     OW32845   0.128   1.988   4.182 -0.2399  0.1684  0.2844
 7129SOL    HW132846   0.078   1.955   4.256  0.2940  0.8636  0.9493
 7129SOL    HW232847   0.061   2.047   4.146  0.1071  0.5229  0.2200
 7130SOL     OW32848   1.176   3.515   4.458  0.5904  0.3200 -0.0027
 7130SOL    HW132849   1.216   3.469   4.384 -0.4773  0.5443 -0.7250
 7130SOL    HW232850   1.109   3.454   4.490  1.4134 -0.9960 -0.8005
 7131SOL     OW32851   3.402   3.715  15.413  0.9015  0.0740 -0.1217
 7131SOL    HW132852   3.374   3.714  15.505 -1.3919  0.7271 -0.7966
 7131SOL    HW232853   3.330   3.678  15.362  0.3787 -2.0403  2.1276
 7132SOL     OW32854   1.981   1.837  14.595  0.1792  0.3577 -0.1291
 7132SOL    HW132855   2.069   1.873  14.601  0.2803  0.0099  0.5032
 7132SOL    HW232856   1.944   1.909  14.543 -0.2488  0.0077 -0.3134
 7133SOL     OW32857   0.011   1.979  11.369 -0.6106 -0.7225  0.7895
 7133SOL    HW132858   0.046   1.964  11.281  0.7890  2.3827  0.8143
 7133SOL    HW232859   0.093   2.013  11.404 -0.9736 -1.1725  2.0640
 7134SOL     OW32860   3.998   2.501   4.793  0.1006 -0.2492  0.0872
 7134SOL    HW132861   3.931   2.533   4.854 -2.7242 -3.8074 -1.1593
 7134SOL    HW232862   4.017   2.411   4.820  0.1567 -0.5518 -0.9716
 7135SOL     OW32863   4.343   3.613   5.101  0.3787 -0.0540 -0.0027
 7135SOL    HW132864   4.368   3.565   5.180 -0.8937 -1.6140 -0.5377
 7135SOL    HW232865   4.269   3.664   5.133 -0.4180 -0.4858 -1.1680
 7136SOL     OW32866   1.154   4.083   4.110 -0.6170  0.0285  0.3173
 7136SOL    HW132867   1.216   4.150   4.139 -1.6311  0.9489  0.3642
 7136SOL    HW232868   1.161   4.024   4.185  1.0053 -0.8186 -0.5010
 7137SOL     OW32869   0.562   3.817   8.890 -0.0128  0.0658 -0.6972
 7137SOL    HW132870   0.567   3.871   8.969 -0.1814  0.6576 -1.0902
 7137SOL    HW232871   0.551   3.876   8.815 -1.8864  1.6769  0.8232
 7138SOL     OW32872   3.494   3.909   2.351 -0.1441  0.6535 -0.3780
 7138SOL    HW132873   3.586   3.932   2.364  0.1286 -1.4382  1.3686
 7138SOL    HW232874   3.486   3.898   2.257  0.8998 -1.4021 -0.2091
 7139SOL     OW32875   4.035   2.093   6.822  0.2704  0.4842 -0.2547
 7139SOL    HW132876   4.120   2.055   6.802  0.2703  0.1204  0.4526
 7139SOL    HW232877   3.977   2.020   6.802 -0.2109 -0.1337  3.2971
 7140SOL     OW32878   3.899   0.769   5.861  0.2976  0.6043  0.7694
 7140SOL    HW132879   3.897   0.841   5.798 -1.2811  0.6917  0.9138
 7140SOL    HW232880   3.929   0.711   5.791 -3.8068 -1.3931  0.6371
 7141SOL     OW32881   4.360   4.557  14.898  0.1378  0.2356  0.0528
 7141SOL    HW132882   4.420   4.615  14.944 -0.1254  0.7459 -0.2532
 7141SOL    HW232883   4.414   4.533  14.823 -1.8312 -2.5778 -0.4744
 7142SOL     OW32884   4.342   4.450   7.637 -0.5597  0.3889  0.1096
 7142SOL    HW132885   4.400   4.434   7.711 -0.6335 -0.2046  0.0421
 7142SOL    HW232886   4.309   4.537   7.659  1.7072  1.0928  0.7206
 7143SOL     OW32887   1.999   1.752  12.773  0.0284  0.2071  0.1112
 7143SOL    HW132888   1.931   1.775  12.836  0.7690  1.0395  0.6021
 7143SOL    HW232889   2.075   1.736  12.828  0.7108 -0.6822 -1.0901
 7144SOL     OW32890   3.613   0.863   3.758  0.2124  0.4403 -0.0288
 7144SOL    HW132891   3.541   0.804   3.782  1.0123 -0.1407  0.9491
 7144SOL    HW232892   3.653   0.805   3.694 -0.8278 -3.8401  3.1225
 7145SOL     OW32893   2.626   4.120   3.850  0.3083 -0.4294 -0.0192
 7145SOL    HW132894   2.603   4.207   3.815  0.1776 -1.5270 -2.6453
 7145SOL    HW232895   2.559   4.072   3.802  0.8514 -2.2122  1.0250
 7146SOL     OW32896   4.593   4.185  10.616  0.0458  0.3081 -0.0270
 7146SOL    HW132897   4.620   4.172  10.707  0.7418  1.2781 -0.0937
 7146SOL    HW232898   4.624   4.104  10.575 -1.6155 -0.7329  0.7537
 7147SOL     OW32899   1.222   0.515   3.447  0.5404 -0.0364 -0.2196
 7147SOL    HW132900   1.298   0.516   3.505  0.1502 -0.6549  0.2938
 7147SOL    HW232901   1.211   0.610   3.448 -0.9004 -0.2165  1.5121
 7148SOL     OW32902   2.202   2.402   2.515 -0.1666 -0.2254 -0.0144
 7148SOL    HW132903   2.262   2.338   2.476  0.0963 -0.1692  0.3030
 7148SOL    HW232904   2.133   2.386   2.450 -1.1409 -3.0605  1.7116
 7149SOL     OW32905   0.633   4.183   9.853 -0.1239 -0.1182 -0.6750
 7149SOL    HW132906   0.710   4.136   9.884 -1.3418 -0.9656  1.1259
 7149SOL    HW232907   0.654   4.267   9.892 -2.1574  1.8540 -3.7887
 7150SOL     OW32908   2.576   4.709   0.903  0.5560 -0.4353  0.0892
 7150SOL    HW132909   2.483   4.709   0.880  0.6457 -1.1579 -0.2979
 7150SOL    HW232910   2.559   4.680   0.993 -0.3137  1.0959  0.4059
 7151SOL     OW32911   0.641   3.978   8.680  0.0111 -0.1078  0.4477
 7151SOL    HW132912   0.626   4.070   8.659  2.2534  0.3521  0.8904
 7151SOL    HW232913   0.716   3.961   8.624  0.0508  1.8393 -0.0924
 7152SOL     OW32914   3.973   0.016   9.191 -0.1771 -0.3722  0.2952
 7152SOL    HW132915   3.982   4.662   9.135 -0.2344 -1.8204  2.2828
 7152SOL    HW232916   3.887   4.719   9.226  0.3037 -1.1312  1.0342
 7153SOL     OW32917   0.932   4.316   6.831  0.0514 -0.1892  0.1351
 7153SOL    HW132918   0.994   4.378   6.871 -0.6790  1.3677 -1.1406
 7153SOL    HW232919   0.862   4.371   6.795  0.2010 -0.1914 -0.1536
 7154SOL     OW32920   1.109   2.209   3.230 -0.0081  0.3535 -0.0313
 7154SOL    HW132921   1.201   2.186   3.245 -0.0194 -1.3440 -2.6118
 7154SOL    HW232922   1.078   2.232   3.317  1.7234  3.6777 -0.3019
 7155SOL     OW32923   4.281   4.203   1.965 -0.1756  0.8346  0.6152
 7155SOL    HW132924   4.281   4.298   1.981  1.4325  0.8778  0.3755
 7155SOL    HW232925   4.193   4.182   1.996 -0.7304  2.0222 -0.1279
 7156SOL     OW32926   3.659   0.691   3.529  0.1165 -0.1498 -0.1585
 7156SOL    HW132927   3.618   0.762   3.478 -1.8973  0.7814  2.7587
 7156SOL    HW232928   3.628   0.609   3.491  0.0298 -1.2683  2.3236
 7157SOL     OW32929   0.193   3.569   9.254  0.4510  0.3543  0.0672
 7157SOL    HW132930   0.209   3.636   9.321 -0.9497  0.4789  0.2631
 7157SOL    HW232931   0.255   3.602   9.189 -1.2217 -1.2046 -2.2909
 7158SOL     OW32932   0.553   1.111  15.203  0.2615 -0.1087  0.5750
 7158SOL    HW132933   0.627   1.053  15.221 -1.8820 -2.8110  0.8831
 7158SOL    HW232934   0.519   1.118  15.292  0.0017  0.0489  0.4635
 7159SOL     OW32935   1.461   2.101  10.928  0.3167  0.2735 -0.1006
 7159SOL    HW132936   1.378   2.078  10.971  0.9387 -0.0400  0.9210
 7159SOL    HW232937   1.469   2.192  10.959 -0.7104  0.9895 -1.9071
 7160SOL     OW32938   2.618   1.839   2.399 -0.0088 -0.6851 -0.1104
 7160SOL    HW132939   2.650   1.873   2.316 -0.2603 -0.8735 -0.2827
 7160SOL    HW232940   2.660   1.889   2.469 -1.6985 -1.0021  1.1271
 7161SOL     OW32941   2.569   1.539  10.705 -0.3340 -0.3858  0.2916
 7161SOL    HW132942   2.484   1.579  10.685  0.5448 -0.4324 -3.5012
 7161SOL    HW232943   2.551   1.515  10.796  1.2579  2.0402  1.2555
 7162SOL     OW32944   2.231   1.085   4.565 -0.1641 -0.3341  0.2137
 7162SOL    HW132945   2.279   1.078   4.647 -0.6183  0.0439  0.5083
 7162SOL    HW232946   2.285   1.021   4.517  1.1965  0.9546  0.0271
 7163SOL     OW32947   1.116   2.836   5.211 -0.0622  0.2052  0.1502
 7163SOL    HW132948   1.136   2.887   5.290  2.7132  0.8552 -0.9523
 7163SOL    HW232949   1.060   2.772   5.254 -2.0202  1.5088 -0.4616
 7164SOL     OW32950   1.936   3.054   2.952 -0.2424 -0.6225  0.0981
 7164SOL    HW132951   1.856   3.001   2.950 -1.2736  0.9710 -0.5556
 7164SOL    HW232952   1.956   3.058   3.046 -0.5448  1.1776  0.0945
 7165SOL     OW32953   3.923   4.344   6.828  0.2667  0.5216 -0.1161
 7165SOL    HW132954   3.896   4.409   6.763 -1.0078 -0.0971 -0.1926
 7165SOL    HW232955   3.896   4.263   6.786  1.3319  0.3070 -0.4074
 7166SOL     OW32956   3.429   2.689  15.232  0.2331  0.1524 -0.2039
 7166SOL    HW132957   3.370   2.762  15.252  0.2474  0.3620 -0.9278
 7166SOL    HW232958   3.500   2.710  15.292 -0.7948 -0.5772  1.2749
 7167SOL     OW32959   0.507   4.458  10.993  0.3715  0.2224  0.8941
 7167SOL    HW132960   0.558   4.386  11.030  2.3496  0.2402 -1.8141
 7167SOL    HW232961   0.570   4.497  10.933  0.1354  2.4490  2.1062
 7168SOL     OW32962   0.844   4.413   8.635  0.1902 -0.0281  0.0258
 7168SOL    HW132963   0.860   4.478   8.566 -1.8971 -1.1499 -1.5266
 7168SOL    HW232964   0.808   4.478   8.695  0.7318  1.5479 -1.3542
 7169SOL     OW32965   2.970   1.773   7.674 -0.0876 -0.0646  0.0524
 7169SOL    HW132966   3.021   1.852   7.691  0.2392 -0.2791  0.0913
 7169SOL    HW232967   2.948   1.746   7.763 -1.6383 -1.3401 -0.7214
 7170SOL     OW32968   4.398   2.582   0.350  0.1595 -0.2763  0.0712
 7170SOL    HW132969   4.381   2.611   0.440 -0.7967  0.6390 -0.4039
 7170SOL    HW232970   4.491   2.600   0.335  0.4020 -1.0442  0.6737
 7171SOL     OW32971   0.932   3.553   8.205  0.4678 -0.4340 -0.0654
 7171SOL    HW132972   0.862   3.491   8.181  0.5689 -0.8857  0.8144
 7171SOL    HW232973   0.887   3.635   8.186  0.2339 -0.5807 -0.1589
 7172SOL     OW32974   2.672   0.845   8.736  0.2236 -0.5505 -0.4417
 7172SOL    HW132975   2.629   0.928   8.754  0.3290 -0.4022 -0.8639
 7172SOL    HW232976   2.648   0.841   8.643 -0.8944 -2.1225 -0.0750
 7173SOL     OW32977   4.022   2.951   9.202  0.0676 -0.0509 -0.4122
 7173SOL    HW132978   3.970   2.875   9.228  1.1093 -1.2799 -1.9000
 7173SOL    HW232979   4.079   2.912   9.135  1.0231 -1.2855  1.1336
 7174SOL     OW32980   2.270   2.042   2.025  0.6089 -0.0513  0.6294
 7174SOL    HW132981   2.218   1.999   1.956  0.8223  2.5975 -1.1647
 7174SOL    HW232982   2.204   2.088   2.076 -0.9885 -5.1630  3.1629
 7175SOL     OW32983   1.950   2.516   7.082  0.6732 -0.0033  0.2794
 7175SOL    HW132984   1.881   2.552   7.138  1.7018  0.6722  1.1115
 7175SOL    HW232985   1.933   2.571   7.006 -0.6705 -1.4489 -0.4670
 7176SOL     OW32986   0.546   3.605   3.419 -0.1309 -0.0119 -0.4695
 7176SOL    HW132987   0.585   3.671   3.475 -1.4935  0.1880  0.2395
 7176SOL    HW232988   0.454   3.602   3.448  1.0967 -2.4942  3.1989
 7177SOL     OW32989   3.725   0.605   1.208  0.3045  0.3102  0.2054
 7177SOL    HW132990   3.647   0.575   1.161  0.3316  1.3126 -0.4803
 7177SOL    HW232991   3.738   0.685   1.158 -0.8562  0.4166  0.0631
 7178SOL     OW32992   4.122   3.370   6.697 -0.1640  0.4533  0.1794
 7178SOL    HW132993   4.082   3.397   6.780  1.2324  1.9691  0.3376
 7178SOL    HW232994   4.107   3.275   6.700  2.2956  0.2329  4.7713
 7179SOL     OW32995   0.577   3.178   3.071 -0.2844 -0.2291 -0.0709
 7179SOL    HW132996   0.575   3.242   2.999 -0.3561 -0.7658 -0.5462
 7179SOL    HW232997   0.567   3.095   3.024 -0.1449 -1.8211  2.7141
 7180SOL     OW32998   3.551   0.259   6.538 -0.1059  0.3588  0.0699
 7180SOL    HW132999   3.472   0.287   6.492  0.1116 -0.0048 -0.5205
 7180SOL    HW233000   3.521   0.193   6.601  1.9240 -0.5954  0.0388
 7181SOL     OW33001   1.023   2.598   3.996 -0.1473  0.0881  0.1299
 7181SOL    HW133002   1.089   2.596   3.927 -1.8306 -1.0934 -1.4477
 7181SOL    HW233003   0.996   2.689   3.984  0.6802  0.5179  1.4947
 7182SOL     OW33004   3.906   0.601   5.155 -0.1056 -0.4090  0.6030
 7182SOL    HW133005   3.911   0.506   5.147 -1.4689 -0.4600  0.3330
 7182SOL    HW233006   3.910   0.639   5.067  3.2895  0.0738  0.9630
 7183SOL     OW33007   0.496   3.530   2.459 -0.0736 -0.1245  0.2607
 7183SOL    HW133008   0.462   3.441   2.448 -0.2736 -0.0069 -0.0692
 7183SOL    HW233009   0.583   3.511   2.425 -0.0200 -0.5916  0.6475
 7184SOL     OW33010   0.102   1.645   6.939 -0.2342  0.2669  0.0343
 7184SOL    HW133011   0.186   1.627   6.981  0.9312  2.3364 -1.3835
 7184SOL    HW233012   0.127   1.728   6.898 -1.0040 -0.2196 -1.4479
 7185SOL     OW33013   4.493   2.796   8.293 -0.2563  0.0369  0.1515
 7185SOL    HW133014   4.409   2.830   8.260 -1.8150 -2.5789  1.3680
 7185SOL    HW233015   4.455   2.718   8.333 -0.5754 -0.6559 -1.4844
 7186SOL     OW33016   2.345   4.394   5.027 -0.3088  0.3004  0.2150
 7186SOL    HW133017   2.263   4.354   5.054  1.3388 -1.9547  1.8384
 7186SOL    HW233018   2.402   4.317   5.018 -0.1317  0.5701 -0.9174
 7187SOL     OW33019   0.442   3.160   0.796  0.1380  0.3395  0.2162
 7187SOL    HW133020   0.457   3.082   0.743  0.0918  0.7076 -0.3401
 7187SOL    HW233021   0.368   3.129   0.847  0.2259 -0.5160 -0.1795
 7188SOL     OW33022   3.739   0.713  10.963 -0.3877 -0.3604 -0.2788
 7188SOL    HW133023   3.760   0.805  10.977 -2.1594  0.2599 -1.6683
 7188SOL    HW233024   3.647   0.723  10.938  0.4144  2.1484 -2.2941
 7189SOL     OW33025   1.680   0.432   8.819  0.1104 -0.7124 -0.2679
 7189SOL    HW133026   1.676   0.523   8.790  0.6227 -0.6839 -0.2614
 7189SOL    HW233027   1.747   0.395   8.761  2.8077  1.3900  1.4823
 7190SOL     OW33028   0.205   3.804   9.010 -0.0030  0.3511  0.2853
 7190SOL    HW133029   0.121   3.798   9.056 -1.2827  1.0681 -1.9758
 7190SOL    HW233030   0.228   3.897   9.006  0.9284  0.0777 -0.8451
 7191SOL     OW33031   1.562   1.145   1.481  0.1925  0.6052  0.2358
 7191SOL    HW133032   1.519   1.157   1.396  0.8697  0.4561 -0.1287
 7191SOL    HW233033   1.633   1.089   1.450 -0.2049 -0.7501  1.7736
 7192SOL     OW33034   3.844   4.236  14.847 -0.1574  0.6532 -0.5246
 7192SOL    HW133035   3.802   4.152  14.830 -0.7589  0.8007  0.2428
 7192SOL    HW233036   3.784   4.304  14.817 -0.8471  0.4691  0.4369
 7193SOL     OW33037   2.220   3.820   5.214  0.4299 -0.9143 -0.5203
 7193SOL    HW133038   2.308   3.845   5.240  0.1955  0.4224 -0.9797
 7193SOL    HW233039   2.237   3.736   5.171 -1.1536 -0.3423 -2.2783
 7194SOL     OW33040   1.929   0.425  15.965  0.9397  0.9937  0.5152
 7194SOL    HW133041   1.978   0.501  15.995  1.8809  0.3539  0.5937
 7194SOL    HW233042   1.881   0.469  15.895  1.1684  0.2054 -0.1378
 7195SOL     OW33043   0.427   1.129  15.441 -0.0232  0.2247 -0.4515
 7195SOL    HW133044   0.472   1.058  15.486 -0.7452 -0.0104 -0.1013
 7195SOL    HW233045   0.393   1.168  15.521 -1.1092 -0.4604 -0.5721
 7196SOL     OW33046   4.076   1.880  12.426 -0.2399 -0.2696  0.3584
 7196SOL    HW133047   4.057   1.805  12.369  2.1350 -1.7600  1.5337
 7196SOL    HW233048   4.010   1.863  12.493 -0.1840 -0.6152  0.3292
 7197SOL     OW33049   3.663   2.060  14.784  0.2799  0.5031  0.0747
 7197SOL    HW133050   3.599   2.047  14.715 -1.3577 -0.1847  1.7431
 7197SOL    HW233051   3.727   2.109  14.732  1.3576  1.4352  2.2675
 7198SOL     OW33052   2.455   4.227   8.750  0.4563  0.1921  0.3410
 7198SOL    HW133053   2.496   4.307   8.716  1.2936 -0.5639 -0.4455
 7198SOL    HW233054   2.388   4.225   8.681 -0.0318  0.3253  0.8127
 7199SOL     OW33055   4.688   3.036   1.399  0.3732 -0.2825  0.4538
 7199SOL    HW133056   4.626   2.964   1.391 -0.8254  0.7598  0.3802
 7199SOL    HW233057   4.641   3.113   1.366  0.1234 -1.3464 -1.6838
 7200SOL     OW33058   1.694   1.407   5.265 -0.1063  0.0658 -0.0781
 7200SOL    HW133059   1.761   1.396   5.197  0.8453 -2.2395  1.2134
 7200SOL    HW233060   1.629   1.455   5.215 -0.2611 -0.2436 -0.1749
 7201SOL     OW33061   1.164   4.295   6.657 -0.1518 -0.2355 -0.1834
 7201SOL    HW133062   1.158   4.327   6.567 -0.7639 -0.8957 -0.3821
 7201SOL    HW233063   1.072   4.295   6.683 -0.0530 -0.3634  0.1668
 7202SOL     OW33064   4.291   3.688   9.341  0.1062  0.4064  0.5099
 7202SOL    HW133065   4.283   3.598   9.371  2.1212 -0.1642 -0.6958
 7202SOL    HW233066   4.294   3.689   9.245 -1.7434 -2.5973  0.4074
 7203SOL     OW33067   0.790   2.940   4.300  0.5790  0.3373  0.2129
 7203SOL    HW133068   0.703   2.945   4.340  0.0336  0.3982 -0.9852
 7203SOL    HW233069   0.817   3.032   4.302  0.4320  0.4011 -0.8140
 7204SOL     OW33070   2.637   4.126   2.190 -0.8508 -0.3416 -0.0959
 7204SOL    HW133071   2.660   4.142   2.282 -0.7556 -0.9068 -0.0176
 7204SOL    HW233072   2.723   4.159   2.163 -0.2277 -0.8174  1.2671
 7205SOL     OW33073   4.379   2.027   3.836 -0.6020  0.4243  0.5316
 7205SOL    HW133074   4.386   1.989   3.923 -0.1154  0.7411  0.6294
 7205SOL    HW233075   4.392   2.122   3.843 -0.0603  0.3631  0.3261
 7206SOL     OW33076   3.993   4.249   5.754 -0.0638  0.1303 -0.2709
 7206SOL    HW133077   3.965   4.210   5.671  0.8994  0.0995 -0.5799
 7206SOL    HW233078   3.908   4.289   5.774 -0.9376 -1.6015 -0.4690
 7207SOL     OW33079   0.500   2.608   7.771 -0.0543 -0.0729  0.5545
 7207SOL    HW133080   0.511   2.624   7.677 -0.3493  1.0018  0.7138
 7207SOL    HW233081   0.406   2.596   7.779  0.1808 -1.5063  1.1630
 7208SOL     OW33082   3.829   2.001   6.535 -0.1580  0.2932  0.2169
 7208SOL    HW133083   3.917   1.996   6.497 -0.7727 -0.8393 -1.0458
 7208SOL    HW233084   3.842   1.946   6.612 -0.5018  0.2718  0.2576
 7209SOL     OW33085   2.643   4.241  12.479 -0.3859 -0.1015 -0.6732
 7209SOL    HW133086   2.664   4.152  12.507  2.8988  0.8634 -0.1532
 7209SOL    HW233087   2.614   4.229  12.388  0.3909 -2.0362 -0.6850
 7210SOL     OW33088   2.337   3.118   9.133  0.0577  0.1831  0.0114
 7210SOL    HW133089   2.334   3.168   9.051 -0.8775  1.8773  1.0808
 7210SOL    HW233090   2.392   3.181   9.180 -0.0695 -0.1287  0.5711
 7211SOL     OW33091   0.375   1.965   9.201 -0.4830  0.7206  0.0232
 7211SOL    HW133092   0.285   1.995   9.191 -0.8969 -1.5010 -2.9332
 7211SOL    HW233093   0.359   1.909   9.278  1.8592  0.8281  0.5903
 7212SOL     OW33094   3.235   4.585  14.863 -0.7197  0.3017 -0.1657
 7212SOL    HW133095   3.141   4.588  14.847 -0.2560  1.9544 -2.5194
 7212SOL    HW233096   3.257   4.511  14.807 -2.2355 -0.5513  0.3388
 7213SOL     OW33097   3.422   4.124  15.530  0.1485  0.6093 -0.0605
 7213SOL    HW133098   3.444   4.199  15.586  0.1048 -0.5338  1.4652
 7213SOL    HW233099   3.327   4.122  15.520 -0.1315 -0.2647  2.7468
 7214SOL     OW33100   1.142   0.571   0.163 -0.1782 -0.4889 -0.4148
 7214SOL    HW133101   1.175   0.486   0.134  4.7938  1.3922 -0.2232
 7214SOL    HW233102   1.169   0.627   0.091  0.4221  1.0499  1.0155
 7215SOL     OW33103   2.055   1.186   2.514 -0.0382 -0.2482  0.4538
 7215SOL    HW133104   2.108   1.194   2.435  1.5630  0.4194  1.5926
 7215SOL    HW233105   2.028   1.275   2.535  2.1574  0.4931  0.1129
 7216SOL     OW33106   0.503   4.145   4.798 -0.1831  0.3303  0.0289
 7216SOL    HW133107   0.570   4.149   4.730 -0.1593 -1.9616 -0.0624
 7216SOL    HW233108   0.557   4.155   4.877  0.3404 -1.4700 -0.1057
 7217SOL     OW33109   2.332   1.626   7.322  0.1405 -0.4004 -0.1045
 7217SOL    HW133110   2.407   1.583   7.363 -0.0501  1.7700  2.4933
 7217SOL    HW233111   2.261   1.572   7.358  0.1782  0.1766  0.8366
 7218SOL     OW33112   0.903   0.427  16.633  0.4957  0.0913 -0.2907
 7218SOL    HW133113   0.896   0.338  16.669 -1.0386  0.5856  0.6643
 7218SOL    HW233114   0.884   0.413  16.541 -1.6798  3.1262 -0.3108
 7219SOL     OW33115   0.964   2.422   4.409 -0.0121 -0.3949  0.0877
 7219SOL    HW133116   0.894   2.363   4.379 -0.4204  0.0144  0.2326
 7219SOL    HW233117   0.934   2.513   4.407 -1.0430 -0.6874  2.4843
 7220SOL     OW33118   3.337   1.076   3.118 -0.2850  0.1838 -0.5485
 7220SOL    HW133119   3.409   1.081   3.056  0.0042 -0.1857 -0.2438
 7220SOL    HW233120   3.263   1.048   3.064 -0.4642  0.1217 -0.2708
 7221SOL     OW33121   4.674   1.495  10.325 -0.2874 -0.0447 -0.1722
 7221SOL    HW133122   4.612   1.499  10.252 -1.1760  1.4069  0.6494
 7221SOL    HW233123   4.631   1.534  10.402  0.8254  1.0780 -0.1088
 7222SOL     OW33124   0.893   1.977   6.148  0.1251 -0.0419  0.2550
 7222SOL    HW133125   0.857   1.976   6.237 -0.7659 -2.5816 -0.1344
 7222SOL    HW233126   0.867   2.063   6.117 -0.6788 -1.1884 -2.2605
 7223SOL     OW33127   1.657   2.288   9.380 -0.0634 -0.6302  0.4065
 7223SOL    HW133128   1.744   2.275   9.343 -1.0051 -0.9235 -1.6940
 7223SOL    HW233129   1.681   2.303   9.472  3.1715 -0.2653 -0.4965
 7224SOL     OW33130   3.470   0.701   2.334 -0.4565 -0.5016 -0.2152
 7224SOL    HW133131   3.539   0.744   2.284 -2.1806  0.0682 -2.1135
 7224SOL    HW233132   3.461   0.617   2.289  0.5800 -1.3655  1.2029
 7225SOL     OW33133   3.224   4.575   8.118  0.2776 -0.1647 -0.1291
 7225SOL    HW133134   3.297   4.514   8.123  0.2478 -0.2655 -1.0005
 7225SOL    HW233135   3.149   4.517   8.101 -0.5407  1.1727 -1.0529
 7226SOL     OW33136   2.859   4.150   3.135  0.4901 -0.0160 -0.1496
 7226SOL    HW133137   2.827   4.186   3.218  2.1033  0.8578  0.0857
 7226SOL    HW233138   2.781   4.150   3.078  0.2249  1.7731  0.2137
 7227SOL     OW33139   1.346   1.771   3.623 -0.2040  0.0734  0.1630
 7227SOL    HW133140   1.254   1.788   3.602  0.1385  1.5552 -0.1725
 7227SOL    HW233141   1.382   1.860   3.626  0.4492 -0.1991  0.3595
 7228SOL     OW33142   3.790   2.834   3.062 -0.2218  0.4848 -0.1786
 7228SOL    HW133143   3.794   2.929   3.050 -1.1765  0.5080 -0.3394
 7228SOL    HW233144   3.773   2.819   3.155  0.4674 -2.1157 -0.4589
 7229SOL     OW33145   4.329   4.644   0.068  0.1704 -0.3005 -0.4337
 7229SOL    HW133146   4.323   0.010   0.103  0.6669 -0.3556 -0.2093
 7229SOL    HW233147   4.425   4.644   0.062  0.2509 -1.2889  0.8310
 7230SOL     OW33148   3.321   3.986   2.581 -0.1117  0.2475 -0.5713
 7230SOL    HW133149   3.299   4.038   2.504 -1.1353  1.2927  0.4272
 7230SOL    HW233150   3.399   3.942   2.547 -0.7505  0.3458 -2.1468
 7231SOL     OW33151   0.922   4.084   7.413 -0.3066  0.1398  0.3309
 7231SOL    HW133152   0.891   3.994   7.419  0.2138 -0.0049  0.8229
 7231SOL    HW233153   1.005   4.083   7.367 -1.5942  1.4136 -2.0027
 7232SOL     OW33154   1.020   3.634   5.920 -0.4127 -0.0425 -0.9348
 7232SOL    HW133155   1.110   3.606   5.934 -0.7706 -0.2564  0.9954
 7232SOL    HW233156   0.974   3.606   6.000  2.8672 -2.1307  0.1998
 7233SOL     OW33157   1.992   3.889   8.149  0.5393 -0.5939 -0.0459
 7233SOL    HW133158   2.057   3.827   8.181  0.3845  1.1022  3.4690
 7233SOL    HW233159   1.909   3.867   8.192  0.3350  0.9302  0.3288
 7234SOL     OW33160   1.699   3.497  13.463  0.2035  0.4015 -0.3889
 7234SOL    HW133161   1.779   3.538  13.496 -0.4218 -0.1588  1.8530
 7234SOL    HW233162   1.647   3.502  13.544 -0.0922 -0.7172 -0.5048
 7235SOL     OW33163   1.988   1.968  12.599  0.3833 -0.1813  0.0565
 7235SOL    HW133164   1.984   1.896  12.661  0.6202 -0.4139 -0.2000
 7235SOL    HW233165   2.071   2.009  12.625  0.5103  0.9720 -2.1565
 7236SOL     OW33166   1.720   0.742   8.190 -0.2082 -0.2582 -0.3853
 7236SOL    HW133167   1.708   0.691   8.270 -0.3364  1.2342  0.5490
 7236SOL    HW233168   1.666   0.820   8.203  1.1412  0.6126  0.0923
 7237SOL     OW33169   2.709   4.703   5.592  0.5887 -0.3366  0.0538
 7237SOL    HW133170   2.638   0.031   5.553 -0.6757 -2.6682 -0.6765
 7237SOL    HW233171   2.759   0.047   5.640 -2.7681  0.3547  2.5566
 7238SOL     OW33172   1.544   3.960   9.109 -0.0874  0.0091  0.1242
 7238SOL    HW133173   1.506   4.014   9.177  2.1128  1.4531  0.1933
 7238SOL    HW233174   1.522   3.871   9.138  1.2188  0.3014  1.9587
 7239SOL     OW33175   1.258   4.257   6.216  0.4385 -0.0395 -0.5560
 7239SOL    HW133176   1.193   4.231   6.151 -1.2063  2.8341 -0.0506
 7239SOL    HW233177   1.335   4.273   6.160 -0.1725 -0.5071 -1.5285
 7240SOL     OW33178   3.043   4.506   6.689 -0.3035  0.5662  0.1721
 7240SOL    HW133179   3.081   4.427   6.652 -0.7840  0.6440 -0.4959
 7240SOL    HW233180   3.091   4.526   6.769  1.5503  1.0198 -1.0551
 7241SOL     OW33181   0.748   1.693  15.729 -0.4016 -0.1740  0.0957
 7241SOL    HW133182   0.733   1.635  15.803 -0.2636  2.7721  2.4187
 7241SOL    HW233183   0.841   1.712  15.743 -0.4636  0.1696  0.0492
 7242SOL     OW33184   1.416   2.755  13.758 -0.0790  0.5454  0.0931
 7242SOL    HW133185   1.482   2.753  13.826 -1.7703 -0.9903  1.6793
 7242SOL    HW233186   1.338   2.709  13.789  1.4801 -0.7898  1.9500
 7243SOL     OW33187   1.961   0.149  15.934 -0.0617  0.4751 -0.0621
 7243SOL    HW133188   1.993   0.238  15.947 -0.3284  0.6392 -0.5382
 7243SOL    HW233189   1.871   0.145  15.968 -0.1256  0.7975 -0.2000
 7244SOL     OW33190   2.687   3.094   3.555 -0.1958 -0.3289 -0.1157
 7244SOL    HW133191   2.712   3.050   3.637  1.5237 -0.7742 -0.8998
 7244SOL    HW233192   2.757   3.097   3.490  0.8046  0.4069  1.0053
 7245SOL     OW33193   3.445   2.337   5.211  0.2164 -0.1179  0.3105
 7245SOL    HW133194   3.368   2.319   5.264 -0.3364 -1.8660 -1.1343
 7245SOL    HW233195   3.433   2.428   5.183 -0.1312 -1.0056 -2.4158
 7246SOL     OW33196   3.148   3.867  13.986 -0.2826 -0.0440  0.3142
 7246SOL    HW133197   3.112   3.884  13.899  1.4045  0.1578 -0.3442
 7246SOL    HW233198   3.186   3.779  13.989 -2.8171 -1.0768  1.8701
 7247SOL     OW33199   1.640   3.054   7.181 -0.0136  0.7316 -0.4527
 7247SOL    HW133200   1.559   3.010   7.155  0.5894 -0.6816  0.0172
 7247SOL    HW233201   1.683   2.998   7.246 -1.3369  0.1545 -0.0670
 7248SOL     OW33202   2.860   0.765   8.306 -0.3306  0.1735 -0.0118
 7248SOL    HW133203   2.806   0.776   8.384 -1.2172 -1.3238 -0.4001
 7248SOL    HW233204   2.792   0.743   8.242  0.5506 -0.7213 -0.6502
 7249SOL     OW33205   1.239   0.372   3.213 -0.3575 -0.6051  0.2263
 7249SOL    HW133206   1.316   0.424   3.190 -1.8919  1.1379 -0.9426
 7249SOL    HW233207   1.228   0.405   3.302  0.5796  0.8001 -0.1757
 7250SOL     OW33208   0.213   1.371  16.119  0.2434  0.2329 -0.2920
 7250SOL    HW133209   0.169   1.314  16.182 -2.0933  0.6033 -1.5906
 7250SOL    HW233210   0.281   1.402  16.178  0.0161  2.2435 -1.0663
 7251SOL     OW33211   1.008   2.689   8.529 -0.0745 -0.0313 -0.5881
 7251SOL    HW133212   0.939   2.681   8.594  0.1173 -0.7120 -0.4671
 7251SOL    HW233213   1.017   2.783   8.515 -0.0303 -0.1594 -1.4740
 7252SOL     OW33214   0.926   2.623  12.108 -0.5341 -0.4506  0.5633
 7252SOL    HW133215   0.977   2.546  12.085  0.8854  0.8677 -0.6520
 7252SOL    HW233216   0.844   2.597  12.066 -0.3356  1.4855 -0.9573
 7253SOL     OW33217   4.538   2.380   5.204 -0.2640  0.0535 -0.2080
 7253SOL    HW133218   4.452   2.382   5.163 -0.6266 -0.0949  0.5537
 7253SOL    HW233219   4.523   2.355   5.295 -0.7221 -2.5469 -1.0228
 7254SOL     OW33220   2.165   2.142   6.160  1.0899 -0.1171  0.5404
 7254SOL    HW133221   2.130   2.067   6.208 -1.4709  0.6514 -0.0700
 7254SOL    HW233222   2.243   2.174   6.205  0.6155  0.5917  0.8636
 7255SOL     OW33223   4.126   4.345   8.576 -0.5534  0.6264  0.1323
 7255SOL    HW133224   4.037   4.330   8.609 -0.2607 -1.1933  0.0879
 7255SOL    HW233225   4.133   4.258   8.538  2.9433 -0.5622  3.4483
 7256SOL     OW33226   3.412   1.418   9.301 -0.1332  0.4059  0.1860
 7256SOL    HW133227   3.384   1.436   9.211 -1.8766  2.2745  1.1098
 7256SOL    HW233228   3.495   1.465   9.301 -0.2964  0.6759  1.5499
 7257SOL     OW33229   2.029   2.539  10.298 -0.2294  0.0718 -0.0897
 7257SOL    HW133230   1.991   2.451  10.294 -1.6504  0.6385  1.1669
 7257SOL    HW233231   2.076   2.529  10.382 -1.7311  1.3885  0.8905
 7258SOL     OW33232   0.617   0.584   3.336  0.4005  0.5545  0.1685
 7258SOL    HW133233   0.640   0.667   3.295 -1.8525  0.2725 -1.7208
 7258SOL    HW233234   0.621   0.517   3.267  1.3090 -0.8703  1.5915
 7259SOL     OW33235   1.323   3.135   5.047 -0.2104 -0.3454 -0.1307
 7259SOL    HW133236   1.317   3.059   4.988 -1.2037 -0.7978  0.5585
 7259SOL    HW233237   1.294   3.208   4.993  1.5857  0.3409 -0.1879
 7260SOL     OW33238   0.878   3.445   9.883 -0.5067 -0.0889  0.2831
 7260SOL    HW133239   0.959   3.449   9.833 -0.5905  0.3641  0.1860
 7260SOL    HW233240   0.812   3.458   9.815  0.0731  0.5187 -0.1524
 7261SOL     OW33241   0.415   4.359   3.446  0.2026 -0.3536  0.3139
 7261SOL    HW133242   0.443   4.338   3.357  0.8946  2.3441 -0.1066
 7261SOL    HW233243   0.501   4.373   3.485 -0.8108  0.5285  2.2088
 7262SOL     OW33244   3.731   4.224   7.474  0.2471  0.1552 -0.5726
 7262SOL    HW133245   3.649   4.245   7.519 -0.0059 -0.6298 -0.6589
 7262SOL    HW233246   3.744   4.307   7.428  1.1224 -0.2820 -1.1016
 7263SOL     OW33247   1.233   0.333   4.177 -0.3946 -0.3602  0.2640
 7263SOL    HW133248   1.307   0.275   4.156 -3.5273 -4.2106 -0.0687
 7263SOL    HW233249   1.241   0.359   4.268  2.8113  1.9093 -0.6493
 7264SOL     OW33250   0.028   1.719   7.276  0.0723  0.1389  0.1086
 7264SOL    HW133251   4.666   1.691   7.313  0.2580 -0.8344 -0.2141
 7264SOL    HW233252   0.042   1.649   7.213 -1.3725  0.2574 -0.3490
 7265SOL     OW33253   2.756   0.185  15.946 -0.1348  0.0868 -0.1269
 7265SOL    HW133254   2.763   0.100  15.989  4.5630 -0.3363 -1.7040
 7265SOL    HW233255   2.795   0.247  16.007 -0.8526  0.2081  0.2037
 7266SOL     OW33256   0.733   0.611   0.139  0.6551  0.7261  0.2855
 7266SOL    HW133257   0.668   0.571   0.197  1.4770  0.1365  0.8082
 7266SOL    HW233258   0.808   0.616   0.198 -0.3129  0.4614  1.5297
 7267SOL     OW33259   3.607   0.207   4.467  0.1557  0.5220 -0.0509
 7267SOL    HW133260   3.552   0.129   4.479  1.3384 -0.2483  0.3128
 7267SOL    HW233261   3.538   0.273   4.461  0.8086  1.0127 -2.1562
 7268SOL     OW33262   3.796   2.981  15.602 -0.0640  0.1576  0.0743
 7268SOL    HW133263   3.723   3.017  15.653 -0.6768  0.1130 -0.7658
 7268SOL    HW233264   3.854   2.947  15.670  2.1653  0.3662 -1.7008
 7269SOL     OW33265   4.380   1.944   9.162  0.4216 -0.3016 -0.2403
 7269SOL    HW133266   4.388   1.854   9.193  0.0554  0.1434  1.1518
 7269SOL    HW233267   4.460   1.959   9.110 -0.2377 -2.2688 -1.8183
 7270SOL     OW33268   4.431   1.682   3.306  0.3144 -0.3149  0.2108
 7270SOL    HW133269   4.442   1.587   3.312  1.6504 -0.0987  1.3081
 7270SOL    HW233270   4.367   1.691   3.236 -0.6215 -3.8867  0.6215
 7271SOL     OW33271   3.188   3.658   3.457 -0.0951 -0.0574  0.3607
 7271SOL    HW133272   3.136   3.710   3.519 -0.7935  0.5726 -0.7522
 7271SOL    HW233273   3.148   3.682   3.374  1.3294  4.5863  1.0299
 7272SOL     OW33274   2.826   3.908   2.795 -0.3753  0.6334  0.0024
 7272SOL    HW133275   2.904   3.956   2.767 -0.3314  1.0780  0.9060
 7272SOL    HW233276   2.876   3.851   2.853 -1.1216  1.0804  1.0795
 7273SOL     OW33277   4.057   2.491   7.352 -0.3922  0.3790  0.5635
 7273SOL    HW133278   4.074   2.573   7.399 -0.1558 -0.1558  1.4162
 7273SOL    HW233279   4.139   2.475   7.305  0.8574 -0.5784  3.1143
 7274SOL     OW33280   2.281   3.903   8.974  0.2998 -0.0937  1.0834
 7274SOL    HW133281   2.299   3.810   8.959  0.4875  0.1034  0.0786
 7274SOL    HW233282   2.253   3.916   8.884  1.5990  2.9773  1.1338
 7275SOL     OW33283   4.455   3.596  10.099  0.4630 -0.0695  0.5363
 7275SOL    HW133284   4.477   3.626  10.011 -0.3537 -0.8356  0.0770
 7275SOL    HW233285   4.375   3.643  10.121  0.6938  1.1376 -1.1986
 7276SOL     OW33286   1.891   3.587   3.071  0.2296 -0.2772  0.5319
 7276SOL    HW133287   1.852   3.650   3.011 -0.4400 -2.1682 -0.9889
 7276SOL    HW233288   1.854   3.505   3.039  1.3209 -0.4440 -0.3308
 7277SOL     OW33289   2.275   3.513  17.290  0.3849 -0.1493  0.1897
 7277SOL    HW133290   2.189   3.547  17.317  0.2098 -0.1311 -0.3918
 7277SOL    HW233291   2.249   3.421  17.294 -1.2804  0.2288 -1.7861
 7278SOL     OW33292   0.520   0.559   0.342 -0.2347 -0.1668 -0.1987
 7278SOL    HW133293   0.440   0.523   0.305 -0.8888  0.9022  0.1933
 7278SOL    HW233294   0.493   0.552   0.434 -0.2530 -0.7244 -0.2416
 7279SOL     OW33295   1.714   1.544   5.953 -0.5572 -0.2750  0.2471
 7279SOL    HW133296   1.766   1.540   5.873  0.8938 -0.2950  1.1739
 7279SOL    HW233297   1.660   1.465   5.959  2.3468 -2.2453  0.5134
 7280SOL     OW33298   1.186   2.051   6.078 -0.7648 -0.3994 -0.3706
 7280SOL    HW133299   1.094   2.040   6.104 -0.6533  1.8192  0.9988
 7280SOL    HW233300   1.226   1.975   6.120 -1.3208 -0.4135  0.1292
 7281SOL     OW33301   1.036   0.673   9.923 -0.6004  0.0745 -0.0520
 7281SOL    HW133302   1.045   0.637   9.835  0.1366  1.3093 -0.4901
 7281SOL    HW233303   1.077   0.760   9.917  1.4294 -1.2089 -5.4297
 7282SOL     OW33304   1.004   0.282  16.146  0.1344  0.0582  0.3665
 7282SOL    HW133305   1.027   0.315  16.059  1.3932 -0.1057  0.6475
 7282SOL    HW233306   0.925   0.230  16.128 -0.1377  0.6967 -0.2687
 7283SOL     OW33307   4.610   3.793   3.328 -0.5813 -0.2645  0.7458
 7283SOL    HW133308   4.563   3.867   3.290  1.7809  1.2245  0.7290
 7283SOL    HW233309   4.690   3.831   3.366  1.1037 -3.1738  0.1114
 7284SOL     OW33310   0.958   0.892   5.717  0.7084 -0.3276  0.4320
 7284SOL    HW133311   0.890   0.850   5.665  0.3430  1.4070 -0.5034
 7284SOL    HW233312   0.942   0.985   5.698  0.0249 -1.0122 -2.3626
 7285SOL     OW33313   1.169   3.611   1.444 -0.4322  0.5735 -0.0022
 7285SOL    HW133314   1.157   3.548   1.516  0.1686 -1.4812 -1.6958
 7285SOL    HW233315   1.262   3.591   1.429 -0.2079  1.9323 -0.3731
 7286SOL     OW33316   2.213   2.105   5.881 -0.1303  0.4622  0.1229
 7286SOL    HW133317   2.199   2.015   5.911 -3.4727  0.7752 -0.4493
 7286SOL    HW233318   2.168   2.151   5.951  1.1690  1.1050  0.5368
 7287SOL     OW33319   0.227   1.775   3.789  0.3312 -0.6598 -0.2194
 7287SOL    HW133320   0.296   1.808   3.732 -0.4648 -0.2954 -0.9786
 7287SOL    HW233321   0.206   1.685   3.763 -2.4362 -0.5314  1.5790
 7288SOL     OW33322   1.455   3.998   5.411 -0.3297  0.4014  0.3357
 7288SOL    HW133323   1.378   4.043   5.446 -0.7829  0.2252 -0.4405
 7288SOL    HW233324   1.448   3.918   5.465  0.9960 -0.5195 -0.8649
 7289SOL     OW33325   4.413   1.904  11.517  0.1499  0.1066  0.2885
 7289SOL    HW133326   4.320   1.925  11.512  0.9261  3.3783 -0.3519
 7289SOL    HW233327   4.438   1.954  11.594 -0.1641 -2.3103  1.9592
 7290SOL     OW33328   2.513   2.654   3.390  0.1428 -0.4084  0.0055
 7290SOL    HW133329   2.506   2.592   3.318  2.4382  0.2281 -0.7654
 7290SOL    HW233330   2.598   2.694   3.369 -0.8264  1.4837 -0.3365
 7291SOL     OW33331   3.768   1.298   3.395 -0.8844 -0.1253  0.7781
 7291SOL    HW133332   3.743   1.244   3.471 -2.4127  0.8824  1.0135
 7291SOL    HW233333   3.742   1.384   3.429 -0.0292  0.0682  0.9369
 7292SOL     OW33334   4.254   2.913   0.026  0.3256 -0.6890  0.1302
 7292SOL    HW133335   4.248   2.895   0.119  1.1739  0.2807  0.3744
 7292SOL    HW233336   4.162   2.903  17.690  0.7630 -1.2224 -1.1339
 7293SOL     OW33337   1.634   2.337   1.804 -0.2191 -0.1027 -0.0544
 7293SOL    HW133338   1.561   2.310   1.748 -0.4820  1.5743 -0.5380
 7293SOL    HW233339   1.700   2.309   1.741 -1.2284 -3.0275  0.1964
 7294SOL     OW33340   2.604   0.762  16.313 -0.0435  0.2429  0.3759
 7294SOL    HW133341   2.582   0.776  16.221 -1.1802 -0.8120  0.4842
 7294SOL    HW233342   2.676   0.823  16.328 -0.8953  1.6385 -1.2671
 7295SOL     OW33343   0.083   3.356   2.325 -0.0797 -0.3007  0.0629
 7295SOL    HW133344   0.111   3.271   2.359 -3.7980 -0.7804  1.9071
 7295SOL    HW233345   0.065   3.340   2.232 -0.0077 -1.0074  0.1662
 7296SOL     OW33346   2.681   4.181  10.171 -0.3561  0.5776 -0.9189
 7296SOL    HW133347   2.754   4.243  10.175 -0.0241  0.0328  1.4179
 7296SOL    HW233348   2.666   4.174  10.265  1.0657  0.5607 -0.6849
 7297SOL     OW33349   4.152   4.184   4.416 -0.3136  0.2657 -0.4549
 7297SOL    HW133350   4.216   4.229   4.471 -0.2792 -2.8556  2.0321
 7297SOL    HW233351   4.124   4.122   4.483 -0.8194  0.3348 -0.6008
 7298SOL     OW33352   4.140   2.383  11.623 -0.0654 -0.0318 -0.0963
 7298SOL    HW133353   4.111   2.427  11.703 -1.6686 -2.2682  0.5584
 7298SOL    HW233354   4.235   2.397  11.627 -0.5571  3.8654 -2.4418
 7299SOL     OW33355   3.098   3.630   2.207 -0.2786 -0.0185 -0.0513
 7299SOL    HW133356   3.174   3.576   2.184  0.2276  0.4272  0.5595
 7299SOL    HW233357   3.031   3.583   2.159  0.4709 -0.2863 -0.8378
 7300SOL     OW33358   0.763   3.567   3.714 -0.3583  0.1783 -0.9650
 7300SOL    HW133359   0.696   3.499   3.703  0.4472 -0.6592 -0.6767
 7300SOL    HW233360   0.705   3.625   3.764  0.3434 -0.6227  0.8058
 7301SOL     OW33361   4.252   2.396   9.462  0.2207  0.4705  0.1141
 7301SOL    HW133362   4.315   2.441   9.405 -0.7427  1.6704  0.0006
 7301SOL    HW233363   4.183   2.376   9.398 -0.1720  1.4302  0.2347
 7302SOL     OW33364   0.682   1.656   0.268 -0.0291  0.4182 -0.1419
 7302SOL    HW133365   0.660   1.569   0.300 -0.2922 -0.0163 -1.4931
 7302SOL    HW233366   0.718   1.695   0.348 -0.0653  0.3806 -0.1075
 7303SOL     OW33367   1.195   1.912   6.958 -0.2635 -0.3670  0.1819
 7303SOL    HW133368   1.270   1.971   6.955 -1.2058  0.8838  1.5015
 7303SOL    HW233369   1.230   1.850   7.022 -2.0706 -1.3437  0.2410
 7304SOL     OW33370   0.874   4.322  14.360  0.5194  0.2408  0.7455
 7304SOL    HW133371   0.829   4.324  14.275 -1.5674  0.5259  1.8522
 7304SOL    HW233372   0.949   4.265  14.344 -1.6794 -2.6578  0.8328
 7305SOL     OW33373   2.450   3.975   3.688  0.5163  0.2140  0.1366
 7305SOL    HW133374   2.459   3.976   3.593  0.7471 -1.7065  0.1549
 7305SOL    HW233375   2.407   3.891   3.701 -0.8374  0.7340 -1.0429
 7306SOL     OW33376   1.117   3.610   0.034 -0.4849  0.1035  0.0343
 7306SOL    HW133377   1.151   3.604  17.636 -0.4273  1.5154 -0.0484
 7306SOL    HW233378   1.142   3.526   0.073 -0.4199  0.9324  1.8063
 7307SOL     OW33379   3.758   3.010  14.398 -0.5145  0.3144 -0.3500
 7307SOL    HW133380   3.775   2.993  14.491 -0.6047  0.1786 -0.3591
 7307SOL    HW233381   3.692   3.080  14.397 -1.4673 -0.5756  0.4565
 7308SOL     OW33382   1.642   3.615   4.077 -0.0755 -0.1345  0.1479
 7308SOL    HW133383   1.696   3.581   4.148  1.4259  1.5580 -0.1688
 7308SOL    HW233384   1.698   3.677   4.030  0.5936  0.3462  1.5828
 7309SOL     OW33385   1.397   0.806   3.785  0.0673 -0.7747 -0.5095
 7309SOL    HW133386   1.314   0.761   3.805 -1.3970  1.6930 -1.0822
 7309SOL    HW233387   1.365   0.893   3.764  1.3702 -0.8232 -2.6401
 7310SOL     OW33388   1.613   4.060   9.760 -0.2041 -0.5338 -0.1200
 7310SOL    HW133389   1.653   4.083   9.844 -1.0144 -0.1007  0.1420
 7310SOL    HW233390   1.529   4.027   9.792  0.3131 -1.3650  0.3877
 7311SOL     OW33391   4.581   0.099   8.297 -0.0618 -0.3790  0.5832
 7311SOL    HW133392   4.580   0.142   8.211 -3.7578  0.4639  1.0574
 7311SOL    HW233393   4.647   0.156   8.336  0.3764 -0.8631  0.5369
 7312SOL     OW33394   2.495   0.095  16.743  0.0675  0.6565  0.0826
 7312SOL    HW133395   2.588   0.092  16.720  0.4952 -0.1802  1.9473
 7312SOL    HW233396   2.497   0.181  16.785 -0.5013  0.3486  0.7327
 7313SOL     OW33397   4.123   3.386  11.437 -0.3901 -0.6140  0.1438
 7313SOL    HW133398   4.042   3.336  11.443 -0.5353 -0.2926  0.8787
 7313SOL    HW233399   4.176   3.339  11.502 -0.4852 -0.4907  0.3090
 7314SOL     OW33400   3.435   0.033   1.356  0.2108  0.4019 -0.2767
 7314SOL    HW133401   3.340   0.021   1.356  0.1576  0.8479  1.1868
 7314SOL    HW233402   3.454   0.010   1.447  1.5154  2.4526 -0.0449
 7315SOL     OW33403   1.224   3.458  12.424 -0.1528  0.0207 -0.0642
 7315SOL    HW133404   1.170   3.490  12.352  0.3851  0.1612 -0.4083
 7315SOL    HW233405   1.183   3.484  12.506  0.0040 -0.1575  0.0712
 7316SOL     OW33406   1.914   0.750   7.726 -0.3212  0.2513 -0.1751
 7316SOL    HW133407   1.858   0.827   7.726 -0.8954 -0.1652 -0.9344
 7316SOL    HW233408   1.870   0.695   7.662  2.0185 -0.5437 -1.1131
 7317SOL     OW33409   4.583   4.432   4.805 -0.3365  0.0687  0.0453
 7317SOL    HW133410   4.567   4.337   4.804 -0.3410  0.0679  0.3898
 7317SOL    HW233411   4.670   4.431   4.764 -0.4417  0.4545 -0.1852
 7318SOL     OW33412   2.692   2.113   8.920 -0.8001 -0.2768  0.0892
 7318SOL    HW133413   2.662   2.158   8.842  3.2918  1.0705 -0.7129
 7318SOL    HW233414   2.676   2.175   8.990  0.0040 -0.6284  0.5916
 7319SOL     OW33415   0.572   4.479   3.675  0.1920 -0.1718 -0.4013
 7319SOL    HW133416   0.628   4.548   3.712  2.0543 -1.1283 -1.4216
 7319SOL    HW233417   0.549   4.432   3.755 -1.0491 -2.1953 -1.9552
 7320SOL     OW33418   3.348   0.487  11.049 -0.0628  0.5669 -0.2918
 7320SOL    HW133419   3.319   0.503  11.139  0.0118 -0.1971 -0.1304
 7320SOL    HW233420   3.424   0.430  11.059 -0.4919  0.0727  0.1830
 7321SOL     OW33421   0.981   0.231   4.125 -0.3158 -0.3128 -0.7198
 7321SOL    HW133422   1.065   0.276   4.123  0.0596 -1.0027 -0.7092
 7321SOL    HW233423   0.940   0.270   4.202 -1.4393  2.1781 -2.5729
 7322SOL     OW33424   2.611   0.601   6.827 -0.1148 -0.3406  0.5396
 7322SOL    HW133425   2.655   0.519   6.803  0.1202 -0.0915  0.1229
 7322SOL    HW233426   2.682   0.642   6.876 -0.8733 -0.6021  1.8584
 7323SOL     OW33427   0.664   3.729  15.531  0.2623  0.1294  0.3371
 7323SOL    HW133428   0.583   3.745  15.483  0.8855 -0.1299 -0.7939
 7323SOL    HW233429   0.712   3.671  15.472  0.2708 -0.0238  0.4936
 7324SOL     OW33430   2.504   2.725   7.697 -0.6925  0.4890 -0.4420
 7324SOL    HW133431   2.433   2.728   7.761 -0.8842 -1.9096 -0.5378
 7324SOL    HW233432   2.504   2.636   7.662  0.1927  0.8985 -1.4791
 7325SOL     OW33433   3.962   3.093   3.835 -0.3750  0.1322 -0.0593
 7325SOL    HW133434   3.980   3.175   3.788  1.6567 -0.6060 -0.5775
 7325SOL    HW233435   3.870   3.101   3.860 -0.3194 -0.0127  0.1936
 7326SOL     OW33436   3.812   0.365   4.945  0.1563 -0.2853 -0.3937
 7326SOL    HW133437   3.841   0.443   4.898  0.1580  0.1218  0.2744
 7326SOL    HW233438   3.720   0.360   4.922 -0.3148 -3.4447  2.1562
 7327SOL     OW33439   2.902   0.139   7.481  0.1192  0.5695 -0.1476
 7327SOL    HW133440   2.852   0.065   7.517  0.5156 -0.0216 -0.8245
 7327SOL    HW233441   2.986   0.096   7.467 -0.1353 -0.9305  2.8304
 7328SOL     OW33442   1.197   3.514   7.049  0.4685 -0.2419  0.0776
 7328SOL    HW133443   1.203   3.433   7.100  0.2405  0.8594  1.8815
 7328SOL    HW233444   1.145   3.470   6.982 -0.5042  0.5758  0.2907
 7329SOL     OW33445   2.856   1.230  17.177 -0.2695  0.3221  0.4357
 7329SOL    HW133446   2.797   1.298  17.209 -0.4917  0.1499  0.3964
 7329SOL    HW233447   2.868   1.260  17.087  0.7495 -1.7607 -0.1218
 7330SOL     OW33448   1.840   3.698   5.293  0.4079  0.3191 -0.2516
 7330SOL    HW133449   1.893   3.657   5.224 -0.5639 -0.5428 -0.4942
 7330SOL    HW233450   1.825   3.791   5.274  0.4015  0.2354 -0.6463
 7331SOL     OW33451   4.126   1.471   5.045  0.6796  0.2173 -0.6702
 7331SOL    HW133452   4.212   1.461   5.085 -0.6842 -1.2336  1.9124
 7331SOL    HW233453   4.080   1.421   5.113  2.6152  1.3499  1.4796
 7332SOL     OW33454   1.584   2.431   2.419 -0.0326 -0.3327  0.1509
 7332SOL    HW133455   1.541   2.437   2.504  1.4956 -1.1187  0.9680
 7332SOL    HW233456   1.635   2.351   2.428  3.1540  1.7907  0.7181
 7333SOL     OW33457   1.922   2.102   1.105  0.1214  0.3514  0.3253
 7333SOL    HW133458   1.978   2.163   1.154  1.5141 -0.0752 -0.7242
 7333SOL    HW233459   1.926   2.030   1.167  1.6808 -0.3629 -0.5905
 7334SOL     OW33460   2.419   3.274   6.622  0.4659 -0.2987 -0.0591
 7334SOL    HW133461   2.338   3.249   6.666  0.1078  1.8658  0.4839
 7334SOL    HW233462   2.470   3.195   6.640  0.1371 -0.0096  2.1303
 7335SOL     OW33463   2.052   3.221   7.011 -0.0063  0.1143  0.0007
 7335SOL    HW133464   2.040   3.314   6.992  1.3851  0.2892 -0.0425
 7335SOL    HW233465   1.983   3.195   7.072 -1.2444  3.1961 -0.0758
 7336SOL     OW33466   0.303   0.536  12.813 -0.6215 -0.3331  0.6886
 7336SOL    HW133467   0.237   0.474  12.842  0.1128 -0.2892  2.4158
 7336SOL    HW233468   0.359   0.463  12.786 -0.6496 -0.6586  1.5304
 7337SOL     OW33469   0.363   1.349  15.289 -0.3768  0.0168  0.3994
 7337SOL    HW133470   0.394   1.279  15.346  0.2865  0.7432  0.9365
 7337SOL    HW233471   0.273   1.363  15.320 -0.2013 -1.7899  1.7104
 7338SOL     OW33472   3.431   4.378   4.955 -0.2591  0.3104  0.0715
 7338SOL    HW133473   3.522   4.350   4.965 -0.5588 -0.3525  0.9244
 7338SOL    HW233474   3.376   4.314   5.000  0.8880  0.5869  1.8876
 7339SOL     OW33475   3.831   2.794   6.691 -0.2321  0.2316 -0.6839
 7339SOL    HW133476   3.893   2.865   6.711 -0.9397  0.9691 -1.1043
 7339SOL    HW233477   3.830   2.794   6.595 -2.1356 -0.9145 -0.6479
 7340SOL     OW33478   0.714   2.196   1.711  0.3674  0.1041  0.2683
 7340SOL    HW133479   0.790   2.218   1.764  1.2143 -1.4022 -0.3124
 7340SOL    HW233480   0.718   2.252   1.633 -0.6980  0.7976  0.7062
 7341SOL     OW33481   4.445   1.379   7.485 -0.2578  0.4680  0.0619
 7341SOL    HW133482   4.402   1.355   7.568  2.9070 -1.6226  1.1177
 7341SOL    HW233483   4.538   1.360   7.494  0.0095  1.1764 -1.2385
 7342SOL     OW33484   4.031   4.304   3.748  0.3925  0.1908  0.4918
 7342SOL    HW133485   4.071   4.299   3.835 -0.5768 -0.7200  0.8921
 7342SOL    HW233486   3.936   4.305   3.762  0.4878 -0.9966  1.2659
 7343SOL     OW33487   2.603   4.302   7.125 -0.3083  0.4003  0.0953
 7343SOL    HW133488   2.623   4.222   7.077  0.1695  0.3036  0.4568
 7343SOL    HW233489   2.657   4.286   7.202  0.5262  0.5680 -0.4627
 7344SOL     OW33490   3.301   4.005  14.174  0.3672  0.3155 -0.1547
 7344SOL    HW133491   3.285   3.923  14.128  1.3197  0.4923 -0.8013
 7344SOL    HW233492   3.213   4.040  14.166  0.4196  0.1947 -1.2975
 7345SOL     OW33493   2.543   3.075  16.935 -0.0640 -0.1813  0.1267
 7345SOL    HW133494   2.530   3.170  16.931 -0.0530 -0.2420 -1.2940
 7345SOL    HW233495   2.584   3.074  17.022  0.3183  0.1121 -0.0493
 7346SOL     OW33496   1.054   1.528   5.450 -0.6427  0.2152  0.2691
 7346SOL    HW133497   1.093   1.470   5.385  1.1574 -0.2186  1.7638
 7346SOL    HW233498   1.117   1.551   5.518 -0.0044 -0.2238 -0.1824
 7347SOL     OW33499   0.561   0.321   2.227  0.0017 -0.2034  0.9097
 7347SOL    HW133500   0.650   0.300   2.200 -0.4797 -1.4332  0.2777
 7347SOL    HW233501   0.553   0.415   2.247  0.3064 -0.0092  0.1027
 7348SOL     OW33502   2.143   4.247   1.371  0.1851 -0.7330 -0.1180
 7348SOL    HW133503   2.121   4.158   1.342 -0.7887 -0.3855 -0.4369
 7348SOL    HW233504   2.225   4.243   1.420  1.1815 -1.8077 -1.8556
 7349SOL     OW33505   3.521   0.919   5.563 -0.0973  0.1160 -0.6181
 7349SOL    HW133506   3.447   0.889   5.616  0.9446  0.7895  1.2061
 7349SOL    HW233507   3.587   0.956   5.621 -0.6849  2.0114 -1.1884
 7350SOL     OW33508   0.753   0.986   2.054  0.3441 -0.1494  0.0261
 7350SOL    HW133509   0.665   0.975   2.090  0.8830 -2.8467  0.5208
 7350SOL    HW233510   0.760   1.079   2.074  2.9095 -0.4674  0.6984
 7351SOL     OW33511   0.396   2.119   9.949 -0.2779  0.2160  0.1791
 7351SOL    HW133512   0.423   2.150  10.035 -2.4650 -0.2858  1.0489
 7351SOL    HW233513   0.324   2.181   9.938 -0.0858  0.5142  0.5937
 7352SOL     OW33514   2.727   0.686   3.180  0.1140  0.0978  0.0242
 7352SOL    HW133515   2.675   0.766   3.175 -3.3213 -2.1899 -0.8573
 7352SOL    HW233516   2.734   0.671   3.274 -2.3323 -1.0242  0.0129
 7353SOL     OW33517   3.656   2.722   1.997 -0.1731 -0.3152  0.2169
 7353SOL    HW133518   3.671   2.628   2.011 -1.2159 -0.4782  0.1906
 7353SOL    HW233519   3.722   2.740   1.930 -0.0479  1.1029  0.7240
 7354SOL     OW33520   0.176   3.885   7.264 -0.6256  0.4795 -0.4658
 7354SOL    HW133521   0.136   3.852   7.184 -0.6830  0.5158 -0.4524
 7354SOL    HW233522   0.103   3.945   7.278 -0.1629  1.5180 -2.5760
 7355SOL     OW33523   0.101   4.239  13.024 -0.6604  0.2131 -0.3632
 7355SOL    HW133524   0.017   4.235  12.979 -1.8311  1.0208  1.8054
 7355SOL    HW233525   0.160   4.218  12.951 -0.2664 -1.7028  0.5024
 7356SOL     OW33526   2.341   0.606   5.770  0.1034  0.1872 -0.1255
 7356SOL    HW133527   2.285   0.563   5.705 -1.6331 -1.6221  2.5599
 7356SOL    HW233528   2.341   0.551   5.849 -2.6347  0.8118  0.2980
 7357SOL     OW33529   0.526   2.541   0.699  0.1162 -0.5095  0.3454
 7357SOL    HW133530   0.467   2.573   0.631  1.6944  0.0319 -0.7719
 7357SOL    HW233531   0.611   2.543   0.654  0.1828  3.2095  0.6194
 7358SOL     OW33532   0.207   0.544   3.505  0.3151  0.0177  0.6696
 7358SOL    HW133533   0.220   0.452   3.481 -0.8292 -0.0959  0.4758
 7358SOL    HW233534   0.116   0.558   3.479  0.3257 -0.4872  0.3610
 7359SOL     OW33535   0.141   4.448  13.685  0.1653  0.2180  0.1482
 7359SOL    HW133536   0.134   4.451  13.589 -0.6203 -2.9213  0.1173
 7359SOL    HW233537   0.214   4.386  13.682  0.0796  0.1085  0.3652
 7360SOL     OW33538   3.040   3.227  14.613  0.1991  0.0529  0.0900
 7360SOL    HW133539   3.134   3.226  14.633  0.5628  0.7497 -1.6324
 7360SOL    HW233540   3.018   3.318  14.595 -0.0256 -0.3307 -1.5366
 7361SOL     OW33541   0.430   2.719   2.917  0.1313 -0.0224 -0.1866
 7361SOL    HW133542   0.338   2.741   2.908 -0.7015 -2.5530  2.0408
 7361SOL    HW233543   0.434   2.674   3.002  0.1279 -0.9608 -0.6858
 7362SOL     OW33544   3.179   1.962   7.728 -0.0192  0.5610 -0.1327
 7362SOL    HW133545   3.167   1.982   7.821 -1.8893  0.1208 -0.2764
 7362SOL    HW233546   3.273   1.979   7.726  0.4645 -1.8817  1.4651
 7363SOL     OW33547   1.612   0.459   0.489 -0.1320  0.3791  0.0024
 7363SOL    HW133548   1.535   0.434   0.539  0.0827  0.2681  0.2785
 7363SOL    HW233549   1.670   0.454   0.565 -1.0728  1.4392  0.7880
 7364SOL     OW33550   3.658   2.629   3.790 -0.6594 -0.3497 -0.3428
 7364SOL    HW133551   3.738   2.602   3.834 -1.1216  1.2623  1.5512
 7364SOL    HW233552   3.650   2.549   3.740 -1.5276  0.2212 -1.1187
 7365SOL     OW33553   3.437   0.481   6.130  0.0462  1.0048 -0.1663
 7365SOL    HW133554   3.513   0.428   6.107  1.4568  2.1456  1.9412
 7365SOL    HW233555   3.448   0.555   6.069 -0.7994  2.3263  1.2898
 7366SOL     OW33556   1.422   0.981   4.488 -0.3082  0.0934 -0.2394
 7366SOL    HW133557   1.360   1.033   4.437 -0.1311 -0.1079 -0.6621
 7366SOL    HW233558   1.404   0.894   4.451  0.9407  0.2713 -1.2709
 7367SOL     OW33559   0.243   0.556   5.834  0.5593  0.6286  0.1660
 7367SOL    HW133560   0.330   0.549   5.795 -0.1247 -1.9363 -0.9136
 7367SOL    HW233561   0.211   0.469   5.810  0.8855  0.7986 -0.8739
 7368SOL     OW33562   4.061   3.792  13.377 -0.1283 -0.4891 -0.3358
 7368SOL    HW133563   4.114   3.803  13.456  1.9215  1.0411 -1.8960
 7368SOL    HW233564   4.118   3.761  13.307  2.1761 -1.4310  1.9814
 7369SOL     OW33565   2.064   0.636   7.114  0.4450 -0.7550  0.4038
 7369SOL    HW133566   2.127   0.683   7.060  1.1359 -1.3293  0.7129
 7369SOL    HW233567   2.112   0.555   7.132  1.9267 -0.2727 -1.4093
 7370SOL     OW33568   1.974   4.408   9.534  0.0317 -0.4573 -0.3078
 7370SOL    HW133569   2.060   4.385   9.499  0.0791  0.8962 -1.0726
 7370SOL    HW233570   1.974   4.501   9.509 -1.6566 -0.0760  1.0242
 7371SOL     OW33571   4.591   2.618  11.146 -0.0243  0.6181  0.6841
 7371SOL    HW133572   4.559   2.546  11.201 -1.6269 -0.2117 -1.3360
 7371SOL    HW233573   4.686   2.625  11.158  0.3984  0.2890 -2.6005
 7372SOL     OW33574   1.645   3.233   8.201  0.4083 -0.2382 -0.0953
 7372SOL    HW133575   1.728   3.190   8.179  0.0908 -0.7454 -0.2937
 7372SOL    HW233576   1.676   3.303   8.259  0.2247 -1.0117  0.9431
 7373SOL     OW33577   3.558   2.257   2.485  0.1591  0.7223 -0.0265
 7373SOL    HW133578   3.497   2.192   2.518  1.8408 -0.7091  0.2582
 7373SOL    HW233579   3.616   2.253   2.562  2.1050 -1.5080 -1.6172
 7374SOL     OW33580   2.511   1.737   5.850  0.1754 -0.3552 -0.5513
 7374SOL    HW133581   2.468   1.783   5.778 -0.7570 -0.3122  0.0207
 7374SOL    HW233582   2.528   1.814   5.905 -2.5043  0.1462 -0.4086
 7375SOL     OW33583   4.343   1.266   7.727 -0.1394 -0.4712  0.0028
 7375SOL    HW133584   4.322   1.241   7.818  1.3419  2.9379  1.2718
 7375SOL    HW233585   4.292   1.347   7.728 -0.4919 -0.6987  1.0920
 7376SOL     OW33586   1.482   0.327   7.637 -0.3154  0.2703 -0.1851
 7376SOL    HW133587   1.399   0.328   7.685  0.6832  1.3908  1.5221
 7376SOL    HW233588   1.495   0.418   7.610  3.2956 -1.2043 -3.5030
 7377SOL     OW33589   2.846   1.096   4.261  0.2151 -0.2562 -0.3811
 7377SOL    HW133590   2.801   1.181   4.263 -0.4083 -0.5917  0.0385
 7377SOL    HW233591   2.923   1.117   4.314 -0.3924  0.4428  0.2424
 7378SOL     OW33592   0.448   0.020   5.712 -1.4789  0.1350  0.7307
 7378SOL    HW133593   0.414   4.670   5.660 -0.2728 -0.5830  0.9386
 7378SOL    HW233594   0.380   0.086   5.718 -1.5147  0.2169 -0.6131
 7379SOL     OW33595   0.503   4.584   8.388  0.0191 -0.7678 -0.3944
 7379SOL    HW133596   0.410   4.606   8.388  1.1414  3.8258  0.9705
 7379SOL    HW233597   0.509   4.571   8.483 -2.2672  0.7190 -0.0663
 7380SOL     OW33598   1.554   4.102   7.054 -0.6354  0.3999 -0.2263
 7380SOL    HW133599   1.647   4.096   7.075 -1.2947 -1.4363  2.0850
 7380SOL    HW233600   1.524   4.020   7.016 -1.9171  0.3738  0.8275
 7381SOL     OW33601   2.310   2.352   6.699  0.2742  0.2322  0.4593
 7381SOL    HW133602   2.403   2.332   6.714  0.8534  2.2344 -0.5369
 7381SOL    HW233603   2.287   2.274   6.648 -0.7574 -0.8652  2.6079
 7382SOL     OW33604   1.318   2.235   6.402  0.2158  0.0528  0.6020
 7382SOL    HW133605   1.377   2.304   6.369  0.3886 -1.0109 -1.3255
 7382SOL    HW233606   1.359   2.225   6.487  1.9158 -0.4105 -0.2657
 7383SOL     OW33607   1.326   4.268   3.580 -0.1031  0.0954 -0.2819
 7383SOL    HW133608   1.310   4.174   3.577 -2.4140  0.5119 -0.5662
 7383SOL    HW233609   1.403   4.269   3.637  0.1094  1.0535 -0.5812
 7384SOL     OW33610   3.807   1.400   5.009 -0.5208 -0.3149  0.2363
 7384SOL    HW133611   3.804   1.348   4.929 -1.5909  0.4668 -0.2321
 7384SOL    HW233612   3.885   1.361   5.048  1.0865  2.2205 -0.4707
 7385SOL     OW33613   0.863   4.349   2.404 -0.1939 -0.5880  0.3502
 7385SOL    HW133614   0.885   4.373   2.314  1.0946  2.2052  1.4514
 7385SOL    HW233615   0.938   4.389   2.447 -1.9073  0.1835  2.6503
 7386SOL     OW33616   4.131   1.850   4.364  0.0984  0.0566 -0.1484
 7386SOL    HW133617   4.216   1.820   4.396  1.0645  0.7284 -2.0437
 7386SOL    HW233618   4.070   1.846   4.437  2.4700  1.0171  1.8704
 7387SOL     OW33619   1.246   1.674   0.944 -0.3542 -0.3267  0.2398
 7387SOL    HW133620   1.290   1.757   0.923 -1.0367  0.0431  0.2590
 7387SOL    HW233621   1.163   1.684   0.897  0.5634 -0.9198 -1.5138
 7388SOL     OW33622   0.293   0.945   4.000  0.1385  0.3149  0.0619
 7388SOL    HW133623   0.249   0.860   3.998  0.1893  0.2603  1.1779
 7388SOL    HW233624   0.226   1.005   4.032 -0.8384 -0.9498  0.4120
 7389SOL     OW33625   1.481   1.457   8.467 -0.2980  0.0440  0.1015
 7389SOL    HW133626   1.485   1.470   8.372  1.6134 -1.1337  0.0258
 7389SOL    HW233627   1.526   1.373   8.470  0.1317  0.2752  0.1139
 7390SOL     OW33628   1.546   1.483   6.682 -0.2639  0.0873 -0.1879
 7390SOL    HW133629   1.565   1.560   6.629  1.9005 -1.2046 -1.2988
 7390SOL    HW233630   1.532   1.413   6.618 -1.5479  0.4568 -0.3046
 7391SOL     OW33631   0.232   4.245  12.296 -0.1030 -0.6653  0.3345
 7391SOL    HW133632   0.140   4.243  12.269  0.8102 -1.2638 -2.8044
 7391SOL    HW233633   0.228   4.185  12.370  0.6725  1.4595  2.0911
 7392SOL     OW33634   1.757   1.194   9.577 -0.0706  0.3480  0.2120
 7392SOL    HW133635   1.728   1.181   9.667 -3.8561 -0.2743 -1.1066
 7392SOL    HW233636   1.683   1.245   9.544  0.0888  0.2691 -0.2582
 7393SOL     OW33637   3.397   4.324   4.567  0.0731  0.0037  0.1660
 7393SOL    HW133638   3.487   4.309   4.537  0.0199 -0.6048  0.3146
 7393SOL    HW233639   3.372   4.378   4.492 -0.2763 -1.1923 -0.5856
 7394SOL     OW33640   3.781   1.445  15.093  0.3272  0.3851 -0.1797
 7394SOL    HW133641   3.828   1.367  15.123 -1.5555 -0.0569  1.5950
 7394SOL    HW233642   3.838   1.475  15.022 -1.4347  0.5737 -1.4913
 7395SOL     OW33643   1.296   0.193  15.169  0.1539  0.0787 -0.1287
 7395SOL    HW133644   1.218   0.185  15.115 -0.3337  0.1389  0.5574
 7395SOL    HW233645   1.298   0.100  15.192 -1.5241  0.7726  2.9558
 7396SOL     OW33646   2.333   1.007   3.274  0.2408 -0.1368 -0.0922
 7396SOL    HW133647   2.384   1.085   3.252  0.0851 -0.1067 -0.3558
 7396SOL    HW233648   2.265   1.027   3.209 -0.0065 -1.5550 -0.2663
 7397SOL     OW33649   2.921   2.740   2.530  0.3338 -0.7969  0.2388
 7397SOL    HW133650   2.831   2.708   2.539 -0.0611  0.7696  1.8711
 7397SOL    HW233651   2.958   2.691   2.603 -0.0684 -0.1312  0.8888
 7398SOL     OW33652   3.278   3.412   9.405 -0.0495 -0.1021  0.1211
 7398SOL    HW133653   3.309   3.467   9.476 -2.9158  1.3367  0.2674
 7398SOL    HW233654   3.339   3.432   9.334  0.2580  1.6190  0.8582
 7399SOL     OW33655   4.651   2.509   2.514  0.1847 -0.3773 -0.2010
 7399SOL    HW133656   4.588   2.546   2.576 -1.1436  0.8384 -2.2587
 7399SOL    HW233657   4.604   2.527   2.433 -1.0360  1.0429  0.8145
 7400SOL     OW33658   0.383   3.582   7.852  0.2167  0.5440 -0.5191
 7400SOL    HW133659   0.338   3.622   7.928  0.5090 -0.7243  0.3185
 7400SOL    HW233660   0.326   3.610   7.780 -0.4627  0.0769 -0.1697
 7401SOL     OW33661   1.348   2.137   3.844 -0.3886  0.3424  0.5666
 7401SOL    HW133662   1.325   2.111   3.933 -1.6064  1.9569  0.7405
 7401SOL    HW233663   1.378   2.228   3.852 -0.3791  0.3192  0.7860
 7402SOL     OW33664   2.232   3.398   4.717  0.0760  0.0062  0.1943
 7402SOL    HW133665   2.226   3.452   4.796  2.1708 -1.3676  1.3088
 7402SOL    HW233666   2.289   3.331   4.755 -0.5128 -0.5449  0.0918
 7403SOL     OW33667   0.351   1.935  16.433  0.6834  0.2264  0.4082
 7403SOL    HW133668   0.278   1.976  16.386  1.1197  0.9841  0.3954
 7403SOL    HW233669   0.407   1.921  16.357  0.5094 -0.5555  0.4254
 7404SOL     OW33670   2.588   0.796  11.131  0.0454  0.8878  0.1616
 7404SOL    HW133671   2.671   0.843  11.136  0.7655 -0.2772 -0.7959
 7404SOL    HW233672   2.605   0.712  11.175  1.8882  1.8534  1.3050
 7405SOL     OW33673   3.757   2.635   3.496 -0.3063  0.1481  0.0168
 7405SOL    HW133674   3.805   2.602   3.421 -1.4278  1.3916 -1.2548
 7405SOL    HW233675   3.736   2.554   3.543  0.6715 -0.2092 -0.1555
 7406SOL     OW33676   0.272   3.140  13.776  1.0288  0.4267  0.4625
 7406SOL    HW133677   0.220   3.204  13.728  0.7115  0.6847  1.1472
 7406SOL    HW233678   0.224   3.062  13.749  0.0205  1.5878 -1.0457
 7407SOL     OW33679   3.714   2.579   8.295  0.4603  0.2934  0.9967
 7407SOL    HW133680   3.670   2.586   8.210 -1.8849 -1.7542  2.0277
 7407SOL    HW233681   3.694   2.665   8.332 -1.5154  0.5563 -0.7357
 7408SOL     OW33682   1.764   3.776   8.261  0.3772 -0.2589 -0.5014
 7408SOL    HW133683   1.718   3.859   8.277  1.2295 -0.0170  0.7412
 7408SOL    HW233684   1.706   3.739   8.195  0.0640 -0.6961  0.0245
 7409SOL     OW33685   4.390   4.257  17.568 -0.2705  0.1918 -0.1448
 7409SOL    HW133686   4.466   4.312  17.586 -0.5059 -0.3806  2.6401
 7409SOL    HW233687   4.315   4.316  17.580  0.0631  0.4321  0.7029
 7410SOL     OW33688   4.492   4.168   5.842 -0.4735  0.0407  0.0222
 7410SOL    HW133689   4.519   4.249   5.799 -2.8120  0.5453 -0.5033
 7410SOL    HW233690   4.451   4.126   5.767 -0.0085 -0.1385 -0.1304
 7411SOL     OW33691   3.811   0.584   7.628 -0.2691  0.2557  0.6321
 7411SOL    HW133692   3.766   0.652   7.578 -0.4927 -0.9328 -0.7759
 7411SOL    HW233693   3.779   0.607   7.716  1.6313  0.2548  1.3347
 7412SOL     OW33694   3.204   2.045   7.300 -0.1474 -0.2397  0.0740
 7412SOL    HW133695   3.125   2.044   7.247 -0.0143  1.4472 -0.1565
 7412SOL    HW233696   3.273   2.065   7.236 -1.4307 -0.1187 -1.2611
 7413SOL     OW33697   1.558   0.252   4.767  0.4069  0.1410  0.3538
 7413SOL    HW133698   1.637   0.204   4.793  1.9108  0.0949 -4.2301
 7413SOL    HW233699   1.494   0.189   4.800 -0.4553 -0.0454 -1.6906
 7414SOL     OW33700   1.167   2.529   1.711  0.2637 -0.1821 -0.0436
 7414SOL    HW133701   1.083   2.482   1.715  0.8612 -1.3909 -1.5302
 7414SOL    HW233702   1.213   2.462   1.660 -0.9036 -0.0186 -1.3447
 7415SOL     OW33703   1.272   4.379   7.013  0.4174  0.3295 -0.2414
 7415SOL    HW133704   1.214   4.440   6.969  0.4927 -0.2728 -1.1621
 7415SOL    HW233705   1.253   4.393   7.106  1.2849 -1.0598  0.1388
 7416SOL     OW33706   1.841   4.097   7.074  0.2117  0.2017 -0.4894
 7416SOL    HW133707   1.822   4.023   7.015 -1.3758 -0.3466  0.7221
 7416SOL    HW233708   1.852   4.172   7.016  0.7486  0.1743 -0.4280
 7417SOL     OW33709   1.635   3.637   4.802 -0.0475 -0.7129  0.4737
 7417SOL    HW133710   1.613   3.634   4.709  0.5075 -0.2942  0.3293
 7417SOL    HW233711   1.712   3.579   4.803 -0.4599 -1.3112 -1.6105
 7418SOL     OW33712   1.030   1.887   3.170  0.2990 -0.0006 -0.5569
 7418SOL    HW133713   0.943   1.913   3.201  0.1056 -0.8948 -0.3551
 7418SOL    HW233714   1.068   1.975   3.169 -0.6248  0.4084 -0.1994
 7419SOL     OW33715   2.775   0.475   9.658 -0.0724 -0.0126  0.0360
 7419SOL    HW133716   2.817   0.505   9.578 -0.3731 -1.6700 -0.7353
 7419SOL    HW233717   2.714   0.409   9.627  0.5474 -0.4251 -0.2948
 7420SOL     OW33718   0.172   0.695   7.798  0.2197  0.6233  0.6097
 7420SOL    HW133719   0.118   0.645   7.737 -0.4650 -1.0472  2.5811
 7420SOL    HW233720   0.225   0.757   7.748 -1.1344  0.2677 -1.2653
 7421SOL     OW33721   1.389   1.109   6.826  0.1921 -0.5355  0.0049
 7421SOL    HW133722   1.467   1.146   6.869  0.5401  0.3288 -1.3843
 7421SOL    HW233723   1.408   1.019   6.798 -0.7248 -1.4233  2.2300
 7422SOL     OW33724   1.615   3.645   9.340 -0.0140 -0.5029 -0.2150
 7422SOL    HW133725   1.572   3.560   9.351 -3.2663  1.1472 -0.1504
 7422SOL    HW233726   1.607   3.655   9.246  1.2440  1.8940 -0.0631
 7423SOL     OW33727   4.717   0.729  11.382 -0.1639  0.1943  0.3118
 7423SOL    HW133728   4.628   0.758  11.401 -0.6763 -0.3691 -1.1738
 7423SOL    HW233729   0.013   0.670  11.454  0.5331 -0.9553 -0.8064
 7424SOL     OW33730   1.847   0.476  14.953 -0.2515 -0.3942 -0.2279
 7424SOL    HW133731   1.925   0.475  14.897 -0.5325  1.8988 -0.6599
 7424SOL    HW233732   1.801   0.400  14.917 -1.7836  0.6307 -0.4345
 7425SOL     OW33733   2.085   0.087   6.380  0.1185  0.2155 -0.2171
 7425SOL    HW133734   2.106   0.068   6.471  0.7119  1.9075 -0.0128
 7425SOL    HW233735   2.083   4.719   6.348  0.5965  0.9624 -2.3520
 7426SOL     OW33736   1.395   0.963  13.741 -0.3455  0.0679  0.4490
 7426SOL    HW133737   1.415   1.043  13.790 -0.3473  1.5655 -2.0028
 7426SOL    HW233738   1.479   0.916  13.737  0.4716  2.0092 -4.2674
 7427SOL     OW33739   3.747   0.863   7.496 -0.4502 -0.4881  0.4492
 7427SOL    HW133740   3.761   0.870   7.401  0.6862 -0.8739  0.5861
 7427SOL    HW233741   3.670   0.916   7.516  0.4418 -0.3097  3.2741
 7428SOL     OW33742   0.968   2.144   3.968  0.2530  0.6847 -0.1285
 7428SOL    HW133743   1.010   2.154   3.883 -1.1638 -2.5521 -1.1924
 7428SOL    HW233744   1.041   2.158   4.029  0.6135  0.4604 -0.5031
 7429SOL     OW33745   3.961   0.463  14.291 -0.1920  0.8086 -0.0826
 7429SOL    HW133746   3.880   0.481  14.244  0.8206  3.5299 -0.8080
 7429SOL    HW233747   3.967   0.369  14.274 -0.7655  0.6180  0.8061
 7430SOL     OW33748   0.758   1.886   6.405 -0.6612  0.0876  0.3262
 7430SOL    HW133749   0.687   1.844   6.356  0.0036  0.0879 -0.6196
 7430SOL    HW233750   0.734   1.866   6.496 -1.1166 -1.4195 -0.1196
 7431SOL     OW33751   2.559   3.514   4.557 -0.7967 -0.5756  0.2009
 7431SOL    HW133752   2.497   3.582   4.582  2.0953  1.7772  0.9426
 7431SOL    HW233753   2.601   3.497   4.641  0.6022  0.7458 -0.2401
 7432SOL     OW33754   1.250   3.238   5.750 -0.0013 -0.2825  0.4903
 7432SOL    HW133755   1.326   3.211   5.698  0.5212 -0.3689  1.2879
 7432SOL    HW233756   1.295   3.242   5.835  0.2059  1.3822  0.2948
 7433SOL     OW33757   2.829   2.860   8.788 -0.0056  0.1941  0.3341
 7433SOL    HW133758   2.794   2.934   8.740 -0.3535  0.9030  1.6914
 7433SOL    HW233759   2.840   2.895   8.877 -4.1462 -0.2366  1.0139
 7434SOL     OW33760   4.702   3.876   0.731  0.1942 -0.2540 -0.1409
 7434SOL    HW133761   4.647   3.798   0.747 -0.0642 -0.0230  0.1015
 7434SOL    HW233762   0.057   3.843   0.777  0.3922  0.7310  0.2266
 7435SOL     OW33763   2.600   0.435   7.228  0.4829 -0.0928  0.0763
 7435SOL    HW133764   2.673   0.374   7.233  1.0234  0.3266 -2.8547
 7435SOL    HW233765   2.536   0.378   7.184  0.3108 -0.0692  0.2942
 7436SOL     OW33766   1.797   0.118   4.861 -0.5585  0.4258 -0.1766
 7436SOL    HW133767   1.766   0.095   4.949 -0.5213 -1.3955 -0.6414
 7436SOL    HW233768   1.891   0.131   4.872 -0.6396 -0.5969  1.6421
 7437SOL     OW33769   3.223   1.696   7.248  0.2958 -0.5986 -0.5253
 7437SOL    HW133770   3.276   1.617   7.261 -0.5298 -1.1981 -0.7873
 7437SOL    HW233771   3.196   1.717   7.338 -1.2264  1.2032 -1.4164
 7438SOL     OW33772   3.047   2.561   4.732 -0.2711 -0.5610  0.3246
 7438SOL    HW133773   3.066   2.489   4.793 -1.7398 -1.3243 -0.1071
 7438SOL    HW233774   3.129   2.610   4.729 -0.5815 -0.1070 -1.0190
 7439SOL     OW33775   1.374   0.712   9.481 -0.1260 -0.1741 -0.2649
 7439SOL    HW133776   1.445   0.774   9.466  0.9015 -1.3329 -0.1904
 7439SOL    HW233777   1.334   0.713   9.394 -1.1895 -0.7627  0.2197
 7440SOL     OW33778   4.257   3.316   3.567  0.4229  0.7151 -0.4911
 7440SOL    HW133779   4.251   3.266   3.485 -1.8703  1.3898 -0.7296
 7440SOL    HW233780   4.272   3.400   3.524  1.1339 -0.7228 -3.0680
 7441SOL     OW33781   4.518   3.798   5.751 -0.3709  0.9892 -0.2146
 7441SOL    HW133782   4.464   3.737   5.801  1.5841  0.8288  1.7066
 7441SOL    HW233783   4.455   3.859   5.713 -1.2711 -0.7891 -1.6301
 7442SOL     OW33784   2.452   0.437   3.695 -0.5124  0.3799 -0.0619
 7442SOL    HW133785   2.421   0.379   3.765 -1.5702 -0.0652 -0.9083
 7442SOL    HW233786   2.415   0.397   3.616  0.9561  0.2927 -0.7057
 7443SOL     OW33787   2.669   4.212   2.950 -0.3333 -0.1882 -0.2295
 7443SOL    HW133788   2.728   4.179   2.882 -1.5456  0.4668 -1.5930
 7443SOL    HW233789   2.585   4.179   2.917 -0.3042 -2.2600  1.7348
 7444SOL     OW33790   2.942   2.530   5.451 -0.4386  0.1880  0.0528
 7444SOL    HW133791   2.924   2.617   5.488  2.0213 -0.0438  1.8029
 7444SOL    HW233792   2.872   2.482   5.495 -0.9936  1.7559  0.8727
 7445SOL     OW33793   3.998   4.064  14.606 -0.3273  0.1891 -0.4179
 7445SOL    HW133794   3.928   4.125  14.582 -0.4451  0.6933  1.2180
 7445SOL    HW233795   3.953   3.980  14.599  1.3149 -0.6092 -1.5244
 7446SOL     OW33796   0.765   2.313   5.187 -0.2288 -0.7976 -0.0986
 7446SOL    HW133797   0.703   2.382   5.209  1.6274  0.3901  1.4232
 7446SOL    HW233798   0.830   2.332   5.255 -0.1877  0.0265 -0.3687
 7447SOL     OW33799   3.850   2.271   3.988  0.2228 -1.2440  0.0825
 7447SOL    HW133800   3.940   2.238   3.992  1.0537  0.9640 -0.3767
 7447SOL    HW233801   3.817   2.206   3.926 -0.5253  0.3121 -1.1638
 7448SOL     OW33802   0.975   1.981   7.692  0.5945  0.6569  0.0772
 7448SOL    HW133803   1.031   2.016   7.762  2.5743 -4.5568  1.0612
 7448SOL    HW233804   0.905   2.043   7.711  0.0292 -0.7303  2.5788
 7449SOL     OW33805   2.121   3.990  12.259 -0.4218 -0.5717  0.5375
 7449SOL    HW133806   2.099   4.029  12.344 -2.1897 -2.2731  0.8776
 7449SOL    HW233807   2.214   3.971  12.268 -0.5219 -1.6259 -0.6394
 7450SOL     OW33808   4.018   3.802   7.528  0.2686  0.1843 -0.2757
 7450SOL    HW133809   4.001   3.894   7.545  0.5669  0.0527  0.7614
 7450SOL    HW233810   4.102   3.803   7.483  0.2603  1.6642 -0.2630
 7451SOL     OW33811   3.837   2.470   7.212 -0.0705  0.2625  0.8816
 7451SOL    HW133812   3.921   2.456   7.255  0.3515  0.8898  0.2558
 7451SOL    HW233813   3.782   2.403   7.253  0.6065 -0.8751 -0.0580
 7452SOL     OW33814   1.524   2.157  10.661  0.3516 -0.3991  0.1746
 7452SOL    HW133815   1.527   2.152  10.756 -1.8811 -1.6968  0.1839
 7452SOL    HW233816   1.446   2.210  10.647  0.5338 -0.4646 -1.1450
 7453SOL     OW33817   0.368   3.563   4.307 -0.2313  0.1028  0.6754
 7453SOL    HW133818   0.447   3.616   4.319 -1.2988  1.9045 -0.1884
 7453SOL    HW233819   0.337   3.563   4.398 -0.0371 -1.4549  0.7275
 7454SOL     OW33820   3.844   0.755   9.006 -0.0780 -0.1101  0.1510
 7454SOL    HW133821   3.782   0.776   8.936 -0.7190 -1.8939  0.1791
 7454SOL    HW233822   3.900   0.683   8.976 -0.5132 -0.5077  0.2963
 7455SOL     OW33823   3.124   3.925   4.770 -0.2565 -0.4975  0.0207
 7455SOL    HW133824   3.100   3.842   4.811  1.0675 -0.4744  0.8356
 7455SOL    HW233825   3.122   3.983   4.846 -1.2660  0.2646 -0.5836
 7456SOL     OW33826   1.349   3.732   3.990 -0.1592  0.1283  0.3211
 7456SOL    HW133827   1.391   3.800   3.937  0.4360 -1.4969 -1.2912
 7456SOL    HW233828   1.420   3.698   4.044 -0.2822  0.1230  0.4804
 7457SOL     OW33829   3.985   1.841  17.226  0.1302  0.0305 -0.3100
 7457SOL    HW133830   4.057   1.904  17.219  0.2059  0.2973  2.6405
 7457SOL    HW233831   3.915   1.886  17.274  0.0799 -0.1529 -0.2131
 7458SOL     OW33832   4.577   4.316   0.457 -0.0910 -0.0110  0.0497
 7458SOL    HW133833   4.640   4.310   0.528 -1.2306  1.8877  1.2309
 7458SOL    HW233834   4.558   4.224   0.440 -1.4354  0.2223  0.2262
 7459SOL     OW33835   0.065   3.411   7.399  0.0343 -0.6348  0.0807
 7459SOL    HW133836   0.135   3.431   7.337  0.3596  0.3980  0.7793
 7459SOL    HW233837   0.004   3.350   7.358 -1.5354 -0.4884  2.2347
 7460SOL     OW33838   2.670   4.167   6.640  0.1424  0.3596  0.0836
 7460SOL    HW133839   2.684   4.193   6.731  2.7939  0.7534 -0.4469
 7460SOL    HW233840   2.723   4.233   6.596  2.6549  0.1181  2.7801
 7461SOL     OW33841   1.386   2.763   4.166  0.0798  0.1789  0.7291
 7461SOL    HW133842   1.480   2.770   4.146 -0.4888 -3.2598 -3.1610
 7461SOL    HW233843   1.368   2.671   4.148  0.1567  0.4956 -0.9839
 7462SOL     OW33844   2.282   3.435   6.465  0.4853 -0.0404  0.6844
 7462SOL    HW133845   2.216   3.459   6.529  0.8002  0.4587  0.8234
 7462SOL    HW233846   2.336   3.374   6.515  0.6747 -0.5954 -0.1921
 7463SOL     OW33847   2.423   3.610   8.326  0.3546  0.2248 -0.0015
 7463SOL    HW133848   2.420   3.515   8.315 -3.1002  0.3742 -0.1821
 7463SOL    HW233849   2.455   3.644   8.242  3.5323  1.1126  1.5653
 7464SOL     OW33850   1.925   4.034   3.429  0.3939 -0.1882 -0.1566
 7464SOL    HW133851   1.885   4.003   3.347 -1.4407 -2.6527  1.6822
 7464SOL    HW233852   1.985   4.095   3.387  0.0717 -0.0660 -0.4432
 7465SOL     OW33853   3.809   2.208   1.801  0.0653  0.1017  0.1610
 7465SOL    HW133854   3.769   2.174   1.722  0.7276 -0.9590  0.2797
 7465SOL    HW233855   3.898   2.235   1.776 -0.3079  1.9126  0.7901
 7466SOL     OW33856   2.409   0.240  10.107 -0.3985 -0.1111 -0.0540
 7466SOL    HW133857   2.383   0.214  10.018  0.4501  1.4993 -0.7543
 7466SOL    HW233858   2.329   0.239  10.160  0.2359  1.3876  0.9208
 7467SOL     OW33859   4.498   1.460   2.788 -0.2027 -0.4187  0.3476
 7467SOL    HW133860   4.582   1.504   2.775 -2.0313  2.4639 -1.5607
 7467SOL    HW233861   4.458   1.464   2.701 -1.5869 -3.5985  0.8330
 7468SOL     OW33862   1.014   3.761  15.680  0.8163 -0.0550  0.0495
 7468SOL    HW133863   1.047   3.816  15.751 -1.4152  0.5473  0.5928
 7468SOL    HW233864   1.083   3.759  15.613 -0.8050  1.0889 -1.6675
 7469SOL     OW33865   3.055   1.488  17.126 -0.4694 -0.1492 -0.3921
 7469SOL    HW133866   3.126   1.432  17.094 -1.3279 -2.5779  1.9845
 7469SOL    HW233867   2.983   1.435  17.092 -0.5347  0.3688 -1.0719
 7470SOL     OW33868   1.867   1.885   9.450  0.1428 -0.1311  0.0349
 7470SOL    HW133869   1.943   1.938   9.423  0.8545 -2.1303 -1.8793
 7470SOL    HW233870   1.804   1.885   9.377 -1.2933  0.0924  1.2798
 7471SOL     OW33871   2.665   1.319  17.361  0.3752 -0.5389  0.6677
 7471SOL    HW133872   2.745   1.371  17.365 -0.0282 -0.0225  2.1040
 7471SOL    HW233873   2.681   1.240  17.413 -1.1693 -1.5474 -0.3842
 7472SOL     OW33874   0.774   3.028  13.518 -0.0586  0.0396  0.2420
 7472SOL    HW133875   0.807   3.117  13.530  1.9557 -0.9585  2.2412
 7472SOL    HW233876   0.798   2.991  13.603 -0.2005 -0.5436  0.0258
 7473SOL     OW33877   2.719   0.134   7.819  0.1822  0.1251 -0.2478
 7473SOL    HW133878   2.813   0.150   7.812  0.4101 -1.2933 -0.3353
 7473SOL    HW233879   2.706   0.065   7.884  0.3614  0.3690  0.0464
 7474SOL     OW33880   1.911   0.442   5.794  0.1633  0.2054 -0.0849
 7474SOL    HW133881   1.883   0.521   5.747 -0.8109  0.0041  0.1719
 7474SOL    HW233882   2.000   0.436   5.759 -0.6132 -0.8262 -1.8530
 7475SOL     OW33883   1.877   4.205  16.521  0.6830 -0.1806 -0.1225
 7475SOL    HW133884   1.948   4.175  16.465  0.6987 -2.5643  1.1739
 7475SOL    HW233885   1.904   4.295  16.543 -1.3487  0.1823  0.8491
 7476SOL     OW33886   2.037   4.165  11.037 -0.1035  0.0054 -0.2371
 7476SOL    HW133887   2.063   4.245  11.083  0.7839 -1.0480  1.1015
 7476SOL    HW233888   1.943   4.175  11.022 -0.3797  0.1698  1.5483
 7477SOL     OW33889   2.252   1.015   5.873  0.5016 -0.3810 -0.2937
 7477SOL    HW133890   2.299   1.092   5.840  0.2682 -1.1610 -2.4954
 7477SOL    HW233891   2.251   0.963   5.793  2.7642 -0.5120 -0.2492
 7478SOL     OW33892   1.766   2.891   7.360 -0.3742  0.3474 -0.2923
 7478SOL    HW133893   1.844   2.854   7.401 -0.1498  2.0092  0.7914
 7478SOL    HW233894   1.703   2.820   7.373 -0.0804  0.2000  0.3260
 7479SOL     OW33895   0.303   4.563  16.779 -0.1860 -0.2241 -0.2714
 7479SOL    HW133896   0.269   4.631  16.838  0.9925  0.4137 -0.3208
 7479SOL    HW233897   0.229   4.565  16.720  1.5319  1.4577 -2.3674
 7480SOL     OW33898   0.735   2.485   0.493 -0.0088  0.0177  0.4408
 7480SOL    HW133899   0.789   2.452   0.564  1.0904  0.0204 -0.3915
 7480SOL    HW233900   0.791   2.499   0.417 -0.9469  1.8830  0.0753
 7481SOL     OW33901   2.387   4.514   5.533 -0.3136  0.3347  0.3107
 7481SOL    HW133902   2.316   4.450   5.533  1.1454 -1.2353  2.9567
 7481SOL    HW233903   2.446   4.479   5.599 -1.1654 -0.6246  0.5533
 7482SOL     OW33904   1.554   1.443  17.536  0.3402 -0.1702 -0.1742
 7482SOL    HW133905   1.535   1.437  17.442 -0.4939 -1.9794  0.1041
 7482SOL    HW233906   1.475   1.475  17.579 -0.3137 -4.0582  1.5737
 7483SOL     OW33907   0.333   3.594   3.635 -0.3264 -0.3779 -0.2271
 7483SOL    HW133908   0.255   3.551   3.600 -1.4975  0.6401  1.1673
 7483SOL    HW233909   0.315   3.687   3.622 -2.3565 -0.5425  1.3724
 7484SOL     OW33910   0.236   2.382  14.816 -0.4968  0.0033 -0.1139
 7484SOL    HW133911   0.192   2.323  14.755  1.5903 -2.9572  1.2637
 7484SOL    HW233912   0.179   2.459  14.815  3.2580  2.7728 -1.4629
 7485SOL     OW33913   1.113   1.159   5.652  0.5636 -0.8565 -0.8726
 7485SOL    HW133914   1.144   1.097   5.718 -1.6176  1.1431  2.0351
 7485SOL    HW233915   1.196   1.183   5.611  0.5927 -1.9101 -1.4136
 7486SOL     OW33916   2.632   2.871   2.391 -0.2866 -0.2879 -0.2103
 7486SOL    HW133917   2.579   2.848   2.467  1.3211  1.4281  1.4473
 7486SOL    HW233918   2.675   2.787   2.377 -0.2171 -0.2349 -0.3179
 7487SOL     OW33919   0.802   3.426   8.755  0.8296 -0.4808  0.7933
 7487SOL    HW133920   0.810   3.399   8.847 -0.6360  1.3967  1.4604
 7487SOL    HW233921   0.741   3.363   8.716  0.3114 -0.1356  1.0481
 7488SOL     OW33922   1.283   2.824   3.675  0.5825  0.0411  0.0902
 7488SOL    HW133923   1.187   2.830   3.678  0.7071  3.2270 -1.9575
 7488SOL    HW233924   1.318   2.886   3.739  1.1988 -1.2112  0.9554
 7489SOL     OW33925   1.892   0.912   4.375  0.3808 -0.5974  0.0933
 7489SOL    HW133926   1.975   0.871   4.398  0.5082 -1.6002 -2.1304
 7489SOL    HW233927   1.883   0.972   4.449  0.7485 -0.0966 -0.2632
 7490SOL     OW33928   2.014   4.098   9.571  0.6014  0.4231  0.1387
 7490SOL    HW133929   1.921   4.101   9.552  0.4757 -3.4615  0.2237
 7490SOL    HW233930   2.043   4.149   9.495 -1.2757  1.5918  0.2227
 7491SOL     OW33931   0.557   1.005   8.172  0.1647  0.2125 -0.1258
 7491SOL    HW133932   0.548   0.990   8.266  0.9173  2.8393  0.3651
 7491SOL    HW233933   0.539   1.099   8.172  1.4877  0.4648 -1.4264
 7492SOL     OW33934   2.667   2.779   6.170  0.0431 -0.0305  0.2967
 7492SOL    HW133935   2.651   2.769   6.076 -3.6455  2.0441  0.7390
 7492SOL    HW233936   2.692   2.871   6.179  2.7227 -0.5670 -1.4075
 7493SOL     OW33937   0.608   1.328  11.992  0.0013 -0.1903  0.2758
 7493SOL    HW133938   0.655   1.407  12.020  2.4567 -2.2383  2.0424
 7493SOL    HW233939   0.576   1.353  11.906 -0.6931  1.0207  0.8966
 7494SOL     OW33940   0.398   0.746   7.039  0.5446 -0.0137  0.0121
 7494SOL    HW133941   0.373   0.700   6.958  1.8934  0.4179 -0.6383
 7494SOL    HW233942   0.373   0.837   7.022 -0.5505 -0.2827  0.1312
 7495SOL     OW33943   4.127   4.235  10.548 -0.2029 -0.0870  0.0779
 7495SOL    HW133944   4.080   4.188  10.617 -1.6524  0.4227 -0.5811
 7495SOL    HW233945   4.055   4.248  10.487 -0.5357  2.7075  1.0988
 7496SOL     OW33946   0.782   1.627   2.228  0.8082  0.2747  0.4071
 7496SOL    HW133947   0.699   1.602   2.271 -0.4809  1.7252 -1.2436
 7496SOL    HW233948   0.766   1.714   2.192 -0.6299 -0.1264  0.0760
 7497SOL     OW33949   0.607   0.796   1.018  0.1909  0.2558  0.0707
 7497SOL    HW133950   0.578   0.779   0.928 -0.6646  2.5546 -0.0849
 7497SOL    HW233951   0.701   0.811   1.012  0.7275 -2.9684  0.3438
 7498SOL     OW33952   2.527   4.274  10.989  0.1425 -0.4788 -0.0800
 7498SOL    HW133953   2.534   4.370  10.983  2.2189 -0.5840  0.7450
 7498SOL    HW233954   2.436   4.265  11.018 -0.6402  0.0349 -2.3392
 7499SOL     OW33955   3.158   3.587  12.278  0.4852  0.3624  0.6122
 7499SOL    HW133956   3.142   3.504  12.323  0.9317 -0.6084 -1.0225
 7499SOL    HW233957   3.097   3.633  12.337 -1.2869  0.3222 -1.1771
 7500SOL     OW33958   4.596   2.919   5.539 -0.3258  0.0115 -0.0180
 7500SOL    HW133959   4.611   2.868   5.459 -2.9823  1.0678 -1.1617
 7500SOL    HW233960   4.561   2.852   5.599 -1.4584  0.4670 -0.1770
 7501SOL     OW33961   2.746   4.056   5.552 -0.4169 -0.6340  0.6326
 7501SOL    HW133962   2.726   3.963   5.539 -1.6519 -0.5198  1.7986
 7501SOL    HW233963   2.761   4.063   5.646 -1.6353 -0.2194  0.7994
 7502SOL     OW33964   0.507   4.295  17.264  0.7760  0.1561  0.3874
 7502SOL    HW133965   0.585   4.254  17.227  0.0898 -1.1181  0.3340
 7502SOL    HW233966   0.549   4.353  17.327 -0.1996  1.2867 -0.0003
 7503SOL     OW33967   1.416   0.241   5.677  0.0694  0.2932 -0.9146
 7503SOL    HW133968   1.405   0.331   5.706  1.5918  0.3856 -0.6496
 7503SOL    HW233969   1.504   0.228   5.711 -0.1585  0.5532 -0.2298
 7504SOL     OW33970   1.276   2.690   2.772  0.2506 -0.3482 -0.1416
 7504SOL    HW133971   1.261   2.689   2.678 -0.1064  0.5283 -0.0881
 7504SOL    HW233972   1.266   2.784   2.782  1.8592 -0.3130  1.1413
 7505SOL     OW33973   2.348   0.571  10.050  0.3223  0.4068  0.0855
 7505SOL    HW133974   2.397   0.544  10.128  3.4564 -0.5064 -2.1794
 7505SOL    HW233975   2.276   0.508  10.053 -0.7451  1.5532 -1.3041
 7506SOL     OW33976   0.883   0.417   6.123  0.4530  0.3802 -0.0701
 7506SOL    HW133977   0.862   0.343   6.180  0.3993  2.0787  2.1050
 7506SOL    HW233978   0.809   0.429   6.063 -1.2538  0.6896  2.1045
 7507SOL     OW33979   2.116   3.351   5.790  0.3633 -0.1096  0.3832
 7507SOL    HW133980   2.166   3.270   5.795  0.3666 -0.0017  2.1407
 7507SOL    HW233981   2.048   3.330   5.726  0.7979 -0.7525  0.1344
 7508SOL     OW33982   4.494   3.137   1.665 -0.2222  0.0670 -0.1468
 7508SOL    HW133983   4.477   3.078   1.592  0.7200 -1.6577  0.9946
 7508SOL    HW233984   4.589   3.126   1.675 -0.3283 -0.4510  0.3202
 7509SOL     OW33985   1.291   0.475   4.453 -0.6906  0.0397 -0.4273
 7509SOL    HW133986   1.231   0.455   4.526 -2.4776  2.7274 -1.1455
 7509SOL    HW233987   1.373   0.495   4.498 -1.6255  0.4338  1.1044
 7510SOL     OW33988   3.391   1.684   9.470  0.0970  0.0357  0.3113
 7510SOL    HW133989   3.460   1.669   9.406 -1.4018 -1.2459 -1.0029
 7510SOL    HW233990   3.325   1.729   9.417 -0.5290  0.1112  1.1611
 7511SOL     OW33991   4.231   2.758   1.460  0.1839  0.1383 -0.5094
 7511SOL    HW133992   4.204   2.698   1.390  2.5663 -1.4946 -0.0144
 7511SOL    HW233993   4.147   2.794   1.487  0.4255  0.9759 -0.8642
 7512SOL     OW33994   0.992   0.382   3.473 -0.0743 -0.0410  0.3374
 7512SOL    HW133995   1.078   0.423   3.459  1.1952 -3.5688 -2.1911
 7512SOL    HW233996   0.959   0.447   3.536  0.1318 -0.2137  0.6257
 7513SOL     OW33997   2.906   0.920  17.645 -0.2921  0.5152 -0.0366
 7513SOL    HW133998   2.887   0.828  17.664  2.2507 -0.0465 -0.2276
 7513SOL    HW233999   2.988   0.914  17.596  0.4010  0.4893  1.1309
 7514SOL     OW34000   0.034   1.770   9.383 -0.6062 -0.3660  0.5376
 7514SOL    HW134001   0.097   1.785   9.312 -1.2125  1.0508  0.2934
 7514SOL    HW234002   0.100   1.751   9.450  1.0123  0.4926 -0.8124
 7515SOL     OW34003   0.289   4.326  17.083 -0.1944 -0.0292  0.8791
 7515SOL    HW134004   0.360   4.320  17.147  1.8167  3.0570 -1.0780
 7515SOL    HW234005   0.214   4.329  17.143 -3.1078  0.4420 -2.7649
 7516SOL     OW34006   0.258   4.386   4.931 -0.0488 -0.0428 -0.3453
 7516SOL    HW134007   0.329   4.443   4.962 -0.0982 -0.7549  1.0897
 7516SOL    HW234008   0.289   4.303   4.966  0.8132  0.8531  1.0015
 7517SOL     OW34009   0.062   1.120   4.037 -0.2063  0.4303  0.2332
 7517SOL    HW134010   0.078   1.168   3.956  0.1311  0.7883  0.5148
 7517SOL    HW234011   0.022   1.044   3.994  0.0448 -0.5805  1.7615
 7518SOL     OW34012   2.712   1.999   5.332  0.4897 -0.3460 -0.4403
 7518SOL    HW134013   2.668   2.056   5.395 -1.4927 -2.5573  0.1695
 7518SOL    HW234014   2.649   1.927   5.329 -0.3255  0.4447 -2.3822
 7519SOL     OW34015   1.628   1.627  12.172 -0.0114  0.2637  0.8544
 7519SOL    HW134016   1.570   1.561  12.209  0.5450 -1.3573 -1.1965
 7519SOL    HW234017   1.623   1.691  12.243 -0.2900  0.1611  0.9266
 7520SOL     OW34018   4.717   3.492   5.506  0.2463 -0.7642 -0.3066
 7520SOL    HW134019   4.654   3.465   5.573 -1.7846  0.4922 -1.6856
 7520SOL    HW234020   0.076   3.494   5.556  0.4662 -2.4233 -0.5938
 7521SOL     OW34021   3.655   1.604  15.236 -0.0253  0.2981 -0.5497
 7521SOL    HW134022   3.576   1.551  15.238  0.1721  0.0615  0.6170
 7521SOL    HW234023   3.704   1.543  15.182 -0.6199  0.1433 -0.9176
 7522SOL     OW34024   2.282   2.755  10.030  0.0030 -0.3486  0.3790
 7522SOL    HW134025   2.325   2.780  10.111 -0.9589  1.7389  0.2525
 7522SOL    HW234026   2.213   2.701  10.068 -1.2831 -0.2537 -1.7701
 7523SOL     OW34027   1.713   3.525  15.208  0.6083 -0.2111 -0.5501
 7523SOL    HW134028   1.784   3.587  15.192 -0.0318  0.7088  0.1383
 7523SOL    HW234029   1.748   3.480  15.285 -0.7454 -0.5705 -0.1532
 7524SOL     OW34030   3.818   3.388   8.393  0.3543 -0.7237 -0.5366
 7524SOL    HW134031   3.735   3.429   8.416  0.5982 -0.5015 -0.0467
 7524SOL    HW234032   3.869   3.405   8.472 -1.8767 -1.2361  0.9944
 7525SOL     OW34033   2.769   4.498   5.764 -0.7715  0.6217 -0.0057
 7525SOL    HW134034   2.695   4.452   5.725  0.5204 -0.9588 -0.6186
 7525SOL    HW234035   2.771   4.579   5.712 -1.0970  1.9128  2.0181
 7526SOL     OW34036   1.122   4.670   7.926  0.1170  0.1810  0.1385
 7526SOL    HW134037   1.151   4.584   7.955  0.2999 -0.5431 -2.2201
 7526SOL    HW234038   1.170   4.678   7.844 -0.3477 -1.8967 -0.3241
 7527SOL     OW34039   2.853   0.075   0.005  0.0557  0.0306 -0.3773
 7527SOL    HW134040   2.832   0.105   0.094  3.4392 -0.5496  0.6048
 7527SOL    HW234041   2.934   0.031   0.029  1.3595  1.0174 -2.9484
 7528SOL     OW34042   1.843   3.250   4.229 -0.5321 -0.1549  0.1377
 7528SOL    HW134043   1.877   3.292   4.150  0.8493 -0.9075  0.3275
 7528SOL    HW234044   1.890   3.167   4.215  0.6180  0.9515 -2.7524
 7529SOL     OW34045   0.922   3.548   7.383  0.4529 -0.4019  0.0662
 7529SOL    HW134046   0.950   3.634   7.353 -1.4398  0.6158  1.2116
 7529SOL    HW234047   0.857   3.581   7.445  1.3636  1.0106  0.2769
 7530SOL     OW34048   0.888   4.578  14.517 -0.4122 -0.1664 -0.3897
 7530SOL    HW134049   0.882   4.488  14.483 -0.6144 -0.0549 -0.6539
 7530SOL    HW234050   0.836   4.577  14.597 -2.1397  1.0384 -1.4834
 7531SOL     OW34051   2.482   2.257   4.476  0.6157  0.2226 -0.4397
 7531SOL    HW134052   2.557   2.299   4.518  0.9757  0.6771 -1.5187
 7531SOL    HW234053   2.414   2.313   4.514  1.0696 -1.0415  2.1933
 7532SOL     OW34054   1.805   2.620   6.581 -0.0138  0.3843  0.3047
 7532SOL    HW134055   1.839   2.547   6.530 -0.9549  0.2851 -0.1803
 7532SOL    HW234056   1.773   2.685   6.519 -2.6021 -0.3665  0.8516
 7533SOL     OW34057   2.018   0.383   5.156  0.1267 -0.0913 -0.8243
 7533SOL    HW134058   1.946   0.320   5.170 -0.8710  1.7830  2.3790
 7533SOL    HW234059   2.091   0.333   5.120 -1.0009 -1.1822 -1.6546
 7534SOL     OW34060   1.280   3.021  13.781  0.5264 -0.4764 -0.1162
 7534SOL    HW134061   1.331   2.941  13.773 -1.7569 -1.9832  0.4612
 7534SOL    HW234062   1.233   3.013  13.864 -0.8432 -2.4862 -1.0857
 7535SOL     OW34063   4.014   0.934  11.985  0.1420 -0.0091 -0.5778
 7535SOL    HW134064   4.065   1.015  11.984 -0.5027  0.3607 -3.2765
 7535SOL    HW234065   4.035   0.893  11.901 -1.7501 -0.2755 -0.9171
 7536SOL     OW34066   4.437   3.495   5.361  0.1849 -0.1574  0.2196
 7536SOL    HW134067   4.442   3.500   5.456 -1.4206 -1.7723  0.3828
 7536SOL    HW234068   4.444   3.403   5.338 -1.4781  0.5526 -3.2136
 7537SOL     OW34069   3.608   4.469   8.808 -0.4836 -0.2501  0.4098
 7537SOL    HW134070   3.551   4.395   8.790  0.7346 -0.4423 -2.6823
 7537SOL    HW234071   3.567   4.522   8.876 -0.9406 -0.3322  0.1959
 7538SOL     OW34072   0.602   3.448  17.613 -0.1689 -0.1043 -0.1692
 7538SOL    HW134073   0.546   3.442  17.535  0.6827  2.8609 -1.0198
 7538SOL    HW234074   0.679   3.477  17.564 -1.6497  2.1576 -1.1698
 7539SOL     OW34075   0.082   0.681   4.037  0.0190  0.0277 -0.3866
 7539SOL    HW134076   0.085   0.594   3.997  0.0911 -0.0303 -0.2525
 7539SOL    HW234077   0.016   0.726   3.984  1.7337  1.3657 -1.3800
 7540SOL     OW34078   3.160   4.027   5.020  0.6220  0.3491  0.5256
 7540SOL    HW134079   3.210   3.950   5.046  2.3071  1.1391 -0.4160
 7540SOL    HW234080   3.216   4.091   5.063  0.2207  1.0354  0.0218
 7541SOL     OW34081   2.051   0.223  11.292  0.2680  0.5903 -0.2131
 7541SOL    HW134082   2.064   0.256  11.203  0.6744  2.1400  0.4248
 7541SOL    HW234083   2.135   0.177  11.296 -0.8296 -1.3987 -0.2359
 7542SOL     OW34084   3.299   2.567  15.019 -0.1951  0.0401  0.1160
 7542SOL    HW134085   3.314   2.473  15.029  0.3481  0.0630 -0.4763
 7542SOL    HW234086   3.355   2.610  15.083 -0.4209  0.2572  0.1664
 7543SOL     OW34087   4.549   3.535   6.734 -0.0813 -0.3446 -0.0053
 7543SOL    HW134088   4.597   3.593   6.675 -0.2342 -2.2162 -1.9524
 7543SOL    HW234089   4.561   3.581   6.817  2.1610  1.1643 -1.1664
 7544SOL     OW34090   1.087   1.077  12.957  0.4935 -0.4820 -0.4423
 7544SOL    HW134091   1.007   1.034  12.988 -0.1495  1.0876  0.0719
 7544SOL    HW234092   1.155   1.056  13.022  0.8091 -0.0750 -0.6368
 7545SOL     OW34093   0.676   2.378   6.632 -0.0695 -0.4199  0.0642
 7545SOL    HW134094   0.753   2.322   6.638 -1.0194 -1.7451  0.0904
 7545SOL    HW234095   0.606   2.312   6.623 -0.2394  0.1993 -3.1733
 7546SOL     OW34096   1.935   4.102   9.269 -0.1938 -0.3247  0.2366
 7546SOL    HW134097   1.848   4.141   9.274 -0.5274 -0.8751 -1.0876
 7546SOL    HW234098   1.981   4.173   9.223 -0.8340 -0.1194 -0.0931
 7547SOL     OW34099   0.426   3.835  16.348 -0.2751  0.4150 -0.9933
 7547SOL    HW134100   0.422   3.771  16.419 -2.3543 -1.7973 -3.0713
 7547SOL    HW234101   0.397   3.780  16.275 -2.4536 -0.1766  0.3080
 7548SOL     OW34102   2.926   4.110   8.020 -0.0675 -0.1634 -0.5899
 7548SOL    HW134103   2.966   4.031   8.056 -2.5542 -1.5068 -0.7032
 7548SOL    HW234104   2.843   4.118   8.067  1.8037  0.7103  2.5820
 7549SOL     OW34105   2.217   4.539   9.713 -0.2083  0.2143 -0.1372
 7549SOL    HW134106   2.241   4.457   9.756 -0.0455  0.0850 -0.4710
 7549SOL    HW234107   2.212   4.603   9.784  1.3342  1.0124 -0.7508
 7550SOL     OW34108   2.972   2.951   2.823 -0.0189 -0.1148 -0.0171
 7550SOL    HW134109   3.024   2.888   2.874  0.0673 -0.5095 -0.5953
 7550SOL    HW234110   2.966   3.034   2.871  0.0601  0.9597 -1.8683
 7551SOL     OW34111   3.349   2.462   2.445  0.5399  0.2684  0.0767
 7551SOL    HW134112   3.405   2.391   2.478  2.4513  0.4652 -2.7450
 7551SOL    HW234113   3.324   2.432   2.358 -0.3713  0.0429  0.4197
 7552SOL     OW34114   3.226   3.063   3.215 -0.3213  0.1794  0.5383
 7552SOL    HW134115   3.211   2.972   3.239 -0.8268  0.0661 -0.2324
 7552SOL    HW234116   3.274   3.050   3.133  0.1635 -1.3264  1.0710
 7553SOL     OW34117   1.096   4.682  11.689  0.2054 -0.1047 -0.0327
 7553SOL    HW134118   1.152   4.701  11.614  1.5638  1.1928  1.3084
 7553SOL    HW234119   1.067   0.050  11.701 -1.2805 -0.3558 -1.6608
 7554SOL     OW34120   1.370   2.290  14.227 -0.1851 -0.0510  0.2168
 7554SOL    HW134121   1.277   2.270  14.220  0.2321 -2.0733  0.3782
 7554SOL    HW234122   1.405   2.202  14.239  0.0989 -0.2379 -1.9075
 7555SOL     OW34123   1.976   4.207   4.975 -0.4815  0.3354 -0.0679
 7555SOL    HW134124   2.031   4.151   4.922 -0.2678  0.8996 -0.4474
 7555SOL    HW234125   1.965   4.282   4.917  0.8814 -0.8003 -1.7868
 7556SOL     OW34126   1.582   0.818   7.828  0.2954  0.0342 -0.1045
 7556SOL    HW134127   1.523   0.869   7.883 -0.3132 -0.2114 -0.5311
 7556SOL    HW234128   1.560   0.736   7.871  0.8942  0.9251  1.8911
 7557SOL     OW34129   4.076   1.532   2.401  0.1486  0.0903 -0.3582
 7557SOL    HW134130   4.113   1.443   2.399  0.9884  0.4344 -0.0675
 7557SOL    HW234131   4.111   1.579   2.326  0.0479  1.1359  0.2500
 7558SOL     OW34132   4.459   4.423   2.370  0.0228 -0.1315 -0.1174
 7558SOL    HW134133   4.537   4.402   2.422 -1.1285 -4.9745 -0.2765
 7558SOL    HW234134   4.437   4.508   2.408  1.2665 -0.3650  1.1065
 7559SOL     OW34135   1.668   3.411   5.567  0.5082 -0.0475  0.4647
 7559SOL    HW134136   1.621   3.425   5.485  1.0222 -0.4164  0.1074
 7559SOL    HW234137   1.714   3.494   5.579 -0.9893  0.7351  0.8267
 7560SOL     OW34138   4.604   0.230   7.300  0.4117  0.0753  0.3400
 7560SOL    HW134139   4.656   0.295   7.252 -1.8737  1.6247 -0.0442
 7560SOL    HW234140   4.629   0.150   7.254  0.2330  0.5879 -0.6460
 7561SOL     OW34141   3.252   4.256   3.038  0.3015 -0.3402  0.8435
 7561SOL    HW134142   3.334   4.211   3.058 -0.0051 -1.0893  0.4344
 7561SOL    HW234143   3.198   4.199   3.092 -1.4281  1.6504  1.1859
 7562SOL     OW34144   1.238   4.172   9.817 -0.0333 -0.3053  0.2333
 7562SOL    HW134145   1.241   4.163   9.721 -0.3541  2.2736 -0.0037
 7562SOL    HW234146   1.305   4.108   9.842 -0.3089 -0.8385 -0.3763
 7563SOL     OW34147   1.222   3.839   9.434  0.0242  0.5314  0.1451
 7563SOL    HW134148   1.221   3.932   9.456  0.7340  0.8726 -1.2336
 7563SOL    HW234149   1.288   3.804   9.493 -0.2722 -0.0575  0.1212
 7564SOL     OW34150   1.382   4.681   9.918 -0.0173 -0.3372  0.3401
 7564SOL    HW134151   1.415   4.606   9.967 -0.0361 -1.0045 -0.6647
 7564SOL    HW234152   1.406   4.661   9.827  0.6619  1.6999  0.0778
 7565SOL     OW34153   0.262   2.817  10.138 -0.2999 -0.2617  0.3298
 7565SOL    HW134154   0.185   2.781  10.180 -0.6653 -0.3259 -0.3943
 7565SOL    HW234155   0.236   2.908  10.127  0.6147 -0.0134  0.2052
 7566SOL     OW34156   0.709   1.819   8.406  0.1510  0.1580  0.3174
 7566SOL    HW134157   0.803   1.806   8.419  0.1683 -0.8634 -0.8241
 7566SOL    HW234158   0.685   1.751   8.469  2.1385  0.0395  0.9345
 7567SOL     OW34159   2.781   1.948   0.961  0.3881  0.5327 -0.0492
 7567SOL    HW134160   2.846   2.018   0.958  0.0358  0.9143  1.2870
 7567SOL    HW234161   2.790   1.931   0.867 -2.2438 -0.1016 -0.1851
 7568SOL     OW34162   1.079   3.115   4.643  0.0253  0.2824 -0.1142
 7568SOL    HW134163   1.048   3.042   4.590 -1.8184  2.4993 -2.0561
 7568SOL    HW234164   1.043   3.094   4.729 -0.3226  0.3736 -0.2367
 7569SOL     OW34165   4.495   3.669   9.824 -0.2669  0.3529 -0.7873
 7569SOL    HW134166   4.437   3.739   9.794  0.1745  1.3954  0.7734
 7569SOL    HW234167   4.457   3.585   9.798  0.8851 -0.7097  0.9808
 7570SOL     OW34168   2.650   0.006  14.554 -0.4842  0.0533  0.4782
 7570SOL    HW134169   2.639   4.638  14.585 -2.1528 -0.2675 -1.0245
 7570SOL    HW234170   2.652   0.057  14.634  1.3301 -0.2202  0.6118
 7571SOL     OW34171   3.089   2.194   6.345 -0.1802  0.7104 -0.2827
 7571SOL    HW134172   3.030   2.205   6.271  0.2735 -0.4206 -0.8161
 7571SOL    HW234173   3.026   2.195   6.416 -0.8966 -0.8674 -0.9029
 7572SOL     OW34174   0.502   1.069  11.871 -0.6635  0.3986 -0.1863
 7572SOL    HW134175   0.417   1.108  11.892 -0.8108 -1.4437  2.6610
 7572SOL    HW234176   0.566   1.136  11.896 -0.6949 -0.6410  2.6245
 7573SOL     OW34177   0.920   1.127   2.259  0.3320 -0.0145 -0.2105
 7573SOL    HW134178   0.840   1.112   2.309  0.5483  1.7440  0.6570
 7573SOL    HW234179   0.892   1.192   2.195 -0.8387  0.2033  0.5262
 7574SOL     OW34180   1.723   4.101  10.005  0.0702 -0.5766 -0.2893
 7574SOL    HW134181   1.724   4.196   9.994  0.7912 -0.4577  0.8179
 7574SOL    HW234182   1.696   4.084  10.095 -0.6485  1.5300 -0.1257
 7575SOL     OW34183   0.066   4.151  15.376 -0.2257 -0.2626 -0.0360
 7575SOL    HW134184   4.708   4.168  15.425  0.8518 -0.1308  1.6532
 7575SOL    HW234185   0.102   4.237  15.357  0.2864 -0.2467  1.0294
 7576SOL     OW34186   0.346   1.345  13.083 -0.1564  0.5499  0.1647
 7576SOL    HW134187   0.297   1.374  13.160  2.0191 -1.4731  2.3351
 7576SOL    HW234188   0.356   1.254  13.113 -0.1823  0.6938  0.6145
 7577SOL     OW34189   2.992   1.849   7.399  0.1946  0.2134 -0.3753
 7577SOL    HW134190   3.028   1.938   7.393 -1.0231  0.8850  2.4363
 7577SOL    HW234191   2.978   1.837   7.493 -0.8202 -0.5329 -0.6297
 7578SOL     OW34192   3.012   1.520   8.802  0.0423  0.1357 -0.2730
 7578SOL    HW134193   3.063   1.456   8.852 -0.7064 -1.0978 -1.1021
 7578SOL    HW234194   3.082   1.561   8.751  0.9188 -1.4956 -0.3921
 7579SOL     OW34195   1.455   4.373   2.028 -0.3679 -0.8202 -0.1194
 7579SOL    HW134196   1.464   4.353   1.935 -0.8849 -0.7678 -0.1780
 7579SOL    HW234197   1.360   4.365   2.035 -0.6934  1.1722 -2.1565
 7580SOL     OW34198   1.810   4.413  10.223  0.6402  0.8897  0.4905
 7580SOL    HW134199   1.758   4.395  10.145  1.8311 -3.1067  0.6190
 7580SOL    HW234200   1.803   4.329  10.269  2.2076  1.3270  1.5329
 7581SOL     OW34201   2.625   2.345  13.799 -0.3929 -0.3882 -0.2157
 7581SOL    HW134202   2.575   2.266  13.819 -1.1178  0.2915  0.6449
 7581SOL    HW234203   2.687   2.321  13.730 -0.1654 -0.6192  0.0711
 7582SOL     OW34204   3.179   2.575   2.198  0.4978  0.0344  0.0038
 7582SOL    HW134205   3.264   2.564   2.156  0.8617 -1.7165  1.2015
 7582SOL    HW234206   3.210   2.630   2.270 -0.2886  2.2338 -1.3270
 7583SOL     OW34207   0.580   2.946   2.898 -0.4084 -0.6640 -0.4345
 7583SOL    HW134208   0.539   2.860   2.905  2.4625 -1.9404  0.9363
 7583SOL    HW234209   0.669   2.923   2.869  0.0044  0.7922 -0.3190
 7584SOL     OW34210   3.991   2.551   8.017  0.0615  0.2163  0.1231
 7584SOL    HW134211   3.956   2.589   7.936  1.0184 -1.8619 -1.3054
 7584SOL    HW234212   4.034   2.473   7.980 -0.5511  0.4866 -1.1697
 7585SOL     OW34213   1.025   0.049   2.202  0.2785 -0.0419 -0.2681
 7585SOL    HW134214   1.097   0.104   2.233  0.5102 -1.8693  2.4356
 7585SOL    HW234215   1.077   4.711   2.148 -0.5214 -1.0982  0.1434
 7586SOL     OW34216   3.727   2.531   2.296 -0.0697 -0.0163  0.1259
 7586SOL    HW134217   3.670   2.467   2.254  0.5169 -1.1124  0.9977
 7586SOL    HW234218   3.781   2.473   2.350 -1.7487 -1.2658  0.4598
 7587SOL     OW34219   2.761   2.330   1.982  0.4407 -0.2784  0.6079
 7587SOL    HW134220   2.774   2.425   1.984  0.4889 -0.2880  0.7311
 7587SOL    HW234221   2.716   2.339   1.898 -0.3150 -0.9497  0.9477
 7588SOL     OW34222   0.206   1.497   2.256 -0.0071 -0.5258  0.0983
 7588SOL    HW134223   0.266   1.521   2.185  0.0024 -0.3594  0.1618
 7588SOL    HW234224   0.125   1.541   2.233  0.9210  0.4970 -1.2642
 7589SOL     OW34225   0.359   3.370  10.032  0.1473 -0.3223  1.1139
 7589SOL    HW134226   0.265   3.353  10.026  0.0867  0.4469 -0.2584
 7589SOL    HW234227   0.355   3.408  10.120 -2.7352  1.3200  0.2918
 7590SOL     OW34228   0.262   1.771   4.892 -0.1816 -0.0350  0.1089
 7590SOL    HW134229   0.198   1.700   4.896 -0.6715  0.3471 -0.9978
 7590SOL    HW234230   0.215   1.840   4.847  0.0759  0.4094  0.5228
 7591SOL     OW34231   0.575   4.118   7.116  0.5834  0.1444 -0.7742
 7591SOL    HW134232   0.511   4.131   7.046  0.7200 -0.1089 -0.9432
 7591SOL    HW234233   0.538   4.038   7.154  1.8010 -0.9974 -2.0131
 7592SOL     OW34234   3.209   1.940  16.615 -0.0086 -0.3283  0.2885
 7592SOL    HW134235   3.125   1.910  16.647 -0.4542 -2.2961 -2.6833
 7592SOL    HW234236   3.191   1.938  16.521 -1.4646  1.9448  0.5154
 7593SOL     OW34237   2.670   0.014   5.282  0.4372  0.0609  0.3760
 7593SOL    HW134238   2.644   4.702   5.196 -1.7673 -2.0975  1.9019
 7593SOL    HW234239   2.592   4.712   5.333  1.9360 -2.9360  1.2231
 7594SOL     OW34240   2.736   4.701   8.078 -0.0675  0.8255 -0.2368
 7594SOL    HW134241   2.821   0.022   8.069  0.4544 -0.5103 -1.9553
 7594SOL    HW234242   2.702   0.023   8.156 -3.1166  0.0437 -1.1127
 7595SOL     OW34243   3.154   4.467   8.835  0.2105 -0.1789 -0.2217
 7595SOL    HW134244   3.131   4.531   8.767  0.0714  2.0605  1.9300
 7595SOL    HW234245   3.085   4.401   8.838 -0.9847  1.1637  2.3721
 7596SOL     OW34246   3.552   2.370  11.088 -0.6219  0.1595  0.0015
 7596SOL    HW134247   3.538   2.292  11.035  2.6279 -0.1627 -0.3499
 7596SOL    HW234248   3.635   2.348  11.129 -0.2620  2.0537  0.2956
 7597SOL     OW34249   0.452   0.164  12.296 -0.0071 -0.2914 -0.1809
 7597SOL    HW134250   0.365   0.153  12.333 -1.0159 -0.8617 -2.7531
 7597SOL    HW234251   0.481   0.248  12.333  0.1895 -0.8873  1.0358
 7598SOL     OW34252   1.236   2.054  11.654  0.0271 -0.1029  0.8165
 7598SOL    HW134253   1.316   2.080  11.699 -0.2779 -0.8680  1.8006
 7598SOL    HW234254   1.275   2.059  11.567 -0.2864 -1.4643  0.5892
 7599SOL     OW34255   4.140   0.775   7.351  0.1840  0.1873  0.0307
 7599SOL    HW134256   4.180   0.791   7.436  0.5139 -0.6694  0.0371
 7599SOL    HW234257   4.099   0.690   7.370  2.3151 -0.7847  0.3311
 7600SOL     OW34258   4.571   2.668   9.499  0.5868  0.6963 -0.2056
 7600SOL    HW134259   4.579   2.638   9.590  0.8830 -1.2005 -0.8477
 7600SOL    HW234260   4.633   2.740   9.504 -0.4516  1.6629 -1.2460
 7601SOL     OW34261   1.822   3.981   6.099  0.7768 -0.7840 -0.1540
 7601SOL    HW134262   1.753   4.011   6.159  1.0069  1.5150 -1.0353
 7601SOL    HW234263   1.845   4.070   6.071 -0.8414 -0.6307 -1.0295
 7602SOL     OW34264   0.054   1.218   7.938 -0.7201  0.1227 -0.1619
 7602SOL    HW134265   4.714   1.222   7.865 -0.8309 -2.0596 -0.1668
 7602SOL    HW234266   4.715   1.214   8.011 -0.2000 -0.7914  0.2198
 7603SOL     OW34267   2.769   4.330  10.749  0.3788  0.3634  0.2680
 7603SOL    HW134268   2.816   4.403  10.788  0.6233  1.2885 -1.7481
 7603SOL    HW234269   2.738   4.287  10.829  0.1780 -0.0375 -0.0242
 7604SOL     OW34270   2.975   2.896   6.033 -0.3670 -0.0790 -0.1957
 7604SOL    HW134271   3.013   2.825   5.982  0.2212 -0.5159  0.8574
 7604SOL    HW234272   2.892   2.917   5.991 -0.6663 -2.3357 -0.7084
 7605SOL     OW34273   3.263   1.841  12.497  0.8014 -0.0010 -0.4334
 7605SOL    HW134274   3.329   1.818  12.432 -0.4321 -0.3368 -1.5659
 7605SOL    HW234275   3.283   1.777  12.565  1.6430 -1.9566 -2.5183
 7606SOL     OW34276   3.329   4.458   2.881  0.1098  0.6403 -1.0680
 7606SOL    HW134277   3.329   4.401   2.804 -2.6866 -2.2575  1.0672
 7606SOL    HW234278   3.311   4.397   2.952  0.4728  1.2670 -0.4415
 7607SOL     OW34279   4.534   1.569   4.977 -0.1526  0.0752  0.0498
 7607SOL    HW134280   4.488   1.631   4.922 -0.3179 -0.6944 -0.6828
 7607SOL    HW234281   4.624   1.580   4.945 -0.5414 -0.8667 -1.3576
 7608SOL     OW34282   1.408   3.968   8.271  0.0472  0.1486 -0.1711
 7608SOL    HW134283   1.492   3.985   8.315  0.6314 -0.4158 -1.0563
 7608SOL    HW234284   1.357   4.043   8.301 -1.4692  0.2436 -2.9858
 7609SOL     OW34285   2.334   0.425  17.445 -0.2109 -0.0657 -0.0999
 7609SOL    HW134286   2.250   0.403  17.406  0.7377 -2.4852 -0.7826
 7609SOL    HW234287   2.360   0.513  17.416  2.7017 -0.6229  0.8110
 7610SOL     OW34288   3.650   1.639   6.727  0.6391  0.0267 -0.2850
 7610SOL    HW134289   3.670   1.619   6.635 -0.6214  1.0983 -0.7982
 7610SOL    HW234290   3.710   1.577   6.769 -0.2242 -1.0215 -0.6230
 7611SOL     OW34291   2.458   0.843   5.708  0.3085 -0.0477 -0.1548
 7611SOL    HW134292   2.443   0.749   5.720  0.6667 -0.2302 -1.1339
 7611SOL    HW234293   2.482   0.847   5.801  0.2923  0.3272 -0.1689
 7612SOL     OW34294   3.711   1.739   3.839 -0.4663 -0.4680  0.3354
 7612SOL    HW134295   3.788   1.685   3.820  0.1668  1.4430 -2.4857
 7612SOL    HW234296   3.658   1.704   3.767 -0.3449  0.7257 -0.3432
 7613SOL     OW34297   1.934   3.032  15.423 -0.7902  0.2608 -0.1804
 7613SOL    HW134298   1.854   3.083  15.433 -0.2842  1.2733 -1.2110
 7613SOL    HW234299   1.894   2.946  15.430  0.5195 -0.3302  0.0496
 7614SOL     OW34300   3.444   0.559  13.501 -0.1942 -0.2365 -0.0263
 7614SOL    HW134301   3.351   0.566  13.480  0.3430 -2.0271 -3.0580
 7614SOL    HW234302   3.458   0.464  13.490  0.3315 -0.4338  2.4313
 7615SOL     OW34303   4.310   1.967   5.347  0.2554  0.6108  0.4654
 7615SOL    HW134304   4.337   1.900   5.410 -0.4902  0.3165  0.4727
 7615SOL    HW234305   4.311   1.905   5.274  0.2627  2.1289 -0.7965
 7616SOL     OW34306   4.284   4.553   0.533  0.3006 -0.8910 -0.5637
 7616SOL    HW134307   4.212   4.592   0.482  0.7390  2.0768  1.0615
 7616SOL    HW234308   4.336   4.630   0.555  0.0073 -0.9333  0.2716
 7617SOL     OW34309   0.889   3.105  13.784 -0.3344 -0.6631 -0.5391
 7617SOL    HW134310   0.823   3.099  13.853  0.0324  1.2000 -0.0346
 7617SOL    HW234311   0.880   3.200  13.769  0.2449 -0.6162 -0.5814
 7618SOL     OW34312   4.533   2.575   5.521  0.4011 -0.0792 -0.5457
 7618SOL    HW134313   4.469   2.644   5.541  0.5516 -0.9821  2.9957
 7618SOL    HW234314   4.514   2.550   5.431  2.0946 -0.5085 -0.7747
 7619SOL     OW34315   1.575   0.180   9.121  0.1985  0.0650  0.2965
 7619SOL    HW134316   1.501   0.175   9.061 -1.5806  0.0828  2.4966
 7619SOL    HW234317   1.564   0.103   9.177  0.9638  0.3017  0.7709
 7620SOL     OW34318   0.903   4.265   7.991  0.1605 -0.0033  0.1144
 7620SOL    HW134319   0.811   4.291   7.997 -0.4638 -2.4241  1.1135
 7620SOL    HW234320   0.918   4.315   7.911  0.2994  1.4374  1.0453
 7621SOL     OW34321   4.506   1.515  15.251 -0.1306 -0.3434  0.0354
 7621SOL    HW134322   4.553   1.532  15.333 -2.1836 -1.3553  1.4356
 7621SOL    HW234323   4.524   1.599  15.208  2.9816 -1.7611 -1.3739
 7622SOL     OW34324   4.386   4.260   6.594  0.2356  0.5208  0.1001
 7622SOL    HW134325   4.315   4.283   6.535  0.5464  1.4110  0.0821
 7622SOL    HW234326   4.444   4.336   6.591  0.2051  0.4285 -2.5142
 7623SOL     OW34327   1.290   1.805   2.515  0.1564 -0.7897 -0.4946
 7623SOL    HW134328   1.226   1.806   2.445 -1.5499 -1.2520  1.0483
 7623SOL    HW234329   1.331   1.889   2.495  2.0478 -0.9839  2.4043
 7624SOL     OW34330   4.581   3.277   2.765  0.1225 -0.0351  0.1459
 7624SOL    HW134331   4.540   3.193   2.748 -0.9573 -0.0990  3.1127
 7624SOL    HW234332   4.590   3.317   2.678  3.3471 -3.2484 -0.9714
 7625SOL     OW34333   2.030   1.783  12.299  0.1058  0.5227  0.1042
 7625SOL    HW134334   1.956   1.844  12.298 -0.7870 -0.5595  0.4235
 7625SOL    HW234335   2.015   1.730  12.220 -0.5406 -0.7308  1.0717
 7626SOL     OW34336   3.734   4.173   0.892 -0.1546 -0.1052  0.3239
 7626SOL    HW134337   3.737   4.079   0.907  1.6057 -0.5419 -2.7729
 7626SOL    HW234338   3.786   4.218   0.959  0.3984  0.7250 -0.6756
 7627SOL     OW34339   3.524   0.129   8.785  0.0671  0.5314 -0.4872
 7627SOL    HW134340   3.609   0.086   8.776  0.3939  0.5991  2.1055
 7627SOL    HW234341   3.543   0.218   8.813  0.7506  0.2456 -0.0267
 7628SOL     OW34342   2.103   4.142   4.165  1.0341  0.1194 -0.0569
 7628SOL    HW134343   2.164   4.069   4.179 -0.1159 -0.3453  2.3808
 7628SOL    HW234344   2.058   4.108   4.088  0.1891  0.4131  0.3159
 7629SOL     OW34345   2.099   0.385   9.278 -0.2131 -0.2108  0.2835
 7629SOL    HW134346   2.131   0.413   9.364 -0.5009 -1.0970  0.6730
 7629SOL    HW234347   2.012   0.357   9.304  0.2842  0.6194  2.8584
 7630SOL     OW34348   1.912   1.491   9.134 -0.1928 -0.2360 -0.3779
 7630SOL    HW134349   1.938   1.581   9.157 -2.7539 -0.1546  2.0829
 7630SOL    HW234350   1.911   1.450   9.220 -0.4472  0.0146 -0.2609
 7631SOL     OW34351   3.881   4.311   4.763 -0.3897 -0.0932 -0.3195
 7631SOL    HW134352   3.844   4.396   4.740  0.2156  0.4711  0.7978
 7631SOL    HW234353   3.821   4.254   4.715 -1.9914  1.0940  0.2696
 7632SOL     OW34354   3.219   4.707   6.550  0.0693 -0.1716  0.5868
 7632SOL    HW134355   3.140   4.654   6.559 -1.3098  1.5576 -1.6034
 7632SOL    HW234356   3.178   0.066   6.522 -1.1318 -0.3409  1.8631
 7633SOL     OW34357   0.874   1.439  10.471  0.9157 -0.2125 -0.0467
 7633SOL    HW134358   0.857   1.531  10.449 -1.4258 -0.9944 -1.5016
 7633SOL    HW234359   0.843   1.389  10.396  1.6887 -3.6111  1.9229
 7634SOL     OW34360   4.160   4.266   7.648 -0.0522 -0.1363 -0.0173
 7634SOL    HW134361   4.233   4.326   7.665 -0.0712 -0.1863  0.2427
 7634SOL    HW234362   4.086   4.326   7.658 -1.0740 -1.6116  1.0999
 7635SOL     OW34363   1.138   0.345   2.133 -0.2769 -0.3603 -0.3919
 7635SOL    HW134364   1.107   0.394   2.056  0.1369 -0.3940 -0.5792
 7635SOL    HW234365   1.207   0.287   2.101  1.7117  1.2517  0.9882
 7636SOL     OW34366   2.921   0.196   3.589 -0.3550  0.3310  0.4594
 7636SOL    HW134367   2.980   0.159   3.523 -0.2100  0.4504  0.5209
 7636SOL    HW234368   2.879   0.123   3.634 -1.2171  0.6480  0.1631
 7637SOL     OW34369   3.728   3.538   7.452  0.0300  0.2688 -0.4525
 7637SOL    HW134370   3.685   3.607   7.400  0.3657  1.9238  1.4636
 7637SOL    HW234371   3.820   3.557   7.439 -0.0511  1.9199  1.3202
 7638SOL     OW34372   1.901   0.460   4.098 -0.4252 -0.0302  0.4626
 7638SOL    HW134373   1.847   0.411   4.160  1.1426  0.7001  2.3854
 7638SOL    HW234374   1.903   0.547   4.137  0.6841  0.7122 -1.2487
 7639SOL     OW34375   2.294   0.822   1.145  0.3373  0.4190 -0.2192
 7639SOL    HW134376   2.210   0.775   1.146 -0.1826  1.3115 -1.4601
 7639SOL    HW234377   2.284   0.895   1.084 -2.4073  0.4297  0.2545
 7640SOL     OW34378   4.046   4.498  11.842  0.8573 -0.3741  0.0881
 7640SOL    HW134379   4.018   4.408  11.823  1.3043 -0.3227 -0.8196
 7640SOL    HW234380   3.963   4.543  11.823  0.5762  0.4015  3.1245
 7641SOL     OW34381   0.900   1.168   0.569  0.0946  0.4714  0.3818
 7641SOL    HW134382   0.927   1.250   0.610  2.6622 -0.8798  1.4318
 7641SOL    HW234383   0.895   1.187   0.476  4.1191 -0.6870 -0.0745
 7642SOL     OW34384   4.220   0.844   4.083  0.6566  0.7815 -0.3514
 7642SOL    HW134385   4.264   0.882   4.007  1.5795  2.8080  1.2042
 7642SOL    HW234386   4.292   0.791   4.116  0.9945 -0.1831 -2.6329
 7643SOL     OW34387   3.595   2.102   6.692  0.0024 -0.1906  0.1859
 7643SOL    HW134388   3.558   2.019   6.722 -0.1771 -0.1901 -0.0374
 7643SOL    HW234389   3.681   2.068   6.668  0.2223 -0.1537  0.9221
 7644SOL     OW34390   3.468   4.254   2.617  0.1672  0.0492  0.2827
 7644SOL    HW134391   3.461   4.172   2.666 -0.5367 -0.0199  0.0542
 7644SOL    HW234392   3.473   4.234   2.523  1.3239 -0.0970  0.3669
 7645SOL     OW34393   3.658   4.112   1.599  1.0752 -0.3817  0.2338
 7645SOL    HW134394   3.699   4.198   1.586  1.4654 -0.5684  0.2305
 7645SOL    HW234395   3.571   4.133   1.565  0.7049 -0.6932  1.0060
 7646SOL     OW34396   3.001   4.317   2.922 -0.4345 -0.2322  0.0455
 7646SOL    HW134397   3.091   4.285   2.932  0.3187  1.7919 -0.2520
 7646SOL    HW234398   2.950   4.270   2.987 -2.9821 -0.5280 -2.1514
 7647SOL     OW34399   2.745   4.039   5.053 -0.0086  0.6255  0.0728
 7647SOL    HW134400   2.786   4.047   5.139  1.9772  1.2679 -0.9283
 7647SOL    HW234401   2.759   3.951   5.020 -0.9558  0.5467 -0.1348
 7648SOL     OW34402   1.812   1.013   7.428  0.1451  0.3104  0.1993
 7648SOL    HW134403   1.785   1.105   7.430 -0.3052  0.1541  1.3445
 7648SOL    HW234404   1.794   0.986   7.518 -0.0736  2.2034  0.7239
 7649SOL     OW34405   2.338   4.172   5.396  0.0393 -0.2644  0.1653
 7649SOL    HW134406   2.417   4.213   5.431 -1.1612  1.8824  0.4074
 7649SOL    HW234407   2.372   4.084   5.380 -1.8729 -0.7572 -1.1938
 7650SOL     OW34408   4.020   3.318   3.676 -0.2792 -0.2385 -0.3535
 7650SOL    HW134409   3.968   3.311   3.596 -1.0153  1.2403  0.0050
 7650SOL    HW234410   4.109   3.297   3.646 -0.1685  0.1770 -0.3190
 7651SOL     OW34411   4.019   1.724   3.411 -0.5981  0.2999  0.1783
 7651SOL    HW134412   4.023   1.722   3.316  2.2414 -0.7759  0.3098
 7651SOL    HW234413   4.090   1.668   3.443  1.0095  1.6020 -1.1581
 7652SOL     OW34414   3.414   3.384   6.987  0.0100  0.1604  0.0373
 7652SOL    HW134415   3.488   3.327   6.969  1.0426  0.2997  3.9910
 7652SOL    HW234416   3.442   3.422   7.070  0.8268  1.2669 -0.7439
 7653SOL     OW34417   0.216   1.501   7.819  0.6488  0.8861  0.0733
 7653SOL    HW134418   0.188   1.485   7.909 -0.6148  1.4836 -0.2268
 7653SOL    HW234419   0.175   1.586   7.807 -1.6477  0.3094  3.8631
 7654SOL     OW34420   4.487   0.598   3.920  0.1866 -0.2535 -0.5466
 7654SOL    HW134421   4.415   0.541   3.892  0.7976 -0.9041 -0.8273
 7654SOL    HW234422   4.509   0.642   3.838 -0.1044  0.8433 -0.0237
 7655SOL     OW34423   2.609   2.892   5.113  0.5210  0.9855 -0.0187
 7655SOL    HW134424   2.565   2.931   5.038  0.4176  2.7265  0.9434
 7655SOL    HW234425   2.664   2.961   5.149  1.2053  0.8809 -0.8561
 7656SOL     OW34426   1.133   2.580  15.186 -0.4441  0.2971  0.4348
 7656SOL    HW134427   1.049   2.558  15.144  0.3488 -0.7901 -0.5612
 7656SOL    HW234428   1.154   2.671  15.164 -0.1385 -0.0003 -0.5210
 7657SOL     OW34429   2.869   3.665   7.442 -0.1844  0.3734 -0.2846
 7657SOL    HW134430   2.938   3.725   7.412  1.4856 -0.5987  1.6397
 7657SOL    HW234431   2.800   3.681   7.377  1.2899  2.3572 -1.3768
 7658SOL     OW34432   2.469   1.412   6.855 -0.1566 -0.5593  0.5846
 7658SOL    HW134433   2.397   1.445   6.908 -1.1469  0.7447 -1.5711
 7658SOL    HW234434   2.458   1.452   6.769  0.5645 -1.7224 -0.0517
 7659SOL     OW34435   0.477   4.590  15.323 -0.1822  0.1548 -0.7673
 7659SOL    HW134436   0.390   4.630  15.315 -0.5072 -0.4760 -0.3874
 7659SOL    HW234437   0.449   4.499  15.331  1.8922 -0.5009 -1.0172
 7660SOL     OW34438   1.192   0.931   4.882  0.0955  0.0247 -0.0477
 7660SOL    HW134439   1.123   0.998   4.877  0.5438  0.4984  0.1431
 7660SOL    HW234440   1.203   0.888   4.797  2.8174  0.1185  0.2655
 7661SOL     OW34441   4.327   3.134   7.743  0.9416 -0.3588  0.6928
 7661SOL    HW134442   4.417   3.150   7.712  0.1516  0.4945 -1.1314
 7661SOL    HW234443   4.346   3.111   7.834 -0.0897 -1.3181  0.6688
 7662SOL     OW34444   4.619   3.027   7.072  0.1271  0.3226  0.4600
 7662SOL    HW134445   4.624   3.042   6.977 -3.4799 -1.7829 -0.0452
 7662SOL    HW234446   4.525   3.017   7.084 -0.0016 -0.9209 -1.5754
 7663SOL     OW34447   4.592   0.970   9.993  0.0014 -0.2585  0.4805
 7663SOL    HW134448   4.526   0.985   9.925  0.2087 -0.6774  0.1917
 7663SOL    HW234449   4.575   0.877  10.007 -1.8500 -0.0765 -0.5352
 7664SOL     OW34450   0.079   3.731   9.812  0.3321  0.2221 -0.2325
 7664SOL    HW134451   4.706   3.745   9.812  0.0897 -1.3190  2.1594
 7664SOL    HW234452   0.102   3.768   9.897  1.1263  1.3779 -0.9620
 7665SOL     OW34453   3.702   3.823  12.431  0.4933 -0.1707  0.3433
 7665SOL    HW134454   3.643   3.892  12.461  0.9154 -0.4480  1.8428
 7665SOL    HW234455   3.779   3.879  12.420  0.3493 -0.0207  0.0964
 7666SOL     OW34456   0.978   2.948   1.685  0.0706  0.2124 -0.4583
 7666SOL    HW134457   1.004   2.992   1.603  1.7406 -1.9461 -1.0876
 7666SOL    HW234458   1.025   2.866   1.670 -2.0052 -1.1265  0.4071
 7667SOL     OW34459   3.804   0.499   4.604 -0.0725 -0.1492  0.4580
 7667SOL    HW134460   3.872   0.525   4.541 -1.0527  0.5396 -0.3193
 7667SOL    HW234461   3.805   0.404   4.595 -1.3148 -0.0394 -0.8579
 7668SOL     OW34462   1.464   1.465   8.205  0.5318  0.2991 -0.2042
 7668SOL    HW134463   1.482   1.376   8.177 -0.2130  0.3013 -0.6776
 7668SOL    HW234464   1.404   1.494   8.137  3.6983 -0.5415 -3.3532
 7669SOL     OW34465   1.465   4.250  12.075 -0.0994 -0.0841  0.2242
 7669SOL    HW134466   1.554   4.269  12.106 -0.2917 -0.6020  1.0971
 7669SOL    HW234467   1.478   4.172  12.022 -1.9438 -0.4882  0.3800
 7670SOL     OW34468   2.146   1.160   3.856 -0.1306  0.0286  0.3139
 7670SOL    HW134469   2.088   1.151   3.931  0.5887  0.8730  0.9689
 7670SOL    HW234470   2.150   1.068   3.829 -0.6484  1.0013 -3.0554
 7671SOL     OW34471   2.667   3.392   5.391  0.5377 -0.2388  0.3645
 7671SOL    HW134472   2.746   3.438   5.418  0.7812 -0.3956 -0.0807
 7671SOL    HW234473   2.675   3.318   5.451 -0.4256  0.9631  1.9609
 7672SOL     OW34474   1.792   3.616   4.320  0.4258  0.1204 -0.0044
 7672SOL    HW134475   1.748   3.684   4.370 -0.1347 -1.0066  1.0418
 7672SOL    HW234476   1.796   3.543   4.381  0.1288 -2.8910 -3.5916
 7673SOL     OW34477   1.128   0.554  17.485  0.2389  0.4856  0.2424
 7673SOL    HW134478   1.062   0.588  17.424 -0.0166  2.8984  1.8764
 7673SOL    HW234479   1.156   0.624  17.543  1.8856 -1.2753  1.5813
 7674SOL     OW34480   2.167   4.130   4.795 -0.1975  0.0681 -0.1444
 7674SOL    HW134481   2.201   4.219   4.794  0.7146 -0.2798  0.5818
 7674SOL    HW234482   2.239   4.083   4.753  0.0599  2.0431 -1.9329
 7675SOL     OW34483   0.407   2.299   8.644  0.2514 -0.0350 -0.6489
 7675SOL    HW134484   0.433   2.377   8.693  1.7926 -1.3796  0.6651
 7675SOL    HW234485   0.368   2.249   8.717  1.8067 -1.0501 -0.5174
 7676SOL     OW34486   4.466   2.244   8.715  0.7953  0.3899  0.6613
 7676SOL    HW134487   4.384   2.234   8.667  1.6590  1.1855 -0.9868
 7676SOL    HW234488   4.534   2.222   8.652  1.1696  1.3940  0.7159
 7677SOL     OW34489   2.894   2.546   3.161  0.6048 -0.0688  0.6720
 7677SOL    HW134490   2.908   2.466   3.213 -0.2004 -0.5697  0.1209
 7677SOL    HW234491   2.799   2.541   3.152  0.5642  0.7961  0.6954
 7678SOL     OW34492   2.900   2.552   8.205 -1.0610  0.1366  0.4802
 7678SOL    HW134493   2.936   2.615   8.142 -1.0964  0.8166  1.1368
 7678SOL    HW234494   2.837   2.608   8.251 -1.3741 -1.5225  2.0470
 7679SOL     OW34495   1.549   0.873   6.788  0.0029  0.2855 -0.3081
 7679SOL    HW134496   1.534   0.779   6.792 -3.4920  0.8834  0.7210
 7679SOL    HW234497   1.562   0.891   6.881  1.1395  0.4932 -0.5065
 7680SOL     OW34498   1.358   4.264   3.275 -0.0645  0.4796 -0.0770
 7680SOL    HW134499   1.330   4.281   3.365 -1.7415  2.2320 -0.9311
 7680SOL    HW234500   1.416   4.339   3.261 -0.3952  0.8174  0.3550
 7681SOL     OW34501   1.205   0.686   1.690 -0.1799  0.5832  0.8816
 7681SOL    HW134502   1.139   0.634   1.645  2.4180 -3.0429  1.1926
 7681SOL    HW234503   1.246   0.734   1.619 -0.0008 -0.5619  0.2056
 7682SOL     OW34504   1.899   3.579  14.075 -0.1599  0.1350  0.1168
 7682SOL    HW134505   1.961   3.520  14.032 -0.4465  0.2152 -0.4088
 7682SOL    HW234506   1.860   3.527  14.146 -1.4479  0.6384 -0.2174
 7683SOL     OW34507   2.535   1.118   9.897  0.3646 -0.3778  0.3374
 7683SOL    HW134508   2.472   1.101   9.967  1.0823 -2.9415  0.3756
 7683SOL    HW234509   2.474   1.151   9.832 -0.3064  1.1345  1.7628
 7684SOL     OW34510   2.237   4.047   3.062  0.1971 -0.1609 -0.0209
 7684SOL    HW134511   2.173   4.075   2.997  1.0079  0.5153 -0.5390
 7684SOL    HW234512   2.272   3.973   3.013  0.2239 -1.3584  1.8078
 7685SOL     OW34513   2.561   1.829   3.045 -0.3284  0.2202 -0.0649
 7685SOL    HW134514   2.580   1.895   2.977  2.1568  0.4387  0.8297
 7685SOL    HW234515   2.583   1.888   3.117  1.0353 -0.4070  0.0280
 7686SOL     OW34516   1.811   1.499  13.597 -0.4772  0.0889 -0.0169
 7686SOL    HW134517   1.859   1.566  13.646 -0.5776  1.6502 -2.0511
 7686SOL    HW234518   1.860   1.422  13.627 -0.4748 -0.7831 -2.2269
 7687SOL     OW34519   2.662   1.643   7.084  0.5568  0.0729  0.3261
 7687SOL    HW134520   2.683   1.715   7.025 -0.6743  1.4446  1.5508
 7687SOL    HW234521   2.676   1.570   7.023  0.8060 -0.3815  0.9248
 7688SOL     OW34522   2.520   1.688  14.970  0.3365  0.0560 -0.0002
 7688SOL    HW134523   2.442   1.655  14.926 -0.6923 -0.5405  2.2540
 7688SOL    HW234524   2.481   1.706  15.056  0.1342 -1.4851  0.2173
 7689SOL     OW34525   1.163   2.990   5.431 -0.2376  0.9824 -0.7751
 7689SOL    HW134526   1.114   3.070   5.415  0.3717  1.7947  1.4734
 7689SOL    HW234527   1.170   2.983   5.526  2.7795  0.1075 -1.0427
 7690SOL     OW34528   4.574   2.750   6.914 -0.2115  0.1004  0.2385
 7690SOL    HW134529   4.627   2.822   6.881 -0.8261 -0.0884 -1.1810
 7690SOL    HW234530   4.607   2.681   6.856  1.7069  0.0972  1.3262
 7691SOL     OW34531   3.309   1.698  11.921 -0.0692 -0.1129  0.0205
 7691SOL    HW134532   3.238   1.747  11.963 -0.2586 -1.0638  0.8106
 7691SOL    HW234533   3.387   1.739  11.960 -0.3978 -2.6090  3.2824
 7692SOL     OW34534   0.434   3.884   4.804 -1.0135  0.0389 -0.2605
 7692SOL    HW134535   0.439   3.979   4.809  0.3163 -0.1411  1.7714
 7692SOL    HW234536   0.343   3.887   4.836 -0.6167 -0.1916  0.8995
 7693SOL     OW34537   3.071   4.607   8.623  0.3461 -0.2290 -0.1085
 7693SOL    HW134538   3.016   4.684   8.636 -1.5164 -2.0532  2.8045
 7693SOL    HW234539   3.139   4.648   8.569 -0.3450  1.1440  0.0819
 7694SOL     OW34540   0.823   1.308   7.006  0.2054 -0.2899  0.3280
 7694SOL    HW134541   0.918   1.314   6.993  0.3227 -0.3131  1.1908
 7694SOL    HW234542   0.802   1.222   6.969  0.4995 -0.1438 -0.1788
 7695SOL     OW34543   0.939   1.069   7.728  0.4902 -0.2687 -0.2251
 7695SOL    HW134544   0.859   1.084   7.779 -1.5625 -3.3314 -2.5281
 7695SOL    HW234545   0.919   0.995   7.671 -1.4364  1.3777 -1.6772
 7696SOL     OW34546   0.970   4.564   5.673 -0.4161  0.2986 -0.2321
 7696SOL    HW134547   1.024   4.643   5.671 -0.2414  0.1676 -0.6916
 7696SOL    HW234548   0.887   4.610   5.660  0.4620  1.9891  0.1643
 7697SOL     OW34549   0.480   4.529   5.010 -0.5980 -0.0923  0.6991
 7697SOL    HW134550   0.481   4.621   4.984 -1.8934  0.2625  1.8886
 7697SOL    HW234551   0.530   4.525   5.092  0.2658  2.0731  0.2831
 7698SOL     OW34552   0.935   1.381   2.027 -0.1109 -0.5012 -0.6952
 7698SOL    HW134553   0.979   1.406   2.108  0.1282  0.3302 -1.0757
 7698SOL    HW234554   0.928   1.471   1.996 -0.9660  1.0668  4.1864
 7699SOL     OW34555   1.181   0.370   6.617 -0.2851 -0.1346  0.5586
 7699SOL    HW134556   1.214   0.319   6.690 -0.0392  0.3665  0.7935
 7699SOL    HW234557   1.190   0.307   6.545  0.1050 -0.6057  1.0194
 7700SOL     OW34558   2.983   0.533   0.262  0.1640  0.4125 -0.0736
 7700SOL    HW134559   2.905   0.556   0.210 -0.8548 -0.6376  0.9897
 7700SOL    HW234560   2.947   0.485   0.336  1.7876 -1.1107 -0.2966
 7701SOL     OW34561   1.833   3.667   9.029  0.2011  0.3582 -0.3015
 7701SOL    HW134562   1.743   3.641   9.010 -0.0623  0.1459  1.2417
 7701SOL    HW234563   1.872   3.668   8.941  1.8931 -0.7347  0.4469
 7702SOL     OW34564   0.736   1.742   0.516 -0.0782 -0.0509 -0.4467
 7702SOL    HW134565   0.794   1.818   0.523  1.2019 -1.0096 -0.8636
 7702SOL    HW234566   0.709   1.731   0.607 -1.5417 -3.0244 -1.2599
 7703SOL     OW34567   1.564   2.658   8.494  0.0426  0.4217  0.1939
 7703SOL    HW134568   1.567   2.686   8.585 -1.7591  3.3263 -0.6515
 7703SOL    HW234569   1.657   2.663   8.474 -0.3101  1.4243 -1.1879
 7704SOL     OW34570   3.881   2.182  14.661  0.0951  0.0212  0.7525
 7704SOL    HW134571   3.959   2.155  14.614 -1.5217  0.0222 -1.9395
 7704SOL    HW234572   3.930   2.247  14.711  0.0612  0.7344 -0.1475
 7705SOL     OW34573   2.460   1.282   9.643 -0.3772  0.2569 -0.0637
 7705SOL    HW134574   2.487   1.200   9.601  3.2731  1.4677 -0.0556
 7705SOL    HW234575   2.364   1.275   9.642 -0.2040 -2.3130  2.4444
 7706SOL     OW34576   3.067   2.199  14.810  0.0881 -0.0304 -0.1844
 7706SOL    HW134577   3.128   2.139  14.767 -0.5863 -1.1384  0.4105
 7706SOL    HW234578   3.089   2.182  14.901  0.9757  1.3396 -0.1363
 7707SOL     OW34579   0.469   2.663   7.517  0.2526 -0.4635 -0.9359
 7707SOL    HW134580   0.377   2.637   7.526  0.6852 -1.4397  0.6601
 7707SOL    HW234581   0.470   2.745   7.468  1.0761 -0.5601 -1.0688
 7708SOL     OW34582   4.713   1.899  13.152 -0.5173 -0.5018  0.0094
 7708SOL    HW134583   4.707   1.920  13.058  0.3074 -1.4164 -0.2505
 7708SOL    HW234584   4.647   1.832  13.171 -2.1930  0.5676 -2.0248
 7709SOL     OW34585   0.318   4.402  13.133  0.3912  0.6103 -0.2995
 7709SOL    HW134586   0.255   4.335  13.107 -0.3840  1.0542  0.4328
 7709SOL    HW234587   0.363   4.420  13.051  0.8468  0.4355 -0.0844
 7710SOL     OW34588   2.535   2.685   9.209 -0.2491  0.3577 -0.0522
 7710SOL    HW134589   2.528   2.769   9.253 -1.0173 -0.8241  2.1061
 7710SOL    HW234590   2.449   2.676   9.170  0.4298 -1.5337 -1.1093
 7711SOL     OW34591   2.792   0.915  12.073 -0.1063 -0.8940  0.0277
 7711SOL    HW134592   2.767   0.972  12.145  1.1722 -0.6771  0.2956
 7711SOL    HW234593   2.770   0.969  11.997 -2.5740 -1.3801  0.3926
 7712SOL     OW34594   3.600   2.984   0.131 -0.4278 -0.1679 -0.3298
 7712SOL    HW134595   3.615   2.926   0.205  0.1002 -1.3537 -1.3582
 7712SOL    HW234596   3.584   2.928   0.055  1.4284  0.3527 -1.1057
 7713SOL     OW34597   2.601   4.613   0.520 -0.4140  0.2216  0.0824
 7713SOL    HW134598   2.684   4.574   0.547  0.0931  0.5132 -1.0541
 7713SOL    HW234599   2.559   4.612   0.606  0.2626  1.4207  0.4191
 7714SOL     OW34600   0.608   1.141   5.382  0.4200  0.1735 -0.4276
 7714SOL    HW134601   0.584   1.144   5.290 -2.0834  0.2936  0.2284
 7714SOL    HW234602   0.593   1.233   5.405 -0.0166 -0.7580  3.0938
 7715SOL     OW34603   3.458   4.678   2.782 -0.2733 -0.1217  0.4957
 7715SOL    HW134604   3.416   4.612   2.836  1.1305 -0.9473  0.5938
 7715SOL    HW234605   3.544   4.636   2.781 -0.1883  0.0888 -1.4232
 7716SOL     OW34606   1.669   1.986   6.184  0.3105  0.4072 -0.0555
 7716SOL    HW134607   1.639   2.017   6.099 -1.1866  1.2989  0.8036
 7716SOL    HW234608   1.710   2.062   6.225  0.1770  0.5284 -0.1494
 7717SOL     OW34609   3.162   3.740   8.881  0.1778 -0.4422 -0.2883
 7717SOL    HW134610   3.180   3.688   8.960 -1.4034 -0.1564  0.2511
 7717SOL    HW234611   3.074   3.723   8.849 -0.5662  1.4980  0.7351
 7718SOL     OW34612   3.054   1.380   7.323  0.1609  0.0546 -0.8138
 7718SOL    HW134613   3.117   1.396   7.253  0.9879  3.2761  0.6471
 7718SOL    HW234614   2.986   1.447   7.309 -1.2196 -0.9130  1.3158
 7719SOL     OW34615   2.180   1.851   2.299  0.1071 -0.0756 -0.4153
 7719SOL    HW134616   2.187   1.778   2.238 -1.6564 -0.2488 -0.4093
 7719SOL    HW234617   2.148   1.804   2.376  0.4656 -0.1680 -0.3225
 7720SOL     OW34618   4.716   2.758   3.467 -0.3168  0.7892  0.8468
 7720SOL    HW134619   0.000   2.738   3.560  1.0519  1.2375  0.8462
 7720SOL    HW234620   0.043   2.840   3.456  2.4820 -1.1969 -1.4440
 7721SOL     OW34621   3.228   3.490  11.742 -0.0309 -0.8704  0.1302
 7721SOL    HW134622   3.268   3.552  11.803  0.6396 -0.6720 -0.5108
 7721SOL    HW234623   3.137   3.516  11.727  1.2186  2.2035 -2.1241
 7722SOL     OW34624   3.206   1.621   2.011  0.2159 -0.2649  0.0427
 7722SOL    HW134625   3.160   1.698   1.978 -2.1495 -1.7942 -0.2810
 7722SOL    HW234626   3.234   1.585   1.927  1.5196 -1.8784  1.1684
 7723SOL     OW34627   1.775   4.275   8.298  0.2046 -0.3652 -0.1397
 7723SOL    HW134628   1.729   4.303   8.219 -0.5958 -0.0250  0.4415
 7723SOL    HW234629   1.739   4.343   8.356  2.9019  1.9518 -1.1487
 7724SOL     OW34630   0.171   3.133   5.269  0.4884 -0.8696  0.1657
 7724SOL    HW134631   0.078   3.111   5.266  0.3883 -0.7753  2.1912
 7724SOL    HW234632   0.163   3.225   5.244  1.7043 -1.0049 -0.7148
 7725SOL     OW34633   0.151   1.962   8.614  0.0006  0.2717  0.1591
 7725SOL    HW134634   0.147   2.046   8.660 -2.1692  0.5574 -0.5778
 7725SOL    HW234635   0.244   1.963   8.589 -0.5071  1.8410 -1.6444
 7726SOL     OW34636   4.155   2.126   4.649 -0.1566  0.8516  0.2197
 7726SOL    HW134637   4.071   2.134   4.604 -1.3941  0.9042  2.5366
 7726SOL    HW234638   4.195   2.197   4.599  2.8455 -1.8806 -1.1892
 7727SOL     OW34639   2.417   1.190   4.002  0.1096 -0.7440  0.6851
 7727SOL    HW134640   2.397   1.110   4.051 -0.6994 -1.0193 -0.0902
 7727SOL    HW234641   2.363   1.251   4.052  3.4043  2.8012 -0.0864
 7728SOL     OW34642   3.266   3.465  16.539  0.2651  0.5133 -0.0121
 7728SOL    HW134643   3.331   3.398  16.563 -1.7388 -0.4249  2.7459
 7728SOL    HW234644   3.252   3.455  16.445 -1.3900  1.5289  0.1358
 7729SOL     OW34645   4.618   1.858   3.070 -0.2279  0.0027 -0.5135
 7729SOL    HW134646   4.573   1.942   3.063 -1.2150 -0.5204 -0.3723
 7729SOL    HW234647   4.569   1.810   3.137  3.2926 -0.2028  1.9799
 7730SOL     OW34648   0.351   2.218   6.386 -0.1883 -0.2529  0.3417
 7730SOL    HW134649   0.304   2.135   6.376  1.0787 -0.9010 -0.2650
 7730SOL    HW234650   0.316   2.270   6.314  0.7797  2.9660  2.2138
 7731SOL     OW34651   0.654   2.545   1.898 -0.5961 -0.3911 -0.4347
 7731SOL    HW134652   0.575   2.596   1.914 -0.8794 -1.6478  2.2638
 7731SOL    HW234653   0.626   2.457   1.874  0.6451 -1.0263  0.4053
 7732SOL     OW34654   3.314   0.567   6.849  0.1677 -0.3273  0.2533
 7732SOL    HW134655   3.340   0.652   6.884  0.1411  1.2864 -3.6320
 7732SOL    HW234656   3.299   0.578   6.755  1.1221  1.9625  0.3899
 7733SOL     OW34657   1.212   2.476   3.360  0.0310 -0.4200 -0.4626
 7733SOL    HW134658   1.122   2.477   3.392  0.5682 -1.3608  1.0903
 7733SOL    HW234659   1.196   2.532   3.284  1.1656  1.3326  0.5987
 7734SOL     OW34660   1.135   3.235   9.417 -0.3359  0.3781  0.3287
 7734SOL    HW134661   1.171   3.147   9.425  1.1130  1.0119  0.6640
 7734SOL    HW234662   1.123   3.255   9.510 -0.2926 -1.8578  0.8110
 7735SOL     OW34663   3.512   0.063   5.031  0.5008  0.0723 -0.1009
 7735SOL    HW134664   3.493   4.721   5.099  0.9298 -0.0656 -0.1099
 7735SOL    HW234665   3.519   0.138   5.090 -1.2704  0.4662 -0.3703
 7736SOL     OW34666   4.690   0.877   0.780 -0.2165 -0.1041 -0.5974
 7736SOL    HW134667   4.679   0.796   0.829 -0.0497  0.8943  1.0729
 7736SOL    HW234668   4.684   0.945   0.847  1.4576  0.0569 -0.6037
 7737SOL     OW34669   2.061   2.231   5.522 -0.1236  0.7028 -0.5178
 7737SOL    HW134670   2.026   2.173   5.589 -1.3832  2.2621  0.1756
 7737SOL    HW234671   1.985   2.243   5.465 -0.4633 -3.6667 -0.9613
 7738SOL     OW34672   2.414   2.416   8.774  0.2573  0.2520 -0.3015
 7738SOL    HW134673   2.320   2.414   8.758 -0.0565 -0.2429  1.5727
 7738SOL    HW234674   2.415   2.474   8.850 -0.2319  0.9692 -0.8487
 7739SOL     OW34675   1.566   0.907   9.482  0.1956 -0.0096  0.9694
 7739SOL    HW134676   1.510   0.981   9.464 -0.6284 -0.6061  1.0834
 7739SOL    HW234677   1.559   0.907   9.577 -1.1028 -0.8318  0.8763
 7740SOL     OW34678   3.622   0.802   2.159 -0.0723  0.3332 -0.4901
 7740SOL    HW134679   3.676   0.754   2.095 -0.8005  0.0813 -0.9166
 7740SOL    HW234680   3.601   0.882   2.112  0.3883 -0.4916 -2.1111
 7741SOL     OW34681   1.369   1.995   1.690 -0.6702 -0.4497  0.1656
 7741SOL    HW134682   1.288   1.964   1.649 -0.6321 -0.0998 -0.1833
 7741SOL    HW234683   1.383   2.080   1.648  0.1148  0.5658  2.5113
 7742SOL     OW34684   4.064   2.748   0.837 -0.5071  0.3140 -0.2112
 7742SOL    HW134685   4.119   2.786   0.904  1.7781 -1.8143 -0.8845
 7742SOL    HW234686   4.014   2.679   0.881 -0.6795 -0.1249 -1.0834
 7743SOL     OW34687   2.559   1.019   2.922 -0.0009  0.3088 -0.3871
 7743SOL    HW134688   2.622   0.956   2.886 -0.0608  0.8112 -1.3823
 7743SOL    HW234689   2.482   1.006   2.866  1.0210 -0.2165 -1.6953
 7744SOL     OW34690   1.087   3.865   3.228 -0.3609 -0.0694  0.3271
 7744SOL    HW134691   1.004   3.900   3.260 -1.3276 -1.6016 -0.5128
 7744SOL    HW234692   1.082   3.771   3.210 -1.0551  0.1225 -0.5000
 7745SOL     OW34693   2.594   4.518   9.956  0.2597  0.1803  0.1060
 7745SOL    HW134694   2.616   4.445   9.898 -2.0217  1.6854 -2.6473
 7745SOL    HW234695   2.504   4.495   9.979 -0.1729  0.8029 -0.9479
 7746SOL     OW34696   2.856   0.989   0.454  0.3679  0.3531 -0.7232
 7746SOL    HW134697   2.913   1.047   0.403  0.5981  0.2422 -0.5907
 7746SOL    HW234698   2.892   1.015   0.538  1.1883  0.8253 -1.2201
 7747SOL     OW34699   3.295   2.128  15.903 -0.0419 -0.3208  0.4635
 7747SOL    HW134700   3.353   2.120  15.828  0.3768 -3.1848  1.0967
 7747SOL    HW234701   3.210   2.142  15.861 -0.1233  2.2055  1.4876
 7748SOL     OW34702   0.643   4.005   2.562 -0.6982  0.3536  0.5865
 7748SOL    HW134703   0.562   4.021   2.612 -0.8269  1.2767  0.0720
 7748SOL    HW234704   0.608   3.926   2.521  0.1274 -0.2560  1.0573
 7749SOL     OW34705   3.385   1.915   6.354 -0.0639  0.1226 -0.0585
 7749SOL    HW134706   3.477   1.915   6.326 -0.2289 -1.3437 -0.6248
 7749SOL    HW234707   3.374   1.986   6.417 -0.4368 -0.5922  0.6874
 7750SOL     OW34708   1.603   1.464  13.244  0.3034 -0.3918 -0.0726
 7750SOL    HW134709   1.604   1.396  13.310  0.0130 -1.8430 -1.5518
 7750SOL    HW234710   1.513   1.451  13.214  0.2487  0.4789 -0.3089
 7751SOL     OW34711   0.827   4.561  12.331  0.1516  0.4994  0.1122
 7751SOL    HW134712   0.814   4.655  12.338 -1.5493  0.1478  1.4791
 7751SOL    HW234713   0.911   4.553  12.286 -0.6112 -2.5483 -0.8155
 7752SOL     OW34714   4.018   0.014   5.316  0.3548 -0.0468 -0.1103
 7752SOL    HW134715   3.939   4.702   5.275 -0.2577 -0.4131  1.3622
 7752SOL    HW234716   4.079   0.011   5.243  1.7777  0.4972  1.0413
 7753SOL     OW34717   4.720   0.795  14.699 -0.1677  0.2298 -0.2305
 7753SOL    HW134718   4.635   0.831  14.726 -1.5398 -2.0354 -1.5325
 7753SOL    HW234719   0.061   0.821  14.766  0.8418 -0.4653 -0.9150
 7754SOL     OW34720   2.964   1.565   4.395 -0.4772  0.0793  0.3341
 7754SOL    HW134721   3.040   1.598   4.444  1.5725  0.1640 -2.8592
 7754SOL    HW234722   2.921   1.650   4.405 -0.7840 -0.4531  3.5490
 7755SOL     OW34723   1.283   4.103  15.446  0.1982  0.3324 -0.5411
 7755SOL    HW134724   1.324   4.077  15.364  1.1124  0.4704 -0.1272
 7755SOL    HW234725   1.198   4.061  15.434 -0.9232  2.3252  0.4806
 7756SOL     OW34726   1.465   2.953   1.730  0.3601 -0.1492  0.1702
 7756SOL    HW134727   1.388   2.898   1.744 -1.2077  1.8212 -0.8365
 7756SOL    HW234728   1.487   2.987   1.817  0.1460  3.7297 -1.2984
 7757SOL     OW34729   0.271   0.126   6.535 -0.0568 -0.0496 -0.0801
 7757SOL    HW134730   0.307   0.108   6.449  0.0200 -0.1254 -0.0323
 7757SOL    HW234731   0.344   0.111   6.596  0.3911  1.0623 -0.3295
 7758SOL     OW34732   1.753   0.554  15.181 -0.4773  0.1274 -0.4982
 7758SOL    HW134733   1.788   0.513  15.103  1.3618  0.7835 -0.0125
 7758SOL    HW234734   1.755   0.648  15.164  0.9449  0.6581  2.4942
 7759SOL     OW34735   4.631   1.016  17.619 -0.0713  0.3649 -0.3061
 7759SOL    HW134736   4.627   0.953  17.691 -0.3380  1.4936  0.6626
 7759SOL    HW234737   4.567   0.977  17.560  0.7921 -0.2969 -0.7948
 7760SOL     OW34738   0.230   3.087   6.493 -0.0596  0.4695 -0.3340
 7760SOL    HW134739   0.138   3.101   6.469 -0.4957 -1.0315  0.4406
 7760SOL    HW234740   0.217   3.129   6.578 -1.4135 -1.1393  0.2476
 7761SOL     OW34741   0.856   1.156   5.788  0.3119 -0.0052 -0.0930
 7761SOL    HW134742   0.867   1.211   5.865  1.0286  0.9415 -0.8663
 7761SOL    HW234743   0.948   1.155   5.763 -0.2351 -0.7447 -2.0657
 7762SOL     OW34744   3.104   2.747   2.945 -0.1586 -0.1886 -0.1172
 7762SOL    HW134745   3.048   2.756   3.022  1.5422  0.3438  1.0786
 7762SOL    HW234746   3.179   2.729   3.002  0.8966 -2.9115 -2.3404
 7763SOL     OW34747   1.591   3.323   4.353  0.0249 -0.4604  0.4457
 7763SOL    HW134748   1.637   3.283   4.427  1.4389 -1.0335 -0.7467
 7763SOL    HW234749   1.664   3.309   4.293  0.7879 -0.5989  1.4131
 7764SOL     OW34750   0.141   3.994   7.947  0.2718 -0.0085  0.2173
 7764SOL    HW134751   0.046   4.003   7.947  0.3620  1.0338 -0.8648
 7764SOL    HW234752   0.168   4.075   7.903 -0.3443 -1.3351 -2.6522
 7765SOL     OW34753   3.970   2.940  15.115  0.5799 -0.5926 -0.5792
 7765SOL    HW134754   3.919   2.971  15.190  1.0988 -0.5882 -0.2262
 7765SOL    HW234755   3.963   2.845  15.123 -1.8989 -0.3378  0.0933
 7766SOL     OW34756   2.406   2.982  16.692  0.3447  0.9334  0.8548
 7766SOL    HW134757   2.457   3.012  16.767 -0.2838  1.1482  1.1963
 7766SOL    HW234758   2.413   2.888  16.707 -1.1862  0.4290 -1.5577
 7767SOL     OW34759   4.279   4.102  13.101  0.0222  0.6555  0.5811
 7767SOL    HW134760   4.191   4.099  13.141 -0.1363 -1.8597  0.0373
 7767SOL    HW234761   4.281   4.195  13.080  0.4845  0.2922 -0.9922
 7768SOL     OW34762   2.297   4.706   0.952 -0.3400 -0.5923  0.2950
 7768SOL    HW134763   2.289   0.004   1.045 -0.0948 -0.6728  0.3337
 7768SOL    HW234764   2.211   4.704   0.910 -0.2597 -1.5040  0.1714
 7769SOL     OW34765   4.444   3.821   3.091  0.1854  0.1546 -0.6726
 7769SOL    HW134766   4.378   3.836   3.022 -0.1697 -0.5179 -0.4771
 7769SOL    HW234767   4.436   3.728   3.113 -0.1095  0.4873  0.5923
 7770SOL     OW34768   0.124   4.521   1.625 -0.4738  0.0664  0.3274
 7770SOL    HW134769   0.101   4.465   1.550  0.6904 -0.4575  0.3489
 7770SOL    HW234770   0.141   4.600   1.573  2.2682 -1.8037 -1.6601
 7771SOL     OW34771   3.676   1.346  10.680  0.3149  0.0197  0.4465
 7771SOL    HW134772   3.663   1.288  10.755 -1.6420  0.6630  0.6128
 7771SOL    HW234773   3.590   1.330  10.641 -0.2583  2.7188  0.6387
 7772SOL     OW34774   2.852   3.753  17.411 -0.6242  0.5870 -0.6319
 7772SOL    HW134775   2.897   3.824  17.457 -2.1089  0.6650  0.7068
 7772SOL    HW234776   2.928   3.697  17.398 -0.3131  0.4358  1.8647
 7773SOL     OW34777   2.820   2.752   6.417  0.4450  1.1890  0.4218
 7773SOL    HW134778   2.873   2.800   6.481  0.2631  0.8648  0.8202
 7773SOL    HW234779   2.884   2.751   6.346  0.1206 -0.2007  0.1484
 7774SOL     OW34780   4.260   1.915  15.874  0.0189 -0.1787 -0.2184
 7774SOL    HW134781   4.270   2.005  15.905 -0.8033  0.0945 -0.7422
 7774SOL    HW234782   4.343   1.897  15.830  1.6346  1.1371  2.3230
 7775SOL     OW34783   1.923   4.193   1.832 -0.3834 -0.0201  0.1848
 7775SOL    HW134784   1.959   4.214   1.746  0.2676  0.1523  0.4981
 7775SOL    HW234785   2.001   4.204   1.886 -0.2108  1.7981 -0.4426
 7776SOL     OW34786   2.710   0.168   6.565 -0.1117  0.4409 -0.0462
 7776SOL    HW134787   2.753   0.229   6.505  1.8814  1.1017  2.0646
 7776SOL    HW234788   2.638   0.130   6.516  0.3617 -1.1845  0.5237
 7777SOL     OW34789   3.228   1.279   3.264 -0.4247 -0.1555  0.6687
 7777SOL    HW134790   3.195   1.205   3.315 -0.9704  1.4737  2.6891
 7777SOL    HW234791   3.273   1.243   3.188  1.4972  2.1212  0.7003
 7778SOL     OW34792   0.694   2.887   6.775 -0.0717 -0.1312 -0.1286
 7778SOL    HW134793   0.677   2.965   6.827 -0.6613 -0.3896  0.0679
 7778SOL    HW234794   0.693   2.921   6.686  0.5846 -2.3114 -0.9882
 7779SOL     OW34795   1.994   3.566   3.307 -0.0029  0.2690  0.2050
 7779SOL    HW134796   1.947   3.586   3.225  1.1439  1.0371 -0.2760
 7779SOL    HW234797   2.086   3.558   3.282 -0.2609  1.3177 -1.1041
 7780SOL     OW34798   2.855   0.949   4.017 -0.1726  0.0348  0.3379
 7780SOL    HW134799   2.827   0.998   4.095 -1.4490  0.0251 -0.1021
 7780SOL    HW234800   2.883   1.017   3.956  0.6299 -0.3649  0.2617
 7781SOL     OW34801   2.973   0.068   8.123  0.4332 -0.3255 -0.2708
 7781SOL    HW134802   3.046   0.009   8.141  0.1634 -0.7908 -0.7024
 7781SOL    HW234803   2.980   0.136   8.190  2.6307 -0.9690  0.1465
 7782SOL     OW34804   0.344   2.939   5.720 -0.0629 -0.2831  0.4898
 7782SOL    HW134805   0.340   2.969   5.629 -0.8735 -0.9387  0.3053
 7782SOL    HW234806   0.368   3.023   5.758  0.2879  0.0610 -0.4676
 7783SOL     OW34807   2.100   3.631   9.069  0.0832 -0.1409 -0.1042
 7783SOL    HW134808   2.005   3.634   9.082  0.0878  2.1366 -0.4762
 7783SOL    HW234809   2.118   3.720   9.100  0.1949  0.0628 -0.7486
 7784SOL     OW34810   1.253   1.365   3.276  0.1760 -0.0263  0.5213
 7784SOL    HW134811   1.273   1.284   3.323  1.5542  0.5197  0.8473
 7784SOL    HW234812   1.211   1.405   3.352  1.5062  0.0616  1.1938
 7785SOL     OW34813   2.809   0.175  17.457  0.0982 -0.1968 -0.3125
 7785SOL    HW134814   2.846   0.130  17.534 -0.1935 -0.7566 -0.5033
 7785SOL    HW234815   2.727   0.211  17.491  1.8875  2.0484  1.7446
 7786SOL     OW34816   2.052   3.617   4.608 -0.1170 -0.1413 -0.2035
 7786SOL    HW134817   1.968   3.602   4.652 -1.1025  2.9129 -1.1107
 7786SOL    HW234818   2.109   3.547   4.642 -1.1791 -1.0083 -0.1904
 7787SOL     OW34819   3.468   2.431   3.010 -0.4292 -0.9025 -0.2636
 7787SOL    HW134820   3.549   2.459   3.052 -0.8793  0.4448 -0.3028
 7787SOL    HW234821   3.409   2.478   3.070  4.3004  0.9249  2.9885
 7788SOL     OW34822   3.839   1.541   2.531  0.4320  0.1660  0.5299
 7788SOL    HW134823   3.925   1.530   2.491 -0.7521 -0.9824 -1.7172
 7788SOL    HW234824   3.792   1.603   2.476  0.8814 -2.1127 -2.4091
 7789SOL     OW34825   2.556   2.335   6.065  0.1435 -0.1294  0.7565
 7789SOL    HW134826   2.494   2.400   6.032  0.1789 -0.3569  0.2327
 7789SOL    HW234827   2.640   2.375   6.044  0.4426 -0.7678  0.7363
 7790SOL     OW34828   1.975   4.261  13.135 -0.2124 -0.3821  0.6668
 7790SOL    HW134829   2.056   4.294  13.174  1.1764 -2.1442 -0.7601
 7790SOL    HW234830   2.006   4.222  13.054  1.0685  1.2179  0.3833
 7791SOL     OW34831   0.514   1.811  16.716 -0.4074  0.3569  0.1222
 7791SOL    HW134832   0.537   1.814  16.623 -2.4776 -0.2438 -0.3931
 7791SOL    HW234833   0.603   1.796  16.748 -1.3391  0.6730  2.8857
 7792SOL     OW34834   1.107   3.195   6.076 -0.3507 -0.4105  0.3662
 7792SOL    HW134835   1.155   3.126   6.030 -0.6406 -0.2886 -0.1140
 7792SOL    HW234836   1.026   3.145   6.079 -0.2447 -0.6141 -0.0874
 7793SOL     OW34837   2.296   4.349   4.378  0.2457 -0.1492  0.0729
 7793SOL    HW134838   2.224   4.378   4.321 -0.0089  0.5472  0.7426
 7793SOL    HW234839   2.372   4.373   4.325 -0.1933 -0.7148 -0.8132
 7794SOL     OW34840   1.794   1.486   7.897 -0.1111  0.0000 -0.3653
 7794SOL    HW134841   1.826   1.498   7.987 -2.2079 -0.8246  0.4900
 7794SOL    HW234842   1.730   1.556   7.891  0.1006  0.2642  0.4143
 7795SOL     OW34843   2.349   1.400   9.150  0.4222  0.1967  0.8196
 7795SOL    HW134844   2.304   1.385   9.067 -0.1768 -1.5669  1.4675
 7795SOL    HW234845   2.358   1.494   9.165  2.5938 -0.1309  1.6437
 7796SOL     OW34846   3.231   3.497   5.293  0.3096  0.2689  0.8065
 7796SOL    HW134847   3.253   3.432   5.227 -0.4871 -0.7854  1.5834
 7796SOL    HW234848   3.280   3.458   5.365 -0.5316 -1.8619  0.2214
 7797SOL     OW34849   2.607   2.560   2.703 -0.3924 -0.3098 -0.0281
 7797SOL    HW134850   2.559   2.478   2.698 -0.5241 -0.3090  1.2250
 7797SOL    HW234851   2.642   2.570   2.615  0.1505  0.3571  0.2664
 7798SOL     OW34852   3.211   2.849  11.827 -0.1268  0.2543  0.4608
 7798SOL    HW134853   3.135   2.795  11.851 -0.2506  0.8062  1.3213
 7798SOL    HW234854   3.173   2.881  11.745 -0.0726  0.7992  0.6463
 7799SOL     OW34855   4.673   2.382   9.354 -0.3117  0.1531 -0.1303
 7799SOL    HW134856   4.623   2.461   9.337  0.9508  1.1196  0.6531
 7799SOL    HW234857   4.633   2.316   9.297  0.7259  1.0744 -1.8883
 7800SOL     OW34858   4.201   3.369   7.620 -0.3705 -0.5011 -0.4574
 7800SOL    HW134859   4.156   3.314   7.555 -0.2630 -0.8698 -0.2204
 7800SOL    HW234860   4.229   3.297   7.677  1.8881  0.1556 -0.7099
 7801SOL     OW34861   2.687   3.906   6.781 -0.6192 -0.3979 -0.0970
 7801SOL    HW134862   2.712   3.994   6.755 -1.0864  0.4092  2.1474
 7801SOL    HW234863   2.772   3.863   6.794 -0.2176  0.9219  1.6719
 7802SOL     OW34864   2.553   4.186   0.779 -0.5814  0.2503 -0.2093
 7802SOL    HW134865   2.547   4.118   0.846  2.9669  0.4866  0.3198
 7802SOL    HW234866   2.645   4.212   0.778 -0.9885  1.5882 -2.3318
 7803SOL     OW34867   3.425   3.888   6.900 -0.1020  0.0233  0.1209
 7803SOL    HW134868   3.392   3.877   6.989 -0.5477  2.0907  0.2256
 7803SOL    HW234869   3.351   3.856   6.849 -0.1304  2.2596 -1.2273
 7804SOL     OW34870   1.862   2.322   1.353 -0.3409  0.3543 -0.0079
 7804SOL    HW134871   1.946   2.276   1.349 -0.2788  0.5296 -0.6069
 7804SOL    HW234872   1.898   2.397   1.305  0.7364 -0.7569 -0.9295
 7805SOL     OW34873   4.314   4.021   3.846  0.0195  0.2806  0.1740
 7805SOL    HW134874   4.258   3.949   3.876 -2.2237  1.1480 -1.8972
 7805SOL    HW234875   4.393   4.008   3.897 -1.0181  0.5209  1.8586
 7806SOL     OW34876   1.856   1.266   6.239 -0.6365  0.2902  0.6241
 7806SOL    HW134877   1.855   1.170   6.239  0.0589  0.2683  2.1485
 7806SOL    HW234878   1.764   1.289   6.240 -0.6677  0.1628  0.6647
 7807SOL     OW34879   1.785   3.783  12.316  0.3027  0.2810  0.4462
 7807SOL    HW134880   1.876   3.770  12.343  0.3096  0.0210  0.2944
 7807SOL    HW234881   1.731   3.734  12.378  0.1108 -0.2842 -0.1665
 7808SOL     OW34882   0.935   0.697   0.595  0.0688 -0.4197 -0.1346
 7808SOL    HW134883   0.915   0.790   0.608 -2.4094 -1.0474  0.4423
 7808SOL    HW234884   1.019   0.702   0.642 -0.3856 -1.4582  0.7687
 7809SOL     OW34885   3.689   3.997  14.764  0.3271  0.0520  0.2182
 7809SOL    HW134886   3.726   3.910  14.746 -1.7919 -0.7669 -0.2127
 7809SOL    HW234887   3.689   4.037  14.677  1.2457  0.1070  0.2454
 7810SOL     OW34888   2.445   4.311   9.736 -0.1516  0.4521 -0.1505
 7810SOL    HW134889   2.414   4.247   9.801  2.8008  0.5630  1.3588
 7810SOL    HW234890   2.538   4.311   9.759 -0.5481  0.6086  1.4639
 7811SOL     OW34891   1.849   2.442   2.742 -0.5418 -0.0413  0.1352
 7811SOL    HW134892   1.796   2.517   2.769 -1.2138  0.6179 -2.9747
 7811SOL    HW234893   1.787   2.369   2.748  2.5557 -2.6220  0.6794
 7812SOL     OW34894   2.223   1.507   3.029  0.1251 -0.1350 -0.2587
 7812SOL    HW134895   2.241   1.454   2.952 -0.2417  0.2349 -0.5968
 7812SOL    HW234896   2.310   1.530   3.064 -0.0019  1.1998 -0.8314
 7813SOL     OW34897   1.960   3.564   5.911 -0.4857  0.2484  0.2245
 7813SOL    HW134898   1.867   3.563   5.933 -1.1048 -0.7458 -2.4176
 7813SOL    HW234899   1.983   3.471   5.906  0.1565  0.4369 -0.2397
 7814SOL     OW34900   1.565   2.084   8.093  0.1562 -0.2532 -0.8583
 7814SOL    HW134901   1.555   2.174   8.065  0.7221 -0.4975 -1.8706
 7814SOL    HW234902   1.474   2.067   8.117  0.0159  1.5631 -0.1524
 7815SOL     OW34903   0.553   4.346   2.759  0.1726 -0.0757  0.8078
 7815SOL    HW134904   0.550   4.362   2.664 -1.8528 -0.6753  0.7650
 7815SOL    HW234905   0.618   4.276   2.757  0.0490 -0.2013  1.3051
 7816SOL     OW34906   1.272   0.343   0.108 -0.5053 -0.4308 -0.0601
 7816SOL    HW134907   1.316   0.334   0.023 -0.2358 -1.7608  0.2266
 7816SOL    HW234908   1.355   0.343   0.155  0.1522  0.5487 -1.2099
 7817SOL     OW34909   4.384   4.108   9.195  0.0019 -0.4876  0.6339
 7817SOL    HW134910   4.349   4.057   9.122  0.2473  0.3410 -0.0712
 7817SOL    HW234911   4.310   4.166   9.212 -0.8338 -0.6747 -2.3739
 7818SOL     OW34912   3.183   3.411   6.021 -0.4887  0.1504 -0.3211
 7818SOL    HW134913   3.190   3.436   6.113 -3.5057 -0.6568  0.1305
 7818SOL    HW234914   3.262   3.441   5.976  0.6779  0.7104  2.1628
 7819SOL     OW34915   2.098   2.139   6.985  0.2231  0.2720  0.8106
 7819SOL    HW134916   2.129   2.048   6.991  0.5176  0.3440  0.3936
 7819SOL    HW234917   2.052   2.143   7.069 -1.6981  1.1714 -0.2950
 7820SOL     OW34918   3.337   4.089  13.871  0.3421  0.4901 -0.2603
 7820SOL    HW134919   3.291   4.166  13.904  0.8107  0.4846  0.3858
 7820SOL    HW234920   3.315   4.016  13.929  2.7253 -0.3680 -0.4283
 7821SOL     OW34921   0.221   4.330  16.427  0.6311 -0.4085  0.4282
 7821SOL    HW134922   0.273   4.251  16.446  3.0632  0.4572 -2.6624
 7821SOL    HW234923   0.202   4.315  16.335  3.3577 -1.2110 -0.0299
 7822SOL     OW34924   2.468   1.826  16.340 -1.0695  0.3259  0.6686
 7822SOL    HW134925   2.432   1.915  16.340 -1.1307  0.3070 -1.2393
 7822SOL    HW234926   2.389   1.777  16.364 -0.7409 -1.1649 -1.3205
 7823SOL     OW34927   4.421   0.003   8.646 -0.1215  0.0851 -0.3782
 7823SOL    HW134928   4.366   0.012   8.723 -0.7184  0.8790 -0.9072
 7823SOL    HW234929   4.431   4.630   8.640  1.6420  0.2250  0.3221
 7824SOL     OW34930   0.722   1.347  10.265 -0.3872 -0.0308 -0.3265
 7824SOL    HW134931   0.654   1.308  10.211 -1.9580  1.6821  0.4299
 7824SOL    HW234932   0.695   1.438  10.258  1.4381  0.6943  2.1256
 7825SOL     OW34933   1.853   2.737   6.264  0.4152 -0.0618 -0.3200
 7825SOL    HW134934   1.863   2.642   6.266  3.2504  0.2254 -0.9915
 7825SOL    HW234935   1.938   2.766   6.232  0.2460 -0.3966 -1.0762
 7826SOL     OW34936   2.600   4.512   6.680  0.1762  0.3815 -0.0419
 7826SOL    HW134937   2.509   4.523   6.652  0.2384 -2.0727 -1.1295
 7826SOL    HW234938   2.595   4.512   6.775  3.3215  0.0273  0.1191
 7827SOL     OW34939   0.384   3.464  12.760 -1.3264  0.3821 -0.6650
 7827SOL    HW134940   0.475   3.494  12.764 -1.4127  0.6364 -0.5832
 7827SOL    HW234941   0.356   3.467  12.668  3.7722  1.9254 -2.1915
 7828SOL     OW34942   0.359   3.241   9.429 -0.6014 -0.2377  0.0483
 7828SOL    HW134943   0.356   3.333   9.457 -0.1515  0.1299 -1.0998
 7828SOL    HW234944   0.268   3.219   9.410  0.1301 -3.1187 -0.0523
 7829SOL     OW34945   2.915   1.135   4.916 -0.3979  0.4940  0.1088
 7829SOL    HW134946   2.896   1.094   5.000 -1.9265  1.0779  0.0403
 7829SOL    HW234947   2.987   1.196   4.933  0.0386  0.0518 -0.1520
 7830SOL     OW34948   0.960   0.945   2.635  0.4184 -0.0920  0.0383
 7830SOL    HW134949   0.940   0.852   2.630  0.4767 -0.1735  1.2555
 7830SOL    HW234950   0.880   0.967   2.684  1.1530  0.3529  1.0495
 7831SOL     OW34951   2.262   3.946   5.906 -0.5211  0.2540 -0.2797
 7831SOL    HW134952   2.224   4.030   5.883  0.5823  0.5885 -0.8848
 7831SOL    HW234953   2.236   3.931   5.997 -1.4571 -1.2661 -0.7960
 7832SOL     OW34954   0.558   0.570   8.773 -0.1482 -0.3566  0.3241
 7832SOL    HW134955   0.584   0.530   8.856 -0.3306 -0.1317  0.4900
 7832SOL    HW234956   0.579   0.500   8.711  2.6230  1.8552 -1.2436
 7833SOL     OW34957   3.023   1.406   3.089  0.1420  0.2937 -0.1855
 7833SOL    HW134958   2.969   1.326   3.093  0.8101 -0.1069  0.8575
 7833SOL    HW234959   3.092   1.384   3.151 -0.5838  2.2379  1.3112
 7834SOL     OW34960   0.811   3.598   1.701 -0.2298 -0.1004  0.5397
 7834SOL    HW134961   0.887   3.604   1.642 -0.2285 -0.8259  0.4770
 7834SOL    HW234962   0.736   3.619   1.646 -0.6353  1.6235  1.7395
 7835SOL     OW34963   4.451   0.107  13.504 -0.2655  0.7289 -0.1074
 7835SOL    HW134964   4.386   0.048  13.543 -0.3162 -0.6262 -2.2418
 7835SOL    HW234965   4.485   0.045  13.439 -3.5579 -1.6243  0.4052
 7836SOL     OW34966   1.104   3.737   4.078 -0.2987 -0.1644  0.0333
 7836SOL    HW134967   1.195   3.765   4.082 -0.9731  1.7535  2.0113
 7836SOL    HW234968   1.101   3.648   4.043  1.1725  0.4957 -1.7614
 7837SOL     OW34969   3.418   1.477   4.544  0.6202  0.0842  0.0760
 7837SOL    HW134970   3.411   1.405   4.480 -1.5699  1.1056 -0.8389
 7837SOL    HW234971   3.480   1.444   4.609  0.7163  0.8467  0.3639
 7838SOL     OW34972   3.555   2.996   2.012 -0.0061 -0.0247 -0.0275
 7838SOL    HW134973   3.579   2.903   2.016 -0.0508 -0.0786 -0.8947
 7838SOL    HW234974   3.485   2.996   1.946  0.0715 -0.7686 -0.1197
 7839SOL     OW34975   2.545   3.354  16.922  0.7990  0.4357 -0.3355
 7839SOL    HW134976   2.578   3.417  16.858 -0.0441 -1.0349 -2.2305
 7839SOL    HW234977   2.493   3.410  16.979  1.4679 -0.7696  1.4728
 7840SOL     OW34978   1.816   1.044   8.419  0.3109 -0.1947 -0.4341
 7840SOL    HW134979   1.817   1.121   8.362  1.5057 -1.2346 -1.8327
 7840SOL    HW234980   1.863   0.986   8.358 -0.0566 -0.2110 -0.7026
 7841SOL     OW34981   4.415   3.119   5.631  0.0798 -0.3333  0.2439
 7841SOL    HW134982   4.349   3.094   5.695  0.4153  0.9914  1.0866
 7841SOL    HW234983   4.473   3.044   5.623 -1.7472 -1.7852  0.6119
 7842SOL     OW34984   3.180   1.205   4.986 -0.3857 -0.2954  0.1710
 7842SOL    HW134985   3.276   1.212   4.994 -0.6545  2.4343  1.0367
 7842SOL    HW234986   3.161   1.299   4.982  1.1495 -0.0030 -0.5908
 7843SOL     OW34987   4.397   4.015   6.474 -0.3334 -0.2684  0.4036
 7843SOL    HW134988   4.387   3.959   6.551  0.4597 -1.4458 -0.3519
 7843SOL    HW234989   4.393   4.102   6.515  0.0074 -0.3631  0.6386
 7844SOL     OW34990   4.271   0.999   0.863 -0.0180  0.4462 -0.0786
 7844SOL    HW134991   4.273   1.022   0.770  3.4645  0.1124 -0.0752
 7844SOL    HW234992   4.198   0.936   0.859  2.1222 -1.8196 -3.3639
 7845SOL     OW34993   3.968   2.071   7.084 -0.3285  0.0669  0.0309
 7845SOL    HW134994   4.016   2.077   7.002 -1.8373 -1.7018 -0.9677
 7845SOL    HW234995   3.881   2.083   7.045 -0.7192 -0.2166  0.8214
 7846SOL     OW34996   2.180   0.578  17.195 -0.0633 -1.0529 -0.1343
 7846SOL    HW134997   2.238   0.510  17.158 -0.0410 -0.8157 -0.5408
 7846SOL    HW234998   2.155   0.623  17.115  1.4752 -1.5742 -0.9262
 7847SOL     OW34999   1.382   3.572   6.773  0.3414  0.2913  0.2182
 7847SOL    HW135000   1.410   3.629   6.844  0.4453  0.2135  0.2385
 7847SOL    HW235001   1.400   3.485   6.807 -0.6431 -0.5043 -1.2706
 7848SOL     OW35002   2.158   1.377  15.576  0.4111  0.4643 -0.0625
 7848SOL    HW135003   2.243   1.336  15.561  0.7220  1.7545 -1.7496
 7848SOL    HW235004   2.123   1.325  15.649  1.9011 -0.6470 -0.1287
 7849SOL     OW35005   1.326   3.968   2.046 -0.5538 -0.1552  0.2029
 7849SOL    HW135006   1.315   4.015   1.963 -0.7884 -0.2846  0.1611
 7849SOL    HW235007   1.410   4.008   2.069  0.1559 -0.8447 -1.2027
 7850SOL     OW35008   1.253   3.050   3.232  0.1675 -0.1994 -0.4122
 7850SOL    HW135009   1.221   3.125   3.183 -0.3570 -0.2659 -0.1756
 7850SOL    HW235010   1.168   3.008   3.248  1.1532 -2.2159 -0.3570
 7851SOL     OW35011   1.687   3.292   3.732  0.1395 -0.2448 -0.0618
 7851SOL    HW135012   1.645   3.378   3.732 -1.2205 -0.9073 -0.8486
 7851SOL    HW235013   1.666   3.259   3.644  0.1458 -2.2174  0.6842
 7852SOL     OW35014   0.286   4.026   2.425 -0.0034  0.3103 -0.2114
 7852SOL    HW135015   0.290   3.969   2.349 -1.7108 -1.3622  0.9476
 7852SOL    HW235016   0.345   4.096   2.395 -1.4794  1.4114 -0.5427
 7853SOL     OW35017   4.239   4.426  15.101 -0.4675 -0.0730  0.8637
 7853SOL    HW135018   4.308   4.455  15.041  0.5585  1.1393  2.6288
 7853SOL    HW235019   4.185   4.504  15.108 -1.6611 -1.0355  2.4815
 7854SOL     OW35020   2.826   0.023   4.934  0.2152  0.3824  0.2997
 7854SOL    HW135021   2.848   4.708   4.848 -1.3968  0.1978 -0.0348
 7854SOL    HW235022   2.748   4.703   4.969 -0.5536  1.5457  0.0089
 7855SOL     OW35023   4.142   2.676   4.133 -0.1850 -0.1006  0.3695
 7855SOL    HW135024   4.135   2.758   4.083 -1.9301 -0.6911 -0.3776
 7855SOL    HW235025   4.236   2.665   4.126 -0.4645 -0.9799 -2.2808
 7856SOL     OW35026   0.319   2.188   2.625 -0.3404 -0.2568  0.1188
 7856SOL    HW135027   0.236   2.161   2.664 -2.0866  1.7250 -2.1644
 7856SOL    HW235028   0.308   2.141   2.542  0.2495 -1.2208  0.5958
 7857SOL     OW35029   4.020   3.973  14.885 -0.2065  0.2268 -0.1308
 7857SOL    HW135030   4.011   4.039  14.816 -1.3016  0.3462  0.1291
 7857SOL    HW235031   4.100   3.923  14.872 -0.7594 -0.9361  0.9484
 7858SOL     OW35032   0.406   3.677   6.753 -0.0764 -0.4058  0.3796
 7858SOL    HW135033   0.358   3.621   6.813  0.4753  1.3643  2.4588
 7858SOL    HW235034   0.448   3.740   6.811 -0.6996  0.3410  0.0137
 7859SOL     OW35035   3.307   3.406   9.768  0.3972 -0.2610 -0.7368
 7859SOL    HW135036   3.346   3.452   9.693  0.5658  3.4115  1.5822
 7859SOL    HW235037   3.234   3.463   9.794 -0.2023 -1.2890 -0.1968
 7860SOL     OW35038   1.931   1.900   5.962 -0.1134 -0.1752  0.0774
 7860SOL    HW135039   1.836   1.891   5.961 -0.1786  0.3847  1.1832
 7860SOL    HW235040   1.941   1.925   6.054  0.0813 -1.8001  0.4997
 7861SOL     OW35041   0.116   3.465   8.488 -0.5507  0.4071 -0.5915
 7861SOL    HW135042   0.160   3.388   8.522 -2.7493 -0.3329  0.5610
 7861SOL    HW235043   0.184   3.532   8.494 -0.2915  0.2467 -1.6703
 7862SOL     OW35044   2.714   1.875  11.399  0.3345  0.3695  0.1638
 7862SOL    HW135045   2.637   1.897  11.451 -0.6461 -1.3891 -0.5252
 7862SOL    HW235046   2.714   1.781  11.416 -1.0580 -0.0683 -2.1973
 7863SOL     OW35047   0.484   0.997   1.545 -0.7774 -0.3045  0.8499
 7863SOL    HW135048   0.520   0.914   1.512  2.7846  2.2804 -1.7211
 7863SOL    HW235049   0.513   0.996   1.636 -0.9902 -1.2691  0.9055
 7864SOL     OW35050   0.247   2.369  14.031 -0.0732  0.3810 -0.3061
 7864SOL    HW135051   0.193   2.291  14.017 -0.1960  0.5530 -0.7882
 7864SOL    HW235052   0.192   2.438  13.995  0.2190  0.6701 -0.1991
 7865SOL     OW35053   0.198   0.863   4.536 -0.2935 -0.3312 -0.1619
 7865SOL    HW135054   0.177   0.811   4.458 -0.7090  2.6472 -2.0585
 7865SOL    HW235055   0.190   0.945   4.486 -0.6866  0.2619  0.8576
 7866SOL     OW35056   1.163   0.226  13.350  0.7395  0.0282 -0.2910
 7866SOL    HW135057   1.102   0.185  13.411  0.4722  1.5542  0.4605
 7866SOL    HW235058   1.109   0.235  13.272 -0.6089 -4.4788  0.0832
 7867SOL     OW35059   0.569   1.490   6.372 -0.5040  0.3572  0.3579
 7867SOL    HW135060   0.546   1.461   6.284 -1.2371  1.0818  0.3159
 7867SOL    HW235061   0.640   1.429   6.393  0.1927  1.0781  0.1003
 7868SOL     OW35062   0.624   1.663   7.190  0.1406 -0.1245  0.1864
 7868SOL    HW135063   0.697   1.725   7.199 -0.2559  0.1623  1.3907
 7868SOL    HW235064   0.562   1.716   7.240  0.0199  0.9154 -1.0747
 7869SOL     OW35065   2.520   4.455   9.255  0.3199  0.1584 -0.0608
 7869SOL    HW135066   2.458   4.395   9.213  1.9394 -0.8007 -1.0592
 7869SOL    HW235067   2.478   4.472   9.339 -0.2641 -0.7882 -0.1614
 7870SOL     OW35068   2.165   1.944   4.254  0.1907 -0.0053 -0.3708
 7870SOL    HW135069   2.170   1.993   4.172  0.0503  0.0141 -0.3691
 7870SOL    HW235070   2.252   1.906   4.259  0.4969  0.6602 -0.5337
 7871SOL     OW35071   0.428   1.907  15.575  0.6226 -0.7353  0.0893
 7871SOL    HW135072   0.404   1.943  15.490 -0.6628 -0.8886  0.3843
 7871SOL    HW235073   0.501   1.851  15.549  1.2623 -0.1100  0.5223
 7872SOL     OW35074   2.690   4.244   9.856  0.3075 -0.0536 -0.4686
 7872SOL    HW135075   2.723   4.191   9.929 -1.0613 -0.2930 -0.0301
 7872SOL    HW235076   2.750   4.221   9.785  0.3501 -1.1839 -0.0613
 7873SOL     OW35077   3.017   2.906  14.883  0.5937  0.7382 -0.5406
 7873SOL    HW135078   3.043   2.822  14.845  0.5680  1.1930 -1.5511
 7873SOL    HW235079   3.044   2.904  14.975 -2.1615  0.4511  0.2658
 7874SOL     OW35080   1.617   4.325  12.828  0.0223  0.0854 -0.1560
 7874SOL    HW135081   1.696   4.369  12.798  0.4704 -0.1946  0.6298
 7874SOL    HW235082   1.621   4.335  12.923 -1.1339  0.6937 -0.1570
 7875SOL     OW35083   4.607   3.919  10.881  0.3624 -0.5688 -0.0495
 7875SOL    HW135084   4.623   3.911  10.787 -0.3505 -2.7778  0.0149
 7875SOL    HW235085   4.618   4.012  10.900  0.1158 -0.3559 -0.9760
 7876SOL     OW35086   1.567   1.717   8.187  0.7701 -0.4408  0.2634
 7876SOL    HW135087   1.612   1.721   8.271 -0.7875 -1.8505  1.1812
 7876SOL    HW235088   1.531   1.628   8.198 -1.3652  0.5553  1.3685
 7877SOL     OW35089   0.561   1.611   7.623  0.3827  0.2071  0.1935
 7877SOL    HW135090   0.497   1.544   7.647  1.3753  0.1777  2.7592
 7877SOL    HW235091   0.500   1.684   7.619 -0.5822 -0.4573  3.2603
 7878SOL     OW35092   1.593   3.156   1.597 -0.2096  0.1450 -0.0351
 7878SOL    HW135093   1.611   3.122   1.509  1.5185 -0.7304  0.6669
 7878SOL    HW235094   1.540   3.081   1.623 -1.5107  1.0347 -0.1382
 7879SOL     OW35095   3.552   4.535   5.686 -0.2338  0.1120  0.1414
 7879SOL    HW135096   3.607   4.607   5.655  0.0961 -0.2095 -0.0275
 7879SOL    HW235097   3.602   4.515   5.765  0.7719  1.9081 -0.0327
 7880SOL     OW35098   2.732   2.965   4.160  0.5292 -0.3260  0.3559
 7880SOL    HW135099   2.643   2.938   4.137 -0.7759  3.9602  0.4314
 7880SOL    HW235100   2.729   2.987   4.253  0.0186  1.8177 -0.1517
 7881SOL     OW35101   1.724   4.320   9.314 -0.3637 -0.0369  0.3006
 7881SOL    HW135102   1.746   4.403   9.355  0.6472  0.0005 -0.3091
 7881SOL    HW235103   1.735   4.261   9.388  4.2780 -0.1911 -0.5047
 7882SOL     OW35104   1.091   4.603   6.548 -0.9598 -0.3375 -0.1564
 7882SOL    HW135105   1.132   4.565   6.471 -0.1034  1.1558 -0.4389
 7882SOL    HW235106   0.999   4.579   6.536 -1.6622  2.2561  0.0463
 7883SOL     OW35107   0.628   2.695   0.893  0.5542  0.1598  0.2096
 7883SOL    HW135108   0.564   2.650   0.839  0.3686 -1.3297  1.6688
 7883SOL    HW235109   0.668   2.739   0.818 -1.6626 -0.2106 -1.1527
 7884SOL     OW35110   3.670   1.311   2.398  0.1772  0.3765 -0.2550
 7884SOL    HW135111   3.720   1.312   2.479  0.0951 -1.3986 -0.1743
 7884SOL    HW235112   3.643   1.400   2.374  3.2916  1.6382  0.9615
 7885SOL     OW35113   1.542   1.538   3.397 -0.4653 -0.3948 -0.3895
 7885SOL    HW135114   1.500   1.460   3.433 -0.7707 -0.0952 -0.0921
 7885SOL    HW235115   1.465   1.587   3.368 -0.5272  0.2713  0.8660
 7886SOL     OW35116   2.527   0.267   5.815  0.5329  0.4890  0.2467
 7886SOL    HW135117   2.585   0.339   5.791  0.5178  0.1918 -0.6734
 7886SOL    HW235118   2.468   0.256   5.741  0.3999  1.9523  0.1336
 7887SOL     OW35119   0.115   3.310  14.322  0.4128 -0.4698  0.4248
 7887SOL    HW135120   0.176   3.289  14.393  1.5689  1.5101  0.0245
 7887SOL    HW235121   0.033   3.328  14.367  0.7184  2.4920 -0.2309
 7888SOL     OW35122   1.175   3.777   2.194 -0.8977  0.0621 -0.3354
 7888SOL    HW135123   1.239   3.741   2.256 -3.0355 -1.0564  1.2153
 7888SOL    HW235124   1.231   3.826   2.134  0.4754  0.6138  1.4324
 7889SOL     OW35125   3.333   3.367   5.075  0.1101  0.2055  0.2171
 7889SOL    HW135126   3.343   3.450   5.028 -0.1813 -0.2057 -0.5701
 7889SOL    HW235127   3.378   3.307   5.015 -0.7100 -0.7039  0.5099
 7890SOL     OW35128   0.737   4.687  14.277  0.0472  0.4691 -0.3222
 7890SOL    HW135129   0.775   4.656  14.359  1.3223  0.7359 -0.8176
 7890SOL    HW235130   0.757   0.059  14.283  1.1154  0.3428 -1.8414
 7891SOL     OW35131   0.499   1.765   6.370  0.0721  0.3441  0.2120
 7891SOL    HW135132   0.418   1.755   6.421 -0.7617 -1.5506 -1.4752
 7891SOL    HW235133   0.542   1.682   6.388 -2.1828 -0.2604  2.9275
 7892SOL     OW35134   2.746   2.664  16.701  0.1036  0.2944  0.7754
 7892SOL    HW135135   2.686   2.656  16.775  1.2210 -2.1620  1.4207
 7892SOL    HW235136   2.688   2.657  16.625  2.2698  0.4838 -0.8860
 7893SOL     OW35137   0.592   2.066   0.878 -0.1969  0.1044 -0.2519
 7893SOL    HW135138   0.577   2.160   0.885  0.7992  0.2547 -0.1917
 7893SOL    HW235139   0.504   2.030   0.866 -1.1018  2.3487 -0.4214
 7894SOL     OW35140   1.968   3.403  16.646 -0.5220 -0.2045  0.3199
 7894SOL    HW135141   2.009   3.389  16.560  1.7270 -0.8942  1.5151
 7894SOL    HW235142   2.039   3.406  16.710  1.8090 -1.4846 -2.1679
 7895SOL     OW35143   3.731   3.995   6.366  0.0539  0.1616  0.2103
 7895SOL    HW135144   3.685   4.007   6.449 -0.2756 -2.1731  0.3874
 7895SOL    HW235145   3.665   4.024   6.303 -1.1476  0.9407  1.8246
 7896SOL     OW35146   0.337   1.953   3.593 -0.6221 -0.1465 -0.1712
 7896SOL    HW135147   0.404   1.896   3.556 -1.0399 -0.2451 -0.7818
 7896SOL    HW235148   0.299   1.993   3.514 -2.4601 -0.9088  0.3399
 7897SOL     OW35149   4.605   1.269   7.755  0.2307  0.9837 -0.0369
 7897SOL    HW135150   4.510   1.256   7.764  0.4931 -0.5032  0.5269
 7897SOL    HW235151   4.616   1.218   7.675 -0.6625 -1.0618  1.1522
 7898SOL     OW35152   4.666   4.268   1.914  0.0219 -0.3959 -0.2404
 7898SOL    HW135153   4.668   4.215   1.993  0.2807 -0.4926 -0.3120
 7898SOL    HW235154   4.638   4.209   1.844  3.2219 -0.0709 -1.7754
 7899SOL     OW35155   3.845   3.702   4.883  0.1885  0.0300  0.3585
 7899SOL    HW135156   3.861   3.639   4.953  0.3181  0.0834  0.3765
 7899SOL    HW235157   3.767   3.675   4.835 -0.5500  1.5135  0.6987
 7900SOL     OW35158   3.318   0.870   3.292 -0.1982  0.4042  0.0160
 7900SOL    HW135159   3.257   0.917   3.349 -0.2273  1.2445 -0.7111
 7900SOL    HW235160   3.320   0.934   3.221  2.0320  1.0887  0.6889
 7901SOL     OW35161   2.200   1.391  10.798 -0.1811 -0.6659 -0.1055
 7901SOL    HW135162   2.293   1.366  10.804  0.0973  0.1399 -0.9922
 7901SOL    HW235163   2.185   1.373  10.890 -2.4893  0.1670 -0.3289
 7902SOL     OW35164   1.397   4.534   6.231 -0.2661  0.1252 -0.3404
 7902SOL    HW135165   1.304   4.553   6.239 -0.7365 -1.7209 -1.3478
 7902SOL    HW235166   1.408   4.519   6.137 -0.5331  4.6582 -1.0707
 7903SOL     OW35167   3.255   2.051   5.509  0.9058 -0.1656 -0.7384
 7903SOL    HW135168   3.169   2.009   5.519  0.7334  0.1455 -0.9345
 7903SOL    HW235169   3.295   1.986   5.452 -0.5504 -2.4384  0.7967
 7904SOL     OW35170   2.750   1.091   9.201 -0.1064 -0.2342 -0.0508
 7904SOL    HW135171   2.783   1.002   9.185  0.6272 -0.2364  1.4615
 7904SOL    HW235172   2.780   1.106   9.291 -2.1673 -1.7737  0.9075
 7905SOL     OW35173   0.466   3.442   8.855 -0.1211  0.3183  0.1565
 7905SOL    HW135174   0.534   3.390   8.897 -1.1333 -0.6729  0.5672
 7905SOL    HW235175   0.454   3.507   8.925  1.3664 -0.5836  1.2277
 7906SOL     OW35176   1.340   2.595   4.822  0.4239 -0.0179  0.5763
 7906SOL    HW135177   1.383   2.537   4.759 -0.2760  0.2612 -0.1624
 7906SOL    HW235178   1.314   2.672   4.771  0.3827 -0.8462 -0.6703
 7907SOL     OW35179   4.320   4.395  17.014 -0.6631 -0.4332  0.5961
 7907SOL    HW135180   4.273   4.478  17.002 -1.1644 -0.8668 -0.4679
 7907SOL    HW235181   4.405   4.409  16.973  0.0690 -1.3806  1.7895
 7908SOL     OW35182   3.160   4.180   0.847  0.3430 -0.0415 -0.5512
 7908SOL    HW135183   3.187   4.272   0.851  3.4856 -1.0234  1.5052
 7908SOL    HW235184   3.238   4.137   0.813  1.1287  0.1300  1.0316
 7909SOL     OW35185   3.515   3.655   8.103 -0.3133  0.0758  0.2214
 7909SOL    HW135186   3.431   3.661   8.150 -0.1884  1.0678  0.3365
 7909SOL    HW235187   3.562   3.602   8.168 -1.0194 -1.2915 -0.4099
 7910SOL     OW35188   2.321   2.617   7.890 -0.6636 -0.1332  0.0832
 7910SOL    HW135189   2.338   2.527   7.863  1.1676 -0.5680  2.6528
 7910SOL    HW235190   2.226   2.619   7.881 -0.7292  1.1167  1.0036
 7911SOL     OW35191   2.032   2.012   1.831  0.0713 -0.4721  0.0789
 7911SOL    HW135192   1.975   1.968   1.768  0.3802 -1.8172  0.7422
 7911SOL    HW235193   1.967   2.058   1.884 -0.4805 -0.3790 -0.6914
 7912SOL     OW35194   2.824   2.595   5.836  0.1869 -0.3461  0.3896
 7912SOL    HW135195   2.854   2.637   5.755  0.2413 -1.6812 -0.2918
 7912SOL    HW235196   2.813   2.501   5.821 -3.4327 -0.2750  2.6724
 7913SOL     OW35197   1.149   2.848  12.669  0.4826 -0.0517 -0.4441
 7913SOL    HW135198   1.153   2.777  12.605 -0.6310  0.2997 -0.9051
 7913SOL    HW235199   1.153   2.919  12.605 -1.7163  1.4868  1.1151
 7914SOL     OW35200   0.063   4.171   4.091  0.4655  0.4965 -0.0395
 7914SOL    HW135201   0.150   4.205   4.113  1.0556  0.3375 -2.1613
 7914SOL    HW235202   0.068   4.125   4.008  2.1965 -1.3399  1.0757
 7915SOL     OW35203   3.136   2.716   5.935 -0.5585 -0.2740 -0.1524
 7915SOL    HW135204   3.134   2.748   5.844 -3.6423 -0.2755 -0.0981
 7915SOL    HW235205   3.179   2.632   5.922 -0.7059  0.1760 -3.7940
 7916SOL     OW35206   3.741   3.529   0.662  0.2976 -0.0711 -0.2654
 7916SOL    HW135207   3.726   3.568   0.576 -2.0629 -0.0360  0.1466
 7916SOL    HW235208   3.738   3.608   0.716  3.2580  0.0489 -0.2668
 7917SOL     OW35209   3.495   1.169   9.936 -0.0197  0.4522 -0.3693
 7917SOL    HW135210   3.450   1.140   9.857 -3.7336  1.9463  1.1844
 7917SOL    HW235211   3.433   1.230   9.976 -0.8669  0.5924 -1.9060
 7918SOL     OW35212   1.925   2.091   3.991 -0.1701  0.4064  0.1087
 7918SOL    HW135213   1.949   2.001   3.971  2.2474  0.8765  0.9497
 7918SOL    HW235214   1.934   2.136   3.907 -0.0761  2.4924  1.2244
 7919SOL     OW35215   2.770   1.110   7.484 -0.2787  0.1117 -0.2168
 7919SOL    HW135216   2.736   1.190   7.525 -2.2514 -0.9130  0.1098
 7919SOL    HW235217   2.855   1.106   7.528  0.2167  1.1879 -1.0730
 7920SOL     OW35218   3.215   2.123  12.429  0.9970 -0.3001  0.9311
 7920SOL    HW135219   3.170   2.086  12.353  2.3921 -1.6885  0.7737
 7920SOL    HW235220   3.239   2.039  12.469 -0.7139 -1.2752 -0.0725
 7921SOL     OW35221   1.636   1.466   4.300 -0.7100  0.2457 -0.0798
 7921SOL    HW135222   1.551   1.510   4.312 -0.0851  0.5729  3.1143
 7921SOL    HW235223   1.688   1.499   4.373  0.2622 -0.9738 -0.2393
 7922SOL     OW35224   3.236   3.144   2.728  0.2080 -0.1467 -0.2461
 7922SOL    HW135225   3.315   3.176   2.684 -0.0655  0.0289 -0.6210
 7922SOL    HW235226   3.172   3.114   2.663 -0.0387 -1.1402  0.4550
 7923SOL     OW35227   3.538   0.275  16.018  0.0390 -0.3308  0.4842
 7923SOL    HW135228   3.498   0.357  16.047 -2.3115 -1.0454 -0.7279
 7923SOL    HW235229   3.462   0.240  15.972  2.1639 -2.6976 -1.2456
 7924SOL     OW35230   1.659   0.615   4.220  0.1466  0.1985 -0.1266
 7924SOL    HW135231   1.578   0.645   4.180 -0.7690 -1.7671  0.2452
 7924SOL    HW235232   1.623   0.540   4.268  2.3209 -0.3232  0.6819
 7925SOL     OW35233   1.581   1.960   8.590 -0.4108  0.1443  0.0226
 7925SOL    HW135234   1.530   1.881   8.573 -1.0672  0.4622  0.4926
 7925SOL    HW235235   1.657   1.917   8.629  0.8774  1.6720 -0.7604
 7926SOL     OW35236   1.550   2.600   3.718  0.0442  0.5394 -0.1130
 7926SOL    HW135237   1.574   2.689   3.742 -0.5123  0.7020 -0.1452
 7926SOL    HW235238   1.594   2.595   3.633  2.3400  0.3306  1.1123
 7927SOL     OW35239   0.664   0.564  16.650  0.4108  0.5180 -0.2761
 7927SOL    HW135240   0.641   0.474  16.628  0.5902 -0.0119  1.7284
 7927SOL    HW235241   0.754   0.538  16.670 -0.1815 -0.2248  1.4418
 7928SOL     OW35242   3.527   4.162   7.719  0.3097 -0.6346  0.5691
 7928SOL    HW135243   3.594   4.160   7.787  1.5019 -2.3710 -0.6685
 7928SOL    HW235244   3.550   4.243   7.674 -1.0700 -0.1886  0.6457
 7929SOL     OW35245   2.347   0.178   9.850 -0.4756  0.1525  0.2690
 7929SOL    HW135246   2.273   0.195   9.792 -0.4363  0.6685  0.3701
 7929SOL    HW235247   2.326   0.089   9.879  1.7070 -0.2361  0.7050
 7930SOL     OW35248   3.617   0.407  10.867  0.0681 -0.2997 -0.3277
 7930SOL    HW135249   3.669   0.472  10.915 -0.0154 -0.9999  0.7163
 7930SOL    HW235250   3.577   0.364  10.943  1.7515 -2.3742 -0.6026
 7931SOL     OW35251   3.638   0.791   6.744  0.9285  0.0968  0.5464
 7931SOL    HW135252   3.630   0.732   6.819  0.3766 -1.2140 -0.5358
 7931SOL    HW235253   3.549   0.789   6.710  1.3047  0.8076 -0.4997
 7932SOL     OW35254   4.138   2.894   3.977  0.5123  0.6234 -0.4133
 7932SOL    HW135255   4.068   2.938   3.929  0.0662  2.6961  2.1471
 7932SOL    HW235256   4.186   2.974   3.997 -0.1613  0.1592  3.0398
 7933SOL     OW35257   2.306   3.741   9.762  0.4633 -0.4304 -0.6950
 7933SOL    HW135258   2.229   3.778   9.718  0.1723  0.6882  0.7494
 7933SOL    HW235259   2.371   3.812   9.764 -0.2894  0.2189  0.4613
 7934SOL     OW35260   2.350   1.140  10.742 -0.5432 -0.2625  0.5358
 7934SOL    HW135261   2.381   1.170  10.656 -1.6642 -0.1416  0.1734
 7934SOL    HW235262   2.266   1.101  10.718 -0.4499 -0.6985  0.9157
 7935SOL     OW35263   0.870   3.477   8.451  0.1335  0.2677  0.3020
 7935SOL    HW135264   0.870   3.499   8.357 -0.5720  1.7114  0.6387
 7935SOL    HW235265   0.842   3.387   8.436 -0.3902  0.1231  2.1935
 7936SOL     OW35266   0.101   2.099  17.553 -0.0224 -0.6261  0.0503
 7936SOL    HW135267   0.158   2.033  17.592 -0.6683 -1.1170  0.1609
 7936SOL    HW235268   0.137   2.180  17.589 -1.5957  0.6728 -1.3422
 7937SOL     OW35269   2.584   3.636   8.706 -0.2671  0.3962 -0.4892
 7937SOL    HW135270   2.540   3.721   8.703 -0.0841  0.3563 -4.3902
 7937SOL    HW235271   2.667   3.677   8.730 -1.2969  2.4689 -0.4789
 7938SOL     OW35272   2.815   2.113   1.650 -0.4415  0.1955  0.6692
 7938SOL    HW135273   2.909   2.109   1.664 -0.5271 -0.0807  1.2026
 7938SOL    HW235274   2.784   2.022   1.645 -1.6683  0.6441  0.0650
 7939SOL     OW35275   3.355   1.672   7.797  0.5099  0.0212 -0.1618
 7939SOL    HW135276   3.323   1.672   7.887 -0.8663 -2.6647 -0.6176
 7939SOL    HW235277   3.429   1.731   7.804 -0.6273  1.5507 -0.8785
 7940SOL     OW35278   2.897   3.525  16.549 -0.0803  0.3130 -0.2012
 7940SOL    HW135279   2.849   3.605  16.571 -0.9739  0.0536 -1.2034
 7940SOL    HW235280   2.888   3.543  16.456 -0.7513 -0.1152 -0.2218
 7941SOL     OW35281   1.002   3.669   3.004  0.5858  0.1917  0.1126
 7941SOL    HW135282   0.981   3.727   2.930 -2.1270 -0.8891  0.0703
 7941SOL    HW235283   1.097   3.677   2.995  0.6986 -2.2184 -0.8179
 7942SOL     OW35284   2.477   3.261  16.564 -0.3354 -0.1647  0.2334
 7942SOL    HW135285   2.458   3.174  16.599 -0.1876 -0.7771 -1.1932
 7942SOL    HW235286   2.431   3.321  16.623  0.3676  0.4896  0.1067
 7943SOL     OW35287   1.854   1.006   6.266  0.2920  0.5057  0.2609
 7943SOL    HW135288   1.818   0.926   6.303 -0.3303  0.3240 -0.7458
 7943SOL    HW235289   1.885   0.970   6.183  0.2335  1.6955 -0.2826
 7944SOL     OW35290   4.320   0.963   4.927  0.3434  0.3507 -0.2237
 7944SOL    HW135291   4.411   0.975   4.954  0.7114  0.1047 -1.3516
 7944SOL    HW235292   4.292   0.882   4.971 -0.3822  0.6678 -0.1020
 7945SOL     OW35293   2.183   1.514   9.515  0.1362  0.6038  0.1506
 7945SOL    HW135294   2.104   1.495   9.566  1.3167 -1.4464  1.1988
 7945SOL    HW235295   2.156   1.467   9.436  1.7608  1.0293 -0.6631
 7946SOL     OW35296   0.149   0.074   0.058 -0.0743  0.2441 -0.0303
 7946SOL    HW135297   0.175   0.024   0.136 -0.8347  0.0483  0.1039
 7946SOL    HW235298   0.166   0.016  17.676  0.9311 -1.3062  1.4317
 7947SOL     OW35299   3.014   1.005   2.263 -0.0337  0.2789  0.0443
 7947SOL    HW135300   2.964   0.924   2.272  0.1545  0.5041  3.1807
 7947SOL    HW235301   3.098   0.982   2.223 -0.0705  0.1420  0.0458
 7948SOL     OW35302   4.640   3.051   8.889  0.1595 -0.1864 -0.2095
 7948SOL    HW135303   4.557   3.004   8.887 -0.9149  1.6736  0.8533
 7948SOL    HW235304   4.685   2.987   8.944  1.2297  1.1330  0.4356
 7949SOL     OW35305   1.812   4.449   5.079 -0.5683 -0.1629 -0.0656
 7949SOL    HW135306   1.831   4.483   4.991  0.9340 -1.6551 -0.3145
 7949SOL    HW235307   1.879   4.382   5.090 -0.3285 -0.1459 -1.3898
 7950SOL     OW35308   0.703   2.632   3.723 -0.3201 -0.8117 -0.0866
 7950SOL    HW135309   0.609   2.612   3.725 -0.7587  1.3029 -0.4623
 7950SOL    HW235310   0.707   2.723   3.752 -0.0132 -0.9390  0.2701
 7951SOL     OW35311   3.001   0.257   8.320 -0.3013 -0.2412 -0.3632
 7951SOL    HW135312   2.942   0.266   8.395  0.0349 -2.4498  0.1775
 7951SOL    HW235313   3.016   0.348   8.296 -0.2712 -0.4110 -1.0076
 7952SOL     OW35314   3.573   1.671   9.278  0.3628  0.4994  0.0200
 7952SOL    HW135315   3.662   1.655   9.310  0.1907  0.4728  0.4962
 7952SOL    HW235316   3.592   1.736   9.210 -0.4063 -0.1833 -0.8478
 7953SOL     OW35317   0.840   1.712   5.111 -0.8153 -0.0873 -0.0444
 7953SOL    HW135318   0.853   1.719   5.017  2.8310  0.7008  0.5041
 7953SOL    HW235319   0.930   1.733   5.137 -0.6196  0.1475 -0.9144
 7954SOL     OW35320   1.354   3.881   6.902 -0.1847 -0.4535  0.7591
 7954SOL    HW135321   1.327   3.972   6.888 -0.7100 -1.5103 -5.1156
 7954SOL    HW235322   1.408   3.875   6.824  0.7854 -1.8642  1.5483
 7955SOL     OW35323   2.574   2.653   4.541 -0.1027 -0.1190  0.2546
 7955SOL    HW135324   2.559   2.559   4.555 -0.7375  0.2281  1.8174
 7955SOL    HW235325   2.657   2.662   4.588  0.5763  1.8988 -1.2958
 7956SOL     OW35326   2.715   2.352   7.120 -0.2568 -0.1185 -0.5195
 7956SOL    HW135327   2.650   2.349   7.190 -1.9329 -0.1064 -2.1001
 7956SOL    HW235328   2.739   2.444   7.106  0.2674 -0.0792  0.5641
 7957SOL     OW35329   2.355   4.547   7.371  0.1765 -0.0675  0.2217
 7957SOL    HW135330   2.339   4.488   7.297 -1.3342  0.5362  0.0648
 7957SOL    HW235331   2.379   4.485   7.440  0.6283  1.7559  1.7090
 7958SOL     OW35332   0.391   0.708   2.737 -0.8304  0.5274  0.5568
 7958SOL    HW135333   0.419   0.644   2.671  0.6592 -1.7775  3.4527
 7958SOL    HW235334   0.477   0.738   2.767 -1.2952 -0.9365  3.3607
 7959SOL     OW35335   4.293   0.311  13.576  0.1318 -0.4275  0.3690
 7959SOL    HW135336   4.247   0.346  13.500  1.5128 -0.7920 -0.6400
 7959SOL    HW235337   4.348   0.246  13.531 -0.1224 -0.0760 -0.4532
 7960SOL     OW35338   1.708   2.669  11.409  0.1933 -0.2101  0.0716
 7960SOL    HW135339   1.646   2.679  11.482 -0.5240 -0.7890 -0.4502
 7960SOL    HW235340   1.713   2.762  11.387  0.4773  0.0131  1.0963
 7961SOL     OW35341   3.384   4.480   5.459 -0.3841  0.1075 -0.0978
 7961SOL    HW135342   3.447   4.507   5.526 -1.4431  0.0296  0.9127
 7961SOL    HW235343   3.429   4.522   5.385  3.3169  0.0820  2.1241
 7962SOL     OW35344   4.624   4.612   5.712 -0.0760 -0.1278 -0.4462
 7962SOL    HW135345   4.541   4.656   5.696  0.1398  1.0980  1.7084
 7962SOL    HW235346   4.661   4.645   5.794 -2.4390  1.5899 -0.0966
 7963SOL     OW35347   2.959   1.878  14.216 -0.1742  0.4278  0.0210
 7963SOL    HW135348   3.021   1.809  14.194 -0.8790 -0.7646  1.7646
 7963SOL    HW235349   3.002   1.941  14.273  3.2167 -2.6867  0.8407
 7964SOL     OW35350   3.071   1.282   1.008  0.2597 -0.2502 -0.3670
 7964SOL    HW135351   3.023   1.305   1.087  2.1326  0.0889  0.6682
 7964SOL    HW235352   3.000   1.277   0.944 -1.2978 -1.1947  1.4563
 7965SOL     OW35353   0.366   3.652  16.119  0.3199 -0.1701  0.1345
 7965SOL    HW135354   0.296   3.678  16.059  0.2428  2.0967  1.2264
 7965SOL    HW235355   0.440   3.651  16.057 -0.1708 -0.3294 -0.4489
 7966SOL     OW35356   3.758   1.853   2.604 -0.2495  0.7657  0.5810
 7966SOL    HW135357   3.681   1.882   2.652 -0.2814  3.3567 -0.9836
 7966SOL    HW235358   3.803   1.807   2.674 -1.3678  0.0753  0.8369
 7967SOL     OW35359   0.497   0.369   5.525  0.1777  0.2300  0.4780
 7967SOL    HW135360   0.410   0.349   5.489  1.5863 -2.9376 -1.1577
 7967SOL    HW235361   0.470   0.410   5.607  0.2881 -0.9186  1.0971
 7968SOL     OW35362   2.955   4.667   5.449 -0.1999  0.3229  0.1482
 7968SOL    HW135363   2.925   4.584   5.411  1.6988 -0.3744  0.1202
 7968SOL    HW235364   2.884   4.686   5.509 -0.6358  1.1502 -0.6358
 7969SOL     OW35365   0.321   0.672   8.041 -0.4473  0.4958 -0.0756
 7969SOL    HW135366   0.270   0.665   7.961 -0.3636 -0.4307 -0.0576
 7969SOL    HW235367   0.375   0.749   8.027 -1.0073  0.8300 -0.3776
 7970SOL     OW35368   4.007   2.095   5.276  0.2320  0.1324 -0.0793
 7970SOL    HW135369   4.010   2.001   5.293 -1.7708 -0.1047 -1.0072
 7970SOL    HW235370   4.091   2.116   5.236  0.8028 -1.8466  0.1174
 7971SOL     OW35371   0.471   3.623   7.332 -0.3190  0.2408 -0.0661
 7971SOL    HW135372   0.564   3.638   7.314 -0.9543  2.6273 -1.4287
 7971SOL    HW235373   0.464   3.654   7.422 -0.8910 -0.8452  0.2593
 7972SOL     OW35374   4.374   2.588   0.058 -0.2895  0.0130  0.5417
 7972SOL    HW135375   4.341   2.625   0.139  0.8475  0.3723  0.8416
 7972SOL    HW235376   4.303   2.531   0.029  0.0914  0.5085 -1.3807
 7973SOL     OW35377   4.364   4.179   6.104  0.1714 -0.0636 -0.0959
 7973SOL    HW135378   4.374   4.092   6.142 -3.7145 -1.2679 -1.8364
 7973SOL    HW235379   4.411   4.168   6.020  0.4487 -0.7622  0.1459
 7974SOL     OW35380   1.216   2.791   1.757 -0.7013  0.1601  0.1052
 7974SOL    HW135381   1.218   2.768   1.849  0.1908 -0.9034 -0.1867
 7974SOL    HW235382   1.174   2.708   1.735 -1.7237  1.0803 -1.4755
 7975SOL     OW35383   0.417   2.489   8.189  0.4124 -0.1137  0.5840
 7975SOL    HW135384   0.441   2.551   8.257 -0.4138  2.6413 -1.6204
 7975SOL    HW235385   0.490   2.428   8.199  2.1067  1.5292 -1.7182
 7976SOL     OW35386   1.028   0.328   5.013  0.0204  0.1155  0.2320
 7976SOL    HW135387   1.054   0.417   4.989 -0.6138  0.3676  0.4618
 7976SOL    HW235388   1.047   0.277   4.935 -1.3524  0.9904 -0.6705
 7977SOL     OW35389   2.812   1.811   4.442  0.4463 -0.0140  0.3951
 7977SOL    HW135390   2.792   1.846   4.529  1.2943  0.0364  0.5723
 7977SOL    HW235391   2.783   1.888   4.393  1.1058  0.1907  0.3221
 7978SOL     OW35392   4.176   3.461   9.443  0.1186  0.0636  0.3646
 7978SOL    HW135393   4.123   3.409   9.382 -0.3494  1.1997 -0.1999
 7978SOL    HW235394   4.131   3.443   9.525  1.5185  1.1173  1.3696
 7979SOL     OW35395   3.763   3.542  11.419  0.4066  0.0552  0.3766
 7979SOL    HW135396   3.811   3.464  11.446  0.1593 -0.2806 -0.1755
 7979SOL    HW235397   3.791   3.605  11.485  0.4426  0.1767  0.2450
 7980SOL     OW35398   4.198   1.976   8.668  0.2744  0.3217  0.0058
 7980SOL    HW135399   4.105   1.997   8.659 -0.0577 -1.7834 -1.6908
 7980SOL    HW235400   4.230   2.060   8.637 -0.7566 -0.0199 -1.9773
 7981SOL     OW35401   4.086   0.496   3.052 -0.2073  0.3972  0.0046
 7981SOL    HW135402   4.131   0.563   3.103 -0.8580  0.5696  0.3461
 7981SOL    HW235403   4.156   0.474   2.990  0.8234  2.0873  0.5576
 7982SOL     OW35404   4.028   3.076   8.319 -0.9117 -0.1088 -0.4326
 7982SOL    HW135405   4.039   3.037   8.232 -0.4527 -1.3054  0.1513
 7982SOL    HW235406   4.098   3.039   8.373 -0.0047 -1.5343 -2.5795
 7983SOL     OW35407   1.953   1.650   2.156  0.4870  0.4402 -0.1082
 7983SOL    HW135408   1.953   1.591   2.081  0.3385  0.5915 -0.2236
 7983SOL    HW235409   1.896   1.719   2.122  0.7456  0.6219 -0.1722
 7984SOL     OW35410   0.195   2.842   8.858 -0.5010  0.4876 -0.1609
 7984SOL    HW135411   0.196   2.756   8.818  0.4407  0.9325 -1.0608
 7984SOL    HW235412   0.112   2.841   8.906 -0.0474  0.7888  0.6297
 7985SOL     OW35413   2.228   1.997   8.142 -0.3693  0.2569 -0.6393
 7985SOL    HW135414   2.309   1.982   8.095  0.5014 -1.2168  1.3540
 7985SOL    HW235415   2.179   2.053   8.082 -2.0562 -0.5390 -0.0338
 7986SOL     OW35416   0.651   4.550   3.174  0.5770 -0.5159 -0.6953
 7986SOL    HW135417   0.743   4.524   3.164  0.9110 -0.2924  1.8570
 7986SOL    HW235418   0.612   4.463   3.167 -0.5069  0.0250 -1.4225
 7987SOL     OW35419   0.129   2.748   9.247  0.4783 -0.2603 -0.0923
 7987SOL    HW135420   0.110   2.768   9.339 -2.2474  0.9050 -0.9033
 7987SOL    HW235421   0.219   2.716   9.257  0.1377 -0.6834  1.5357
 7988SOL     OW35422   4.117   4.674  15.055 -0.1975 -0.1679 -0.4838
 7988SOL    HW135423   4.141   0.035  15.015  1.4256 -1.6659 -2.5882
 7988SOL    HW235424   4.071   4.624  14.987  0.1632  0.3578 -1.1140
 7989SOL     OW35425   1.201   4.220   1.013  0.3432 -0.1312  0.4623
 7989SOL    HW135426   1.247   4.209   1.096 -0.6312  0.6421  1.1051
 7989SOL    HW235427   1.116   4.181   1.036  0.3089 -1.4262 -1.8197
 7990SOL     OW35428   2.698   2.828  16.295 -0.3959  0.3305 -0.3288
 7990SOL    HW135429   2.679   2.748  16.247  0.2671  0.0494 -0.1185
 7990SOL    HW235430   2.640   2.898  16.265  1.2305  1.5929 -0.5236
 7991SOL     OW35431   3.369   2.111   5.831  0.2817  0.3217  0.0789
 7991SOL    HW135432   3.400   2.095   5.920  1.3100  1.9980  0.0372
 7991SOL    HW235433   3.378   2.206   5.840 -1.8684  0.5764 -0.5208
 7992SOL     OW35434   1.983   4.500   0.665 -0.9285 -0.0275  0.2286
 7992SOL    HW135435   1.972   4.420   0.716  0.0977 -1.4638 -1.7926
 7992SOL    HW235436   1.892   4.509   0.638 -1.1868  0.3381  1.2290
 7993SOL     OW35437   1.673   2.923   7.701 -0.4749 -0.1112 -0.4428
 7993SOL    HW135438   1.689   3.001   7.648 -0.9673  0.1144 -0.2550
 7993SOL    HW235439   1.665   2.854   7.634  2.6738  1.4251 -2.4343
 7994SOL     OW35440   3.278   2.074   3.755 -0.2753  0.3296  0.3406
 7994SOL    HW135441   3.223   2.074   3.676 -0.3122 -0.9344  0.3655
 7994SOL    HW235442   3.288   1.979   3.758 -3.3245  0.0695  1.9753
 7995SOL     OW35443   1.874   2.283   9.966 -0.4613  0.3663 -0.4711
 7995SOL    HW135444   1.839   2.361  10.009 -2.0355 -0.2156 -0.6941
 7995SOL    HW235445   1.805   2.227  10.001 -2.1774  3.0191  0.4060
 7996SOL     OW35446   2.208   2.301   3.428 -1.1011  0.2276 -0.8307
 7996SOL    HW135447   2.275   2.369   3.445  0.2951 -1.2162 -0.5386
 7996SOL    HW235448   2.249   2.220   3.459 -2.7897 -0.6485 -0.9264
 7997SOL     OW35449   2.950   0.792   7.535  0.0782 -0.4789 -0.2150
 7997SOL    HW135450   3.013   0.753   7.596 -2.7016 -1.8464  1.7611
 7997SOL    HW235451   2.964   0.737   7.457 -1.7783  0.7750 -1.4310
 7998SOL     OW35452   3.676   3.355  15.227 -0.1440  0.3596 -0.3619
 7998SOL    HW135453   3.654   3.443  15.257  0.9314  0.9246 -1.1950
 7998SOL    HW235454   3.764   3.348  15.262 -0.7499  1.8551  1.4353
 7999SOL     OW35455   0.523   1.360  11.737 -0.3217  0.0945 -0.1238
 7999SOL    HW135456   0.573   1.441  11.725 -0.4088  0.0825 -0.5706
 7999SOL    HW235457   0.472   1.350  11.657 -1.9587 -1.8578  1.1884
 8000SOL     OW35458   1.504   1.418  17.280  0.8530  0.0641  0.3724
 8000SOL    HW135459   1.436   1.352  17.267  2.1905 -0.8918 -1.8041
 8000SOL    HW235460   1.449   1.494  17.263  2.3915  0.3511 -3.2137
 8001SOL     OW35461   2.538   4.191   4.984  0.0918 -0.3744 -1.0532
 8001SOL    HW135462   2.595   4.266   4.968  1.3916 -0.3798  3.5892
 8001SOL    HW235463   2.607   4.128   5.003  0.2087  0.0285 -0.1510
 8002SOL     OW35464   0.809   3.362   9.036 -0.1654 -0.3932  0.4630
 8002SOL    HW135465   0.748   3.417   9.086 -0.6548 -0.0455 -0.5045
 8002SOL    HW235466   0.768   3.276   9.036  1.2959 -1.0964 -1.8436
 8003SOL     OW35467   2.266   1.533   3.717 -0.3597  0.7699 -0.1780
 8003SOL    HW135468   2.180   1.505   3.685  0.1868  0.7046 -1.5649
 8003SOL    HW235469   2.313   1.539   3.634  0.3185 -2.1410 -0.0298
 8004SOL     OW35470   0.679   2.109   8.980 -0.2935 -0.1303  0.0742
 8004SOL    HW135471   0.652   2.193   8.942 -0.9375  0.2002  1.2698
 8004SOL    HW235472   0.772   2.105   8.958  0.0605  0.0635  1.5952
 8005SOL     OW35473   3.813   1.401  15.677  0.3595  0.4415  0.1839
 8005SOL    HW135474   3.802   1.487  15.719 -2.3194 -0.0797  0.5607
 8005SOL    HW235475   3.731   1.401  15.627 -0.5721 -0.9697  1.7500
 8006SOL     OW35476   2.822   0.834   9.168  0.6363  0.3072  0.3578
 8006SOL    HW135477   2.841   0.744   9.143  1.9566  0.4118  0.9923
 8006SOL    HW235478   2.859   0.833   9.257  0.2486  0.1346  0.5170
 8007SOL     OW35479   1.534   0.114   6.027 -0.4113  0.8946 -0.2145
 8007SOL    HW135480   1.570   0.181   5.969 -0.7428  1.5476  0.3261
 8007SOL    HW235481   1.532   0.153   6.115 -2.0409 -0.0927  0.1960
 8008SOL     OW35482   1.262   1.266   6.587 -0.3711  0.8141  0.0252
 8008SOL    HW135483   1.354   1.274   6.562 -0.2358  1.3372  0.6889
 8008SOL    HW235484   1.242   1.173   6.581 -2.3407  1.2768 -0.3878
 8009SOL     OW35485   0.936   2.791   6.899 -0.1776  0.0715 -0.5191
 8009SOL    HW135486   0.859   2.800   6.843  0.5037 -0.6628 -1.5584
 8009SOL    HW235487   0.992   2.813   6.825 -0.3054  1.1591 -0.3064
 8010SOL     OW35488   0.497   2.589  15.575  0.5903  0.0957 -0.2391
 8010SOL    HW135489   0.550   2.668  15.582  0.2701  0.0320  2.9786
 8010SOL    HW235490   0.527   2.534  15.647 -0.0850  0.5254  0.3705
 8011SOL     OW35491   0.148   4.042   9.937 -0.1000  0.0705 -0.7012
 8011SOL    HW135492   0.221   4.080   9.987  0.7872 -0.1979 -1.7996
 8011SOL    HW235493   0.103   3.983   9.998 -0.8287 -0.0200 -1.3358
 8012SOL     OW35494   0.094   3.810   3.093 -0.0224 -0.2664 -0.1615
 8012SOL    HW135495   0.186   3.798   3.113 -0.0158  0.8213  0.4123
 8012SOL    HW235496   0.054   3.766   3.168  0.2927 -0.0968  0.1040
 8013SOL     OW35497   1.915   0.235   3.423  0.1123 -0.0241 -0.6961
 8013SOL    HW135498   1.978   0.268   3.488  0.5383 -0.3093 -0.9644
 8013SOL    HW235499   1.957   0.155   3.392  0.1109 -0.6539  0.9415
 8014SOL     OW35500   0.518   2.041   4.656 -0.0616 -0.1090  0.3686
 8014SOL    HW135501   0.461   2.066   4.728 -0.3735  1.2188 -0.3385
 8014SOL    HW235502   0.460   2.021   4.583  1.3286  4.2807 -1.9396
 8015SOL     OW35503   2.010   3.449   8.795 -0.5805 -0.1105  0.1869
 8015SOL    HW135504   2.023   3.474   8.703 -3.8636 -0.2976 -0.3408
 8015SOL    HW235505   2.038   3.359   8.780  0.3575  0.4936 -1.6775
 8016SOL     OW35506   1.549   4.187   2.577 -0.1216  0.1362 -0.5589
 8016SOL    HW135507   1.467   4.230   2.603 -0.0696  0.1181 -0.3637
 8016SOL    HW235508   1.521   4.137   2.500  0.4735  0.4803 -0.9940
 8017SOL     OW35509   1.260   2.943  11.039 -0.3303 -0.3117 -0.1020
 8017SOL    HW135510   1.277   2.965  10.948 -1.5684  3.0995  0.4938
 8017SOL    HW235511   1.171   2.909  11.027 -0.8925  0.4815  1.7554
 8018SOL     OW35512   0.941   2.605  10.794 -0.0173  0.3071  0.5425
 8018SOL    HW135513   1.025   2.650  10.794  0.1464 -0.0006  0.2097
 8018SOL    HW235514   0.888   2.677  10.761 -0.3150 -0.0794  0.1759
 8019SOL     OW35515   0.589   3.387   7.048  0.1900  0.3521  0.4459
 8019SOL    HW135516   0.654   3.317   7.043  0.3024  0.3177  2.2823
 8019SOL    HW235517   0.641   3.460   7.082  0.7555  0.6751 -1.1262
 8020SOL     OW35518   1.912   4.457  16.653 -0.2274 -0.3930 -0.4881
 8020SOL    HW135519   1.818   4.469  16.638 -0.1138  1.7929  0.6074
 8020SOL    HW235520   1.933   4.538  16.699 -1.1027 -0.8149  0.6816
 8021SOL     OW35521   4.651   3.461   3.779 -0.1829  0.0349  0.5170
 8021SOL    HW135522   4.608   3.399   3.720 -0.7597  2.1701 -1.3663
 8021SOL    HW235523   4.708   3.408   3.833  0.4061 -1.1765 -1.2816
 8022SOL     OW35524   0.056   1.526   2.669 -0.0388 -0.4722 -0.1370
 8022SOL    HW135525   0.122   1.590   2.642 -1.4457  0.6281 -0.9528
 8022SOL    HW235526   0.099   1.503   2.751  1.7603  0.9591 -0.6760
 8023SOL     OW35527   1.808   1.948  10.693 -0.2575 -0.6687  0.1683
 8023SOL    HW135528   1.887   1.963  10.745  0.3442 -2.1906 -0.3048
 8023SOL    HW235529   1.733   1.951  10.752 -1.0145  1.0699 -0.8906
 8024SOL     OW35530   1.125   1.781   3.846  0.2904  0.2242 -0.9696
 8024SOL    HW135531   1.080   1.778   3.931  1.2916 -2.9038 -0.5464
 8024SOL    HW235532   1.199   1.841   3.853 -0.8197  1.1492  2.6775
 8025SOL     OW35533   0.986   4.224   8.249  0.6736 -0.0736 -0.1519
 8025SOL    HW135534   1.052   4.291   8.264 -0.4977  1.3917 -1.5965
 8025SOL    HW235535   0.968   4.241   8.156  1.9156 -0.4226 -0.4585
 8026SOL     OW35536   0.976   3.341   4.526  0.0382 -0.7454  0.3530
 8026SOL    HW135537   0.914   3.376   4.590  2.5834 -0.3798  2.6284
 8026SOL    HW235538   1.025   3.273   4.573 -0.3089 -1.0342  0.2966
 8027SOL     OW35539   3.476   4.233   5.736  0.3051 -0.4757  0.1487
 8027SOL    HW135540   3.400   4.249   5.680  0.5208  2.4267  0.7255
 8027SOL    HW235541   3.426   4.198   5.810 -2.2699 -0.0518 -1.3839
 8028SOL     OW35542   3.503   3.182  17.079  0.1008  0.3652  0.5893
 8028SOL    HW135543   3.555   3.104  17.058 -1.2102  0.4963 -3.0167
 8028SOL    HW235544   3.564   3.249  17.048  0.3920  0.7388  1.9456
 8029SOL     OW35545   4.571   1.369   1.804  0.2525  0.0475  0.0254
 8029SOL    HW135546   4.567   1.461   1.828 -1.4142  0.4784 -1.9285
 8029SOL    HW235547   4.624   1.345   1.880 -1.2111  1.0618  1.3383
 8030SOL     OW35548   3.891   1.374   7.249 -0.0946  0.2191 -0.4059
 8030SOL    HW135549   3.858   1.440   7.311  0.7081  0.7880 -0.5819
 8030SOL    HW235550   3.980   1.409   7.258 -1.0470  3.3365 -2.8122
 8031SOL     OW35551   1.227   4.275   2.958  0.2327  0.5792  0.2305
 8031SOL    HW135552   1.182   4.235   3.032  0.2100  0.1995  0.0146
 8031SOL    HW235553   1.194   4.364   2.968 -1.3229  0.0788 -0.3269
 8032SOL     OW35554   2.538   4.033   5.788  0.7602 -0.1398 -0.3829
 8032SOL    HW135555   2.559   3.965   5.725 -0.9812  0.1260 -1.2385
 8032SOL    HW235556   2.468   3.995   5.841 -1.1110  1.0688 -1.9604
 8033SOL     OW35557   0.701   0.507  12.668  0.0984 -0.6502 -0.5370
 8033SOL    HW135558   0.628   0.446  12.681  0.1397 -1.0028 -1.9207
 8033SOL    HW235559   0.783   0.458  12.667  0.9941  0.8670 -0.1546
 8034SOL     OW35560   0.873   0.945   2.955 -0.0005 -0.2490  0.0715
 8034SOL    HW135561   0.863   1.029   3.001  0.4571 -0.7738  1.1127
 8034SOL    HW235562   0.959   0.963   2.916  1.0213 -0.8357  2.0750
 8035SOL     OW35563   0.266   2.374   7.333  0.7518 -0.0326  0.4691
 8035SOL    HW135564   0.251   2.455   7.283 -1.7624 -0.9949 -0.3325
 8035SOL    HW235565   0.314   2.331   7.263 -0.0070  0.6912 -0.4969
 8036SOL     OW35566   3.077   4.448  11.053 -0.2412  0.2339 -0.3161
 8036SOL    HW135567   3.067   4.355  11.034 -3.8474  0.7832 -1.0553
 8036SOL    HW235568   3.168   4.451  11.084 -0.5169 -0.4305  0.5586
 8037SOL     OW35569   1.129   0.103   8.868  0.8623  0.5107 -0.1467
 8037SOL    HW135570   1.060   0.106   8.802 -1.7648 -1.9427  2.5110
 8037SOL    HW235571   1.106   0.023   8.914 -0.0973  0.7429 -0.2088
 8038SOL     OW35572   2.113   4.147   2.834 -0.6455  0.2680  0.7948
 8038SOL    HW135573   2.161   4.179   2.757 -2.8084  0.9089 -0.2840
 8038SOL    HW235574   2.023   4.157   2.804 -0.4748 -2.5473 -0.6606
 8039SOL     OW35575   2.405   2.158   4.778 -0.0309 -0.3185  0.5635
 8039SOL    HW135576   2.452   2.088   4.733  1.4149 -0.0917  1.7075
 8039SOL    HW235577   2.448   2.147   4.863 -0.4375  0.6403  0.8944
 8040SOL     OW35578   1.684   1.444   9.009 -0.1526 -0.1896 -0.5456
 8040SOL    HW135579   1.640   1.421   9.091 -0.5207  0.7883 -0.4601
 8040SOL    HW235580   1.757   1.497   9.040 -1.1587  1.4704 -0.9797
 8041SOL     OW35581   2.933   2.212   4.614  0.1020  0.1313  0.4156
 8041SOL    HW135582   2.898   2.158   4.686  1.9783 -0.4552  0.8983
 8041SOL    HW235583   3.013   2.160   4.599 -0.2938 -0.1476 -0.7188
 8042SOL     OW35584   2.521   2.752   0.829  0.1249  0.0081  0.0920
 8042SOL    HW135585   2.506   2.839   0.792  4.1501  1.1858  1.2601
 8042SOL    HW235586   2.600   2.779   0.876  1.8692 -1.5011 -2.0046
 8043SOL     OW35587   0.487   1.619  16.463 -0.5817 -0.3020 -0.4851
 8043SOL    HW135588   0.446   1.590  16.544  3.8459  1.3481  2.3233
 8043SOL    HW235589   0.421   1.676  16.424 -0.9443 -0.3656  0.0470
 8044SOL     OW35590   2.452   0.157   7.739  0.0661 -0.1451  0.1560
 8044SOL    HW135591   2.449   0.218   7.665  0.8600  1.5055  1.4965
 8044SOL    HW235592   2.543   0.165   7.766  0.1395  2.1410 -0.7856
 8045SOL     OW35593   0.941   2.449   8.383  0.3012 -0.1308  0.6746
 8045SOL    HW135594   0.915   2.396   8.308 -1.2691 -0.2509  1.2960
 8045SOL    HW235595   0.921   2.540   8.359  0.3267 -0.7437 -1.6726
 8046SOL     OW35596   0.984   1.349   2.618  0.3473 -0.1209 -0.7726
 8046SOL    HW135597   0.908   1.348   2.559 -0.9162 -3.6316  0.8759
 8046SOL    HW235598   1.038   1.408   2.566  1.7761  0.1077  1.0131
 8047SOL     OW35599   3.718   0.171   4.220 -0.3937  0.3833 -0.1487
 8047SOL    HW135600   3.689   0.161   4.310  1.3376 -1.9289  0.1602
 8047SOL    HW235601   3.687   0.259   4.198 -1.3877 -0.1644 -0.9539
 8048SOL     OW35602   4.160   1.126   7.893  0.0516 -0.2910 -0.1745
 8048SOL    HW135603   4.118   1.072   7.959 -1.2559  1.8747  0.7621
 8048SOL    HW235604   4.111   1.093   7.817 -0.2618  1.6252 -0.8078
 8049SOL     OW35605   0.688   4.578   8.802 -0.5377  0.1095 -0.3184
 8049SOL    HW135606   0.663   4.569   8.894 -3.1260  0.6650 -0.9717
 8049SOL    HW235607   0.603   4.580   8.757 -1.5658  0.9376  1.6532
 8050SOL     OW35608   1.304   0.259   1.630 -0.2110  0.1609 -0.0178
 8050SOL    HW135609   1.223   0.268   1.681  0.4587  0.4914  0.9787
 8050SOL    HW235610   1.364   0.289   1.698 -0.9512 -1.8105  1.5077
 8051SOL     OW35611   4.620   0.588   7.049 -0.1844  0.0018  0.4598
 8051SOL    HW135612   4.607   0.663   6.992  1.0073 -0.1072  0.0468
 8051SOL    HW235613   4.681   0.540   6.993 -0.2043 -0.0111  0.4492
 8052SOL     OW35614   1.121   4.721   4.525  0.0920  0.4176 -0.5536
 8052SOL    HW135615   1.208   4.692   4.497  0.0283  1.4942 -1.8407
 8052SOL    HW235616   1.072   4.715   4.444 -2.0317 -0.3210  0.7772
 8053SOL     OW35617   3.680   4.089   1.326  0.0114  0.6216  0.2366
 8053SOL    HW135618   3.775   4.095   1.313 -0.0532  0.0991 -0.4534
 8053SOL    HW235619   3.688   4.087   1.421 -0.4905  1.7578  0.3072
 8054SOL     OW35620   1.613   4.227   4.717 -0.4511  0.2401  0.3411
 8054SOL    HW135621   1.658   4.275   4.648  1.7834 -1.6653  0.4611
 8054SOL    HW235622   1.657   4.142   4.710 -0.7880  0.2026 -1.2355
 8055SOL     OW35623   3.980   0.483   3.372  0.1478  0.1738 -0.2044
 8055SOL    HW135624   3.888   0.462   3.360  0.1529 -0.0564  0.1643
 8055SOL    HW235625   4.013   0.395   3.389  3.1474  1.9011  3.1359
 8056SOL     OW35626   4.512   1.038   2.026  0.3199  0.0744  0.0483
 8056SOL    HW135627   4.602   1.042   1.995 -0.2417  0.3293 -1.5499
 8056SOL    HW235628   4.501   0.943   2.036  2.5566 -0.2114 -0.3877
 8057SOL     OW35629   4.649   2.323   3.523  0.8116  0.3989  0.2509
 8057SOL    HW135630   0.009   2.276   3.538  0.4656 -0.0602  0.7360
 8057SOL    HW235631   4.640   2.356   3.612  2.1723  0.3737  0.4063
 8058SOL     OW35632   2.767   2.024   5.055 -0.2218 -0.1166 -0.0389
 8058SOL    HW135633   2.732   2.008   5.142  0.2904 -1.0322 -0.0007
 8058SOL    HW235634   2.699   1.978   5.004  1.2508 -1.3047 -0.9326
 8059SOL     OW35635   4.226   1.524   7.727 -0.6885  0.4793 -0.1306
 8059SOL    HW135636   4.189   1.543   7.814 -1.6169 -1.0800 -0.1833
 8059SOL    HW235637   4.255   1.611   7.699 -0.7813  1.6575  3.4275
 8060SOL     OW35638   1.407   1.182  14.260  0.4181  0.3126 -0.3157
 8060SOL    HW135639   1.483   1.141  14.217  0.8935 -0.5625  1.3587
 8060SOL    HW235640   1.343   1.161  14.192  1.6588 -0.4321 -1.2513
 8061SOL     OW35641   2.702   4.263  13.476  0.1081 -0.1978  0.4948
 8061SOL    HW135642   2.746   4.262  13.561  1.6667 -3.8387 -0.3755
 8061SOL    HW235643   2.744   4.188  13.435  1.4568  0.9419 -0.2179
 8062SOL     OW35644   0.870   0.879   5.247 -0.4673  0.0958  0.1146
 8062SOL    HW135645   0.861   0.954   5.188 -0.3488 -1.9063 -2.4350
 8062SOL    HW235646   0.786   0.838   5.226 -1.4874  2.1411  0.1961
 8063SOL     OW35647   3.013   0.732  16.140 -0.0009 -0.1903  0.2399
 8063SOL    HW135648   3.054   0.654  16.104 -0.3382  0.0876 -0.7426
 8063SOL    HW235649   3.093   0.782  16.151 -0.5043  0.5140  0.6749
 8064SOL     OW35650   4.226   1.579   5.362  0.2078 -0.3513  0.2477
 8064SOL    HW135651   4.151   1.521   5.376  0.2210 -0.4459 -0.0697
 8064SOL    HW235652   4.289   1.513   5.333  0.0236 -0.1747 -0.5591
 8065SOL     OW35653   1.274   0.044   5.917  0.0521  0.3416  0.1351
 8065SOL    HW135654   1.286   0.016   5.826  2.1168  0.7728  0.2591
 8065SOL    HW235655   1.361   0.057   5.956  0.7696 -2.1760 -0.6037
 8066SOL     OW35656   3.712   3.377   9.351  0.2720 -0.1817  0.0675
 8066SOL    HW135657   3.706   3.311   9.419 -1.1105  0.1157  0.2415
 8066SOL    HW235658   3.731   3.329   9.270 -0.9621  2.0941 -1.6062
 8067SOL     OW35659   2.954   2.310   2.235  0.0342  0.2342 -0.0385
 8067SOL    HW135660   2.944   2.405   2.237  3.4468  0.5770  0.8911
 8067SOL    HW235661   2.982   2.293   2.145 -0.6306  0.4637 -0.2906
 8068SOL     OW35662   4.197   4.436  17.664  0.0692  0.0863 -0.4746
 8068SOL    HW135663   4.229   4.396   0.054  0.6714 -0.1414 -0.8210
 8068SOL    HW235664   4.243   4.516  17.688 -0.1396 -0.1695  0.7912
 8069SOL     OW35665   1.772   3.077   5.013  0.0208  0.7651 -0.4715
 8069SOL    HW135666   1.716   3.128   5.072  0.7522  0.3409  0.5855
 8069SOL    HW235667   1.696   3.042   4.965 -2.3812  1.8415  2.5575
 8070SOL     OW35668   0.404   4.176  11.060 -0.0901 -0.0823 -0.7499
 8070SOL    HW135669   0.373   4.113  11.125 -1.4839  0.0658 -1.2860
 8070SOL    HW235670   0.497   4.188  11.080 -0.3154 -0.6279  0.5953
 8071SOL     OW35671   3.763   2.379  10.764  0.2520 -0.7385 -0.4965
 8071SOL    HW135672   3.784   2.468  10.794  0.6584 -0.7195 -0.8420
 8071SOL    HW235673   3.674   2.399  10.735  0.3591 -0.9662 -0.9722
 8072SOL     OW35674   0.950   1.672  11.323 -0.3998  0.1293  0.2996
 8072SOL    HW135675   0.945   1.579  11.347  0.7646  0.0685  0.3317
 8072SOL    HW235676   0.928   1.704  11.410 -0.1587 -0.2562  0.5036
 8073SOL     OW35677   2.632   2.082   7.299  0.5343 -0.0060 -0.1262
 8073SOL    HW135678   2.624   2.038   7.214 -2.6104  2.2266 -0.9549
 8073SOL    HW235679   2.542   2.103   7.321  0.7609 -0.2363  1.0361
 8074SOL     OW35680   1.299   0.675   9.756  0.0707 -0.1514  0.0348
 8074SOL    HW135681   1.212   0.646   9.726  0.1482 -0.2002 -0.1436
 8074SOL    HW235682   1.321   0.714   9.671 -1.4166  0.3296 -0.1283
 8075SOL     OW35683   2.839   2.367  13.470  0.1101 -0.3942  0.0532
 8075SOL    HW135684   2.894   2.304  13.516  1.4459  1.3006  0.7706
 8075SOL    HW235685   2.792   2.316  13.403 -1.6035  2.1090 -0.6386
 8076SOL     OW35686   3.789   2.997   2.253  0.4750 -0.4940  0.0840
 8076SOL    HW135687   3.719   2.932   2.262  1.0253 -0.8438  1.8135
 8076SOL    HW235688   3.825   2.980   2.166 -0.5392 -0.3818 -0.3659
 8077SOL     OW35689   3.207   1.176   0.706  0.2871  0.2576 -0.3284
 8077SOL    HW135690   3.246   1.250   0.659  2.6674 -0.2105  0.9315
 8077SOL    HW235691   3.145   1.141   0.641 -1.0361  0.3283  0.8904
 8078SOL     OW35692   1.555   3.729  12.726  0.0454 -0.8711 -0.3517
 8078SOL    HW135693   1.561   3.678  12.646 -1.2063  1.8411 -2.1794
 8078SOL    HW235694   1.466   3.715  12.757 -0.0756 -2.2318 -1.3357
 8079SOL     OW35695   1.256   1.352  11.250  1.0864  0.0831  0.1083
 8079SOL    HW135696   1.199   1.404  11.307 -0.8224  0.9633 -2.5732
 8079SOL    HW235697   1.273   1.271  11.297  0.2976 -0.3835 -0.4066
 8080SOL     OW35698   4.323   0.302   3.189 -0.7163 -0.3968  0.1832
 8080SOL    HW135699   4.333   0.359   3.266 -0.9199  1.4765 -1.1751
 8080SOL    HW235700   4.330   0.361   3.114 -0.8121  1.3961  1.5687
 8081SOL     OW35701   1.778   2.222   1.997 -0.2874  0.1794 -0.4627
 8081SOL    HW135702   1.713   2.269   1.945  3.0021  0.0223 -4.7187
 8081SOL    HW235703   1.830   2.302   1.994 -0.5648  0.4352  1.2481
 8082SOL     OW35704   3.115   4.144   6.348  0.4713 -0.0432 -0.8012
 8082SOL    HW135705   3.115   4.078   6.416  2.1593  1.2092  0.4283
 8082SOL    HW235706   3.179   4.207   6.383 -2.3149  2.1150  0.4607
 8083SOL     OW35707   0.733   0.430   0.447 -0.1855  0.1069  0.0439
 8083SOL    HW135708   0.794   0.488   0.402 -0.8329  1.5022  0.9927
 8083SOL    HW235709   0.650   0.458   0.408 -0.5373 -1.0982 -0.0986
 8084SOL     OW35710   4.226   3.129  11.526  0.0059 -1.0166  0.4854
 8084SOL    HW135711   4.193   3.051  11.572  0.2816  0.5180  3.2872
 8084SOL    HW235712   4.253   3.180  11.602  2.5208 -1.0168 -0.4285
 8085SOL     OW35713   0.387   0.835   5.741 -0.2736 -0.3105 -0.6032
 8085SOL    HW135714   0.428   0.898   5.682  2.2269 -2.5465 -1.2290
 8085SOL    HW235715   0.338   0.783   5.677 -2.1160  1.3401 -0.5726
 8086SOL     OW35716   3.233   3.095   8.922  0.3975 -0.2313 -0.5642
 8086SOL    HW135717   3.297   3.125   8.987  0.9360 -1.0413 -0.7195
 8086SOL    HW235718   3.246   3.145   8.841  1.1430 -0.1239 -0.3813
 8087SOL     OW35719   2.927   1.257   6.924 -0.1235 -0.0612  0.7130
 8087SOL    HW135720   2.839   1.292   6.931  0.0195  0.1607  1.4051
 8087SOL    HW235721   2.968   1.332   6.881  1.6215 -1.1244  0.4766
 8088SOL     OW35722   2.035   3.710   6.304  0.1479 -0.2928 -0.3537
 8088SOL    HW135723   1.941   3.718   6.317 -0.1026  0.4164 -2.4535
 8088SOL    HW235724   2.047   3.749   6.217 -1.2462  0.2431 -0.3054
 8089SOL     OW35725   4.590   4.476  11.710  0.3890  0.1428  0.0526
 8089SOL    HW135726   4.646   4.540  11.666  0.0486 -0.2856 -0.9904
 8089SOL    HW235727   4.512   4.480  11.656  1.1885  0.2593 -1.1051
 8090SOL     OW35728   0.677   2.178   5.473  0.1484 -0.2240 -0.2786
 8090SOL    HW135729   0.663   2.271   5.492  1.1344 -0.3359  0.9768
 8090SOL    HW235730   0.631   2.168   5.389  0.3874  1.2341 -0.5821
 8091SOL     OW35731   0.889   2.275  17.206  0.4238 -0.5740  0.2104
 8091SOL    HW135732   0.954   2.340  17.178  0.7949 -1.3675 -0.7892
 8091SOL    HW235733   0.866   2.230  17.125 -1.6588 -0.4486  0.7451
 8092SOL     OW35734   2.884   3.907   2.481 -0.2358  0.1310 -0.1432
 8092SOL    HW135735   2.889   3.991   2.436 -1.1873  0.0811 -0.3429
 8092SOL    HW235736   2.967   3.858   2.476  0.3180  0.9999  0.5222
 8093SOL     OW35737   4.588   0.752   5.078 -0.0976 -0.3851  0.0622
 8093SOL    HW135738   4.642   0.801   5.139  1.0506 -0.2164 -1.0806
 8093SOL    HW235739   4.645   0.686   5.038  0.8722 -0.8332  2.2114
 8094SOL     OW35740   4.583   1.237   5.794  0.0559 -0.4347  0.1737
 8094SOL    HW135741   4.528   1.166   5.761 -0.3894 -0.3846  0.8221
 8094SOL    HW235742   4.658   1.190   5.829 -0.4806 -1.8667 -0.5918
 8095SOL     OW35743   0.593   1.910  15.806 -0.0064 -0.5051 -0.2131
 8095SOL    HW135744   0.536   1.922  15.730 -2.9865  0.1133  2.0760
 8095SOL    HW235745   0.645   1.834  15.783 -1.5073 -1.7629  0.5039
 8096SOL     OW35746   1.823   4.682   4.295  0.6758  0.2417 -0.4306
 8096SOL    HW135747   1.916   4.682   4.314  0.4950  0.8493  0.4529
 8096SOL    HW235748   1.813   0.055   4.301  0.9225  0.1876  0.8394
 8097SOL     OW35749   1.597   1.540   6.305  0.2258 -0.1197 -0.4228
 8097SOL    HW135750   1.607   1.570   6.395 -0.2392  1.6856 -0.9597
 8097SOL    HW235751   1.675   1.578   6.263  0.1506  0.2067 -0.2675
 8098SOL     OW35752   3.948   0.659  10.783  0.0174  0.0891  0.5092
 8098SOL    HW135753   3.873   0.657  10.724 -0.8287 -0.3646  1.5927
 8098SOL    HW235754   3.904   0.641  10.866 -2.4459  0.7420 -0.6211
 8099SOL     OW35755   3.097   4.118  15.642 -0.2719 -0.0564 -0.3096
 8099SOL    HW135756   3.075   4.206  15.611  0.4029 -0.8719 -3.0948
 8099SOL    HW235757   3.062   4.120  15.731 -0.5609 -1.6240 -0.3793
 8100SOL     OW35758   1.077   4.442   3.688 -0.6442  0.2584  0.3569
 8100SOL    HW135759   1.057   4.356   3.726 -0.2995  0.9144  2.0005
 8100SOL    HW235760   1.075   4.493   3.769  1.9901  0.6363  0.1738
 8101SOL     OW35761   2.145   0.167  14.852  0.0584 -0.5635 -0.2103
 8101SOL    HW135762   2.228   0.126  14.830  0.4318  0.5366 -0.8667
 8101SOL    HW235763   2.098   0.126  14.780 -0.8398 -1.0168  0.6415
 8102SOL     OW35764   2.470   0.420   9.170  0.2595 -0.2047 -0.4544
 8102SOL    HW135765   2.431   0.483   9.230  0.7263 -0.9897  0.6693
 8102SOL    HW235766   2.501   0.350   9.227  1.4364 -0.0197 -0.8536
 8103SOL     OW35767   4.143   4.337   4.983 -0.4623 -0.4679 -0.1281
 8103SOL    HW135768   4.127   4.427   4.954 -1.5074 -0.4549  0.4888
 8103SOL    HW235769   4.184   4.292   4.909  0.6325 -0.5806  0.5464
 8104SOL     OW35770   4.283   1.063   6.563 -0.1630  0.2206 -0.4138
 8104SOL    HW135771   4.272   0.969   6.550  0.6337 -0.1048  1.2566
 8104SOL    HW235772   4.219   1.077   6.632 -0.1183  1.8421 -0.7050
 8105SOL     OW35773   0.772   4.323  12.440  0.0214 -0.1180 -0.0586
 8105SOL    HW135774   0.814   4.267  12.374  0.2521  0.6580 -0.5753
 8105SOL    HW235775   0.809   4.409  12.418  2.5587 -1.6225 -1.7002
 8106SOL     OW35776   2.075   2.580   7.781  0.1287  0.5184  0.0595
 8106SOL    HW135777   2.061   2.534   7.698  1.5788  0.2986 -0.0514
 8106SOL    HW235778   1.992   2.566   7.827  0.8524 -1.1331  0.8736
 8107SOL     OW35779   1.874   3.577   1.314  0.4138  0.5132  0.0122
 8107SOL    HW135780   1.783   3.570   1.345  0.2134  0.7731 -0.5134
 8107SOL    HW235781   1.877   3.593   1.220 -0.9673 -0.4769 -0.2072
 8108SOL     OW35782   1.187   1.323   7.335  0.1795  0.3642  0.0238
 8108SOL    HW135783   1.217   1.378   7.406  0.4275  0.8262 -0.4413
 8108SOL    HW235784   1.242   1.358   7.265 -0.9963 -0.2254 -1.2240
 8109SOL     OW35785   4.210   1.920   7.051  0.3742 -0.4214 -0.2980
 8109SOL    HW135786   4.222   1.861   7.126 -1.9684 -0.2745  0.2179
 8109SOL    HW235787   4.137   1.974   7.083  0.0527 -1.7245  1.1638
 8110SOL     OW35788   1.204   0.959   2.462 -0.7310  0.1995 -0.7798
 8110SOL    HW135789   1.222   0.935   2.553 -0.9195  0.7543 -0.5972
 8110SOL    HW235790   1.112   0.981   2.474 -1.1129 -2.1990  0.7107
 8111SOL     OW35791   0.138   0.785   2.550 -0.3187  0.5076  0.4696
 8111SOL    HW135792   0.214   0.834   2.580  0.7424 -3.1490  3.8195
 8111SOL    HW235793   0.105   0.757   2.636 -1.1973  1.9144  0.5906
 8112SOL     OW35794   0.765   4.136   1.620 -0.0565  0.1550 -0.2415
 8112SOL    HW135795   0.818   4.200   1.668 -0.2256 -0.4198  0.7116
 8112SOL    HW235796   0.759   4.175   1.533  0.4448  1.6061  0.3733
 8113SOL     OW35797   4.412   3.219  16.195 -0.5647 -0.6255  0.7637
 8113SOL    HW135798   4.432   3.136  16.153 -0.2558  0.8119 -1.9357
 8113SOL    HW235799   4.317   3.216  16.209 -0.7350 -0.9725 -0.4494
 8114SOL     OW35800   3.218   0.146  12.581  0.0763 -0.0344  0.0568
 8114SOL    HW135801   3.282   0.147  12.511  2.1510  0.0988  1.9586
 8114SOL    HW235802   3.202   0.239  12.600  0.0654 -0.2111  0.9237
 8115SOL     OW35803   2.469   3.381   6.143 -0.0170 -0.0673 -0.1350
 8115SOL    HW135804   2.376   3.359   6.153  0.1186 -0.9042 -0.6387
 8115SOL    HW235805   2.474   3.476   6.138 -0.7657 -0.0610 -0.7928
 8116SOL     OW35806   4.117   1.648   7.448 -0.2352  0.0533 -0.0808
 8116SOL    HW135807   4.139   1.740   7.435  0.4437 -0.1781 -0.5642
 8116SOL    HW235808   4.046   1.626   7.387  0.2246  1.0493 -0.9638
 8117SOL     OW35809   4.520   0.376   6.714 -0.9792  0.4890 -0.1168
 8117SOL    HW135810   4.436   0.407   6.746 -0.5628  2.0272 -0.5162
 8117SOL    HW235811   4.571   0.433   6.772 -0.1410  0.6852 -1.0526
 8118SOL     OW35812   3.034   1.788   2.778 -0.0290  0.4239 -0.2892
 8118SOL    HW135813   3.048   1.881   2.794 -2.1233  0.4045  1.6017
 8118SOL    HW235814   3.084   1.783   2.696  0.3438  0.6628 -0.0751
 8119SOL     OW35815   0.536   2.954   8.350 -0.2824  0.8678  0.7851
 8119SOL    HW135816   0.620   2.981   8.388  0.0053 -0.3395  1.0403
 8119SOL    HW235817   0.485   2.985   8.425  0.5859 -0.0504  1.7738
 8120SOL     OW35818   3.861   0.679   4.890 -0.0298 -0.5858 -0.0655
 8120SOL    HW135819   3.811   0.703   4.813 -2.8833 -2.4227  1.2139
 8120SOL    HW235820   3.945   0.698   4.849 -0.2293 -0.4652 -0.4171
 8121SOL     OW35821   0.227   0.729   5.521 -0.8330 -0.1150  0.3830
 8121SOL    HW135822   0.242   0.791   5.450  1.4057 -0.1237  0.8381
 8121SOL    HW235823   0.202   0.647   5.478 -0.8382  0.8909 -1.5522
 8122SOL     OW35824   0.864   3.295  15.085 -0.4061 -0.1473  0.4126
 8122SOL    HW135825   0.769   3.300  15.073 -0.5868  0.8996  2.2035
 8122SOL    HW235826   0.882   3.222  15.025 -0.9687 -0.7304  0.9563
 8123SOL     OW35827   1.767   3.603   6.880  0.3347 -0.3833 -0.2787
 8123SOL    HW135828   1.825   3.546   6.830  0.2578 -0.6464 -0.0630
 8123SOL    HW235829   1.713   3.645   6.813  1.1478 -0.6777 -1.1255
 8124SOL     OW35830   0.043   4.202   5.433 -0.3540  0.2844 -0.3025
 8124SOL    HW135831   4.697   4.136   5.436  1.6595 -1.7007  1.4730
 8124SOL    HW235832   0.036   4.228   5.525 -1.2389  1.7215 -0.7812
 8125SOL     OW35833   1.231   2.997  10.781 -0.1633 -0.0571  0.2382
 8125SOL    HW135834   1.194   3.082  10.803 -0.9747 -0.0921 -0.9838
 8125SOL    HW235835   1.209   3.005  10.688 -1.8254  1.4625  0.7583
 8126SOL     OW35836   3.802   0.167   0.903 -0.0840  0.7849 -0.9501
 8126SOL    HW135837   3.766   0.255   0.915 -0.3884  0.2929  1.8598
 8126SOL    HW235838   3.733   0.122   0.952 -0.3748 -0.2208 -2.2924
 8127SOL     OW35839   4.563   3.269  17.570 -0.1340  0.0829  0.2972
 8127SOL    HW135840   4.524   3.337  17.625 -1.2357  0.0107 -0.3842
 8127SOL    HW235841   4.535   3.190  17.616  1.6466 -1.8390 -1.9206
 8128SOL     OW35842   1.971   3.432   6.219  0.5287 -0.2484  0.3588
 8128SOL    HW135843   1.924   3.389   6.290 -0.1529  0.7270  0.4922
 8128SOL    HW235844   1.949   3.525   6.221  1.4668 -0.0473  1.8041
 8129SOL     OW35845   2.507   3.767   5.012 -0.1266 -0.4739  0.4002
 8129SOL    HW135846   2.599   3.787   4.997 -0.8534  1.4753 -1.4044
 8129SOL    HW235847   2.517   3.683   5.056  0.0445  1.5533  4.1604
 8130SOL     OW35848   0.611   4.094   6.400  0.0150 -0.1377  0.5204
 8130SOL    HW135849   0.650   4.025   6.346  0.9051  0.1375  0.8150
 8130SOL    HW235850   0.639   4.061   6.485  0.1679  1.2246  1.0102
 8131SOL     OW35851   1.395   2.265   6.060  0.2772  0.1515 -0.3106
 8131SOL    HW135852   1.320   2.206   6.063 -0.4038  1.0259 -0.3585
 8131SOL    HW235853   1.365   2.346   6.100  1.0584 -0.7203  2.0774
 8132SOL     OW35854   1.429   1.592   1.737 -0.2895 -0.5131  0.3657
 8132SOL    HW135855   1.508   1.642   1.754  1.2073 -2.2118 -1.5324
 8132SOL    HW235856   1.461   1.505   1.760  0.1886 -0.7712 -1.2600
 8133SOL     OW35857   2.524   1.899  14.792 -0.1220  0.1149 -0.0273
 8133SOL    HW135858   2.606   1.875  14.748 -1.7502 -0.6580 -2.6196
 8133SOL    HW235859   2.533   1.834  14.861  1.1269  0.0931 -0.2156
 8134SOL     OW35860   0.432   3.557   8.345 -0.7451  0.4687 -0.0633
 8134SOL    HW135861   0.444   3.634   8.289 -1.0818  0.9132  0.4843
 8134SOL    HW235862   0.377   3.500   8.291  0.7414 -1.8294  0.8167
 8135SOL     OW35863   0.805   3.805  13.323 -0.1994  0.5802  0.2109
 8135SOL    HW135864   0.861   3.857  13.265 -3.2965  3.1850 -0.3865
 8135SOL    HW235865   0.842   3.717  13.319 -0.4872  0.5574 -1.8103
 8136SOL     OW35866   2.698   1.136   1.116 -0.3678  0.2506 -0.0309
 8136SOL    HW135867   2.754   1.209   1.142  0.0725  0.1848 -0.8196
 8136SOL    HW235868   2.638   1.129   1.191  0.1993 -0.0557  0.3891
 8137SOL     OW35869   0.520   2.774   2.260 -0.1368 -0.6083 -0.2840
 8137SOL    HW135870   0.604   2.809   2.230 -0.5078 -0.5393 -1.2602
 8137SOL    HW235871   0.468   2.824   2.197 -0.8700  0.2390  1.0068
 8138SOL     OW35872   0.088   0.389   2.392 -0.0247 -0.1997 -0.5192
 8138SOL    HW135873   0.158   0.327   2.374 -0.4238 -1.4208  2.1631
 8138SOL    HW235874   0.036   0.370   2.313 -0.8301  0.0351 -0.0480
 8139SOL     OW35875   2.541   0.811   5.976  0.3480  0.1177 -0.0958
 8139SOL    HW135876   2.538   0.716   5.961 -2.1551  0.0994  0.5442
 8139SOL    HW235877   2.500   0.807   6.062 -0.9495  0.3645 -0.7017
 8140SOL     OW35878   0.360   2.508   6.343  0.0716 -0.3574  0.2163
 8140SOL    HW135879   0.291   2.470   6.288 -1.2185 -0.6385  2.0072
 8140SOL    HW235880   0.429   2.523   6.279 -1.3738  0.4214 -1.1481
 8141SOL     OW35881   1.185   1.960   8.761 -0.3310 -0.2998 -0.1085
 8141SOL    HW135882   1.173   1.865   8.751  2.6418 -0.9728  2.6250
 8141SOL    HW235883   1.184   1.989   8.669 -0.5748  0.5882  0.1786
 8142SOL     OW35884   3.203   4.711   1.015 -0.1888  0.1698  0.3061
 8142SOL    HW135885   3.239   4.629   1.047  0.7034  0.9118  1.1973
 8142SOL    HW235886   3.282   0.038   0.993 -1.1582  1.5856 -0.0242
 8143SOL     OW35887   0.435   1.322   3.091  0.1367  0.8309  0.7480
 8143SOL    HW135888   0.471   1.347   3.006 -1.3421  1.4853  0.3151
 8143SOL    HW235889   0.490   1.246   3.110  0.2322  0.4143 -1.1908
 8144SOL     OW35890   2.701   2.069   2.545  0.2756  0.2550  0.4345
 8144SOL    HW135891   2.655   2.153   2.552  0.6663  0.6138 -1.2080
 8144SOL    HW235892   2.788   2.093   2.513 -0.2355  1.9121  0.3246
 8145SOL     OW35893   2.233   4.229   1.042  0.7805 -0.6962  0.0183
 8145SOL    HW135894   2.232   4.277   1.125 -1.4175  0.1666 -0.5070
 8145SOL    HW235895   2.311   4.261   0.996 -0.8099  0.3143 -1.9452
 8146SOL     OW35896   1.372   1.259   5.538  0.2132  0.2727  0.7070
 8146SOL    HW135897   1.340   1.300   5.458 -1.2505 -0.0476  1.1177
 8146SOL    HW235898   1.461   1.294   5.536 -0.3414  1.7389  1.9107
 8147SOL     OW35899   3.441   3.239  15.188 -0.4054  0.1312 -0.1038
 8147SOL    HW135900   3.526   3.282  15.197  0.3859 -1.7676  1.4452
 8147SOL    HW235901   3.404   3.280  15.110  0.9938 -2.5065 -2.1184
 8148SOL     OW35902   4.451   3.936   4.778  0.2240 -0.3801  0.0604
 8148SOL    HW135903   4.468   3.964   4.688  2.0250 -0.2554  0.4286
 8148SOL    HW235904   4.542   3.922   4.806 -0.6111 -1.8472  1.9947
 8149SOL     OW35905   4.586   3.741   5.374 -0.6990  0.0691 -0.6115
 8149SOL    HW135906   4.676   3.710   5.362 -0.1942  0.8594  1.0774
 8149SOL    HW235907   4.539   3.658   5.361 -0.0443 -0.3101 -0.5752
 8150SOL     OW35908   3.636   1.979   3.907  0.3900 -0.2745  0.0612
 8150SOL    HW135909   3.560   1.980   3.965 -1.1074 -0.6048 -1.9141
 8150SOL    HW235910   3.646   1.885   3.897  2.7289 -0.3723  3.0665
 8151SOL     OW35911   3.057   3.890   8.131  0.3228 -0.2373  0.5216
 8151SOL    HW135912   3.022   3.810   8.170  0.7338  0.4157  2.2559
 8151SOL    HW235913   3.048   3.945   8.209  2.2293  0.7329  0.0644
 8152SOL     OW35914   1.084   0.444   4.618  0.2341 -0.1485  0.5553
 8152SOL    HW135915   1.000   0.489   4.620 -0.9807 -2.4771  2.3295
 8152SOL    HW235916   1.058   0.371   4.676  1.5172 -1.5993 -0.7017
 8153SOL     OW35917   3.781   1.335   6.539  0.0071 -0.3704  0.0145
 8153SOL    HW135918   3.765   1.241   6.542  1.9093 -0.7354 -0.6987
 8153SOL    HW235919   3.870   1.339   6.575  0.4095  0.8074 -1.1072
 8154SOL     OW35920   2.736   3.045  16.483 -0.3823  0.4948 -0.5419
 8154SOL    HW135921   2.709   3.053  16.575 -1.1059  2.6796 -0.9622
 8154SOL    HW235922   2.745   2.949  16.480 -2.1013  0.3519 -0.6922
 8155SOL     OW35923   2.715   2.361   5.149  0.2331 -0.0683  0.2732
 8155SOL    HW135924   2.764   2.386   5.071  1.4120 -0.5366  0.8629
 8155SOL    HW235925   2.632   2.321   5.122  0.5515 -1.4416  1.3535
 8156SOL     OW35926   0.640   2.176   2.576  0.4216 -0.4084 -0.5875
 8156SOL    HW135927   0.674   2.129   2.652  0.7393 -0.5079 -0.7956
 8156SOL    HW235928   0.549   2.190   2.603  0.7014 -0.1584  0.2167
 8157SOL     OW35929   0.041   0.060   9.568  0.1308 -0.5243 -0.5661
 8157SOL    HW135930   4.721   0.054   9.482  0.5723 -0.5218 -0.7852
 8157SOL    HW235931   0.023   4.698   9.610  0.9939  1.1724  3.2007
 8158SOL     OW35932   3.664   3.125   8.014  0.1717 -0.0055 -0.0343
 8158SOL    HW135933   3.737   3.167   8.060  2.1740 -0.4911 -2.7613
 8158SOL    HW235934   3.590   3.177   8.043 -0.1477 -0.8185  0.6268
 8159SOL     OW35935   3.944   2.066  14.960 -0.3521  0.0626  0.6523
 8159SOL    HW135936   3.890   2.041  14.885 -0.0498  1.1164  0.0865
 8159SOL    HW235937   3.982   1.981  14.982  0.6557  0.4927  0.5548
 8160SOL     OW35938   1.238   1.136  14.051  0.1087  0.0020  0.3178
 8160SOL    HW135939   1.163   1.176  14.008 -0.2030 -0.9306 -0.0037
 8160SOL    HW235940   1.243   1.058  13.996 -0.0704  1.8225 -2.2538
 8161SOL     OW35941   3.814   0.468   2.996 -0.0119  0.6957  0.4728
 8161SOL    HW135942   3.794   0.516   2.916 -2.1965 -0.6690  0.1960
 8161SOL    HW235943   3.909   0.456   2.989 -0.2462 -0.4797 -0.6992
 8162SOL     OW35944   3.970   0.009   1.127  0.4656 -0.1492 -0.0355
 8162SOL    HW135945   3.995   4.668   1.194 -1.3700 -0.1237  0.6664
 8162SOL    HW235946   3.875   0.006   1.131  0.4714  1.6919  1.3598
 8163SOL     OW35947   1.095   2.630   7.427  0.2251 -0.1412 -0.3171
 8163SOL    HW135948   1.076   2.537   7.421  1.0674 -0.2690 -1.1073
 8163SOL    HW235949   1.188   2.635   7.404  0.0172  1.1884 -0.8592
 8164SOL     OW35950   4.106   2.308  16.456  0.8086  0.3843  0.1133
 8164SOL    HW135951   4.188   2.273  16.422 -1.1270  0.5866 -4.7465
 8164SOL    HW235952   4.142   2.325  16.543 -0.3036 -0.8586  0.8272
 8165SOL     OW35953   4.623   0.495  12.837 -0.4759 -0.0482 -0.5309
 8165SOL    HW135954   4.603   0.533  12.751 -1.9058  0.0670 -0.1582
 8165SOL    HW235955   4.658   0.411  12.808  0.6794 -0.3860  1.8173
 8166SOL     OW35956   4.594   0.803   5.926 -0.1329 -0.4187  0.5929
 8166SOL    HW135957   4.668   0.792   5.866  1.2378  0.6453  2.0800
 8166SOL    HW235958   4.529   0.793   5.856 -1.1872  1.2104  1.3138
 8167SOL     OW35959   3.632   3.593   5.179 -0.1135  0.0095  0.8292
 8167SOL    HW135960   3.686   3.528   5.135  0.5202  1.9950 -1.3523
 8167SOL    HW235961   3.601   3.654   5.112  0.8193 -0.4512 -0.0122
 8168SOL     OW35962   1.696   2.192  14.352 -0.1878  0.1956  0.0026
 8168SOL    HW135963   1.698   2.149  14.267 -0.5959  2.4979 -1.1684
 8168SOL    HW235964   1.611   2.161  14.384 -0.5922  0.3629 -0.9284
 8169SOL     OW35965   2.136   2.668   1.222  0.1579  0.1214  0.0727
 8169SOL    HW135966   2.112   2.735   1.286 -2.5577  0.3976 -1.2691
 8169SOL    HW235967   2.184   2.613   1.284 -2.9221 -2.2304  0.3365
 8170SOL     OW35968   0.556   4.413   1.977  0.3364  0.0752 -0.2652
 8170SOL    HW135969   0.578   4.478   2.043  0.9070 -1.5796  1.1699
 8170SOL    HW235970   0.515   4.463   1.906  1.3739 -2.0706 -2.3746
 8171SOL     OW35971   4.711   2.331  13.632  0.5364  0.4500  0.0354
 8171SOL    HW135972   4.622   2.322  13.664  1.0168  1.3324  1.5957
 8171SOL    HW235973   4.693   2.401  13.569 -1.3615 -2.1901 -2.3872
 8172SOL     OW35974   2.716   1.682  12.430  0.2476  0.2300 -0.2468
 8172SOL    HW135975   2.804   1.685  12.390 -1.0962 -1.0409 -3.3007
 8172SOL    HW235976   2.677   1.740  12.365  0.1085  2.0413  1.4653
 8173SOL     OW35977   3.469   3.689   6.557  0.5543 -0.4307 -0.5016
 8173SOL    HW135978   3.537   3.659   6.497 -0.0185 -0.5857 -1.0726
 8173SOL    HW235979   3.489   3.782   6.572  0.1034 -0.1580 -1.5934
 8174SOL     OW35980   2.759   0.856   6.261  0.0167 -0.6150  0.1664
 8174SOL    HW135981   2.739   0.950   6.253 -1.7760 -1.0286 -0.2067
 8174SOL    HW235982   2.801   0.831   6.179  1.6467  0.9121  0.5202
 8175SOL     OW35983   4.123   4.471   2.870 -0.0066  0.2780  0.4533
 8175SOL    HW135984   4.135   4.421   2.789  0.1882 -1.6946  1.6885
 8175SOL    HW235985   4.056   4.538   2.859  1.4324  1.6031 -0.1054
 8176SOL     OW35986   1.090   4.439   5.914 -0.9865 -0.2878  0.2416
 8176SOL    HW135987   1.138   4.369   5.868 -0.0144  0.9441 -0.6252
 8176SOL    HW235988   1.051   4.495   5.847 -0.2549  0.2274  0.2438
 8177SOL     OW35989   1.379   1.092   9.124  0.3788  0.0477 -0.4171
 8177SOL    HW135990   1.398   1.186   9.126 -1.7738  0.4574  0.2441
 8177SOL    HW235991   1.454   1.055   9.078  0.6921 -1.5342  1.3256
 8178SOL     OW35992   3.046   3.682  11.945 -0.4617  0.3038  0.1659
 8178SOL    HW135993   2.953   3.697  11.929 -0.3269 -0.6116 -1.4724
 8178SOL    HW235994   3.077   3.768  11.974 -1.1220  1.3960 -2.3001
 8179SOL     OW35995   3.402   0.078  12.382 -0.5166 -0.4793 -0.0427
 8179SOL    HW135996   3.486   0.067  12.426 -0.2894  1.6820  0.0554
 8179SOL    HW235997   3.419   0.169  12.357 -0.2210 -0.8448 -1.2022
 8180SOL     OW35998   3.690   2.805   1.605 -0.1742 -0.0253 -0.0471
 8180SOL    HW135999   3.626   2.734   1.610  0.4411 -0.5444  0.4732
 8180SOL    HW236000   3.725   2.806   1.694  0.5972 -0.0466 -0.3571
 8181SOL     OW36001   3.166   2.679  14.315 -0.4090  0.3333  0.5379
 8181SOL    HW136002   3.215   2.752  14.278 -1.8260  1.1467  0.2604
 8181SOL    HW236003   3.241   2.639  14.360  0.4693  1.7778  0.3448
 8182SOL     OW36004   3.529   1.051   6.398 -0.3603  0.2341  0.1970
 8182SOL    HW136005   3.554   0.958   6.398  1.1665  0.6480 -0.2485
 8182SOL    HW236006   3.557   1.077   6.486 -0.6333  3.4222 -0.6942
 8183SOL     OW36007   3.278   0.506  17.554 -0.4599  0.5655  0.7642
 8183SOL    HW136008   3.197   0.472  17.591 -1.1328 -0.1190 -1.3213
 8183SOL    HW236009   3.346   0.471  17.611 -1.0097 -1.8488 -0.0398
 8184SOL     OW36010   1.506   0.442   6.083 -0.4468  0.3823  0.0652
 8184SOL    HW136011   1.562   0.513   6.053  1.0184  0.1861  2.3218
 8184SOL    HW236012   1.553   0.408   6.159 -1.8006 -1.8795 -0.1182
 8185SOL     OW36013   3.305   2.635  13.827 -0.0559 -0.2317 -0.0463
 8185SOL    HW136014   3.301   2.730  13.826 -1.1456 -0.2735  0.9000
 8185SOL    HW236015   3.238   2.622  13.893  0.0516  0.3740  0.1802
 8186SOL     OW36016   2.343   2.478   4.592 -0.6005 -0.1466 -0.0650
 8186SOL    HW136017   2.346   2.573   4.576 -0.8490 -0.2540 -0.7646
 8186SOL    HW236018   2.369   2.480   4.684 -1.4763  0.1609  0.1761
 8187SOL     OW36019   1.110   0.666   3.747 -0.3202  0.3471 -0.0812
 8187SOL    HW136020   1.085   0.574   3.748 -3.1242  1.1593  2.0062
 8187SOL    HW236021   1.025   0.708   3.753 -1.1692 -1.2379 -0.9081
 8188SOL     OW36022   1.384   3.350  13.187 -0.1672 -0.0846 -0.0849
 8188SOL    HW136023   1.296   3.379  13.163  0.1757  1.7902  0.9542
 8188SOL    HW236024   1.410   3.420  13.246  0.1532 -0.3526  0.0959
 8189SOL     OW36025   0.276   0.307   8.898  0.1131 -0.8240 -0.2980
 8189SOL    HW136026   0.320   0.310   8.983 -0.0867 -1.1620 -0.1813
 8189SOL    HW236027   0.293   0.221   8.861 -1.8167 -1.1150 -0.5266
 8190SOL     OW36028   2.461   1.195   3.115  0.5349 -0.1188 -0.3334
 8190SOL    HW136029   2.517   1.131   3.071 -1.5080 -2.2838  0.2202
 8190SOL    HW236030   2.460   1.261   3.046  0.4294  1.7652  1.4728
 8191SOL     OW36031   3.741   0.372   3.367  0.8471 -0.0345  0.7354
 8191SOL    HW136032   3.659   0.410   3.397 -0.6769 -1.2441 -1.8577
 8191SOL    HW236033   3.761   0.318   3.443 -1.2611  0.1720  1.4318
 8192SOL     OW36034   3.437   2.259   3.592  0.2231 -0.3808 -0.3307
 8192SOL    HW136035   3.455   2.169   3.620  0.7581 -0.4210 -0.8097
 8192SOL    HW236036   3.341   2.265   3.590  0.1842 -0.5185  1.2385
 8193SOL     OW36037   0.469   4.510   6.167 -0.1610  0.6159 -0.3152
 8193SOL    HW136038   0.531   4.566   6.120  1.7670  0.0662  1.5519
 8193SOL    HW236039   0.523   4.439   6.203 -0.2868  0.8189  0.2825
 8194SOL     OW36040   4.625   3.204   7.298  0.2344  0.1745 -0.0879
 8194SOL    HW136041   4.670   3.159   7.226 -0.2166  0.1477 -0.3519
 8194SOL    HW236042   4.580   3.129   7.337  1.2423 -0.2055  0.3282
 8195SOL     OW36043   3.590   0.638   6.500 -0.3507  0.1411 -1.0655
 8195SOL    HW136044   3.509   0.656   6.547  0.2260  0.6688 -0.2746
 8195SOL    HW236045   3.558   0.570   6.440  0.3370 -1.2050  0.0981
 8196SOL     OW36046   2.733   1.442   6.363 -0.2664 -0.1882 -0.1049
 8196SOL    HW136047   2.815   1.445   6.412  0.4086  1.3963 -1.3284
 8196SOL    HW236048   2.673   1.456   6.437  0.0486  2.2069 -0.2836
 8197SOL     OW36049   4.460   3.521  10.820  0.2254  0.0378 -0.2204
 8197SOL    HW136050   4.480   3.565  10.903  2.5069  0.7163 -1.1318
 8197SOL    HW236051   4.376   3.480  10.837  1.3220 -1.4008  1.6933
 8198SOL     OW36052   0.041   4.709   2.873 -0.3720  0.6693 -0.2620
 8198SOL    HW136053   0.059   4.719   2.966 -1.6983 -0.4243  0.1078
 8198SOL    HW236054   0.111   0.045   2.843  2.5578 -1.8845  1.6404
 8199SOL     OW36055   1.477   4.194   7.972  0.6601 -0.8331 -0.0404
 8199SOL    HW136056   1.483   4.103   7.998  0.5160 -1.1161 -0.9884
 8199SOL    HW236057   1.441   4.184   7.883 -0.3941  2.1548  0.0435
 8200SOL     OW36058   4.714   1.225   1.583  0.1557 -0.2748  0.0689
 8200SOL    HW136059   4.716   1.152   1.645 -2.3092 -1.0171 -0.7330
 8200SOL    HW236060   4.665   1.291   1.633  0.0145 -0.7745  0.5893
 8201SOL     OW36061   4.219   1.651  16.715 -0.1459 -0.1236  0.2331
 8201SOL    HW136062   4.163   1.650  16.638 -2.1179  4.8168  1.5264
 8201SOL    HW236063   4.176   1.602  16.786 -2.0566  0.2351 -0.6805
 8202SOL     OW36064   0.644   1.859  10.598  0.3504  0.6245  0.4866
 8202SOL    HW136065   0.683   1.864  10.685  1.9730 -0.9382 -0.1318
 8202SOL    HW236066   0.697   1.926  10.553  1.0697 -1.1554 -1.3150
 8203SOL     OW36067   0.607   2.091  16.031 -0.1438 -0.5716 -0.4163
 8203SOL    HW136068   0.617   2.027  15.960  0.7658 -0.5257 -0.3257
 8203SOL    HW236069   0.696   2.120  16.049 -1.0878  1.8982  0.2628
 8204SOL     OW36070   1.228   2.640   3.034 -0.2294  0.3492 -0.2543
 8204SOL    HW136071   1.300   2.581   3.056  0.9807  1.1048 -2.1693
 8204SOL    HW236072   1.251   2.665   2.944  0.1483  0.0822 -0.2323
 8205SOL     OW36073   4.486   2.492  10.051  0.3290 -0.6413 -0.1709
 8205SOL    HW136074   4.445   2.427   9.994 -0.7210 -0.8678  0.8448
 8205SOL    HW236075   4.540   2.528   9.981  0.2517 -1.3707 -0.6057
 8206SOL     OW36076   0.123   2.039   6.006 -0.4254 -0.2778 -0.0752
 8206SOL    HW136077   0.137   1.967   5.944 -0.4869 -0.6389  0.3347
 8206SOL    HW236078   0.141   2.113   5.947 -1.8713 -0.3738 -0.6389
 8207SOL     OW36079   2.725   2.788   0.978 -0.0139 -0.5035  0.0671
 8207SOL    HW136080   2.809   2.770   1.020  0.4027 -1.8905 -1.4138
 8207SOL    HW236081   2.657   2.792   1.045  0.4236  0.8719  0.4402
 8208SOL     OW36082   1.491   0.772  12.383 -0.5665 -0.2301 -0.2433
 8208SOL    HW136083   1.449   0.709  12.442  0.5538 -0.7955 -0.0582
 8208SOL    HW236084   1.523   0.717  12.313  1.7670  3.5540 -2.1516
 8209SOL     OW36085   4.430   4.202  10.948 -0.2609  0.5411  0.1735
 8209SOL    HW136086   4.392   4.240  10.869  0.6827 -0.8181 -0.9287
 8209SOL    HW236087   4.511   4.253  10.949  2.1932 -3.3141  1.1428
 8210SOL     OW36088   3.341   1.378   7.774  0.0158 -0.4468 -0.1909
 8210SOL    HW136089   3.300   1.372   7.687  0.2812  1.5009 -0.4479
 8210SOL    HW236090   3.352   1.472   7.789  0.7100 -0.7296  1.0079
 8211SOL     OW36091   3.824   3.532   8.095 -1.1224 -0.1373 -0.0836
 8211SOL    HW136092   3.862   3.580   8.168 -1.3295 -0.5564  0.3005
 8211SOL    HW236093   3.886   3.459   8.098  0.6076  1.4006  1.6194
 8212SOL     OW36094   2.951   2.107   8.302  0.3406 -0.4810  0.1445
 8212SOL    HW136095   2.901   2.189   8.311 -0.2493 -0.8705  0.4726
 8212SOL    HW236096   3.027   2.128   8.356  0.3030 -0.6417  0.2587
 8213SOL     OW36097   0.597   2.072   4.968  0.2500  0.2050  0.0606
 8213SOL    HW136098   0.505   2.095   4.979 -0.0663 -0.0706 -1.9400
 8213SOL    HW236099   0.593   1.979   4.990  2.2162 -0.0884 -0.8083
 8214SOL     OW36100   0.707   0.702  10.879  0.6195 -0.5781 -0.0198
 8214SOL    HW136101   0.665   0.730  10.961  0.9270  0.1365 -0.1068
 8214SOL    HW236102   0.744   0.626  10.925  1.5224 -0.1896 -0.1038
 8215SOL     OW36103   1.509   0.774   2.283  0.0847  0.2769 -0.5956
 8215SOL    HW136104   1.447   0.774   2.356  3.2390 -2.2721  2.0698
 8215SOL    HW236105   1.592   0.808   2.316  1.1701 -1.9507 -1.0301
 8216SOL     OW36106   3.817   0.988   4.122 -0.4007  0.1564 -0.2026
 8216SOL    HW136107   3.833   1.041   4.045 -1.8258 -0.6307 -1.0333
 8216SOL    HW236108   3.842   1.053   4.188 -1.1958 -0.3600  0.6142
 8217SOL     OW36109   1.385   3.561   7.444 -0.6324  0.4070 -0.2024
 8217SOL    HW136110   1.330   3.639   7.450 -0.8516  0.2988 -0.9577
 8217SOL    HW236111   1.324   3.496   7.479 -1.7456  1.6788  0.2311
 8218SOL     OW36112   1.075   2.289   7.456 -0.1551  0.0879  0.1469
 8218SOL    HW136113   1.067   2.283   7.361  0.5521 -0.1359  0.1018
 8218SOL    HW236114   1.115   2.205   7.477 -1.0354  0.5822  3.8078
 8219SOL     OW36115   0.641   1.290   7.839  0.0351 -0.4249 -0.0245
 8219SOL    HW136116   0.689   1.211   7.867  0.7355 -0.5231 -1.4481
 8219SOL    HW236117   0.692   1.308   7.760  1.4228 -1.7235  0.5693
 8220SOL     OW36118   0.671   0.096   3.531 -0.1998 -0.1542 -0.5755
 8220SOL    HW136119   0.745   0.104   3.471 -2.0137  2.5713 -2.4661
 8220SOL    HW236120   0.695   0.033   3.599 -0.7895 -1.2057 -1.3373
 8221SOL     OW36121   4.316   4.166   4.801  0.4004  0.1302 -0.7187
 8221SOL    HW136122   4.372   4.088   4.797 -0.5053 -0.4784 -1.5167
 8221SOL    HW236123   4.236   4.136   4.758  0.2758  1.4870 -1.4437
 8222SOL     OW36124   4.100   2.775   5.461 -0.1263  0.2533  0.0350
 8222SOL    HW136125   4.035   2.724   5.509  0.1540  0.0574  0.2043
 8222SOL    HW236126   4.057   2.799   5.379  2.5867  2.7594 -0.7055
 8223SOL     OW36127   0.735   3.041   8.526 -0.1773  0.0500  0.5293
 8223SOL    HW136128   0.708   3.082   8.608 -1.5101  0.8870 -0.3223
 8223SOL    HW236129   0.825   3.020   8.549  0.4769  0.1736 -1.8736
 8224SOL     OW36130   3.142   1.033   9.742 -0.3869 -0.2172  0.9761
 8224SOL    HW136131   3.183   1.016   9.657 -2.8645  2.8652 -0.8334
 8224SOL    HW236132   3.055   1.046   9.705  0.2400 -3.3234 -1.6094
 8225SOL     OW36133   1.549   1.784  11.900  0.1405 -0.0203  0.5135
 8225SOL    HW136134   1.601   1.862  11.919  0.9263 -0.1957 -0.9613
 8225SOL    HW236135   1.591   1.747  11.822  2.3676  0.7589  1.3463
 8226SOL     OW36136   0.478   3.536   2.168 -0.0158 -0.2875  0.1556
 8226SOL    HW136137   0.533   3.539   2.089 -1.7289 -0.0723 -1.0277
 8226SOL    HW236138   0.540   3.525   2.240 -0.7728 -3.0659  0.3547
 8227SOL     OW36139   0.096   1.989   9.147 -0.0317  0.7951  0.2284
 8227SOL    HW136140   0.049   2.047   9.087  0.3152  0.2576 -0.5734
 8227SOL    HW236141   0.077   1.901   9.115  2.0247 -0.3568  2.1359
 8228SOL     OW36142   4.526   0.742   6.851 -0.1024  0.3064  0.5881
 8228SOL    HW136143   4.460   0.673   6.847  1.2396 -1.0273  1.4147
 8228SOL    HW236144   4.542   0.766   6.760 -1.1536  0.5971  0.4804
 8229SOL     OW36145   1.468   2.791   7.130 -0.1071 -0.1840 -0.2070
 8229SOL    HW136146   1.494   2.773   7.040  0.7148 -4.5144  0.8851
 8229SOL    HW236147   1.376   2.799   7.104 -0.4121 -0.0551  0.9265
 8230SOL     OW36148   0.910   3.388  12.695 -0.2229 -0.5708  0.7682
 8230SOL    HW136149   0.837   3.347  12.740 -1.0753  0.2919  0.1669
 8230SOL    HW236150   0.889   3.369  12.603 -0.2545  1.0659  0.4316
 8231SOL     OW36151   3.261   1.358   3.998  0.7799 -0.1318 -0.3326
 8231SOL    HW136152   3.214   1.434   4.032 -2.4134 -2.3286  0.2209
 8231SOL    HW236153   3.334   1.406   3.961  0.6715 -1.4202 -2.2023
 8232SOL     OW36154   0.799   4.065  15.455  0.1710  0.3766  0.3586
 8232SOL    HW136155   0.710   4.081  15.488 -0.0178 -1.0275  0.5382
 8232SOL    HW236156   0.793   3.976  15.421 -0.9412  0.9059 -0.8210
 8233SOL     OW36157   4.562   0.957   3.076  0.0175  0.1929  0.2288
 8233SOL    HW136158   4.635   0.974   3.016  2.9316 -3.0321  2.8504
 8233SOL    HW236159   4.492   1.008   3.035  1.9786  2.3775 -0.4620
 8234SOL     OW36160   0.349   4.356   1.720  0.0128  0.2151  0.3848
 8234SOL    HW136161   0.263   4.397   1.713 -0.3104 -0.3887  0.8488
 8234SOL    HW236162   0.407   4.432   1.723  2.9282 -1.9359 -1.4361
 8235SOL     OW36163   4.447   3.918  13.210  0.3549  0.1674 -0.4126
 8235SOL    HW136164   4.379   3.979  13.182 -0.8221 -0.3764  1.2686
 8235SOL    HW236165   4.392   3.863  13.267  4.5706 -1.0689  2.4323
 8236SOL     OW36166   0.599   0.164   4.944 -0.0645  0.5373  0.0582
 8236SOL    HW136167   0.558   0.089   4.901  2.0194  0.9191 -2.6531
 8236SOL    HW236168   0.678   0.125   4.981 -0.0663  0.7205  0.2532
 8237SOL     OW36169   0.295   3.969   1.058 -0.0576 -0.3509 -0.3418
 8237SOL    HW136170   0.325   3.983   1.148 -2.0898 -0.0939  0.2971
 8237SOL    HW236171   0.354   4.029   1.012 -1.3367  0.3126 -1.1476
 8238SOL     OW36172   3.115   4.546  12.537 -0.9125  0.3046 -0.0846
 8238SOL    HW136173   3.050   4.573  12.472  2.0727  1.3885 -2.6789
 8238SOL    HW236174   3.133   4.453  12.522 -1.4598 -0.1683  2.3439
 8239SOL     OW36175   3.562   1.337   3.208 -0.2974  0.3355  0.7762
 8239SOL    HW136176   3.650   1.320   3.242 -1.1372  1.5801  3.6351
 8239SOL    HW236177   3.522   1.360   3.293  0.8941  1.1738  1.1080
 8240SOL     OW36178   1.153   0.225   8.241  0.2220  0.1413  0.2421
 8240SOL    HW136179   1.098   0.206   8.165 -0.1014 -1.0269  0.7768
 8240SOL    HW236180   1.112   0.307   8.269 -0.1432 -0.0668  0.3112
 8241SOL     OW36181   0.730   2.917   2.174 -0.9108  0.3064 -0.2660
 8241SOL    HW136182   0.789   2.952   2.241 -0.6712  0.8439 -0.7586
 8241SOL    HW236183   0.789   2.913   2.098 -0.8403 -0.1955 -0.1868
 8242SOL     OW36184   1.698   1.017   4.116 -0.1077 -0.1891 -0.3701
 8242SOL    HW136185   1.731   0.985   4.200 -2.2518  0.9010  0.8767
 8242SOL    HW236186   1.668   1.106   4.129 -2.4861 -0.9283 -0.7856
 8243SOL     OW36187   1.914   4.429  13.404 -0.5627  0.7178  0.3523
 8243SOL    HW136188   1.965   4.372  13.347 -0.0127 -0.2537  1.8413
 8243SOL    HW236189   1.826   4.391  13.413 -0.2251 -0.3578 -1.0006
 8244SOL     OW36190   1.367   3.435   8.829  0.3614  0.4965  0.4653
 8244SOL    HW136191   1.426   3.501   8.794 -0.6994 -0.9145 -4.0342
 8244SOL    HW236192   1.402   3.426   8.918  0.5290 -2.5227  0.1015
 8245SOL     OW36193   3.918   2.187   8.781  0.0065  0.3018 -0.0753
 8245SOL    HW136194   3.922   2.262   8.840  1.0545 -0.3053  0.6154
 8245SOL    HW236195   3.948   2.230   8.701  0.2619 -3.4008 -2.0016
 8246SOL     OW36196   3.450   4.104   0.022  0.7412  0.8746  0.2410
 8246SOL    HW136197   3.467   4.021   0.066 -3.2223  1.0315  2.0435
 8246SOL    HW236198   3.539   4.140   0.019  0.4033  1.7892  1.2255
 8247SOL     OW36199   2.047   3.521  15.479  0.2517 -0.3146 -0.4406
 8247SOL    HW136200   2.079   3.569  15.402  3.0839 -0.7014  0.5042
 8247SOL    HW236201   2.127   3.473  15.500  0.1882 -0.2790 -0.1138
 8248SOL     OW36202   1.544   3.611  10.905  0.1733 -0.4287 -0.6102
 8248SOL    HW136203   1.634   3.581  10.913 -0.4967 -2.4772 -0.7860
 8248SOL    HW236204   1.514   3.630  10.994 -0.6288 -0.3812 -0.8852
 8249SOL     OW36205   4.579   1.063   8.355  0.5022 -1.1395 -0.1311
 8249SOL    HW136206   4.567   1.097   8.266  1.5619 -2.0403 -0.6199
 8249SOL    HW236207   4.493   1.024   8.369  0.3612 -0.7695  0.0447
 8250SOL     OW36208   4.613   1.289   4.181 -0.0277 -0.0579 -0.7511
 8250SOL    HW136209   4.652   1.228   4.118 -1.6131 -0.3539 -1.4697
 8250SOL    HW236210   4.614   1.376   4.142 -1.3333  0.4155  0.2871
 8251SOL     OW36211   2.244   3.128   5.898  0.0106  0.3740 -0.3187
 8251SOL    HW136212   2.252   3.177   5.981 -0.8190  2.1168 -1.2569
 8251SOL    HW236213   2.243   3.038   5.929 -2.1510  0.0528 -1.3006
 8252SOL     OW36214   1.933   3.361  12.806  0.1845  0.1727  0.6598
 8252SOL    HW136215   2.025   3.369  12.833  0.6276 -0.8322 -0.5638
 8252SOL    HW236216   1.887   3.363  12.890 -0.2960  0.6211  0.3764
 8253SOL     OW36217   1.984   1.689   5.622 -0.2773  0.2674  0.0512
 8253SOL    HW136218   1.965   1.740   5.543 -1.9536  2.4480  1.8956
 8253SOL    HW236219   2.068   1.721   5.656 -0.3172  1.2160 -0.7419
 8254SOL     OW36220   1.419   1.910  14.812 -0.2876 -0.3722  0.3835
 8254SOL    HW136221   1.366   1.990  14.814 -0.3115 -0.3689 -0.2928
 8254SOL    HW236222   1.358   1.854  14.859 -2.2499  0.4499 -1.1771
 8255SOL     OW36223   2.395   1.936   7.920 -0.5911  0.0925  0.4252
 8255SOL    HW136224   2.374   1.902   7.833  0.8701 -0.0712  0.1434
 8255SOL    HW236225   2.447   2.010   7.889 -0.0939 -0.9700 -1.2636
 8256SOL     OW36226   4.169   2.092   2.567 -0.1385 -0.0823  0.0687
 8256SOL    HW136227   4.189   1.999   2.556 -0.0654  0.1336 -1.6907
 8256SOL    HW236228   4.087   2.095   2.517  1.1099  0.4329 -1.9842
 8257SOL     OW36229   4.381   4.041   1.788  0.0315  0.0025 -0.3813
 8257SOL    HW136230   4.326   4.102   1.838 -1.7358 -1.3523 -0.6709
 8257SOL    HW236231   4.399   4.098   1.713 -0.0254  0.7239  0.1463
 8258SOL     OW36232   2.600   3.168  15.911 -0.0136  0.0896 -0.0270
 8258SOL    HW136233   2.546   3.243  15.934  1.3602  0.5602  1.6471
 8258SOL    HW236234   2.561   3.137  15.829 -0.8214  0.1708  0.3382
 8259SOL     OW36235   2.343   4.708   6.853  0.5493 -0.1073 -0.4178
 8259SOL    HW136236   2.377   4.621   6.874  0.2640  0.2460  1.4414
 8259SOL    HW236237   2.251   4.686   6.867  0.9689 -0.0966  2.1898
 8260SOL     OW36238   1.889   4.427   0.222 -0.2050  0.2140 -0.6788
 8260SOL    HW136239   1.857   4.514   0.242  0.3221  0.1414  0.4782
 8260SOL    HW236240   1.841   4.385   0.293  0.1517 -0.9991 -1.1520
 8261SOL     OW36241   3.568   0.513   5.126 -0.0023  0.0622 -0.4909
 8261SOL    HW136242   3.577   0.421   5.149 -0.6022  0.7744  2.7024
 8261SOL    HW236243   3.659   0.528   5.100  0.1343 -0.6673 -0.4302
 8262SOL     OW36244   2.201   3.217  11.372  0.2987 -0.2003 -0.3047
 8262SOL    HW136245   2.226   3.293  11.425 -0.9259  0.2271 -0.3501
 8262SOL    HW236246   2.257   3.148  11.409 -0.4477 -0.6740 -0.0634
 8263SOL     OW36247   4.089   0.508   6.700  0.1392  0.1229  0.4402
 8263SOL    HW136248   4.117   0.505   6.609  1.5678 -2.6084  0.9756
 8263SOL    HW236249   4.000   0.539   6.683  1.4514  3.5302 -0.0862
 8264SOL     OW36250   4.611   2.074   6.105  0.7468 -0.1173 -0.3725
 8264SOL    HW136251   4.690   2.041   6.063  0.4650 -1.1160 -0.1267
 8264SOL    HW236252   4.625   2.168   6.104  0.5665 -0.0929 -0.5793
 8265SOL     OW36253   2.118   0.840  12.613  0.3337  0.6909  0.1994
 8265SOL    HW136254   2.168   0.804  12.686  0.6272  0.7187  0.0151
 8265SOL    HW236255   2.026   0.815  12.621  0.0134  2.2480  1.4551
 8266SOL     OW36256   0.448   0.385  12.468 -0.3066  0.4868  0.5703
 8266SOL    HW136257   0.455   0.360  12.560  0.5514  1.3271  0.7309
 8266SOL    HW236258   0.356   0.411  12.464 -0.5657 -0.7537 -1.6871
 8267SOL     OW36259   1.271   0.225   7.323 -0.1739  0.3704 -0.2912
 8267SOL    HW136260   1.259   0.316   7.350 -1.7920  0.6132 -1.8086
 8267SOL    HW236261   1.356   0.229   7.280 -0.4116  1.2490 -0.6831
 8268SOL     OW36262   4.540   3.301   3.326 -0.3093  0.2506  0.0037
 8268SOL    HW136263   4.533   3.370   3.260  1.6617 -2.2613 -2.7974
 8268SOL    HW236264   4.557   3.228   3.267 -2.4566 -1.4383  1.4815
 8269SOL     OW36265   1.559   0.840   7.067 -0.1324 -0.8252 -0.0598
 8269SOL    HW136266   1.478   0.819   7.114 -0.9981 -1.8586 -2.0077
 8269SOL    HW236267   1.620   0.781   7.111  2.0976  0.2668 -1.6798
 8270SOL     OW36268   1.493   3.152   5.627  0.1301 -0.3233  0.0864
 8270SOL    HW136269   1.553   3.114   5.692  1.1831  0.6196 -0.3431
 8270SOL    HW236270   1.541   3.210   5.570 -0.1943 -0.4376 -0.3034
 8271SOL     OW36271   1.380   1.485   3.071  0.2242  0.0190 -0.1569
 8271SOL    HW136272   1.372   1.453   3.160 -0.9893 -0.2331 -0.3572
 8271SOL    HW236273   1.320   1.560   3.070 -0.2509 -0.3580  0.7469
 8272SOL     OW36274   1.515   0.554  16.995  0.0636  0.4279  0.3104
 8272SOL    HW136275   1.449   0.593  17.053 -0.2265  0.9392 -0.3565
 8272SOL    HW236276   1.525   0.621  16.927  0.9570 -0.3031 -0.2661
 8273SOL     OW36277   4.252   3.978   6.961  0.5625  0.2065  0.1371
 8273SOL    HW136278   4.159   3.987   6.940  0.9852 -0.1435 -1.8227
 8273SOL    HW236279   4.270   4.053   7.019  0.0619 -1.1721  2.0866
 8274SOL     OW36280   2.851   3.758   1.254 -0.0983 -0.2785 -0.4341
 8274SOL    HW136281   2.820   3.760   1.344  0.5740 -2.6415 -0.1521
 8274SOL    HW236282   2.926   3.699   1.266  0.8948  1.1705  0.4390
 8275SOL     OW36283   4.665   0.330   9.371 -0.9696 -0.2039  0.8178
 8275SOL    HW136284   4.622   0.273   9.307 -1.8769  0.5951  0.6934
 8275SOL    HW236285   4.666   0.408   9.314 -0.4741 -0.7200  0.1315
 8276SOL     OW36286   1.593   0.030   8.555 -0.2333 -0.1391  0.2067
 8276SOL    HW136287   1.602   0.120   8.524 -2.0339 -0.1156 -0.2788
 8276SOL    HW236288   1.512   0.036   8.606 -0.1456 -0.8475  0.4213
 8277SOL     OW36289   3.749   4.306   0.353 -0.9210 -0.4183  0.9710
 8277SOL    HW136290   3.829   4.254   0.357  0.0777  1.0172 -0.4347
 8277SOL    HW236291   3.720   4.298   0.444  0.2711 -0.3910  1.3551
 8278SOL     OW36292   2.348   3.452  16.119  0.6137  0.4227 -0.0611
 8278SOL    HW136293   2.257   3.452  16.090  0.6180  0.9361 -0.0758
 8278SOL    HW236294   2.339   3.452  16.215 -1.1890 -0.2303 -0.2145
 8279SOL     OW36295   3.468   0.872   4.948  0.3029 -0.1726 -0.4473
 8279SOL    HW136296   3.466   0.902   4.857 -1.5037  2.8958  0.5927
 8279SOL    HW236297   3.380   0.837   4.963  0.6841  0.0795  2.3658
 8280SOL     OW36298   2.191   1.406  11.731 -0.1426 -0.3341 -0.2560
 8280SOL    HW136299   2.272   1.361  11.755 -0.6578 -1.2058 -0.1853
 8280SOL    HW236300   2.168   1.335  11.672 -1.8515 -1.3066  1.5905
 8281SOL     OW36301   3.875   3.329   3.430 -0.1160  0.4922 -0.4540
 8281SOL    HW136302   3.850   3.245   3.392 -0.4247  0.1502  0.5088
 8281SOL    HW236303   3.790   3.372   3.427  0.4625  1.7124  0.4405
 8282SOL     OW36304   2.418   1.607   3.173  0.0930  0.0562  0.5140
 8282SOL    HW136305   2.494   1.621   3.230  0.9146  1.8852 -1.0257
 8282SOL    HW236306   2.449   1.675   3.112 -0.4071 -0.9856 -0.8900
 8283SOL     OW36307   0.421   3.912  12.085  0.1093 -0.2286 -0.0723
 8283SOL    HW136308   0.377   3.895  12.169  1.5802 -0.5128  0.6393
 8283SOL    HW236309   0.462   3.994  12.113 -0.2138 -0.6008  1.4764
 8284SOL     OW36310   1.618   1.005   6.559  0.8113  0.6490  0.0507
 8284SOL    HW136311   1.602   0.945   6.632  1.8264 -0.1368 -0.3853
 8284SOL    HW236312   1.713   1.013   6.560  1.0600 -1.7088 -2.9944
 8285SOL     OW36313   1.356   4.713   8.701 -0.0468  0.3341 -0.1057
 8285SOL    HW136314   1.310   0.012   8.782  1.1732 -4.0112  1.7242
 8285SOL    HW236315   1.308   4.640   8.664  0.2095  0.6423 -1.0585
 8286SOL     OW36316   2.943   3.463  16.244  0.1704  0.8226  0.5131
 8286SOL    HW136317   3.038   3.454  16.255 -0.0961 -0.4718  1.7931
 8286SOL    HW236318   2.906   3.375  16.254  1.9816  0.2388  2.2232
 8287SOL     OW36319   3.677   4.648   8.494  0.1870 -0.2284  0.4923
 8287SOL    HW136320   3.582   4.638   8.501  0.2260 -1.1865 -0.3557
 8287SOL    HW236321   3.710   4.645   8.583  1.8501  0.1629 -0.1114
 8288SOL     OW36322   0.240   4.230   7.829 -0.4114  0.0813  0.8644
 8288SOL    HW136323   0.298   4.299   7.863  2.2108 -1.7211  0.0453
 8288SOL    HW236324   0.282   4.228   7.742 -0.6819  1.2919  0.6991
 8289SOL     OW36325   0.122   3.809  10.329 -0.0358 -0.0949 -0.1737
 8289SOL    HW136326   0.050   3.746  10.329  0.4106 -0.6062 -0.3804
 8289SOL    HW236327   0.071   3.887  10.310  0.9349  0.0231 -2.2187
 8290SOL     OW36328   0.558   1.227   5.109  0.0533  0.1236  0.0714
 8290SOL    HW136329   0.509   1.214   5.027  1.3428  0.9984 -0.8382
 8290SOL    HW236330   0.594   1.314   5.093  1.2721 -0.2520  0.7431
 8291SOL     OW36331   0.626   1.176   3.229 -0.0012 -0.3594  0.3303
 8291SOL    HW136332   0.637   1.232   3.305  0.0129  2.0242 -1.4298
 8291SOL    HW236333   0.586   1.094   3.259  0.1990 -0.4756  0.2810
 8292SOL     OW36334   4.714   4.255   3.271  0.6250 -0.0269  0.0787
 8292SOL    HW136335   0.015   4.275   3.362  0.8576  1.9469 -0.4152
 8292SOL    HW236336   4.678   4.167   3.283 -0.3615  0.6970  2.4387
 8293SOL     OW36337   1.137   3.872   5.899  0.2377 -0.2762  0.2542
 8293SOL    HW136338   1.157   3.857   5.807 -0.6806 -2.2484  0.3616
 8293SOL    HW236339   1.112   3.785   5.930 -0.3927 -0.0739  0.3308
 8294SOL     OW36340   1.402   3.562   5.002  0.2624  0.5197  0.0060
 8294SOL    HW136341   1.425   3.500   5.072  1.9767  1.0866 -0.0687
 8294SOL    HW236342   1.482   3.564   4.950  1.2117 -0.6302  1.4026
 8295SOL     OW36343   4.174   0.746   7.627  0.3880 -0.3289  0.1441
 8295SOL    HW136344   4.223   0.828   7.636 -0.9384  0.3456  1.3600
 8295SOL    HW236345   4.082   0.771   7.636  1.2495  2.5213  1.0513
 8296SOL     OW36346   2.611   1.154   6.926  0.1159 -0.1505  0.2977
 8296SOL    HW136347   2.591   1.155   7.020 -2.7548  0.5967 -0.3323
 8296SOL    HW236348   2.534   1.196   6.888 -0.3067  1.0584  2.4387
 8297SOL     OW36349   4.478   2.878   2.213 -0.0257  0.3899 -0.5382
 8297SOL    HW136350   4.544   2.839   2.270 -1.0469 -1.2754 -0.4898
 8297SOL    HW236351   4.524   2.883   2.129 -2.7629  1.8539 -1.9747
 8298SOL     OW36352   1.892   2.157  16.010 -0.2405  0.0835  0.3678
 8298SOL    HW136353   1.892   2.200  16.095 -0.3695 -0.7522  0.7932
 8298SOL    HW236354   1.972   2.104  16.002 -0.4375 -0.6456  3.1528
 8299SOL     OW36355   1.331   2.074   8.241 -0.1165  0.1017 -0.8952
 8299SOL    HW136356   1.329   2.100   8.333  0.7249  0.4242 -0.9664
 8299SOL    HW236357   1.300   2.151   8.193  0.1881 -0.6666 -2.3417
 8300SOL     OW36358   0.874   0.836   3.704 -0.5184 -0.0480  0.3482
 8300SOL    HW136359   0.883   0.929   3.725  2.1361 -0.5390  1.3714
 8300SOL    HW236360   0.855   0.803   3.792  0.6467 -1.6821  0.0004
 8301SOL     OW36361   4.672   2.477   7.315  0.4728  0.3610  0.4035
 8301SOL    HW136362   0.015   2.529   7.267 -0.7018  0.4172 -1.1456
 8301SOL    HW236363   4.652   2.408   7.253 -0.7237  0.5947  0.5335
 8302SOL     OW36364   0.995   3.531   2.423 -0.1229  0.0184 -0.2953
 8302SOL    HW136365   0.927   3.571   2.477  2.8320  0.7892  2.8352
 8302SOL    HW236366   1.074   3.571   2.458 -0.4366  1.7418 -1.5119
 8303SOL     OW36367   0.876   4.008   4.415  0.4480 -0.4314  0.3990
 8303SOL    HW136368   0.870   3.970   4.502  0.4587  2.0447  1.4611
 8303SOL    HW236369   0.862   3.931   4.359  0.9361 -0.5832  0.4944
 8304SOL     OW36370   4.606   4.467   3.137 -0.0340  0.4555  0.4719
 8304SOL    HW136371   4.630   4.533   3.201 -2.5237  2.1127 -0.2898
 8304SOL    HW236372   4.650   4.393   3.179  1.2062  1.3954  0.8037
 8305SOL     OW36373   1.958   3.216  13.490 -0.1846  0.2633 -0.3516
 8305SOL    HW136374   1.864   3.221  13.504  0.2836  1.4160  2.4028
 8305SOL    HW236375   1.959   3.261  13.405 -0.3177 -0.7706 -0.9094
 8306SOL     OW36376   4.467   2.455   6.326 -0.1096  0.2976 -0.4983
 8306SOL    HW136377   4.375   2.431   6.331 -0.3262  0.7905 -2.0897
 8306SOL    HW236378   4.492   2.396   6.254  0.7242 -0.3484  0.3186
 8307SOL     OW36379   2.416   0.134   4.654  0.7744 -0.5248 -0.0220
 8307SOL    HW136380   2.443   0.161   4.566 -1.0443 -1.9062 -1.0058
 8307SOL    HW236381   2.345   0.076   4.626  1.3757 -1.0257 -0.5184
 8308SOL     OW36382   1.165   1.954   9.158  0.4413  0.1731  0.1915
 8308SOL    HW136383   1.085   2.005   9.145 -0.1475 -0.9616 -0.6199
 8308SOL    HW236384   1.224   2.027   9.176 -0.0070  0.6009 -0.0557
 8309SOL     OW36385   3.209   1.930  15.648  0.4159 -0.4093 -0.3030
 8309SOL    HW136386   3.289   1.982  15.659  0.8225 -1.1559  0.2427
 8309SOL    HW236387   3.146   1.974  15.705  0.6915 -1.0580  0.4950
 8310SOL     OW36388   2.114   1.518   8.725  0.2117  0.1857  0.1633
 8310SOL    HW136389   2.083   1.575   8.795  0.9407 -0.8438  1.3262
 8310SOL    HW236390   2.096   1.574   8.649 -2.0260 -0.2868  0.3307
 8311SOL     OW36391   0.536   3.810   2.418  0.3830 -0.0327 -0.1450
 8311SOL    HW136392   0.488   3.731   2.442 -1.3770  1.1196  0.1690
 8311SOL    HW236393   0.480   3.840   2.345  0.1338  0.0042  0.0605
 8312SOL     OW36394   4.045   0.778  10.560 -0.4457  0.7899  0.2521
 8312SOL    HW136395   3.983   0.848  10.540  1.5524  2.1903 -1.0939
 8312SOL    HW236396   4.028   0.757  10.652 -0.8978  0.1304  0.0169
 8313SOL     OW36397   4.690   3.818   9.098 -0.1781 -0.3143  0.1998
 8313SOL    HW136398   4.631   3.842   9.170 -1.0520 -1.2871 -0.2054
 8313SOL    HW236399   4.664   3.879   9.029 -1.4205 -0.9231  0.1285
 8314SOL     OW36400   3.430   2.141  16.456 -0.5816 -0.2291  0.3253
 8314SOL    HW136401   3.344   2.116  16.490 -1.6896 -0.2964 -2.4555
 8314SOL    HW236402   3.474   2.145  16.541 -0.0260 -2.2774  0.1328
 8315SOL     OW36403   2.999   1.149   7.627 -0.4225  0.1420 -0.1542
 8315SOL    HW136404   3.050   1.098   7.689  0.7404 -1.7301 -2.6567
 8315SOL    HW236405   3.002   1.231   7.676 -2.7784  0.1145  0.0589
 8316SOL     OW36406   0.466   3.685   5.488 -0.3238  0.2318 -0.1972
 8316SOL    HW136407   0.514   3.752   5.438 -0.7282  1.2479  0.7654
 8316SOL    HW236408   0.525   3.616   5.518 -0.7687 -0.4964 -1.0203
 8317SOL     OW36409   2.242   3.610   8.579  0.6164  0.1944  0.0692
 8317SOL    HW136410   2.311   3.616   8.512  0.9175  1.5228  0.4776
 8317SOL    HW236411   2.285   3.555   8.645  2.2172  0.2237 -0.9328
 8318SOL     OW36412   3.906   3.595   9.419  0.0404  0.4154  0.6278
 8318SOL    HW136413   3.858   3.512   9.414  1.4691 -0.2933 -1.7193
 8318SOL    HW236414   3.983   3.570   9.367 -0.8064 -2.4721  0.7369
 8319SOL     OW36415   1.316   2.791   4.619  0.1999 -0.0996  0.2245
 8319SOL    HW136416   1.252   2.801   4.548  0.0080 -0.2076  0.3835
 8319SOL    HW236417   1.390   2.773   4.561 -1.2922 -0.5897 -1.5338
 8320SOL     OW36418   4.487   4.101   4.537  0.2325 -0.3300  0.3417
 8320SOL    HW136419   4.458   4.192   4.524  0.5024 -0.4037 -0.7328
 8320SOL    HW236420   4.581   4.115   4.533  0.0740  0.7688  0.4583
 8321SOL     OW36421   2.714   1.131   8.269  0.7890 -0.0760  0.3336
 8321SOL    HW136422   2.656   1.059   8.296 -0.2827  2.0175  3.6325
 8321SOL    HW236423   2.740   1.089   8.187 -0.0053  1.7978 -0.8844
 8322SOL     OW36424   3.147   1.392   9.408  0.1433 -0.4403 -0.5808
 8322SOL    HW136425   3.240   1.389   9.384  0.3925 -1.0094  0.4637
 8322SOL    HW236426   3.147   1.361   9.498  1.9623 -0.4428 -0.5704
 8323SOL     OW36427   0.421   2.709   6.501 -0.2109  0.0116 -0.1554
 8323SOL    HW136428   0.516   2.702   6.510 -0.0387  0.8729 -1.3027
 8323SOL    HW236429   0.386   2.630   6.461  1.2107  0.5431 -2.4599
 8324SOL     OW36430   0.204   2.405   8.472 -0.2377  0.7255 -0.2727
 8324SOL    HW136431   0.291   2.370   8.489 -0.5366  0.5143  0.8441
 8324SOL    HW236432   0.186   2.362   8.389 -0.8867 -0.0918  0.2889
 8325SOL     OW36433   1.853   4.572   1.767 -0.0539  0.0373 -0.7563
 8325SOL    HW136434   1.802   4.493   1.751 -0.1405  0.1967 -1.2637
 8325SOL    HW236435   1.858   4.610   1.680  0.3042 -1.7861 -1.5296
 8326SOL     OW36436   2.634   2.499   3.097 -0.0055  0.5613 -0.9994
 8326SOL    HW136437   2.689   2.464   3.027  0.7443  2.0770 -1.1799
 8326SOL    HW236438   2.572   2.541   3.037  0.5522  0.6231 -1.5327
 8327SOL     OW36439   2.555   3.233  17.263 -0.5753  0.0133  0.3154
 8327SOL    HW136440   2.609   3.309  17.242  0.3067 -0.3452  1.2882
 8327SOL    HW236441   2.469   3.274  17.255 -0.5174 -0.0130 -0.4897
 8328SOL     OW36442   3.246   2.646   7.802 -0.7035 -0.2792 -0.1926
 8328SOL    HW136443   3.265   2.740   7.809 -0.2975 -0.3412 -0.4618
 8328SOL    HW236444   3.157   2.655   7.767 -0.4659  2.1224 -0.1779
 8329SOL     OW36445   1.436   4.073   9.315 -0.0289  0.0734  0.3875
 8329SOL    HW136446   1.472   4.000   9.364  0.0072 -0.5089 -0.5057
 8329SOL    HW236447   1.363   4.103   9.368 -0.3362 -1.3388  0.7389
 8330SOL     OW36448   4.042   3.667  15.268 -0.1664  0.0468 -0.4165
 8330SOL    HW136449   3.991   3.595  15.232 -1.7235  0.3849  1.0919
 8330SOL    HW236450   4.002   3.739  15.221  2.2886  0.4701 -1.8310
 8331SOL     OW36451   1.664   1.877   7.137 -0.5830 -0.2394  0.5717
 8331SOL    HW136452   1.617   1.875   7.054 -0.6686  1.8186  0.5603
 8331SOL    HW236453   1.720   1.956   7.133 -0.8871 -0.0967 -1.1383
 8332SOL     OW36454   3.780   1.181   4.839  0.3864  0.7313  0.3877
 8332SOL    HW136455   3.775   1.153   4.747  0.0388  0.0351  0.6111
 8332SOL    HW236456   3.846   1.127   4.882  2.0161  0.4483 -2.4669
 8333SOL     OW36457   1.240   3.348  12.851  0.4871  0.0629 -1.0043
 8333SOL    HW136458   1.297   3.388  12.784 -0.4412  0.6780 -1.4226
 8333SOL    HW236459   1.229   3.261  12.812  0.3885 -1.5769  2.7304
 8334SOL     OW36460   4.393   2.641  13.009 -0.2959 -0.6798  0.4794
 8334SOL    HW136461   4.339   2.716  13.034 -1.0164 -1.5324  1.5490
 8334SOL    HW236462   4.392   2.605  13.098  0.2894  0.5824  0.9924
 8335SOL     OW36463   0.092   3.141   5.864 -0.3298 -0.2250 -0.4860
 8335SOL    HW136464   0.177   3.158   5.826  0.9695 -3.7263  0.7947
 8335SOL    HW236465   0.104   3.163   5.956 -0.3756  2.6692 -1.1947
 8336SOL     OW36466   3.690   0.847   5.073  0.1987  0.7482  0.0970
 8336SOL    HW136467   3.732   0.778   5.022  0.3139  1.3287 -0.5796
 8336SOL    HW236468   3.609   0.861   5.023  0.2721  2.8809  0.5997
 8337SOL     OW36469   3.346   3.755   6.276  0.3492  0.3406 -1.0001
 8337SOL    HW136470   3.312   3.669   6.251  1.2686 -0.0899 -0.7574
 8337SOL    HW236471   3.272   3.814   6.261 -1.6543 -1.2505  2.6404
 8338SOL     OW36472   2.940   0.283   1.081  0.1008  0.0246  0.3479
 8338SOL    HW136473   2.881   0.286   1.006 -0.1306 -0.3800  0.5175
 8338SOL    HW236474   2.913   0.199   1.117  0.9296 -0.2500  0.3406
 8339SOL     OW36475   2.073   2.485   3.639  0.2011 -0.2578 -0.0909
 8339SOL    HW136476   2.035   2.398   3.622  0.1388 -0.1957 -0.2712
 8339SOL    HW236477   2.168   2.472   3.642  0.4891  2.4447  2.3848
 8340SOL     OW36478   0.126   2.151   7.925  0.3247  0.3108 -0.3304
 8340SOL    HW136479   0.127   2.084   7.857 -0.2046 -1.5833  1.5294
 8340SOL    HW236480   0.157   2.102   8.001  0.5054 -1.0136 -1.2699
 8341SOL     OW36481   2.728   1.887  17.329  0.0744  0.1274  0.8411
 8341SOL    HW136482   2.813   1.920  17.357 -0.2144  2.3528 -0.9483
 8341SOL    HW236483   2.741   1.800  17.367  0.6683  0.0186  0.3920
 8342SOL     OW36484   2.544   4.506   6.961  0.8169 -0.3234  0.4519
 8342SOL    HW136485   2.520   4.581   7.015  1.0314 -0.6581  1.0021
 8342SOL    HW236486   2.558   4.436   7.024  0.7767 -0.6769  0.0686
 8343SOL     OW36487   3.747   4.129  14.496 -0.0709  0.3126  1.0927
 8343SOL    HW136488   3.762   4.220  14.470 -1.6090  0.4035  0.5174
 8343SOL    HW236489   3.659   4.126  14.458  0.7558 -4.8791 -0.4242
 8344SOL     OW36490   3.760   1.357   6.228 -0.2173 -0.6505 -0.2672
 8344SOL    HW136491   3.766   1.265   6.203 -1.7385 -0.4922 -1.1727
 8344SOL    HW236492   3.805   1.348   6.313 -1.3865 -0.0645  0.4090
 8345SOL     OW36493   1.023   3.683   5.113  0.7975  0.2157 -0.1452
 8345SOL    HW136494   0.964   3.750   5.078 -0.4584 -1.6426 -1.5592
 8345SOL    HW236495   1.044   3.731   5.193 -0.8185  1.8608 -0.7138
 8346SOL     OW36496   4.145   1.461   7.256 -0.7541  0.1862 -0.3476
 8346SOL    HW136497   4.179   1.376   7.282 -1.7416  0.1228  0.7413
 8346SOL    HW236498   4.170   1.511   7.334 -1.5442 -0.9347  0.6381
 8347SOL     OW36499   3.389   1.049   4.213 -0.1190 -0.3197  0.3076
 8347SOL    HW136500   3.305   1.083   4.182  1.5559  1.6728 -2.0223
 8347SOL    HW236501   3.435   1.046   4.129 -2.2515  2.5022 -0.9578
 8348SOL     OW36502   3.102   2.948  15.127  0.2234 -0.0077 -0.6395
 8348SOL    HW136503   3.031   2.999  15.165  0.4918  0.4277 -0.7260
 8348SOL    HW236504   3.172   3.012  15.135 -0.5448  0.8013 -0.4475
 8349SOL     OW36505   2.664   4.571   1.771  0.3116  0.0804  0.0739
 8349SOL    HW136506   2.621   4.491   1.740  0.9460 -0.1450 -0.2152
 8349SOL    HW236507   2.757   4.564   1.749  0.2934  0.0534  0.0029
 8350SOL     OW36508   4.341   0.177   0.153  0.4691  0.6592  0.6057
 8350SOL    HW136509   4.334   0.240   0.081  1.4450 -1.2947 -1.1666
 8350SOL    HW236510   4.288   0.205   0.229  1.5551 -1.0288  1.9736
 8351SOL     OW36511   2.000   0.285   6.662 -0.1304  0.0658 -0.3623
 8351SOL    HW136512   1.922   0.259   6.711 -0.5672 -0.2725 -1.2407
 8351SOL    HW236513   2.004   0.373   6.700 -0.5999  0.2852 -0.8166
 8352SOL     OW36514   4.344   3.982   5.627 -0.5319 -0.1672 -0.4616
 8352SOL    HW136515   4.306   4.062   5.591 -1.9690 -1.4841 -1.8743
 8352SOL    HW236516   4.265   3.959   5.677 -0.4423  2.0321  0.7280
 8353SOL     OW36517   3.543   3.563  13.201 -0.0261 -0.2697 -0.2431
 8353SOL    HW136518   3.605   3.635  13.200  0.5800 -0.7800  0.5982
 8353SOL    HW236519   3.600   3.501  13.246 -0.8433 -0.3234  0.7190
 8354SOL     OW36520   0.686   3.235  15.370  0.4291 -0.9657  0.4380
 8354SOL    HW136521   0.645   3.274  15.293  0.6695  1.0680  1.3325
 8354SOL    HW236522   0.699   3.146  15.338  0.3817 -0.9234  0.3029
 8355SOL     OW36523   2.828   2.560  12.640  0.3057  0.0037  0.1220
 8355SOL    HW136524   2.918   2.550  12.611  0.4504  3.0636 -0.5198
 8355SOL    HW236525   2.775   2.511  12.578  0.0459  1.7109 -1.0037
 8356SOL     OW36526   3.773   2.308   4.738 -0.3046 -0.7533 -0.4030
 8356SOL    HW136527   3.842   2.343   4.682 -1.4349  0.2362 -1.1869
 8356SOL    HW236528   3.823   2.280   4.815 -2.1919 -0.9999  0.7628
 8357SOL     OW36529   2.497   2.115   0.490 -0.1092  0.8850  0.9091
 8357SOL    HW136530   2.469   2.153   0.407  2.7343  0.4330 -0.2405
 8357SOL    HW236531   2.473   2.193   0.541  1.5710  1.2118  1.1959
 8358SOL     OW36532   3.625   4.207   8.600 -0.5298  0.5708  0.1908
 8358SOL    HW136533   3.597   4.177   8.513 -1.1956  1.4017  0.1184
 8358SOL    HW236534   3.565   4.178   8.669 -0.1002 -1.9334 -0.4728
 8359SOL     OW36535   3.125   4.006   1.401 -0.2160  0.3565 -0.4440
 8359SOL    HW136536   3.091   3.936   1.344  0.8476  0.8032 -1.6130
 8359SOL    HW236537   3.168   3.954   1.470 -0.2800 -0.1617 -0.7946
 8360SOL     OW36538   2.518   2.471   4.840  0.3128 -0.5862 -0.0824
 8360SOL    HW136539   2.471   2.394   4.871 -0.3525  0.5700  1.7100
 8360SOL    HW236540   2.518   2.533   4.913 -0.6572  0.4180 -0.9344
 8361SOL     OW36541   3.976   1.876  11.667  0.4254 -0.5007 -0.1351
 8361SOL    HW136542   4.004   1.888  11.576  0.1464 -0.9475 -0.2748
 8361SOL    HW236543   4.053   1.840  11.711  0.2603 -0.7516 -0.0552
 8362SOL     OW36544   0.931   1.640   1.944 -0.1870 -0.0411 -0.8780
 8362SOL    HW136545   0.907   1.635   1.851  1.0427  2.6818 -1.3343
 8362SOL    HW236546   0.886   1.719   1.974  0.1411 -0.2732  0.2353
 8363SOL     OW36547   3.674   3.307  16.849  0.4927 -0.3340  0.1123
 8363SOL    HW136548   3.657   3.400  16.835 -0.9637 -0.9827 -2.4394
 8363SOL    HW236549   3.759   3.300  16.807  0.5570  2.3100 -0.1715
 8364SOL     OW36550   3.689   3.309   4.685 -0.6641 -0.4217  0.0678
 8364SOL    HW136551   3.775   3.269   4.696  0.8128  3.2818  1.8100
 8364SOL    HW236552   3.666   3.291   4.594 -0.6030  3.1302 -0.6462
 8365SOL     OW36553   2.892   1.311   1.215 -1.0614 -0.4599  0.2600
 8365SOL    HW136554   2.966   1.320   1.276 -0.5371  3.1015 -0.9419
 8365SOL    HW236555   2.821   1.362   1.254  0.6963  1.1555  1.3483
 8366SOL     OW36556   2.834   0.052   1.164  0.3398  0.2470 -0.3208
 8366SOL    HW136557   2.750   0.007   1.167  0.0344  0.8467  0.0640
 8366SOL    HW236558   2.859   0.052   1.256  0.1630  0.8093 -0.2720
 8367SOL     OW36559   3.526   2.770   2.891 -0.2537 -0.1499  0.3127
 8367SOL    HW136560   3.607   2.780   2.841 -1.0308  1.3089 -0.6524
 8367SOL    HW236561   3.567   2.771   2.978 -0.4150  2.5058  0.3836
 8368SOL     OW36562   1.145   3.949   2.562 -0.0489 -0.1220 -0.0054
 8368SOL    HW136563   1.132   3.975   2.471 -2.0640 -0.0021  0.3163
 8368SOL    HW236564   1.157   4.033   2.608  3.2161  0.0612 -1.1632
 8369SOL     OW36565   1.306   2.256   0.830  0.2272 -0.0849 -0.2365
 8369SOL    HW136566   1.382   2.239   0.885 -0.4521  1.8754  1.3193
 8369SOL    HW236567   1.234   2.208   0.873  0.2351 -0.8078 -1.0212
 8370SOL     OW36568   3.370   3.271   0.515 -0.0515 -0.2280  0.3357
 8370SOL    HW136569   3.381   3.327   0.592 -1.1741  1.3342 -0.6630
 8370SOL    HW236570   3.280   3.241   0.528 -0.8498  1.2544 -1.8311
 8371SOL     OW36571   3.941   2.424   2.668 -0.3521 -0.0689 -0.0931
 8371SOL    HW136572   3.878   2.360   2.635 -0.5008  1.1077 -2.0821
 8371SOL    HW236573   3.965   2.480   2.595 -0.3975 -2.1379 -1.6810
 8372SOL     OW36574   2.136   0.347   0.561 -0.1227 -0.3994 -0.0698
 8372SOL    HW136575   2.054   0.302   0.581 -0.8008  0.5624 -0.6888
 8372SOL    HW236576   2.115   0.392   0.480 -1.9032  1.0194  1.1900
 8373SOL     OW36577   0.523   1.680   0.951 -0.3597 -0.0222 -0.0832
 8373SOL    HW136578   0.497   1.658   1.041  0.9065  1.1445  0.5746
 8373SOL    HW236579   0.480   1.765   0.941 -0.7305 -0.1008  0.8074
 8374SOL     OW36580   1.131   4.490   4.206 -0.5941 -0.0664  0.3320
 8374SOL    HW136581   1.162   4.454   4.288  2.0711 -2.5395 -1.7573
 8374SOL    HW236582   1.196   4.447   4.150 -1.1345  1.0551 -1.1604
 8375SOL     OW36583   2.286   0.618   9.402 -0.3181 -0.2389 -0.1027
 8375SOL    HW136584   2.378   0.640   9.413 -0.4759  0.2017  0.3542
 8375SOL    HW236585   2.263   0.561   9.476  0.4618  0.3585  0.5916
 8376SOL     OW36586   3.575   0.794   8.009  0.0173  0.5765 -0.5174
 8376SOL    HW136587   3.526   0.823   7.932 -1.3855  2.0670  0.9358
 8376SOL    HW236588   3.554   0.863   8.072 -3.5014 -0.0378 -0.9862
 8377SOL     OW36589   3.975   0.653  12.891 -0.1979 -0.0177 -0.2638
 8377SOL    HW136590   3.918   0.600  12.947  0.9642 -3.3083 -2.1668
 8377SOL    HW236591   3.926   0.664  12.810 -0.5379 -1.9538 -0.3399
 8378SOL     OW36592   0.421   1.191  17.002  0.1183 -0.9691  0.0161
 8378SOL    HW136593   0.390   1.120  16.946 -0.2846  0.8223 -1.9899
 8378SOL    HW236594   0.399   1.169  17.093 -0.8119 -1.2692 -0.2822
 8379SOL     OW36595   1.275   1.431   6.837  0.0003  0.0260 -0.3417
 8379SOL    HW136596   1.201   1.426   6.778 -0.0131 -1.2886 -0.2106
 8379SOL    HW236597   1.342   1.381   6.790 -0.3734 -0.5568 -0.2477
 8380SOL     OW36598   1.778   3.426  16.026 -0.7457 -0.2992 -0.6375
 8380SOL    HW136599   1.724   3.409  15.948 -0.9869  0.4043 -0.6299
 8380SOL    HW236600   1.716   3.434  16.099  0.4250 -0.6635  0.3998
 8381SOL     OW36601   3.898   3.583   3.729  0.7865  0.5092 -0.1719
 8381SOL    HW136602   3.904   3.568   3.635 -3.4482 -0.3268 -0.2768
 8381SOL    HW236603   3.990   3.560   3.743  0.5089 -0.1057  0.6595
 8382SOL     OW36604   3.645   2.913   3.931  0.3693  0.0942 -0.1793
 8382SOL    HW136605   3.727   2.878   3.965  0.0774 -0.0362  0.3930
 8382SOL    HW236606   3.644   2.876   3.843 -0.9873  0.3143 -0.2590
 8383SOL     OW36607   1.575   3.536   3.738  0.7841  0.0493 -0.7705
 8383SOL    HW136608   1.590   3.565   3.827 -0.6889 -0.5534 -0.3280
 8383SOL    HW236609   1.503   3.591   3.708  0.0477 -1.0219 -0.9860
 8384SOL     OW36610   2.761   0.471   4.239 -0.2566  0.1143  0.3739
 8384SOL    HW136611   2.697   0.497   4.305 -1.3691 -0.4526 -0.4863
 8384SOL    HW236612   2.713   0.408   4.185  1.0001 -0.8491  0.3781
 8385SOL     OW36613   0.777   1.732  15.235 -0.2582 -0.4821 -0.2942
 8385SOL    HW136614   0.854   1.678  15.218  0.2274 -0.0941  0.6706
 8385SOL    HW236615   0.831   1.810  15.242 -0.7957 -0.4428  3.4612
 8386SOL     OW36616   1.108   0.438   2.400 -0.0134 -0.7504  0.3602
 8386SOL    HW136617   1.149   0.523   2.383 -0.6153 -0.0969  2.1415
 8386SOL    HW236618   1.118   0.397   2.314  2.1220  1.3993 -0.4271
 8387SOL     OW36619   3.473   3.981   3.211 -0.2184  0.4860  0.5745
 8387SOL    HW136620   3.415   3.963   3.138  1.0043  0.3512 -0.3595
 8387SOL    HW236621   3.471   3.897   3.257 -0.6191  2.1628  3.6768
 8388SOL     OW36622   2.656   4.109   1.348  0.4187 -0.0268 -0.1718
 8388SOL    HW136623   2.721   4.176   1.367  1.2987 -1.4112  1.7453
 8388SOL    HW236624   2.699   4.062   1.276  1.1545 -0.9814  0.8834
 8389SOL     OW36625   4.513   3.555   3.183 -0.3252  0.1592  0.6120
 8389SOL    HW136626   4.586   3.611   3.209  0.0723 -1.3359  2.7729
 8389SOL    HW236627   4.521   3.536   3.090  2.3971  1.0546  0.6517
 8390SOL     OW36628   0.244   0.014   3.432 -0.4590  0.0461 -0.2674
 8390SOL    HW136629   0.187   4.663   3.408 -0.7247  0.4328 -0.8323
 8390SOL    HW236630   0.327   4.704   3.397  0.2484  0.8563  0.6661
 8391SOL     OW36631   4.443   1.827   5.092  0.1252  0.0604  0.1976
 8391SOL    HW136632   4.356   1.796   5.069  0.1824  1.1806 -1.5093
 8391SOL    HW236633   4.496   1.748   5.101  0.8840  0.8336  2.6450
 8392SOL     OW36634   4.071   3.311   1.945  0.4221  0.7164  0.5250
 8392SOL    HW136635   4.074   3.239   1.883 -0.1075  0.1266  1.1878
 8392SOL    HW236636   4.161   3.311   1.978  0.8383 -0.8223 -0.6175
 8393SOL     OW36637   1.868   3.329   0.516  0.5081 -0.3617  0.0677
 8393SOL    HW136638   1.907   3.267   0.454  0.5730  0.0123 -0.2699
 8393SOL    HW236639   1.774   3.314   0.509  0.5131 -1.0018  1.4695
 8394SOL     OW36640   2.082   3.830   9.629  0.0862  0.0118 -0.3700
 8394SOL    HW136641   2.086   3.925   9.627 -0.5525 -0.0065 -2.2268
 8394SOL    HW236642   1.989   3.823   9.648 -0.0062 -0.2717 -0.9229
 8395SOL     OW36643   0.179   3.404  17.285  0.6786 -0.4968  0.1797
 8395SOL    HW136644   0.206   3.321  17.245  0.8284 -0.7152  0.7454
 8395SOL    HW236645   0.095   3.421  17.242 -0.5734 -2.1510  1.9910
 8396SOL     OW36646   3.343   4.559  12.303 -0.2875  0.1936  0.0390
 8396SOL    HW136647   3.352   4.649  12.335  4.2849 -0.4306  0.4189
 8396SOL    HW236648   3.298   4.512  12.373  1.2141 -1.2743  0.0173
 8397SOL     OW36649   0.332   2.028   3.938  0.0144  0.2049 -0.6947
 8397SOL    HW136650   0.257   1.992   3.889  0.5189 -0.6810 -0.8076
 8397SOL    HW236651   0.404   1.968   3.920 -0.7630 -0.6103 -1.1138
 8398SOL     OW36652   3.567   3.781  11.656  0.4821  0.4823  0.0302
 8398SOL    HW136653   3.549   3.761  11.564  0.5675  2.2063 -0.3584
 8398SOL    HW236654   3.662   3.794  11.655  0.3629  1.2397 -1.4315
 8399SOL     OW36655   2.070   3.809   7.386  0.5809 -0.4726  0.4550
 8399SOL    HW136656   1.986   3.819   7.430  0.5731 -1.3442  0.6257
 8399SOL    HW236657   2.031   3.777   7.304  0.9486  0.9644 -0.2818
 8400SOL     OW36658   4.486   4.161   1.572  0.2694 -0.3019 -0.3726
 8400SOL    HW136659   4.562   4.124   1.528 -0.4148 -0.7314 -1.1996
 8400SOL    HW236660   4.422   4.163   1.501  0.5366 -0.5795 -0.6202
 8401SOL     OW36661   4.219   2.767   7.166  0.0910 -0.7738 -0.0128
 8401SOL    HW136662   4.155   2.721   7.112 -0.1493  0.1952 -0.5560
 8401SOL    HW236663   4.299   2.723   7.137  0.5872 -0.5242  0.9641
 8402SOL     OW36664   1.291   1.645   5.605  1.0278 -0.8573 -0.4634
 8402SOL    HW136665   1.245   1.706   5.662 -0.9390 -1.3570 -1.5021
 8402SOL    HW236666   1.374   1.623   5.648  0.1036 -0.7010  1.3668
 8403SOL     OW36667   0.795   3.335  11.160 -0.4230 -0.1655  0.1211
 8403SOL    HW136668   0.744   3.281  11.100 -2.0928  2.0563 -0.4431
 8403SOL    HW236669   0.764   3.307  11.246 -2.8100  0.8441 -0.4245
 8404SOL     OW36670   0.173   0.339  12.930  0.0152 -0.6210  0.3020
 8404SOL    HW136671   0.232   0.287  12.876  0.7404 -0.2727  0.7547
 8404SOL    HW236672   0.190   0.304  13.017 -1.0136 -0.2642  0.6559
 8405SOL     OW36673   1.611   2.939   4.488  0.4407  0.3017 -1.0637
 8405SOL    HW136674   1.577   2.860   4.531 -3.0601  1.9504 -0.8627
 8405SOL    HW236675   1.564   3.002   4.542 -1.2822 -0.1548 -2.0469
 8406SOL     OW36676   1.913   4.657   1.495  0.2284 -0.0174  0.0365
 8406SOL    HW136677   1.840   4.682   1.438 -0.9514 -1.7367  0.7978
 8406SOL    HW236678   1.980   4.640   1.429 -0.6367 -2.0671 -0.3286
 8407SOL     OW36679   2.947   2.314   3.293  0.1782  0.6932 -0.1528
 8407SOL    HW136680   2.918   2.247   3.231 -2.3143  0.9919  0.7116
 8407SOL    HW236681   2.867   2.313   3.345  0.3937  0.2449  0.1702
 8408SOL     OW36682   0.925   3.754   4.276 -0.6280 -0.3638 -0.0634
 8408SOL    HW136683   0.990   3.740   4.207 -1.3158 -1.9336 -0.3852
 8408SOL    HW236684   0.847   3.724   4.230 -0.3291 -2.3685  0.7329
 8409SOL     OW36685   1.459   1.996   1.989  0.2488 -0.0090  0.1963
 8409SOL    HW136686   1.459   1.966   1.898  1.0051 -0.7311  0.4370
 8409SOL    HW236687   1.505   1.930   2.040 -0.3158 -1.0947 -0.6815
 8410SOL     OW36688   2.415   0.806   4.832  0.1618 -0.5980 -0.6795
 8410SOL    HW136689   2.471   0.776   4.904 -1.5212 -0.9970  0.4471
 8410SOL    HW236690   2.480   0.801   4.762  0.2871  2.6674 -0.7891
 8411SOL     OW36691   4.402   3.280   9.584  0.0587 -1.0551 -0.4106
 8411SOL    HW136692   4.353   3.329   9.518 -0.3389  0.4684  1.0098
 8411SOL    HW236693   4.434   3.204   9.537 -2.0833 -1.6413 -0.9052
 8412SOL     OW36694   0.783   0.301  13.519  0.3312 -0.0976 -0.1561
 8412SOL    HW136695   0.869   0.333  13.490 -0.4385  1.1028 -1.1086
 8412SOL    HW236696   0.775   0.324  13.611 -1.1305 -0.4939 -0.1865
 8413SOL     OW36697   3.233   1.604   2.276 -0.1289 -0.2798 -0.3062
 8413SOL    HW136698   3.141   1.619   2.298  0.0425  0.7438 -0.2912
 8413SOL    HW236699   3.220   1.590   2.182  0.4962 -2.0802 -0.1255
 8414SOL     OW36700   3.253   4.061  14.963 -0.3568  0.1041 -0.2125
 8414SOL    HW136701   3.273   4.147  14.925 -1.3248  1.3814  2.1703
 8414SOL    HW236702   3.344   4.030  14.965 -0.2683  0.3206 -1.0498
 8415SOL     OW36703   0.916   4.329  16.792 -0.1625  0.7099  0.7730
 8415SOL    HW136704   0.985   4.289  16.845 -2.4644 -1.0263  2.4724
 8415SOL    HW236705   0.835   4.304  16.837  0.7464 -1.1946  1.3833
 8416SOL     OW36706   0.969   0.777  13.089 -0.5755 -0.4591 -0.1109
 8416SOL    HW136707   0.977   0.842  13.158 -0.7514 -1.6095  0.9926
 8416SOL    HW236708   0.953   0.818  13.004  1.2515 -2.0322 -1.2249
 8417SOL     OW36709   1.975   3.160   0.359 -0.2623  0.2424  0.2254
 8417SOL    HW136710   2.025   3.209   0.294  0.8695 -0.0818  0.8634
 8417SOL    HW236711   1.983   3.069   0.334  1.6972  0.8600 -1.3602
 8418SOL     OW36712   3.250   0.318   0.217 -0.0425  0.0360 -0.6276
 8418SOL    HW136713   3.263   0.270   0.135 -2.7788 -1.2248 -0.3143
 8418SOL    HW236714   3.155   0.326   0.228  0.5575 -0.4803  5.0092
 8419SOL     OW36715   4.247   2.354   2.634  0.0892  0.2052  0.3164
 8419SOL    HW136716   4.237   2.258   2.631  2.2547 -0.0410  1.2416
 8419SOL    HW236717   4.159   2.385   2.656  0.7238  1.1908  1.4425
 8420SOL     OW36718   2.119   1.699   3.222  0.3411  0.0602  0.1974
 8420SOL    HW136719   2.160   1.621   3.186  0.6497 -0.4103  1.5671
 8420SOL    HW236720   2.032   1.710   3.182  0.2491  1.3815  0.7498
 8421SOL     OW36721   3.346   3.259  14.651 -0.4166 -0.1260 -0.2205
 8421SOL    HW136722   3.357   3.247  14.557 -0.4806 -1.7032 -0.0394
 8421SOL    HW236723   3.401   3.191  14.691 -2.2734 -2.2010 -1.1922
 8422SOL     OW36724   0.116   4.386  15.107  0.1865  0.3635 -0.5694
 8422SOL    HW136725   0.131   4.382  15.201 -0.3542 -3.3705 -0.6593
 8422SOL    HW236726   0.206   4.386  15.075  0.5100 -2.0538  0.3821
 8423SOL     OW36727   0.219   0.370   2.652 -0.4168 -0.0580 -0.1589
 8423SOL    HW136728   0.305   0.412   2.647 -0.6640  0.2953 -1.3808
 8423SOL    HW236729   0.188   0.370   2.562 -2.9505  0.6754  0.7254
 8424SOL     OW36730   2.403   3.702   4.719 -0.1230 -1.0592 -0.0300
 8424SOL    HW136731   2.360   3.757   4.653 -2.3604 -1.9812  0.6624
 8424SOL    HW236732   2.430   3.767   4.784  2.1630 -4.7578  2.7216
 8425SOL     OW36733   2.342   3.794   0.575  0.3975  0.1205  0.0989
 8425SOL    HW136734   2.397   3.872   0.587  1.5611 -0.9187  1.5614
 8425SOL    HW236735   2.308   3.808   0.487 -0.9184 -3.4932  0.0268
 8426SOL     OW36736   2.490   3.475   9.025  0.5174  0.2418 -0.0608
 8426SOL    HW136737   2.578   3.457   8.994  0.6051 -1.9597  1.4817
 8426SOL    HW236738   2.490   3.436   9.113 -0.8789 -0.2645 -0.2898
 8427SOL     OW36739   1.646   1.981   4.087  0.1790  0.2539  0.5803
 8427SOL    HW136740   1.714   1.924   4.052  1.9932  1.9089  1.4235
 8427SOL    HW236741   1.660   2.061   4.037 -0.6573 -0.0244 -0.1137
 8428SOL     OW36742   1.035   2.037  17.296 -0.4171  0.4730 -0.1666
 8428SOL    HW136743   0.992   1.999  17.372 -1.0361 -0.6138 -1.0466
 8428SOL    HW236744   0.977   2.112  17.290 -2.6959 -1.2279  0.8286
 8429SOL     OW36745   1.770   4.275   5.612  0.1319 -0.4144  0.4940
 8429SOL    HW136746   1.766   4.186   5.647  3.3875 -0.3956  0.9336
 8429SOL    HW236747   1.677   4.298   5.606  0.1568 -0.1376  1.2578
 8430SOL     OW36748   2.180   3.190   6.769  0.0591  0.2769  0.2731
 8430SOL    HW136749   2.142   3.108   6.737 -0.2920  2.2207 -4.2073
 8430SOL    HW236750   2.143   3.203   6.857 -1.7835  1.7338 -0.7055
 8431SOL     OW36751   1.088   1.482   7.066  0.2034  0.0584  0.3877
 8431SOL    HW136752   1.130   1.515   7.145  0.7446 -0.4497  0.3099
 8431SOL    HW236753   1.161   1.471   7.005 -0.1223  0.1192 -0.0142
 8432SOL     OW36754   1.020   3.142  15.271  0.2576 -1.0023 -0.1303
 8432SOL    HW136755   0.935   3.164  15.234 -1.0427 -0.5702  3.0538
 8432SOL    HW236756   1.072   3.125  15.193  2.0585 -0.4064  0.9312
 8433SOL     OW36757   2.145   2.411  15.591 -0.3434 -0.2098  0.3834
 8433SOL    HW136758   2.126   2.504  15.596  0.8877  0.1549 -1.4961
 8433SOL    HW236759   2.096   2.380  15.667  0.3710 -1.3253  0.4050
 8434SOL     OW36760   0.688   2.430  13.712 -0.3426 -0.3590 -0.3850
 8434SOL    HW136761   0.669   2.351  13.663  1.7346 -0.6032 -0.7855
 8434SOL    HW236762   0.622   2.437  13.781  1.2322 -2.7408  1.3561
 8435SOL     OW36763   3.173   1.746   6.298  0.4287 -0.7546  0.1233
 8435SOL    HW136764   3.226   1.823   6.318 -0.5678  0.1854 -0.8611
 8435SOL    HW236765   3.243   1.681   6.301  2.6217  1.4884 -2.2238
 8436SOL     OW36766   2.007   0.191  16.546  0.9993 -0.0142 -0.0180
 8436SOL    HW136767   1.997   0.145  16.629 -0.7156  1.6831  0.7098
 8436SOL    HW236768   2.059   0.127  16.497 -1.3204 -2.2795  0.4432
 8437SOL     OW36769   2.975   4.273   7.306 -0.0753  0.4480  0.8776
 8437SOL    HW136770   2.985   4.348   7.249 -0.6701 -0.9263 -1.0373
 8437SOL    HW236771   2.973   4.305   7.396 -1.3935  0.6727  0.7778
 8438SOL     OW36772   0.569   3.324   2.840 -0.0061 -0.2427 -0.3048
 8438SOL    HW136773   0.522   3.405   2.820  1.9202  0.4744 -1.9315
 8438SOL    HW236774   0.657   3.335   2.803  1.2097 -2.4548  1.9813
 8439SOL     OW36775   2.427   4.329  13.670  0.4231  0.4064  0.2491
 8439SOL    HW136776   2.454   4.238  13.683  3.1505  0.8758 -2.1836
 8439SOL    HW236777   2.401   4.346  13.761  0.5561 -0.4000  0.4366
 8440SOL     OW36778   2.421   0.979  11.171 -0.2929  0.1783  0.1765
 8440SOL    HW136779   2.407   0.955  11.263 -0.4825 -2.3975 -0.5220
 8440SOL    HW236780   2.467   0.902  11.137 -0.4523  0.6300 -1.0545
 8441SOL     OW36781   2.320   2.768   3.880 -0.6752 -0.1466  0.1494
 8441SOL    HW136782   2.245   2.718   3.915 -0.4722 -0.5717 -0.0214
 8441SOL    HW236783   2.266   2.828   3.828  0.1252  1.0559  0.7289
 8442SOL     OW36784   2.759   0.388   9.086 -0.0707  0.2297  0.6498
 8442SOL    HW136785   2.664   0.382   9.095 -0.2363 -1.2084 -1.9300
 8442SOL    HW236786   2.778   0.334   9.163  2.8215  1.6590  0.9274
 8443SOL     OW36787   1.580   3.248  13.016 -0.4804  0.7632 -0.5616
 8443SOL    HW136788   1.582   3.153  13.023 -0.7856  0.6286 -2.2010
 8443SOL    HW236789   1.513   3.268  13.081  0.4380  0.0815  0.5832
 8444SOL     OW36790   2.970   1.915   6.944  0.5072  0.2006  0.2934
 8444SOL    HW136791   2.986   1.897   6.851  1.5531 -1.1256  0.7317
 8444SOL    HW236792   3.013   1.842   6.989 -2.9199 -1.7418  0.4270
 8445SOL     OW36793   1.243   2.599  15.822  0.4013  0.3535 -0.2040
 8445SOL    HW136794   1.334   2.626  15.807  1.0512 -0.7866  1.5911
 8445SOL    HW236795   1.195   2.656  15.763 -1.5823 -0.2758  0.8068
 8446SOL     OW36796   0.745   2.542   9.073 -0.1961  0.2350 -0.0103
 8446SOL    HW136797   0.805   2.518   9.003  0.7844 -0.0303  0.9268
 8446SOL    HW236798   0.723   2.632   9.048  1.2838  1.1037  1.7881
 8447SOL     OW36799   4.047   0.187   7.179 -0.0127  0.0419 -0.5521
 8447SOL    HW136800   4.031   0.093   7.194 -1.5663  0.2724 -0.8200
 8447SOL    HW236801   4.127   0.195   7.232 -0.1875 -0.4921 -0.2056
 8448SOL     OW36802   3.062   2.403   3.802  0.0275 -0.3246 -0.2532
 8448SOL    HW136803   3.014   2.465   3.748  0.8975 -1.1320 -1.9571
 8448SOL    HW236804   3.062   2.327   3.744 -0.5679  0.0639 -0.7547
 8449SOL     OW36805   2.751   1.034   8.018 -0.7290 -0.6068  0.0946
 8449SOL    HW136806   2.683   1.040   7.951  0.5625 -0.2292 -1.1930
 8449SOL    HW236807   2.802   0.960   7.987 -0.6554 -1.2792  1.8047
 8450SOL     OW36808   1.371   4.489   4.537 -0.2810 -0.3465  0.2221
 8450SOL    HW136809   1.319   4.507   4.616  0.5961 -0.9697  0.9343
 8450SOL    HW236810   1.456   4.519   4.569  0.2355 -2.4432  0.8154
 8451SOL     OW36811   0.176   2.824   4.738 -0.0351 -0.3500  0.2125
 8451SOL    HW136812   0.090   2.858   4.715  0.4167  0.9732  0.4913
 8451SOL    HW236813   0.188   2.874   4.819 -2.0093 -0.6418  0.6776
 8452SOL     OW36814   0.211   3.809   0.849  0.4058  0.1574 -0.1395
 8452SOL    HW136815   0.272   3.795   0.776  0.8590  0.6994  0.1406
 8452SOL    HW236816   0.267   3.823   0.925 -1.5945  0.0704  1.3306
 8453SOL     OW36817   2.746   0.398   4.647  0.4915 -0.3754  0.7978
 8453SOL    HW136818   2.771   0.376   4.737 -1.5598 -2.3646  0.8894
 8453SOL    HW236819   2.784   0.326   4.598 -0.1854 -1.0933  1.3136
 8454SOL     OW36820   3.469   4.488   7.128 -0.0473 -0.2461  0.1943
 8454SOL    HW136821   3.475   4.504   7.034 -0.4158 -2.0236 -0.1297
 8454SOL    HW236822   3.530   4.552   7.166 -1.1822  0.3401  1.0269
 8455SOL     OW36823   1.990   1.910   2.976  0.2319  0.3349  0.4185
 8455SOL    HW136824   2.056   1.891   2.909 -0.6755  0.7405 -0.5785
 8455SOL    HW236825   1.952   1.824   2.990 -1.0839  0.4568 -2.5554
 8456SOL     OW36826   4.500   4.364   8.121  0.1183 -1.0221 -0.1387
 8456SOL    HW136827   4.549   4.397   8.196 -0.5807 -2.3093  0.8828
 8456SOL    HW236828   4.420   4.417   8.131  0.7081 -0.8042  3.3758
 8457SOL     OW36829   3.995   0.074   4.180 -0.3425  0.5287  0.5137
 8457SOL    HW136830   3.907   0.067   4.217 -0.0758 -3.2390  0.4813
 8457SOL    HW236831   3.989   0.028   4.097  1.6193 -0.0702  0.7029
 8458SOL     OW36832   3.257   0.489  15.571  0.1848 -0.5102  0.2559
 8458SOL    HW136833   3.339   0.523  15.536 -0.1497  0.5465  0.5122
 8458SOL    HW236834   3.247   0.556  15.638 -1.4281  2.0755 -2.6029
 8459SOL     OW36835   2.622   0.991  16.584 -0.0490 -0.1488 -0.1601
 8459SOL    HW136836   2.645   0.996  16.491 -0.8454 -1.6577 -0.4307
 8459SOL    HW236837   2.543   1.045  16.583  1.2901  1.8713  1.3287
 8460SOL     OW36838   2.104   0.561   8.423 -0.0331 -0.0907  0.0186
 8460SOL    HW136839   2.131   0.645   8.386  0.1029 -0.4105 -0.6073
 8460SOL    HW236840   2.143   0.500   8.361 -0.4482 -0.2533 -0.0760
 8461SOL     OW36841   2.576   4.557  13.583  0.4644 -0.1839  0.3345
 8461SOL    HW136842   2.517   4.482  13.596  0.0564  0.7865  3.9601
 8461SOL    HW236843   2.662   4.523  13.608  1.1145  0.3089 -1.2174
 8462SOL     OW36844   0.216   2.234   9.308 -0.6791 -0.6967  0.4519
 8462SOL    HW136845   0.167   2.294   9.365 -0.0298  1.1072 -0.8902
 8462SOL    HW236846   0.179   2.150   9.333 -1.5349 -0.8992 -1.5354
 8463SOL     OW36847   1.771   2.891   9.169 -0.3957  0.4587 -0.8283
 8463SOL    HW136848   1.833   2.880   9.097  0.3256 -1.1142  0.0526
 8463SOL    HW236849   1.824   2.871   9.245 -1.7528  1.6045  0.4284
 8464SOL     OW36850   2.579   4.271   5.501 -0.1230  1.2950 -0.3152
 8464SOL    HW136851   2.615   4.185   5.521 -1.9964  0.5240 -0.2944
 8464SOL    HW236852   2.558   4.285   5.593  0.6937  1.1026 -0.1000
 8465SOL     OW36853   1.463   4.154   2.957  0.3740 -0.2687  0.6510
 8465SOL    HW136854   1.514   4.228   2.927 -0.1533  0.4289  1.4799
 8465SOL    HW236855   1.377   4.196   2.962  0.1985 -0.6358  0.7149
 8466SOL     OW36856   0.282   2.719   9.558  0.0078 -0.2208  0.4422
 8466SOL    HW136857   0.235   2.639   9.536  0.3188 -0.0086 -0.9846
 8466SOL    HW236858   0.215   2.786   9.552 -1.5347 -1.7812  0.3650
 8467SOL     OW36859   0.061   0.767   5.741  0.0484  0.3628 -0.1734
 8467SOL    HW136860   0.107   0.692   5.780  0.3081  2.6999  4.0058
 8467SOL    HW236861   0.114   0.780   5.662  0.5270 -1.2769 -0.1294
 8468SOL     OW36862   1.646   0.958   3.507  0.1713 -0.4786  0.2733
 8468SOL    HW136863   1.557   0.946   3.475  0.1919  0.8380 -0.2687
 8468SOL    HW236864   1.685   1.001   3.431  0.5564 -0.5735  0.4182
 8469SOL     OW36865   2.807   3.778   1.530 -0.1657 -1.0896 -0.5714
 8469SOL    HW136866   2.732   3.776   1.591 -0.6714 -2.5436 -1.2618
 8469SOL    HW236867   2.878   3.814   1.584 -0.9786 -0.7658  0.2872
 8470SOL     OW36868   4.074   1.058   6.724 -0.2286 -0.2523 -0.3147
 8470SOL    HW136869   4.020   1.078   6.800 -0.6753 -0.8972 -0.4613
 8470SOL    HW236870   4.053   0.965   6.724 -1.6987  0.0846  0.5902
 8471SOL     OW36871   3.005   1.628   5.798 -0.0383 -0.6117 -0.5004
 8471SOL    HW136872   2.913   1.646   5.779  0.1039  1.7662  1.0789
 8471SOL    HW236873   3.012   1.624   5.893 -0.1644  1.0840 -0.4172
 8472SOL     OW36874   4.069   1.502   1.797  0.0292 -0.5809 -0.9469
 8472SOL    HW136875   4.143   1.560   1.814 -2.0225  2.0194 -0.8396
 8472SOL    HW236876   4.020   1.552   1.731  2.1222  1.7540 -0.7374
 8473SOL     OW36877   3.847   1.227   8.353  0.4348 -0.5423  0.7292
 8473SOL    HW136878   3.811   1.185   8.274 -0.7096 -1.0515  1.5175
 8473SOL    HW236879   3.805   1.312   8.341  1.1310 -0.5493 -1.7548
 8474SOL     OW36880   4.324   3.898   6.239  0.1398 -0.0133 -0.6813
 8474SOL    HW136881   4.412   3.862   6.231  0.3775  0.3402  0.3506
 8474SOL    HW236882   4.341   3.951   6.317 -0.6263  2.1644 -1.9844
 8475SOL     OW36883   2.020   2.003   7.396  0.3033  0.3711 -0.3974
 8475SOL    HW136884   1.975   1.921   7.416  0.0967  0.7690  0.7804
 8475SOL    HW236885   1.951   2.066   7.416  1.1725  1.6767 -1.5054
 8476SOL     OW36886   4.353   0.432   1.798  0.1715 -0.4903 -0.3275
 8476SOL    HW136887   4.417   0.428   1.728 -0.6156 -0.0216 -1.0708
 8476SOL    HW236888   4.289   0.364   1.775  0.5899 -0.2868 -2.0675
 8477SOL     OW36889   3.892   2.112   5.643 -0.2329 -0.2930 -0.4959
 8477SOL    HW136890   3.951   2.068   5.705 -2.1832 -0.6086  1.1734
 8477SOL    HW236891   3.895   2.050   5.570  2.1957  1.3835 -1.8031
 8478SOL     OW36892   2.700   1.471  15.381 -0.8135  0.3313  0.3147
 8478SOL    HW136893   2.621   1.431  15.343 -0.1013 -1.3491  0.5755
 8478SOL    HW236894   2.744   1.513  15.307 -0.0245  1.5176  1.4647
 8479SOL     OW36895   1.432   1.884   7.733 -0.4277 -0.1992  0.2788
 8479SOL    HW136896   1.380   1.830   7.673 -0.4499  0.2118 -0.0771
 8479SOL    HW236897   1.381   1.899   7.812  0.0631  0.7472  0.4245
 8480SOL     OW36898   0.351   0.198   3.142  0.0704 -0.3872  0.8277
 8480SOL    HW136899   0.399   0.116   3.135 -2.1687 -1.6265 -0.0656
 8480SOL    HW236900   0.264   0.177   3.177 -0.0567 -1.2215  0.0129
 8481SOL     OW36901   0.853   0.017   4.024  0.3827 -0.1391  0.3765
 8481SOL    HW136902   0.896   0.101   4.037 -0.1613  0.4938 -1.8817
 8481SOL    HW236903   0.924   4.693   3.978  3.2216  3.7887  0.8471
 8482SOL     OW36904   3.009   2.922  12.774 -0.0281  0.1322 -0.0171
 8482SOL    HW136905   2.951   2.869  12.719  0.4669 -0.3757 -0.0525
 8482SOL    HW236906   2.944   2.985  12.804 -1.0530 -1.2180  0.5841
 8483SOL     OW36907   3.623   4.266  15.303 -0.6430 -0.1488  0.2405
 8483SOL    HW136908   3.547   4.313  15.268 -1.8854 -1.0844  1.7189
 8483SOL    HW236909   3.595   4.268  15.394  2.2390  1.3106  1.0902
 8484SOL     OW36910   3.079   0.244   4.830  0.7058 -0.0852 -0.5652
 8484SOL    HW136911   2.985   0.236   4.847  1.2033 -0.9224  1.9046
 8484SOL    HW236912   3.092   0.176   4.765  1.7190 -1.2104  0.8207
 8485SOL     OW36913   4.322   4.487   6.853 -0.2249 -0.0047 -0.8854
 8485SOL    HW136914   4.349   4.520   6.767 -0.4300 -1.8111 -1.6544
 8485SOL    HW236915   4.363   4.401   6.856  1.2291  0.6898 -0.9861
 8486SOL     OW36916   0.850   0.906   1.709  0.0732  0.1910  0.9996
 8486SOL    HW136917   0.772   0.898   1.654  0.6081 -2.0288  0.5691
 8486SOL    HW236918   0.919   0.867   1.655 -0.3327  0.6178  0.1801
 8487SOL     OW36919   3.869   1.513  14.114 -0.3836 -0.2157  0.0798
 8487SOL    HW136920   3.839   1.426  14.089 -0.6097  0.3848 -1.7470
 8487SOL    HW236921   3.856   1.559  14.031 -1.0618  2.4547  1.6652
 8488SOL     OW36922   0.491   2.334   7.174  0.9169 -0.6208 -0.0842
 8488SOL    HW136923   0.527   2.421   7.190 -0.4509 -0.1799  0.5964
 8488SOL    HW236924   0.466   2.344   7.082 -1.3546  0.8816  0.6730
 8489SOL     OW36925   3.579   2.514  12.971  0.6175  0.3065 -0.3143
 8489SOL    HW136926   3.557   2.433  12.925  0.4078  0.0413  0.2627
 8489SOL    HW236927   3.493   2.552  12.991  0.8435  0.1033  0.9947
 8490SOL     OW36928   0.734   4.199   5.439  0.9982 -0.0895  0.1172
 8490SOL    HW136929   0.755   4.192   5.532 -0.1214  0.3878  0.4106
 8490SOL    HW236930   0.744   4.293   5.422 -0.1248  0.2263  1.1960
 8491SOL     OW36931   0.537   0.653   1.902 -0.3254  0.6188 -0.0972
 8491SOL    HW136932   0.476   0.635   1.831  0.5893  1.1349 -1.0188
 8491SOL    HW236933   0.618   0.629   1.857 -1.2181  0.1971 -1.4781
 8492SOL     OW36934   3.468   0.022   6.667  0.6358  0.5491 -0.2318
 8492SOL    HW136935   3.511   4.685   6.606 -0.0527 -1.7326  1.4601
 8492SOL    HW236936   3.384   0.020   6.621  0.2173 -0.8812  0.5895
 8493SOL     OW36937   2.691   1.900   2.821  0.7765  0.1564  0.0301
 8493SOL    HW136938   2.736   1.982   2.799  1.2566  0.0807  0.7330
 8493SOL    HW236939   2.720   1.837   2.755  1.0003  0.7779 -0.4657
 8494SOL     OW36940   1.978   3.231   4.739 -0.0995  0.1554 -0.2483
 8494SOL    HW136941   2.009   3.147   4.772  0.6477 -0.2269 -1.9173
 8494SOL    HW236942   2.062   3.253   4.697  0.9370  0.9983  2.2352
 8495SOL     OW36943   4.125   0.081   5.589 -0.7283  0.4403  0.2797
 8495SOL    HW136944   4.062   0.024   5.634 -2.1234  0.2327 -1.9685
 8495SOL    HW236945   4.123   0.046   5.501  1.3970 -0.7621  0.7059
 8496SOL     OW36946   1.770   3.602   0.212 -0.0724  0.1460  0.5142
 8496SOL    HW136947   1.766   3.660   0.288  0.3467 -0.4325  0.9700
 8496SOL    HW236948   1.711   3.533   0.243  0.5914  0.8530  3.3997
 8497SOL     OW36949   2.448   0.098   7.346 -0.0561 -0.7050  0.0397
 8497SOL    HW136950   2.499   0.108   7.426  0.4474  0.7204 -0.4774
 8497SOL    HW236951   2.374   0.038   7.359 -0.2100 -0.6395 -0.5548
 8498SOL     OW36952   0.447   4.245   5.248 -0.1300 -0.4165  0.0954
 8498SOL    HW136953   0.366   4.222   5.203 -0.1490 -0.0594 -0.0578
 8498SOL    HW236954   0.505   4.174   5.223 -0.0152 -0.1612 -0.3572
 8499SOL     OW36955   1.690   2.134   9.629  0.2960  0.0874  0.6145
 8499SOL    HW136956   1.709   2.043   9.606 -2.5053  0.2090 -2.2095
 8499SOL    HW236957   1.777   2.163   9.655  1.6505 -0.9207 -2.8334
 8500SOL     OW36958   3.371   2.924   6.208  0.2278  0.3603 -0.1260
 8500SOL    HW136959   3.305   2.988   6.178 -2.0750 -2.3899 -0.9110
 8500SOL    HW236960   3.429   2.981   6.259  0.9665 -0.5022 -0.0229
 8501SOL     OW36961   3.917   3.305   4.400  0.6529 -0.4074  0.2467
 8501SOL    HW136962   3.922   3.316   4.495 -0.8807 -0.5465  0.3485
 8501SOL    HW236963   3.823   3.286   4.393  0.4336  1.0324 -0.9143
 8502SOL     OW36964   4.185   1.129  12.056  0.4286 -0.3233  0.1174
 8502SOL    HW136965   4.257   1.068  12.073  0.1583 -1.0155 -1.2715
 8502SOL    HW236966   4.167   1.165  12.143  1.8363  0.8252 -0.0606
 8503SOL     OW36967   4.321   2.197   2.349  0.3401 -0.0290 -0.2091
 8503SOL    HW136968   4.289   2.185   2.438 -0.0235 -0.7519 -0.4314
 8503SOL    HW236969   4.239   2.208   2.301 -0.4531  1.8909  1.5712
 8504SOL     OW36970   3.983   0.961   6.063 -0.7184  0.4990  0.3535
 8504SOL    HW136971   3.901   1.006   6.082 -0.8215  0.7987 -0.8436
 8504SOL    HW236972   3.945   0.894   6.006  0.6224 -0.4855  0.6107
 8505SOL     OW36973   1.937   0.301   1.828  0.1254 -0.4904  0.6384
 8505SOL    HW136974   1.871   0.359   1.790  1.6527  0.3756 -0.6748
 8505SOL    HW236975   2.009   0.356   1.859  0.5608 -0.2889 -0.6917
 8506SOL     OW36976   1.998   3.727   7.721  0.0892  0.3259  0.2777
 8506SOL    HW136977   1.955   3.760   7.642 -1.5622  1.6695  1.7363
 8506SOL    HW236978   1.934   3.757   7.786 -1.4069 -1.1386 -0.5310
 8507SOL     OW36979   0.211   3.265   7.094 -0.8252  0.0533 -0.5522
 8507SOL    HW136980   0.217   3.190   7.154  1.2932  1.1046  0.5508
 8507SOL    HW236981   0.223   3.338   7.155  1.8019 -0.5908 -0.3217
 8508SOL     OW36982   1.142   4.469   2.426 -0.1639  0.3965 -0.3708
 8508SOL    HW136983   1.078   4.540   2.428 -1.2554 -0.6447  2.1694
 8508SOL    HW236984   1.221   4.522   2.416  0.0635 -0.2862 -2.1682
 8509SOL     OW36985   3.878   3.343   6.384  0.3505 -0.2718  0.4019
 8509SOL    HW136986   3.956   3.310   6.338  1.9342  3.2611  0.5359
 8509SOL    HW236987   3.919   3.391   6.456 -2.1141  0.9459  0.9683
 8510SOL     OW36988   0.350   3.817  13.961 -0.0012  0.1707  0.3179
 8510SOL    HW136989   0.415   3.871  14.006  0.3542  0.1575 -0.1874
 8510SOL    HW236990   0.362   3.836  13.868 -2.1518 -0.0920 -0.0113
 8511SOL     OW36991   3.709   4.466   0.816 -0.0526 -0.0322 -1.0456
 8511SOL    HW136992   3.657   4.504   0.887  2.9752  1.8090  0.2077
 8511SOL    HW236993   3.733   4.383   0.858 -0.5356  0.0040 -0.6995
 8512SOL     OW36994   4.126   2.070   6.540  0.4768 -0.2277 -0.7946
 8512SOL    HW136995   4.137   1.998   6.479  3.6126  1.3463 -2.0731
 8512SOL    HW236996   4.189   2.056   6.610  1.4146 -3.8448 -2.3803
 8513SOL     OW36997   1.245   1.715   9.076  0.0456 -0.2829 -0.0322
 8513SOL    HW136998   1.323   1.719   9.019  0.8989 -2.7975  0.9544
 8513SOL    HW236999   1.249   1.802   9.115  1.5317 -0.7474  0.8746
 8514SOL     OW37000   2.538   0.602   0.040  0.1609  0.0732  0.0108
 8514SOL    HW137001   2.474   0.637   0.102  0.0755 -0.2751  0.1215
 8514SOL    HW237002   2.554   0.518   0.082  0.3141 -0.3626 -0.9276
 8515SOL     OW37003   3.157   1.354  11.941 -0.5331 -0.0858  0.2413
 8515SOL    HW137004   3.062   1.368  11.948 -0.9000 -1.6229 -1.5777
 8515SOL    HW237005   3.179   1.435  11.987  0.0286  0.7196 -1.4601
 8516SOL     OW37006   1.702   1.080   3.275 -0.0299 -0.2533  0.0187
 8516SOL    HW137007   1.665   1.091   3.187 -0.3377 -0.8711  0.0737
 8516SOL    HW237008   1.794   1.064   3.253 -0.0423 -0.9323  0.4512
 8517SOL     OW37009   3.981   1.840  14.609  0.4770  0.6802  0.6925
 8517SOL    HW137010   4.031   1.899  14.553  1.2495 -0.4751  0.1490
 8517SOL    HW237011   3.913   1.893  14.649 -1.4867 -2.3624  1.3626
 8518SOL     OW37012   3.390   3.127   4.425 -0.0801  0.4334 -0.3023
 8518SOL    HW137013   3.350   3.052   4.383 -1.0713  1.6332 -1.4816
 8518SOL    HW237014   3.321   3.192   4.415 -1.0170 -0.1803  2.0245
 8519SOL     OW37015   4.184   0.883   7.115 -0.0063  0.3518 -0.2029
 8519SOL    HW137016   4.169   0.803   7.064 -1.9075  0.3835  0.3050
 8519SOL    HW237017   4.150   0.844   7.195  0.1223 -0.7240 -0.6704
 8520SOL     OW37018   1.247   0.288   2.903 -0.2044  0.2741 -0.2470
 8520SOL    HW137019   1.159   0.325   2.897  1.3863  4.1826  0.3048
 8520SOL    HW237020   1.233   0.198   2.931  1.0638  0.6021  1.4885
 8521SOL     OW37021   3.387   3.659   2.476 -0.1216 -0.3302  0.4214
 8521SOL    HW137022   3.427   3.597   2.415  0.6721 -0.3844  1.0000
 8521SOL    HW237023   3.448   3.732   2.472 -1.1228  0.3247 -2.4554
 8522SOL     OW37024   1.967   1.546   3.481 -0.0602 -0.4834  0.0948
 8522SOL    HW137025   2.043   1.601   3.501 -0.7226  1.2979 -2.1704
 8522SOL    HW237026   1.995   1.459   3.508  2.0159 -0.5159 -2.1648
 8523SOL     OW37027   3.989   4.579   3.374 -0.3163 -0.5777  0.2840
 8523SOL    HW137028   4.018   4.552   3.461 -0.4402  0.7390  0.7298
 8523SOL    HW237029   3.981   4.492   3.334 -1.2611 -1.1434  1.7037
 8524SOL     OW37030   0.951   2.130   9.258  0.1110 -0.4851 -0.4102
 8524SOL    HW137031   0.964   2.138   9.353  1.2603  2.1634 -0.7887
 8524SOL    HW237032   0.961   2.221   9.229  0.4379 -1.0868 -2.1864
 8525SOL     OW37033   1.866   4.332   6.920  0.1408  0.0042  0.7153
 8525SOL    HW137034   1.823   4.393   6.860  1.4314 -0.5182 -0.7504
 8525SOL    HW237035   1.958   4.357   6.921 -0.1256  1.0302 -0.9948
 8526SOL     OW37036   2.821   2.445   4.902 -0.3959  0.0601 -0.1617
 8526SOL    HW137037   2.828   2.516   4.839 -0.4762  0.3495  0.1587
 8526SOL    HW237038   2.913   2.441   4.929 -0.1645  0.8434 -0.8447
 8527SOL     OW37039   3.830   3.831   9.227  0.4562  0.0050 -0.3377
 8527SOL    HW137040   3.899   3.770   9.253  0.4978 -1.0607 -2.8794
 8527SOL    HW237041   3.832   3.897   9.296 -3.9787 -1.9231  1.6113
 8528SOL     OW37042   2.281   1.713   6.234  0.0989 -0.0065 -0.1246
 8528SOL    HW137043   2.292   1.654   6.309  1.1783  1.0920  0.5657
 8528SOL    HW237044   2.209   1.662   6.198  1.9871  0.1808 -4.1013
 8529SOL     OW37045   4.061   4.000  10.729 -0.1013 -0.1774  0.2576
 8529SOL    HW137046   4.128   3.983  10.795 -1.2500  0.7344  1.6625
 8529SOL    HW237047   4.119   3.981  10.655 -1.7817 -2.1751 -0.5339
 8530SOL     OW37048   4.061   0.944   2.467 -0.4312 -0.1832  0.3056
 8530SOL    HW137049   3.968   0.963   2.453 -0.1388  1.6085  0.9155
 8530SOL    HW237050   4.045   0.929   2.560  0.7417  0.9880  0.6968
 8531SOL     OW37051   3.433   2.177  14.147  0.3808  0.0118 -0.7374
 8531SOL    HW137052   3.504   2.232  14.115  0.9576 -0.2459  0.0860
 8531SOL    HW237053   3.364   2.241  14.165  0.0619 -0.3601 -0.6226
 8532SOL     OW37054   0.205   2.720   2.451  0.3687  0.4641 -0.3966
 8532SOL    HW137055   0.228   2.629   2.469 -1.1668 -0.2370 -1.9470
 8532SOL    HW237056   0.224   2.776   2.527 -1.2965  0.7705 -0.2178
 8533SOL     OW37057   4.343   1.837   8.870 -0.0139  0.3062 -0.0859
 8533SOL    HW137058   4.293   1.846   8.952  0.3065 -0.2923  0.1708
 8533SOL    HW237059   4.294   1.890   8.807  0.4800 -0.7788 -1.3727
 8534SOL     OW37060   3.650   1.831  11.388  0.1029  0.4407 -0.0339
 8534SOL    HW137061   3.624   1.761  11.328 -0.2114 -1.4189  2.2599
 8534SOL    HW237062   3.602   1.903  11.348  1.7631  0.4068 -2.0818
 8535SOL     OW37063   3.953   3.456   5.819  0.4066  0.4805  0.2168
 8535SOL    HW137064   4.010   3.487   5.749  1.8951  2.6987  2.4084
 8535SOL    HW237065   3.969   3.518   5.890 -1.4736  1.1965  0.0184
 8536SOL     OW37066   3.342   0.893  15.972 -0.4280  0.3145  0.3178
 8536SOL    HW137067   3.366   0.985  15.964  0.2468  0.2964  2.3190
 8536SOL    HW237068   3.419   0.847  15.938 -0.9173 -0.5991  0.4332
 8537SOL     OW37069   1.626   4.554   0.354 -0.8546 -0.4166 -0.4031
 8537SOL    HW137070   1.613   4.578   0.263  1.4923  0.8476 -0.4117
 8537SOL    HW237071   1.698   4.613   0.379 -1.1371 -0.8917  1.5807
 8538SOL     OW37072   2.345   1.041  10.136  0.1761 -0.0151 -0.2190
 8538SOL    HW137073   2.262   1.005  10.168  1.0368  1.4145  3.5509
 8538SOL    HW237074   2.394   0.960  10.124 -0.2575 -0.2214 -0.6353
 8539SOL     OW37075   3.162   2.445   3.034  0.3852 -0.0580  0.2907
 8539SOL    HW137076   3.087   2.446   3.094 -0.4434  0.7003 -0.7617
 8539SOL    HW237077   3.194   2.355   3.027  1.5829  0.3616  0.3219
 8540SOL     OW37078   4.685   3.100   4.254  0.5521 -0.0724 -0.4411
 8540SOL    HW137079   0.026   3.119   4.185  2.8974  0.7759  1.9195
 8540SOL    HW237080   4.624   3.052   4.198  2.7833 -2.0193 -1.2038
 8541SOL     OW37081   1.540   0.496   2.223 -0.1229 -0.4219  0.0273
 8541SOL    HW137082   1.520   0.410   2.261 -1.5818  0.0604  0.3638
 8541SOL    HW237083   1.495   0.552   2.286 -1.4610 -3.3321  1.6709
 8542SOL     OW37084   0.822   0.356   7.472 -0.3558 -0.1544 -0.1458
 8542SOL    HW137085   0.822   0.379   7.380 -0.5047  1.4873  0.2612
 8542SOL    HW237086   0.852   0.438   7.512  0.0877 -0.4549  0.1480
 8543SOL     OW37087   1.134   2.757   4.968 -0.8078  0.3223  0.3208
 8543SOL    HW137088   1.155   2.664   4.973 -1.3646  0.1986  0.4077
 8543SOL    HW237089   1.111   2.785   5.057  0.1725  1.3447  0.2442
 8544SOL     OW37090   3.631   1.134   5.696  0.2789 -0.2871  0.8771
 8544SOL    HW137091   3.623   1.173   5.609 -0.2600 -2.3520  0.0000
 8544SOL    HW237092   3.565   1.185   5.743  2.4591  2.7019  0.6526
 8545SOL     OW37093   4.721   4.523   6.456  0.3587 -0.1543  0.1012
 8545SOL    HW137094   4.715   4.441   6.407 -1.4733  1.7589 -2.8877
 8545SOL    HW237095   4.696   4.588   6.391 -1.2979  0.5745  1.4620
 8546SOL     OW37096   1.886   1.289   7.124  0.0092 -0.3161  0.4235
 8546SOL    HW137097   1.827   1.354   7.085  0.5358  1.7532  3.1491
 8546SOL    HW237098   1.850   1.212   7.080  0.1566  0.2070 -0.6166
 8547SOL     OW37099   2.294   2.672   4.881 -0.3242 -0.5416  0.0476
 8547SOL    HW137100   2.354   2.665   4.956  0.9334  0.4955 -0.8581
 8547SOL    HW237101   2.269   2.580   4.874 -0.0359 -0.5025 -1.3792
 8548SOL     OW37102   3.690   4.192  17.606 -0.0279 -0.4633  0.6584
 8548SOL    HW137103   3.655   4.269  17.560  2.0227  1.7842  2.8235
 8548SOL    HW237104   3.769   4.221  17.652 -0.7474  0.4075  1.3482
 8549SOL     OW37105   3.178   4.311   2.644  0.1562 -0.1625 -0.4252
 8549SOL    HW137106   3.227   4.241   2.688  0.2644 -2.4345 -4.1311
 8549SOL    HW237107   3.207   4.293   2.555 -0.1821  0.8120 -0.7273
 8550SOL     OW37108   3.205   1.480   8.238  0.5364 -0.0059 -0.3421
 8550SOL    HW137109   3.243   1.504   8.322  0.2582  0.6434 -0.4006
 8550SOL    HW237110   3.243   1.395   8.216  0.3822 -0.4455  1.0553
 8551SOL     OW37111   0.159   3.530   2.680  0.7447 -0.2849  0.1339
 8551SOL    HW137112   0.149   3.441   2.648 -1.8874  0.2790 -0.6562
 8551SOL    HW237113   0.194   3.584   2.609 -1.6188  1.8908  0.6031
 8552SOL     OW37114   2.832   2.592   7.044  0.4250  0.4844 -0.1006
 8552SOL    HW137115   2.834   2.642   6.962  0.6607 -1.9765 -1.5886
 8552SOL    HW237116   2.922   2.561   7.056  0.1375 -0.9243 -1.5761
 8553SOL     OW37117   1.242   2.334  15.303 -0.4077 -0.3721 -0.8191
 8553SOL    HW137118   1.235   2.339  15.398  0.8973  1.7484 -0.8300
 8553SOL    HW237119   1.182   2.407  15.285  1.8813  1.7591  0.1488
 8554SOL     OW37120   0.045   2.295   2.889 -0.2004  0.0389 -0.4826
 8554SOL    HW137121   0.051   2.373   2.833  0.1216  1.3776  1.4112
 8554SOL    HW237122   4.705   2.241   2.840  0.1382 -1.0126  0.2512
 8555SOL     OW37123   0.714   0.093   7.664 -0.1968 -0.2503 -0.4784
 8555SOL    HW137124   0.679   0.098   7.753  1.3230 -0.4453  0.1344
 8555SOL    HW237125   0.704   0.001   7.640 -2.5400 -0.7281  2.3226
 8556SOL     OW37126   2.056   2.215   6.501 -0.4261  0.1498 -0.4571
 8556SOL    HW137127   2.017   2.233   6.586  0.4813  0.2712 -0.0574
 8556SOL    HW237128   2.129   2.166   6.539 -0.5848  0.0440 -0.2867
 8557SOL     OW37129   1.135   1.516   2.494 -0.2546  0.7113  0.0451
 8557SOL    HW137130   1.116   1.526   2.401 -1.3715 -0.6955  0.1318
 8557SOL    HW237131   1.231   1.508   2.489 -0.0193  3.7117 -0.1023
 8558SOL     OW37132   1.605   4.532   7.691  0.3006 -0.9216  0.1389
 8558SOL    HW137133   1.673   4.566   7.633  1.5739 -2.6313  0.6303
 8558SOL    HW237134   1.550   4.502   7.619  0.4895 -2.8085  0.7953
 8559SOL     OW37135   3.576   1.808   0.546  0.0480 -0.2255  0.3374
 8559SOL    HW137136   3.585   1.903   0.537 -0.0114 -0.0771  1.8903
 8559SOL    HW237137   3.629   1.779   0.472 -0.1012 -0.3048  0.2603
 8560SOL     OW37138   3.189   1.465   5.696  0.0214  0.0526  0.3317
 8560SOL    HW137139   3.126   1.515   5.750 -0.0647 -0.4990  0.7418
 8560SOL    HW237140   3.130   1.428   5.631 -1.7230  1.9273  0.8173
 8561SOL     OW37141   1.159   3.968  10.643  0.5705  0.1029 -0.0894
 8561SOL    HW137142   1.224   3.907  10.606  1.7600  2.1009 -1.3131
 8561SOL    HW237143   1.074   3.937  10.614 -0.1557  0.7056  1.3917
 8562SOL     OW37144   3.651   4.285   5.293  0.0544  0.1328 -0.5029
 8562SOL    HW137145   3.702   4.322   5.365 -1.1707  2.0816 -0.6413
 8562SOL    HW237146   3.703   4.205   5.283  1.9740  1.5689 -2.0542
 8563SOL     OW37147   0.527   3.277  17.168  0.2549 -0.5685 -0.2487
 8563SOL    HW137148   0.528   3.343  17.238  2.7928  2.5423 -3.1980
 8563SOL    HW237149   0.619   3.258  17.151  0.4256 -1.6876  1.9134
 8564SOL     OW37150   0.597   3.667   8.657  0.0931  0.0353 -0.0673
 8564SOL    HW137151   0.580   3.712   8.740  1.2328 -0.0815  0.2294
 8564SOL    HW237152   0.568   3.580   8.683  1.7619 -1.0756 -1.9311
 8565SOL     OW37153   1.871   3.432  14.326 -0.0407  0.4810 -0.5390
 8565SOL    HW137154   1.820   3.351  14.326 -0.4102  0.7177  0.5334
 8565SOL    HW237155   1.811   3.497  14.360 -0.2806 -0.7910  1.4483
 8566SOL     OW37156   2.002   2.579  15.349 -0.3919  0.1227  0.5371
 8566SOL    HW137157   1.970   2.657  15.396  1.3418 -0.6400  2.9976
 8566SOL    HW237158   1.938   2.559  15.281 -1.0295  0.5125  1.0154
 8567SOL     OW37159   3.176   2.685   6.693  0.0381  0.1072  0.5698
 8567SOL    HW137160   3.109   2.671   6.760  0.8656  0.0658  1.4028
 8567SOL    HW237161   3.181   2.780   6.702 -0.8827  0.0038  2.0723
 8568SOL     OW37162   3.685   1.587  17.553  0.4367 -0.1427 -0.3109
 8568SOL    HW137163   3.717   1.523  17.617 -0.4258  1.2809  1.5331
 8568SOL    HW237164   3.618   1.541  17.503  0.4528 -0.6189  0.1013
 8569SOL     OW37165   3.935   4.714  16.609 -0.1406  0.3649  0.0699
 8569SOL    HW137166   3.918   4.676  16.523 -0.0341 -1.8387  1.0261
 8569SOL    HW237167   3.978   0.072  16.583  1.5838 -0.3163  0.8453
 8570SOL     OW37168   3.451   0.102   3.552  0.6398 -0.0579 -0.3458
 8570SOL    HW137169   3.450   0.089   3.647  2.0009  0.9658 -0.1949
 8570SOL    HW237170   3.417   0.015   3.532 -2.8616  0.9867  1.0728
 8571SOL     OW37171   1.713   1.885  17.228 -0.4303  0.0949  0.5697
 8571SOL    HW137172   1.804   1.915  17.236 -0.3467 -0.4286  1.6683
 8571SOL    HW237173   1.714   1.791  17.248  0.1279  0.1875  0.9584
 8572SOL     OW37174   3.180   3.186  15.264 -0.3319  0.7485 -0.9406
 8572SOL    HW137175   3.262   3.205  15.218  1.5692  1.2601  2.6544
 8572SOL    HW237176   3.193   3.231  15.347 -1.4119 -1.0881  0.2308
 8573SOL     OW37177   0.429   3.468  17.389 -0.7432  0.3516 -0.1612
 8573SOL    HW137178   0.383   3.547  17.419 -1.0138  0.0270  0.2773
 8573SOL    HW237179   0.354   3.416  17.362  0.4633 -2.2282  1.4469
 8574SOL     OW37180   1.686   1.296  10.123  0.8416 -0.4896  0.1602
 8574SOL    HW137181   1.779   1.315  10.137  1.3286 -2.9643  0.3096
 8574SOL    HW237182   1.660   1.374  10.075  2.0836 -0.7715 -0.9822
 8575SOL     OW37183   0.583   0.367   3.142 -0.2051 -0.2502 -0.1190
 8575SOL    HW137184   0.643   0.317   3.086 -0.7622 -0.6379 -0.3671
 8575SOL    HW237185   0.516   0.301   3.162 -0.7353  0.7485  1.4348
 8576SOL     OW37186   2.385   1.511   5.954 -0.4094  0.7738  0.8174
 8576SOL    HW137187   2.426   1.596   5.936  0.8293  0.0748  0.3408
 8576SOL    HW237188   2.430   1.477   6.031  0.7143  3.1478  1.1952
 8577SOL     OW37189   2.841   2.718   4.338 -0.1294 -0.1471  0.0080
 8577SOL    HW137190   2.769   2.745   4.282  0.6275  0.2874 -0.7637
 8577SOL    HW237191   2.845   2.623   4.334  0.8235 -0.0928 -0.4736
 8578SOL     OW37192   3.557   1.488   0.886 -0.2462 -0.0068  0.1013
 8578SOL    HW137193   3.635   1.462   0.837  0.8158  3.6626 -0.1551
 8578SOL    HW237194   3.596   1.562   0.933 -0.1503 -0.5884  0.9423
 8579SOL     OW37195   0.856   1.608   1.675 -0.9061  0.4637  0.2824
 8579SOL    HW137196   0.775   1.613   1.624  0.2488  0.5971 -1.5197
 8579SOL    HW237197   0.922   1.581   1.611 -2.8659 -0.6262 -1.3100
 8580SOL     OW37198   0.269   2.359   6.126 -0.0234 -0.0137  0.8595
 8580SOL    HW137199   0.346   2.338   6.074 -1.1792 -0.0416 -0.8520
 8580SOL    HW237200   0.204   2.318   6.068  1.2038  0.0241 -0.5607
 8581SOL     OW37201   2.592   0.873   7.059  0.2980 -0.7350 -0.0733
 8581SOL    HW137202   2.620   0.784   7.078  0.5880 -0.8812 -1.1785
 8581SOL    HW237203   2.671   0.927   7.066  0.0566 -0.6594  2.0143
 8582SOL     OW37204   4.049   0.388   2.704  0.6283 -0.2158 -0.2419
 8582SOL    HW137205   4.072   0.327   2.775  1.3139 -0.3650 -0.6019
 8582SOL    HW237206   4.088   0.470   2.735  1.0509 -0.6927  0.5070
 8583SOL     OW37207   2.043   2.598  11.891  0.1296 -0.2554 -0.2985
 8583SOL    HW137208   2.110   2.665  11.881 -0.3549  0.6428  2.6392
 8583SOL    HW237209   1.974   2.652  11.931  1.0467 -0.4055  1.4863
 8584SOL     OW37210   1.285   1.722   4.880 -0.0794 -0.4506 -0.1400
 8584SOL    HW137211   1.378   1.719   4.905 -0.6284 -0.0640  2.0097
 8584SOL    HW237212   1.285   1.755   4.791 -2.7219  0.1462  0.1000
 8585SOL     OW37213   4.115   2.052   1.554 -0.0553 -0.3123 -0.3163
 8585SOL    HW137214   4.107   2.125   1.492 -1.0062 -1.4770 -1.5796
 8585SOL    HW237215   4.050   1.994   1.513 -0.5923  0.9612 -1.2799
 8586SOL     OW37216   1.006   1.474   6.258  0.3613  0.0381 -0.1013
 8586SOL    HW137217   0.989   1.561   6.294  2.5980 -0.0353  1.0994
 8586SOL    HW237218   1.021   1.498   6.166  2.8706  1.6719  0.7380
 8587SOL     OW37219   3.168   3.405   8.113 -0.1573  0.2028  0.0210
 8587SOL    HW137220   3.182   3.430   8.205 -0.7762  0.8576 -0.0649
 8587SOL    HW237221   3.074   3.409   8.131  0.2167  0.1638  2.0080
 8588SOL     OW37222   0.503   1.209   6.283 -0.2004  0.7099  0.0487
 8588SOL    HW137223   0.507   1.116   6.260  1.8289  0.1316  2.7551
 8588SOL    HW237224   0.598   1.217   6.281 -0.1740  0.6618  1.1289
 8589SOL     OW37225   2.473   0.796  10.020 -0.2931  0.2852 -0.6801
 8589SOL    HW137226   2.463   0.793   9.925 -3.3530 -0.9776 -0.3128
 8589SOL    HW237227   2.425   0.717  10.046  0.2428 -0.1405 -0.9795
 8590SOL     OW37228   4.620   0.409   4.716 -0.6461  0.5779 -0.1370
 8590SOL    HW137229   4.596   0.375   4.630  1.0264  1.6494 -1.0155
 8590SOL    HW237230   4.566   0.488   4.718 -1.5183 -0.0329  0.7256
 8591SOL     OW37231   2.601   2.241   8.702  0.2330 -0.3044 -0.3402
 8591SOL    HW137232   2.663   2.300   8.660  0.6157 -0.1423  0.4533
 8591SOL    HW237233   2.530   2.297   8.733 -0.0386 -0.5906 -0.4407
 8592SOL     OW37234   2.306   0.363   0.972  0.4116  0.6929  0.9552
 8592SOL    HW137235   2.316   0.302   0.899  0.4981  1.4108  0.3599
 8592SOL    HW237236   2.383   0.420   0.976  1.2370 -0.4385  1.0268
 8593SOL     OW37237   4.360   3.413   6.996  0.3723 -0.1860 -0.3910
 8593SOL    HW137238   4.321   3.500   6.988  3.1353  1.0498 -0.6568
 8593SOL    HW237239   4.447   3.426   6.957 -0.5385  3.8994 -1.0421
 8594SOL     OW37240   3.343   0.824   6.937  0.0056 -0.2615  0.4156
 8594SOL    HW137241   3.270   0.872   6.978 -0.4370 -0.0170 -0.6722
 8594SOL    HW237242   3.412   0.890   6.947 -0.3971  0.2840 -0.3943
 8595SOL     OW37243   0.830   3.234   3.148  0.1404  0.1490 -0.2715
 8595SOL    HW137244   0.743   3.207   3.117 -0.7758  1.7811  0.9032
 8595SOL    HW237245   0.828   3.325   3.119 -0.5939 -0.3764 -1.8957
 8596SOL     OW37246   3.134   1.891  10.751 -0.4202  0.1294  0.9795
 8596SOL    HW137247   3.065   1.834  10.782  1.6745 -1.8749  1.9843
 8596SOL    HW237248   3.099   1.979  10.744  0.8744  0.3364 -3.3648
 8597SOL     OW37249   2.400   0.493   7.765 -0.1026 -0.0200  0.3329
 8597SOL    HW137250   2.490   0.481   7.737  0.2270  2.1752  0.4866
 8597SOL    HW237251   2.365   0.422   7.711  0.7476  0.4052 -0.7771
 8598SOL     OW37252   0.344   3.421   3.300  0.8607  0.0925 -0.4967
 8598SOL    HW137253   0.254   3.427   3.266 -0.0399  1.1588  2.0313
 8598SOL    HW237254   0.379   3.486   3.239  0.3317  1.6149  0.7900
 8599SOL     OW37255   2.210   4.636   4.865  0.6366  0.3161  0.0752
 8599SOL    HW137256   2.224   4.631   4.770  0.5254  0.5113  0.0490
 8599SOL    HW237257   2.285   4.586   4.898  1.1892  0.0290 -1.5882
 8600SOL     OW37258   4.634   0.189   3.533 -0.0297 -0.1511  0.3213
 8600SOL    HW137259   4.600   0.177   3.445  0.4066  0.9415  0.0047
 8600SOL    HW237260   4.619   0.101   3.567  0.3940  0.3597  1.8610
 8601SOL     OW37261   3.267   4.299  17.142  0.5427  0.1196  0.1753
 8601SOL    HW137262   3.321   4.230  17.103  0.7163  0.2161  0.2459
 8601SOL    HW237263   3.329   4.352  17.192 -1.8108 -0.3860  3.6526
 8602SOL     OW37264   2.695   0.871   7.449  0.1326  0.4640 -0.2726
 8602SOL    HW137265   2.719   0.962   7.466  0.1311  0.8408 -2.2501
 8602SOL    HW237266   2.772   0.819   7.424 -0.8761 -0.6141 -1.1522
 8603SOL     OW37267   1.957   4.348   9.802 -0.3005 -0.3738  0.4303
 8603SOL    HW137268   1.978   4.377   9.713  0.1521  0.6073  0.8532
 8603SOL    HW237269   1.872   4.312   9.779 -0.4757  0.5378 -0.3671
 8604SOL     OW37270   4.058   2.276   3.691 -0.2350 -0.0694 -0.2427
 8604SOL    HW137271   4.101   2.205   3.644  1.0152  0.5973 -0.1210
 8604SOL    HW237272   3.973   2.295   3.651 -0.7575 -0.5029  0.6594
 8605SOL     OW37273   3.834   3.284   5.996  0.3114 -0.1188  0.5192
 8605SOL    HW137274   3.831   3.320   5.907 -0.5884  1.5295  1.2248
 8605SOL    HW237275   3.744   3.263   6.020  0.5827 -2.6486 -0.6135
 8606SOL     OW37276   0.609   4.233   8.593 -0.0019 -0.6456  0.1636
 8606SOL    HW137277   0.679   4.297   8.608 -0.4604  0.1129 -0.9967
 8606SOL    HW237278   0.607   4.237   8.498 -1.6032 -0.0295  0.2138
 8607SOL     OW37279   0.671   2.471   8.705 -0.6201  0.2398  0.0146
 8607SOL    HW137280   0.699   2.393   8.657 -1.1399  0.9238 -1.4008
 8607SOL    HW237281   0.684   2.441   8.794 -0.8321  2.6606  0.8674
 8608SOL     OW37282   0.973   1.278   9.614  0.0253 -0.5016 -0.0835
 8608SOL    HW137283   0.929   1.214   9.558 -1.1337  0.2946 -0.0814
 8608SOL    HW237284   0.953   1.362   9.571 -1.7481  0.1451  1.9587
 8609SOL     OW37285   3.281   0.705   5.904  0.7793  0.3072 -0.2734
 8609SOL    HW137286   3.299   0.623   5.859  1.3306 -0.3435  1.1219
 8609SOL    HW237287   3.267   0.767   5.833  0.3998  1.5443  0.8723
 8610SOL     OW37288   3.012   2.133   2.501 -0.2185  0.4305  0.0763
 8610SOL    HW137289   3.099   2.152   2.536  1.1051 -1.3477 -2.2370
 8610SOL    HW237290   3.007   2.181   2.419  0.9376 -0.5894 -0.6110
 8611SOL     OW37291   2.917   2.569   2.284  0.5900 -0.3621 -0.1810
 8611SOL    HW137292   2.905   2.630   2.357 -0.0381  0.2137 -0.7594
 8611SOL    HW237293   3.007   2.593   2.262  0.2171 -0.3336 -1.6912
 8612SOL     OW37294   1.087   3.463   2.680 -0.8347  0.4162  0.5226
 8612SOL    HW137295   1.159   3.404   2.704 -0.8986 -0.9734 -2.6723
 8612SOL    HW237296   1.143   3.533   2.647 -2.4830  1.7549  0.5767
 8613SOL     OW37297   4.205   0.913   9.324  0.7225 -0.4004 -0.2496
 8613SOL    HW137298   4.144   0.848   9.288  1.6335 -2.9144  2.8247
 8613SOL    HW237299   4.281   0.893   9.269  1.4371  0.8564  0.2810
 8614SOL     OW37300   0.733   4.454  14.170  1.1275  0.5284 -0.7410
 8614SOL    HW137301   0.709   4.545  14.188 -0.2740  0.5591 -2.6381
 8614SOL    HW237302   0.803   4.474  14.108  0.7847 -0.4651 -1.4487
 8615SOL     OW37303   3.484   2.385   6.474 -0.1898 -0.1522  0.0150
 8615SOL    HW137304   3.577   2.375   6.454 -0.6999  1.3325 -3.2466
 8615SOL    HW237305   3.480   2.471   6.516  1.4724  0.0443 -0.2379
 8616SOL     OW37306   1.667   3.105   6.541  0.2837 -0.3080  0.2546
 8616SOL    HW137307   1.697   3.193   6.518  0.0296  0.1156  1.5935
 8616SOL    HW237308   1.668   3.124   6.634 -3.6019 -0.3982  0.2927
 8617SOL     OW37309   1.935   3.065   1.153  0.0446 -0.5119 -0.1433
 8617SOL    HW137310   1.930   3.159   1.169  3.7928 -0.5546  1.2561
 8617SOL    HW237311   1.974   3.038   1.236 -0.8678 -0.2495  0.3794
 8618SOL     OW37312   1.826   2.366  14.660  0.0218  0.1860  0.7780
 8618SOL    HW137313   1.730   2.362  14.663 -0.0773  2.6574  0.6104
 8618SOL    HW237314   1.849   2.275  14.682 -0.9043 -0.3859 -0.5623
 8619SOL     OW37315   0.533   2.079   8.190 -0.2744  0.3340  0.4062
 8619SOL    HW137316   0.548   2.098   8.282  2.6826  0.3362 -0.0812
 8619SOL    HW237317   0.580   2.158   8.162 -0.4370  0.7335  1.2727
 8620SOL     OW37318   0.156   2.685   2.180 -0.2355 -0.6555  0.4440
 8620SOL    HW137319   0.102   2.607   2.193  1.5169 -1.3160  3.9168
 8620SOL    HW237320   0.206   2.693   2.262  1.7600 -0.5719 -0.7724
 8621SOL     OW37321   2.866   2.188   7.336 -0.8478  0.3751  0.1061
 8621SOL    HW137322   2.900   2.191   7.247 -0.5277 -2.4230  0.1507
 8621SOL    HW237323   2.776   2.159   7.321 -0.1558 -2.0413  0.6776
 8622SOL     OW37324   2.102   2.492   9.973 -0.0283 -0.2105  0.4101
 8622SOL    HW137325   2.040   2.420   9.977  1.5211 -1.4801  1.5159
 8622SOL    HW237326   2.177   2.449  10.014 -0.3869 -0.3356  0.9327
 8623SOL     OW37327   0.493   1.283  11.154  0.0458  0.2551 -0.0321
 8623SOL    HW137328   0.413   1.287  11.101  0.9360 -2.0779 -1.5319
 8623SOL    HW237329   0.548   1.322  11.086 -0.2647 -0.6935 -0.8353
 8624SOL     OW37330   0.397   1.739  10.741  0.3311  0.1251 -0.3087
 8624SOL    HW137331   0.472   1.779  10.697  0.9267 -0.3258  0.2864
 8624SOL    HW237332   0.416   1.650  10.709  1.6174  0.2674  0.0318
 8625SOL     OW37333   4.067   1.805   5.257 -0.4135  0.1078 -0.5060
 8625SOL    HW137334   4.133   1.740   5.279  0.7903  0.9817 -1.5150
 8625SOL    HW237335   4.064   1.792   5.162  0.5972 -0.6872 -0.4198
 8626SOL     OW37336   1.644   2.782  17.066  0.3944 -0.2143  0.2979
 8626SOL    HW137337   1.593   2.705  17.092 -0.7181  0.1229 -0.8649
 8626SOL    HW237338   1.582   2.828  17.010  1.5950  1.7006  0.5277
 8627SOL     OW37339   0.525   0.945   8.430  0.5910 -0.3346 -0.2474
 8627SOL    HW137340   0.593   0.982   8.487  0.1033  2.4948 -1.5206
 8627SOL    HW237341   0.503   0.869   8.485 -2.2597  0.0309 -0.8493
 8628SOL     OW37342   4.716   1.920  15.746 -0.0858  0.2068  0.5521
 8628SOL    HW137343   0.049   1.848  15.715  1.2287  0.3167  2.6061
 8628SOL    HW237344   4.631   1.887  15.776  0.2250 -0.2577  0.9290
 8629SOL     OW37345   1.633   3.242   1.030 -0.3991 -0.0785 -0.8570
 8629SOL    HW137346   1.582   3.279   1.102 -0.0583  0.9368 -1.1448
 8629SOL    HW237347   1.721   3.275   1.049  0.2938 -2.2512 -0.2154
 8630SOL     OW37348   1.141   4.546   2.108 -0.3352  0.0391  0.4810
 8630SOL    HW137349   1.050   4.532   2.135 -0.6548  1.0345 -0.0725
 8630SOL    HW237350   1.183   4.475   2.157 -0.7114 -0.6481 -0.2000
 8631SOL     OW37351   3.415   0.893  12.011  0.3179 -0.4986 -0.7208
 8631SOL    HW137352   3.421   0.913  12.104 -0.4656  1.6389 -1.1216
 8631SOL    HW237353   3.349   0.958  11.986 -1.1383 -1.4469  0.7038
 8632SOL     OW37354   1.610   0.808   5.441  0.0297 -0.1315 -0.3532
 8632SOL    HW137355   1.548   0.882   5.447 -1.1595 -1.2770  1.5446
 8632SOL    HW237356   1.574   0.760   5.516  0.6613 -0.2791 -0.1524
 8633SOL     OW37357   1.557   3.763   3.131  0.2227  0.0859  0.3543
 8633SOL    HW137358   1.600   3.775   3.046 -0.9265  1.5408 -0.0151
 8633SOL    HW237359   1.552   3.856   3.153 -0.1069  0.5417 -1.5988
 8634SOL     OW37360   0.909   2.623   7.708 -0.4213  0.4900  0.1342
 8634SOL    HW137361   0.937   2.646   7.619 -0.7880  1.2790  0.2248
 8634SOL    HW237362   0.872   2.537   7.689 -0.0052  0.4805 -0.6374
 8635SOL     OW37363   1.667   0.742   7.525 -0.1171  0.0778  0.3597
 8635SOL    HW137364   1.597   0.762   7.588  0.4915  1.1622  0.6799
 8635SOL    HW237365   1.627   0.760   7.440  0.9179 -3.9170 -1.0007
 8636SOL     OW37366   3.870   2.006   4.716  0.1510 -0.2910  0.1851
 8636SOL    HW137367   3.844   2.096   4.695 -0.4409 -1.0205 -2.3001
 8636SOL    HW237368   3.923   2.018   4.795  1.0409 -0.8441 -0.3322
 8637SOL     OW37369   0.507   3.002   5.235 -0.0070  0.1059 -0.0407
 8637SOL    HW137370   0.589   3.005   5.186  1.7654 -0.2162  2.8972
 8637SOL    HW237371   0.459   3.067   5.184  0.1469  0.3331  0.1049
 8638SOL     OW37372   2.795   1.151   5.500 -0.7200 -0.4840  0.5795
 8638SOL    HW137373   2.719   1.109   5.458 -0.2685 -0.7363  0.0150
 8638SOL    HW237374   2.860   1.081   5.499 -0.9929 -0.6939 -3.9798
 8639SOL     OW37375   2.249   0.113   5.286  0.4215  0.4366  0.2042
 8639SOL    HW137376   2.238   0.022   5.316 -4.6049  1.5335  1.7641
 8639SOL    HW237377   2.319   0.128   5.350 -0.9735 -1.7105  2.2799
 8640SOL     OW37378   4.169   0.164   0.635  0.1402  0.3666 -0.0178
 8640SOL    HW137379   4.125   0.150   0.718  1.2106 -0.3141  0.4269
 8640SOL    HW237380   4.254   0.133   0.666  0.2380 -0.2293 -0.8660
 8641SOL     OW37381   3.196   2.384   6.651 -0.7518 -0.6395  0.5062
 8641SOL    HW137382   3.192   2.383   6.555  0.5237  0.5870  0.4385
 8641SOL    HW237383   3.220   2.476   6.663 -0.8727 -0.7870  1.8393
 8642SOL     OW37384   4.423   1.419   6.266 -0.0196  0.0507  0.1420
 8642SOL    HW137385   4.444   1.354   6.199 -0.2922 -0.6001  0.6825
 8642SOL    HW237386   4.346   1.456   6.222  1.3565  1.5092 -1.0307
 8643SOL     OW37387   2.786   0.029  14.220  0.0798  0.2678  0.2271
 8643SOL    HW137388   2.808   0.112  14.177 -1.3558 -0.6193 -2.2277
 8643SOL    HW237389   2.765   0.052  14.310 -1.4140 -1.3744  0.2773
 8644SOL     OW37390   4.586   1.960   6.365  0.3945 -0.1362 -0.0375
 8644SOL    HW137391   4.540   2.002   6.292 -0.4508  1.9242  1.6663
 8644SOL    HW237392   4.586   1.873   6.326 -3.2006 -0.5785  0.9518
 8645SOL     OW37393   0.171   0.653   6.062 -0.4963 -0.2533  0.2535
 8645SOL    HW137394   0.241   0.715   6.041 -0.4442  0.1512  1.6108
 8645SOL    HW237395   0.191   0.592   5.991  2.2200 -0.9299  1.5991
 8646SOL     OW37396   0.858   2.067   8.386 -0.4518  0.0121  0.0062
 8646SOL    HW137397   0.770   2.030   8.380  0.1991 -1.3857 -1.1288
 8646SOL    HW237398   0.872   2.101   8.298 -0.5152  1.3768  0.5210
 8647SOL     OW37399   1.845   3.939  10.362  0.1148  0.5304  0.4825
 8647SOL    HW137400   1.912   3.904  10.304 -0.9169  0.3599 -0.6138
 8647SOL    HW237401   1.828   3.857  10.409 -1.9629  0.9541  0.4823
 8648SOL     OW37402   1.685   1.997  11.981 -0.4746 -0.1389 -0.6638
 8648SOL    HW137403   1.653   2.085  11.961  0.3669  0.4508  0.6354
 8648SOL    HW237404   1.660   1.994  12.073 -0.8291  0.0447 -0.7531
 8649SOL     OW37405   3.177   1.929   2.197 -0.5064 -0.3838  0.0775
 8649SOL    HW137406   3.157   1.872   2.271 -0.2919 -0.8889 -0.2505
 8649SOL    HW237407   3.125   1.887   2.128 -1.7849 -1.5250  1.7237
 8650SOL     OW37408   2.018   0.805   7.419  0.4074 -0.0511  0.1274
 8650SOL    HW137409   1.998   0.880   7.475  2.8498 -1.3239  2.7060
 8650SOL    HW237410   2.081   0.845   7.359 -0.7568  0.3058 -0.8463
 8651SOL     OW37411   1.583   0.261   5.138  0.1374 -0.1343 -0.5846
 8651SOL    HW137412   1.604   0.177   5.097  0.9998 -0.1305 -0.1306
 8651SOL    HW237413   1.529   0.303   5.070 -0.3085 -0.5566 -0.4939
 8652SOL     OW37414   4.168   4.245  15.295  0.3232  0.7542 -0.3510
 8652SOL    HW137415   4.198   4.316  15.238  0.4078  0.0183 -1.2342
 8652SOL    HW237416   4.229   4.255  15.368 -0.9635  1.1895  0.6487
 8653SOL     OW37417   2.712   2.278   3.427  0.0697 -0.2270 -0.0239
 8653SOL    HW137418   2.683   2.352   3.480  1.6100 -0.0064  0.5092
 8653SOL    HW237419   2.651   2.210   3.456  0.4334 -0.4917  0.1232
 8654SOL     OW37420   1.522   1.835  12.313  0.4354  0.0594 -0.1091
 8654SOL    HW137421   1.451   1.828  12.249  1.4427 -0.0399 -1.2234
 8654SOL    HW237422   1.570   1.910  12.278 -0.8002  1.3750  1.0005
 8655SOL     OW37423   0.643   0.111   2.399 -0.1593 -0.1022 -0.4493
 8655SOL    HW137424   0.703   0.140   2.468  1.1058  0.6278 -1.8666
 8655SOL    HW237425   0.666   0.172   2.328  1.7833  1.4680  1.5158
 8656SOL     OW37426   4.577   0.868  13.649 -0.2540 -0.6397  0.2354
 8656SOL    HW137427   4.529   0.809  13.707 -2.3771  0.9161  0.0651
 8656SOL    HW237428   4.556   0.956  13.680  0.0247 -0.3832 -0.2974
 8657SOL     OW37429   2.086   2.653   9.756  0.1757 -0.4839  0.0978
 8657SOL    HW137430   2.039   2.583   9.711  1.1192 -1.1582  0.1544
 8657SOL    HW237431   2.134   2.603   9.822 -1.8685  0.0410  1.9941
 8658SOL     OW37432   3.901   0.756   3.200 -0.1833 -0.0247  0.3165
 8658SOL    HW137433   3.894   0.661   3.207 -3.5848  0.2442  0.4416
 8658SOL    HW237434   3.812   0.779   3.176  0.2004 -0.5039 -1.5340
 8659SOL     OW37435   4.151   4.262   1.014 -0.4088 -0.0861 -0.4735
 8659SOL    HW137436   4.159   4.200   1.086  0.9125  0.1396 -0.4276
 8659SOL    HW237437   4.061   4.292   1.028 -0.2729  0.1501 -0.1163
 8660SOL     OW37438   2.512   2.953   8.878  0.5303  0.6173 -0.4472
 8660SOL    HW137439   2.543   2.995   8.798  1.2948  0.7314 -0.0898
 8660SOL    HW237440   2.578   2.982   8.940 -1.0110  0.1873  1.3881
 8661SOL     OW37441   3.668   3.667   9.655  0.4883 -0.4645  0.0803
 8661SOL    HW137442   3.639   3.653   9.745  2.7145  3.1593  1.3559
 8661SOL    HW237443   3.761   3.654   9.673  0.4755 -1.8479 -0.8575
 8662SOL     OW37444   1.130   4.592   6.242  0.0728 -0.3138 -0.5419
 8662SOL    HW137445   1.072   4.527   6.202 -0.1513  0.1811 -1.0143
 8662SOL    HW237446   1.125   4.659   6.174  2.6084  1.4329  0.9953
 8663SOL     OW37447   2.012   3.599   3.782  0.0818  0.0996 -0.0611
 8663SOL    HW137448   1.938   3.607   3.722  1.4119  2.3956 -1.3948
 8663SOL    HW237449   2.072   3.554   3.722 -0.9441 -0.0775 -0.9416
 8664SOL     OW37450   1.410   1.299   4.013  0.1189  0.1456  0.0252
 8664SOL    HW137451   1.398   1.272   4.104 -0.3651 -1.8605 -0.6380
 8664SOL    HW237452   1.392   1.393   4.007 -1.3665 -0.2217 -1.1663
 8665SOL     OW37453   3.839   4.716  14.414 -0.4206 -0.5051  0.0157
 8665SOL    HW137454   3.800   0.004  14.327  1.0005 -1.4655 -0.7342
 8665SOL    HW237455   3.767   0.007  14.476 -1.2493  0.4162 -1.1405
 8666SOL     OW37456   2.354   2.376   5.290  0.5482  0.1150 -0.2752
 8666SOL    HW137457   2.259   2.394   5.293  0.9381  2.4742 -1.8682
 8666SOL    HW237458   2.358   2.284   5.317 -2.0071  0.0739  0.0156
 8667SOL     OW37459   1.062   4.144   3.340  0.5778  0.2474  0.2216
 8667SOL    HW137460   1.014   4.226   3.338 -0.5511 -0.4477 -0.7383
 8667SOL    HW237461   1.142   4.169   3.294  0.2997 -0.4796 -0.6552
 8668SOL     OW37462   0.764   0.951  15.266 -0.1546 -0.4980  0.1063
 8668SOL    HW137463   0.704   0.885  15.301 -0.9896  0.7289  0.9818
 8668SOL    HW237464   0.830   0.889  15.235 -0.0185  0.6229 -1.8118
 8669SOL     OW37465   3.317   3.938   8.389 -0.2487  0.0567 -0.1237
 8669SOL    HW137466   3.322   3.851   8.348  1.1860 -0.6824  1.6087
 8669SOL    HW237467   3.234   3.972   8.356 -0.9578 -0.3016  1.2773
 8670SOL     OW37468   3.769   0.004  10.686  0.0007 -0.0890  0.1897
 8670SOL    HW137469   3.830   0.063  10.731  1.7169 -1.4683 -0.3005
 8670SOL    HW237470   3.807   4.640  10.704 -0.0683 -0.7875 -3.0244
 8671SOL     OW37471   2.407   3.311   4.538  0.5067 -0.4769 -0.2546
 8671SOL    HW137472   2.331   3.341   4.587  0.5063  3.7841 -2.8374
 8671SOL    HW237473   2.473   3.379   4.555  1.1159 -1.0828 -0.1995
 8672SOL     OW37474   1.270   1.541   4.043 -0.1941 -0.3752 -0.2056
 8672SOL    HW137475   1.319   1.614   4.006  2.6308 -1.2863  1.7746
 8672SOL    HW237476   1.193   1.540   3.986 -0.1904 -0.9595 -0.1948
 8673SOL     OW37477   2.276   0.255   5.061  0.1647  0.1791 -0.0513
 8673SOL    HW137478   2.345   0.210   5.012 -0.4763 -1.1285  0.2435
 8673SOL    HW237479   2.283   0.202   5.141  0.0602  2.7933  1.6753
 8674SOL     OW37480   4.562   2.553  17.327 -0.3789  0.2423  0.1805
 8674SOL    HW137481   4.593   2.463  17.339 -0.3118  0.2377 -0.0207
 8674SOL    HW237482   4.561   2.591  17.414  1.7448  0.4842  0.0850
 8675SOL     OW37483   2.914   4.088  15.940  0.3756  0.3162  0.9506
 8675SOL    HW137484   2.889   3.998  15.963 -0.1324 -0.5226 -2.9289
 8675SOL    HW237485   2.832   4.135  15.952  1.0168  1.2337  1.7840
 8676SOL     OW37486   4.564   0.952   7.812  0.2120 -0.0516  0.0216
 8676SOL    HW137487   4.635   0.953   7.876 -1.4744  1.7136  1.8894
 8676SOL    HW237488   4.496   0.950   7.880 -0.8951 -1.1464 -1.1162
 8677SOL     OW37489   1.299   1.406   5.318  0.1013  0.2491  0.0972
 8677SOL    HW137490   1.370   1.398   5.253  0.4316 -2.3102  0.7648
 8677SOL    HW237491   1.220   1.429   5.269  0.5574  0.2101 -0.6574
 8678SOL     OW37492   4.231   2.662   3.822 -0.2086  0.5319  0.7888
 8678SOL    HW137493   4.210   2.569   3.829  0.1036  0.3131 -1.1465
 8678SOL    HW237494   4.185   2.697   3.898 -0.3384 -0.1691  1.0322
 8679SOL     OW37495   2.653   0.403   8.275 -0.1321 -0.5607 -0.0664
 8679SOL    HW137496   2.578   0.345   8.285 -0.8218  0.1499 -1.1686
 8679SOL    HW237497   2.718   0.369   8.337 -1.1928  0.4490  1.5672
 8680SOL     OW37498   1.805   0.244   3.161 -0.3886  0.4616 -0.8240
 8680SOL    HW137499   1.826   0.233   3.254 -3.1949  1.0485 -0.1234
 8680SOL    HW237500   1.837   0.333   3.150  1.8056 -0.0048  1.7282
 8681SOL     OW37501   2.427   0.858  14.319  0.1050 -0.3156  1.1844
 8681SOL    HW137502   2.436   0.824  14.408  1.2247 -2.4014  0.2626
 8681SOL    HW237503   2.506   0.911  14.317 -0.1568  0.0222 -0.8543
 8682SOL     OW37504   1.162   2.528   4.258 -0.0228  0.1412  0.1203
 8682SOL    HW137505   1.088   2.553   4.203  0.0231 -1.8808 -0.8627
 8682SOL    HW237506   1.107   2.486   4.324 -2.2536  2.6948 -0.0896
 8683SOL     OW37507   1.445   3.714   5.524  0.0534  0.0022 -0.4096
 8683SOL    HW137508   1.476   3.641   5.471  1.6620  0.0151  0.5221
 8683SOL    HW237509   1.506   3.718   5.598 -1.1533 -2.1242  0.6898
 8684SOL     OW37510   2.939   4.192  11.296 -0.2835  0.1543  0.1745
 8684SOL    HW137511   2.931   4.108  11.342 -2.0703  0.3497  0.1969
 8684SOL    HW237512   3.034   4.196  11.284 -0.3908  1.6667 -0.1693
 8685SOL     OW37513   2.205   1.720   3.493  0.2325  0.2157 -0.1090
 8685SOL    HW137514   2.191   1.714   3.398 -1.7189  0.3806  0.1657
 8685SOL    HW237515   2.266   1.793   3.494  0.6993 -0.1846  0.6351
 8686SOL     OW37516   1.009   4.508  12.823  0.1844 -0.5591 -0.2143
 8686SOL    HW137517   1.010   4.460  12.906 -0.3954  0.2489  0.2646
 8686SOL    HW237518   1.027   4.437  12.762  0.4454 -1.7794  1.2698
 8687SOL     OW37519   4.137   4.043   7.301  0.6003  0.2511 -0.3781
 8687SOL    HW137520   4.114   4.081   7.386 -1.4537 -0.3381 -0.6595
 8687SOL    HW237521   4.167   4.123   7.258  2.1449  0.0027  0.2589
 8688SOL     OW37522   2.743   2.123  13.303  0.0223 -0.1021  0.5935
 8688SOL    HW137523   2.762   2.193  13.241  1.5659 -0.8147  0.2565
 8688SOL    HW237524   2.775   2.051  13.248 -0.1666 -0.9021  1.5379
 8689SOL     OW37525   3.003   4.377   8.466 -0.2627 -0.6933 -0.0930
 8689SOL    HW137526   3.035   4.329   8.543  0.0534 -0.0543  0.1703
 8689SOL    HW237527   3.088   4.406   8.435 -0.5753  0.9345  0.5842
 8690SOL     OW37528   3.921   2.330   9.020  0.3609  0.2519  0.3255
 8690SOL    HW137529   3.896   2.423   9.019  2.2425  0.7544  1.1927
 8690SOL    HW237530   3.953   2.323   9.109 -0.0940  0.0863  0.4751
 8691SOL     OW37531   0.102   1.504   3.093 -0.1923  0.2621 -0.2154
 8691SOL    HW137532   0.054   1.438   3.044  1.7995 -2.1664  1.1370
 8691SOL    HW237533   0.175   1.501   3.032 -1.5871 -2.9638 -1.7240
 8692SOL     OW37534   4.591   1.751   5.922 -0.5067 -0.1183  0.4442
 8692SOL    HW137535   4.595   1.655   5.919  0.1774 -0.0398 -1.3244
 8692SOL    HW237536   4.641   1.762   6.003 -1.5993  0.2776  1.0558
 8693SOL     OW37537   2.293   4.327   9.016 -1.0133  0.2589  0.4271
 8693SOL    HW137538   2.363   4.266   8.994 -1.5543 -0.4596  0.7191
 8693SOL    HW237539   2.277   4.375   8.934  0.0799  0.8751  0.5633
 8694SOL     OW37540   0.861   0.681   2.674  0.2568  0.5850  0.8200
 8694SOL    HW137541   0.795   0.715   2.733 -0.6758 -1.8854  1.2227
 8694SOL    HW237542   0.808   0.659   2.597  2.2061  1.6126 -0.8114
 8695SOL     OW37543   1.654   0.102   6.914 -0.2031 -0.6957 -1.0137
 8695SOL    HW137544   1.628   0.025   6.965  1.4673 -0.2847  0.4814
 8695SOL    HW237545   1.648   0.171   6.980 -2.1848 -0.9046 -0.9687
 8696SOL     OW37546   2.933   2.573   8.851  0.0761 -0.4179 -0.8419
 8696SOL    HW137547   2.900   2.587   8.940 -0.1424 -0.8079 -0.8574
 8696SOL    HW237548   2.947   2.665   8.829  0.0662 -0.6756 -1.8981
 8697SOL     OW37549   0.881   1.444   0.159 -0.6279 -0.2923 -0.0860
 8697SOL    HW137550   0.860   1.431   0.252 -0.9587  2.6733  0.2489
 8697SOL    HW237551   0.795   1.478   0.135 -0.4041  1.3721  1.3844
 8698SOL     OW37552   1.772   0.342   0.146 -0.2040 -0.6293  0.4980
 8698SOL    HW137553   1.737   0.313   0.062  2.5221  1.5000 -1.3638
 8698SOL    HW237554   1.790   0.435   0.133  2.3613 -1.4398 -1.9224
 8699SOL     OW37555   1.867   0.688   5.709  0.4603 -0.1355 -0.6550
 8699SOL    HW137556   1.848   0.750   5.780 -2.2252 -2.0832  0.3675
 8699SOL    HW237557   1.898   0.747   5.641  0.3235  1.0218  0.2978
 8700SOL     OW37558   0.745   0.752   6.405  0.4090 -0.3052 -0.5687
 8700SOL    HW137559   0.832   0.758   6.365  0.9625  1.4447  0.9163
 8700SOL    HW237560   0.754   0.810   6.480 -1.5255  1.5577 -1.7787
 8701SOL     OW37561   0.042   1.811   3.471  0.1168 -0.4875 -0.6085
 8701SOL    HW137562   0.091   1.733   3.446  0.9140 -0.0796 -0.3141
 8701SOL    HW237563   0.096   1.871   3.419  0.7114 -0.7302 -0.2722
 8702SOL     OW37564   3.227   0.446   7.295 -0.0375 -0.3319  0.0125
 8702SOL    HW137565   3.287   0.425   7.223 -0.0337  0.6059 -0.2654
 8702SOL    HW237566   3.148   0.397   7.276 -1.0118  1.2987 -0.1900
 8703SOL     OW37567   4.597   4.560   5.031 -0.0238  0.2379  0.4043
 8703SOL    HW137568   4.585   4.511   4.950 -1.3980 -0.6332  1.1466
 8703SOL    HW237569   4.593   4.486   5.092  0.1295  1.1267  1.5091
 8704SOL     OW37570   3.847   3.782   8.957  0.2569 -0.1602 -0.2674
 8704SOL    HW137571   3.895   3.861   8.931 -1.5522  1.1194  0.2587
 8704SOL    HW237572   3.808   3.812   9.039 -0.0840  0.0276 -0.4997
 8705SOL     OW37573   3.758   1.058   3.027  0.0945  0.4196  0.2875
 8705SOL    HW137574   3.718   0.974   3.048  1.5874 -0.6077 -0.9021
 8705SOL    HW237575   3.704   1.096   2.958  0.8349  1.0167  0.0271
 8706SOL     OW37576   0.870   0.560   8.106  0.1172  0.0204  0.2645
 8706SOL    HW137577   0.829   0.493   8.050 -2.0747  3.9725 -2.8250
 8706SOL    HW237578   0.938   0.588   8.045  1.9315 -1.5686  1.5566
 8707SOL     OW37579   2.183   3.307   6.120 -0.0049 -0.3117 -0.7926
 8707SOL    HW137580   2.110   3.352   6.162  0.2318 -0.8308  0.1625
 8707SOL    HW237581   2.167   3.215   6.142  0.5344 -1.0483 -3.4445
 8708SOL     OW37582   1.960   2.293   8.308 -0.0709  0.3828 -0.0495
 8708SOL    HW137583   1.904   2.360   8.269 -0.7132 -0.0269  0.1678
 8708SOL    HW237584   1.940   2.300   8.401  0.6228 -1.1380  0.2176
 8709SOL     OW37585   2.262   2.970  17.062 -0.5988  0.0147 -0.0631
 8709SOL    HW137586   2.310   3.043  17.022 -1.3888  0.5781  0.0266
 8709SOL    HW237587   2.182   2.981  17.011 -0.6702 -0.2073  0.0024
 8710SOL     OW37588   2.822   1.237  15.439  0.2214  0.1333 -0.4533
 8710SOL    HW137589   2.805   1.245  15.533 -1.8352  0.2902 -0.8327
 8710SOL    HW237590   2.814   1.329  15.413  2.5654  0.5736  0.4353
 8711SOL     OW37591   3.942   2.921   9.670 -0.3535 -0.9359  0.3034
 8711SOL    HW137592   3.877   2.974   9.623  0.8934 -0.8063 -1.2418
 8711SOL    HW237593   4.014   2.982   9.685 -0.7701 -0.6000  0.9365
 8712SOL     OW37594   1.715   2.207   2.460 -0.0611  0.0438 -0.0466
 8712SOL    HW137595   1.804   2.199   2.493  0.5387  1.1818 -1.3908
 8712SOL    HW237596   1.733   2.146   2.388 -0.8169 -0.7089  0.3972
 8713SOL     OW37597   2.074   0.852   8.717 -0.0137 -0.4566  0.6298
 8713SOL    HW137598   2.109   0.855   8.806 -0.4202  3.0978  0.6346
 8713SOL    HW237599   2.059   0.941   8.688 -0.0531 -0.4214  0.7575
 8714SOL     OW37600   2.925   0.218  10.303  0.0726 -0.3917  0.3178
 8714SOL    HW137601   2.974   0.274  10.362  0.9434 -1.3114  0.4718
 8714SOL    HW237602   2.960   0.213  10.214 -2.2199  0.2198 -0.6415
 8715SOL     OW37603   1.701   3.237   2.785  0.5617  0.5004 -0.2130
 8715SOL    HW137604   1.679   3.145   2.771 -1.6072  0.8254  1.1473
 8715SOL    HW237605   1.796   3.238   2.770  0.9423  1.9872  2.2709
 8716SOL     OW37606   3.651   4.685   7.192  0.3448 -0.6953 -0.3661
 8716SOL    HW137607   3.592   0.036   7.210  1.2953  0.6873 -2.9653
 8716SOL    HW237608   3.727   0.013   7.163  0.6791  0.3435  2.3085
 8717SOL     OW37609   1.827   0.861   9.610  0.0524  0.3256  0.1820
 8717SOL    HW137610   1.790   0.947   9.633 -0.8054 -0.9379  3.4964
 8717SOL    HW237611   1.771   0.810   9.668  0.3119  1.0888  1.1072
 8718SOL     OW37612   2.964   2.329   2.692 -0.5930  0.5576 -0.5703
 8718SOL    HW137613   2.971   2.254   2.632  2.0999  0.0645  0.3203
 8718SOL    HW237614   3.009   2.400   2.647 -0.9793  0.1221 -1.6253
 8719SOL     OW37615   3.327   2.445   7.014  0.0577  0.6333 -0.4237
 8719SOL    HW137616   3.402   2.502   7.002  0.6712  0.0654  0.7478
 8719SOL    HW237617   3.365   2.369   6.970  0.5018 -0.2876  1.5786
 8720SOL     OW37618   0.385   2.446   0.462  0.5812  0.3281 -0.7550
 8720SOL    HW137619   0.434   2.375   0.420  2.0185 -0.3035  1.9235
 8720SOL    HW237620   0.301   2.411   0.434  1.1089 -0.2561 -1.6265
 8721SOL     OW37621   0.759   4.056   1.074  0.2341  0.1407  0.0462
 8721SOL    HW137622   0.830   4.120   1.077 -0.0295  0.5850 -2.5796
 8721SOL    HW237623   0.708   4.099   1.005 -0.5113 -2.5317 -1.0555
 8722SOL     OW37624   2.701   2.216   4.105  0.3045 -0.2493  0.2911
 8722SOL    HW137625   2.697   2.159   4.183 -0.9951  1.4412  1.4538
 8722SOL    HW237626   2.756   2.289   4.135  0.1967 -0.6690  1.5197
 8723SOL     OW37627   0.975   3.443   6.130  0.5496  1.1156  0.1613
 8723SOL    HW137628   1.041   3.377   6.110 -0.2332  0.8324 -1.5136
 8723SOL    HW237629   1.009   3.471   6.215 -0.3777 -0.6384  1.1101
 8724SOL     OW37630   0.650   4.221   3.441  0.2119  0.0895  0.5313
 8724SOL    HW137631   0.726   4.162   3.445  1.0913  1.2115  0.2003
 8724SOL    HW237632   0.612   4.199   3.357  0.9392 -0.2404  0.2861
 8725SOL     OW37633   0.611   3.599  11.408 -0.2693 -0.2108 -0.1545
 8725SOL    HW137634   0.677   3.530  11.416 -0.1594 -0.1782 -0.8263
 8725SOL    HW237635   0.533   3.549  11.433 -0.4997 -0.1784 -0.8062
 8726SOL     OW37636   0.076   2.847   6.273  0.0376  0.3398 -0.2733
 8726SOL    HW137637   4.714   2.885   6.249 -1.5948 -2.3974  1.1517
 8726SOL    HW237638   0.036   2.765   6.301  1.6417 -1.3165 -2.8826
 8727SOL     OW37639   4.468   0.898   2.672  0.2235  0.3022 -0.2892
 8727SOL    HW137640   4.379   0.874   2.698 -0.9800  1.3702 -3.3986
 8727SOL    HW237641   4.515   0.815   2.680 -0.4511  0.0225  0.6869
 8728SOL     OW37642   0.816   1.495   8.998 -0.5888  0.7275  0.0579
 8728SOL    HW137643   0.847   1.411   8.964  0.4430  2.4795 -3.2271
 8728SOL    HW237644   0.889   1.553   8.978 -0.7861  1.6460  2.0491
 8729SOL     OW37645   2.991   0.930  11.473 -0.2167 -0.0074  0.4013
 8729SOL    HW137646   2.986   0.888  11.558  0.9214 -2.8080 -0.9141
 8729SOL    HW237647   3.025   1.014  11.504  0.9406 -0.3755  0.1162
 8730SOL     OW37648   0.103   1.913   6.484 -0.1677 -0.1301  0.8120
 8730SOL    HW137649   0.015   1.928   6.449  0.8139  2.5605 -0.5595
 8730SOL    HW237650   0.153   1.956   6.414 -1.2731 -1.2627 -0.6783
 8731SOL     OW37651   2.658   0.255  10.339 -0.3461  0.5138 -0.0424
 8731SOL    HW137652   2.753   0.250  10.332 -0.3356 -0.9107  1.2577
 8731SOL    HW237653   2.614   0.192  10.282  0.0615 -0.2714  0.5226
 8732SOL     OW37654   0.391   1.073   3.429 -0.0144  0.0056  0.4846
 8732SOL    HW137655   0.440   1.152   3.451 -0.5212 -0.3086  2.7685
 8732SOL    HW237656   0.381   1.041   3.519 -0.2406  0.6623  0.6947
 8733SOL     OW37657   1.337   2.754  10.829 -0.1812  0.1988 -0.8104
 8733SOL    HW137658   1.316   2.842  10.796 -0.0031 -0.0338 -1.5302
 8733SOL    HW237659   1.422   2.782  10.861 -1.2300  2.3343  0.1808
 8734SOL     OW37660   4.711   0.989   2.857 -0.0975  0.3281 -0.2892
 8734SOL    HW137661   0.014   1.034   2.776  1.8475 -0.6821 -0.2565
 8734SOL    HW237662   0.055   0.920   2.850  1.1474  1.4849  0.0781
 8735SOL     OW37663   0.168   3.169  17.149  0.2360 -0.3877 -0.2880
 8735SOL    HW137664   0.210   3.146  17.066  2.9539  2.2779  0.3475
 8735SOL    HW237665   0.075   3.173  17.127  0.2612  1.3812 -0.1180
 8736SOL     OW37666   0.861   1.816  13.535 -0.2880 -0.4404  0.1705
 8736SOL    HW137667   0.836   1.831  13.444  0.1011 -1.2571 -0.0684
 8736SOL    HW237668   0.778   1.802  13.582 -0.7025 -0.7134 -0.6411
 8737SOL     OW37669   2.154   0.971  15.912  0.1090 -0.5034 -0.4078
 8737SOL    HW137670   2.146   0.930  15.998  1.2947  1.3900  0.6103
 8737SOL    HW237671   2.202   0.905  15.861  2.0303  0.2339  0.4157
 8738SOL     OW37672   2.514   3.608   3.929  0.6487  0.3725 -0.2191
 8738SOL    HW137673   2.569   3.531   3.917  0.5477 -0.0325  1.9090
 8738SOL    HW237674   2.527   3.655   3.847  1.1175 -1.8844 -1.4426
 8739SOL     OW37675   2.797   1.690   4.883  0.0502 -0.0142 -0.5327
 8739SOL    HW137676   2.796   1.606   4.930  0.3633  1.2435  1.7623
 8739SOL    HW237677   2.716   1.684   4.833  1.1301 -0.0793 -2.2577
 8740SOL     OW37678   1.710   2.749  13.337  0.1803 -0.1385  0.2279
 8740SOL    HW137679   1.702   2.735  13.243  1.8608 -2.0994  0.3647
 8740SOL    HW237680   1.681   2.840  13.339  0.8096  0.0722 -0.2392
 8741SOL     OW37681   0.996   1.584   3.710 -0.3102 -0.6069  0.1565
 8741SOL    HW137682   1.041   1.658   3.750 -2.0727  1.1804 -1.2162
 8741SOL    HW237683   0.905   1.612   3.710  0.0188  0.4466 -1.6289
 8742SOL     OW37684   1.597   1.187   1.022  0.1900 -0.0740  1.0467
 8742SOL    HW137685   1.590   1.157   0.931  0.0034  0.2819  0.9450
 8742SOL    HW237686   1.679   1.234   1.028 -0.6352  1.3800  0.8893
 8743SOL     OW37687   2.840   4.633   2.099 -0.4426 -0.0412  0.7469
 8743SOL    HW137688   2.896   4.697   2.143 -0.6619 -0.0444  1.0281
 8743SOL    HW237689   2.845   4.552   2.150  1.5641 -0.2250  0.2784
 8744SOL     OW37690   2.389   1.728   8.113  0.0276  0.8258  0.4005
 8744SOL    HW137691   2.393   1.808   8.060  1.7439  1.1271  0.9889
 8744SOL    HW237692   2.480   1.707   8.130  0.1006  0.5656 -0.3074
 8745SOL     OW37693   3.079   2.734   7.271  0.3265  0.3172 -0.7121
 8745SOL    HW137694   3.127   2.816   7.280  1.4672 -0.5874  1.3912
 8745SOL    HW237695   2.989   2.759   7.291  1.1198  2.4328  0.1331
 8746SOL     OW37696   3.180   1.345   8.896 -0.4494  0.5119  0.1823
 8746SOL    HW137697   3.145   1.288   8.965 -0.0696  0.3548  0.2429
 8746SOL    HW237698   3.266   1.365   8.933  0.0053  0.9310 -1.1391
 8747SOL     OW37699   3.085   0.324   5.180 -0.0214  0.0629 -0.4134
 8747SOL    HW137700   3.044   0.238   5.174  2.6401 -1.2688  0.2565
 8747SOL    HW237701   3.024   0.365   5.241  0.3736 -0.3485  0.2662
 8748SOL     OW37702   1.453   1.451  14.347  0.2990 -0.5631  0.5117
 8748SOL    HW137703   1.493   1.375  14.390  0.7889  0.6809  2.2633
 8748SOL    HW237704   1.375   1.414  14.305 -0.7570  1.0702  1.0226
 8749SOL     OW37705   0.428   3.271   2.410  0.1305 -0.1917 -0.9565
 8749SOL    HW137706   0.444   3.278   2.315  1.2194 -0.3538 -0.7868
 8749SOL    HW237707   0.394   3.182   2.416 -1.2775  0.3412 -1.0273
 8750SOL     OW37708   2.375   1.236  11.794 -0.4115 -0.0713 -1.0616
 8750SOL    HW137709   2.368   1.203  11.884 -1.6814 -0.2547 -1.2178
 8750SOL    HW237710   2.463   1.208  11.769  0.6935  0.6839  1.9497
 8751SOL     OW37711   0.525   2.819   8.916 -0.3325  0.4008  0.5724
 8751SOL    HW137712   0.604   2.821   8.970  0.1501  1.4935 -0.1778
 8751SOL    HW237713   0.484   2.902   8.936 -1.1782  0.1804 -0.2847
 8752SOL     OW37714   3.233   0.224   7.816  0.2062 -0.2673  0.4806
 8752SOL    HW137715   3.186   0.305   7.831  0.8325  0.0927  0.5095
 8752SOL    HW237716   3.245   0.183   7.902 -0.4270  1.9323  1.6128
 8753SOL     OW37717   3.757   4.347   1.523  0.0142 -0.2686  0.0831
 8753SOL    HW137718   3.835   4.318   1.475 -2.1825 -1.6471 -2.6902
 8753SOL    HW237719   3.751   4.440   1.500  0.1970 -0.6617 -1.5527
 8754SOL     OW37720   4.204   1.458   1.488 -0.3037  0.1879 -0.6787
 8754SOL    HW137721   4.264   1.397   1.530  1.6197  2.5535  0.0343
 8754SOL    HW237722   4.202   1.429   1.397 -0.0554  3.1457 -1.6363
 8755SOL     OW37723   3.134   4.561  15.855  0.3697  0.7798 -0.4586
 8755SOL    HW137724   3.118   4.558  15.761  1.5908 -3.3490 -0.5514
 8755SOL    HW237725   3.156   4.469  15.869  0.6764  1.0319  0.7432
 8756SOL     OW37726   2.950   3.364   5.606  0.1894  0.5830 -0.4223
 8756SOL    HW137727   2.920   3.345   5.695 -0.1163 -0.3567 -0.7181
 8756SOL    HW237728   3.030   3.311   5.599  0.7796  1.5256 -0.7461
 8757SOL     OW37729   2.413   2.420   1.754 -0.2705 -0.1944 -0.1490
 8757SOL    HW137730   2.506   2.441   1.765 -0.3434 -0.8503  1.8138
 8757SOL    HW237731   2.413   2.376   1.669 -0.0344  0.0888 -0.2971
 8758SOL     OW37732   1.532   0.487   4.592 -0.2947 -0.6673 -0.2167
 8758SOL    HW137733   1.611   0.538   4.609  0.3380 -1.2386 -1.4796
 8758SOL    HW237734   1.527   0.417   4.657 -0.9826 -2.1296 -1.8378
 8759SOL     OW37735   1.817   1.028   3.848 -0.2947  0.3816 -0.1565
 8759SOL    HW137736   1.832   0.934   3.839  0.7401  0.6592 -1.3868
 8759SOL    HW237737   1.794   1.029   3.941  1.3658  2.3248  0.2544
 8760SOL     OW37738   0.239   3.523   7.225  0.1070  0.6167  0.1806
 8760SOL    HW137739   0.217   3.613   7.203 -0.8576  0.3035 -0.1511
 8760SOL    HW237740   0.323   3.548   7.262  0.4207 -1.3239  0.7819
 8761SOL     OW37741   0.483   2.666   6.790  0.3949 -0.4495  0.0337
 8761SOL    HW137742   0.481   2.756   6.824  0.8423 -0.7061  0.7503
 8761SOL    HW237743   0.431   2.681   6.712 -0.7645 -1.6112  0.5863
 8762SOL     OW37744   2.838   0.376   9.909 -0.2231  0.7241  0.1136
 8762SOL    HW137745   2.760   0.388   9.962 -0.1408 -2.3315  0.9184
 8762SOL    HW237746   2.812   0.414   9.825  1.0263  2.3976  0.4608
 8763SOL     OW37747   2.085   0.522   8.040  0.4405  0.4201 -1.1994
 8763SOL    HW137748   1.990   0.513   8.047  0.6871 -1.3084 -0.0915
 8763SOL    HW237749   2.100   0.616   8.027  0.1822  0.3254 -2.1294
 8764SOL     OW37750   3.057   1.483  12.488  0.0647 -0.2389 -0.4733
 8764SOL    HW137751   2.997   1.408  12.491 -0.7873  0.4771  0.4698
 8764SOL    HW237752   3.104   1.473  12.571 -0.7784 -3.0246 -0.3314
 8765SOL     OW37753   3.670   3.598   6.380 -0.6428  0.4834  0.0164
 8765SOL    HW137754   3.726   3.664   6.340  0.7060 -0.5970  0.1208
 8765SOL    HW237755   3.669   3.534   6.309  1.6877  1.5125 -0.9153
 8766SOL     OW37756   4.519   3.213   2.186  0.0591 -0.5151 -0.3991
 8766SOL    HW137757   4.465   3.182   2.114 -2.2374  1.9493  0.2391
 8766SOL    HW237758   4.489   3.158   2.258  0.3755 -0.1578  0.0072
 8767SOL     OW37759   1.838   2.182   6.309 -0.1792 -0.3456  0.0545
 8767SOL    HW137760   1.915   2.150   6.357 -0.2764  0.8560  0.9958
 8767SOL    HW237761   1.794   2.231   6.377  2.6522  0.7141  1.1456
 8768SOL     OW37762   3.102   1.288  15.074 -0.4782 -0.2178  0.0880
 8768SOL    HW137763   3.044   1.355  15.112  2.4973  1.2663  2.0235
 8768SOL    HW237764   3.167   1.346  15.035  0.7248 -1.1067  0.7835
 8769SOL     OW37765   2.478   1.686   3.852 -0.4233 -0.5367  0.1924
 8769SOL    HW137766   2.467   1.639   3.934  0.0450  0.2281  0.7020
 8769SOL    HW237767   2.446   1.622   3.790 -2.0310  0.8984 -0.4666
 8770SOL     OW37768   4.113   1.236  17.684  0.7676  0.2502  0.6472
 8770SOL    HW137769   4.107   1.307   0.057  0.1673  0.8243 -0.0418
 8770SOL    HW237770   4.112   1.296  17.609 -2.1378  0.1564  0.6088
 8771SOL     OW37771   0.069   1.978   3.843 -0.3401  0.1405 -0.3996
 8771SOL    HW137772   0.097   1.904   3.790  0.5638 -0.2053  0.5660
 8771SOL    HW237773   0.000   1.938   3.896  0.3818 -1.1340 -0.4244
 8772SOL     OW37774   3.428   3.484   0.669 -0.6759  0.3019 -0.5930
 8772SOL    HW137775   3.520   3.502   0.687 -1.1252  1.0835  0.8892
 8772SOL    HW237776   3.401   3.571   0.643 -0.6536  0.4232 -0.2119
 8773SOL     OW37777   2.522   3.650   7.548  0.0969 -0.7151 -0.2773
 8773SOL    HW137778   2.562   3.736   7.535 -0.6750  0.0619  2.4344
 8773SOL    HW237779   2.429   3.672   7.544  0.5253  1.0961  0.1272
 8774SOL     OW37780   3.022   2.431   5.187 -0.4066  0.0244 -0.3090
 8774SOL    HW137781   3.037   2.460   5.277 -2.5884 -0.7965  0.3102
 8774SOL    HW237782   2.957   2.362   5.204 -0.5574  0.3109  0.2627
 8775SOL     OW37783   1.075   2.918  13.541 -0.2986 -0.7102 -0.1604
 8775SOL    HW137784   1.166   2.889  13.546 -0.2639 -0.6738 -0.5197
 8775SOL    HW237785   1.037   2.879  13.619  0.7086 -0.3036  0.5386
 8776SOL     OW37786   4.516   1.632   8.007  0.2216 -0.3805  0.3110
 8776SOL    HW137787   4.492   1.723   7.990 -0.2178 -0.4849  0.3719
 8776SOL    HW237788   4.545   1.608   7.919  2.6458  1.3399  0.6450
 8777SOL     OW37789   2.657   2.315   2.261 -0.0588 -0.8824 -0.1013
 8777SOL    HW137790   2.647   2.327   2.167 -2.6638  1.4790  0.4579
 8777SOL    HW237791   2.742   2.272   2.258 -1.4221 -3.7030  0.7664
 8778SOL     OW37792   4.654   0.874   3.323 -0.1581 -0.0216  0.1856
 8778SOL    HW137793   4.704   0.956   3.317  0.3351 -0.2698  0.8911
 8778SOL    HW237794   4.603   0.884   3.243  0.8256  1.5961 -0.2522
 8779SOL     OW37795   0.636   2.560   6.117  0.3527 -0.4278 -0.1783
 8779SOL    HW137796   0.558   2.615   6.122 -0.1075 -1.3860  2.6522
 8779SOL    HW237797   0.697   2.623   6.156 -2.0044 -0.5820  3.7105
 8780SOL     OW37798   2.134   0.514   5.558 -0.2054 -0.6271 -0.7415
 8780SOL    HW137799   2.058   0.518   5.500  1.8259  1.0138 -3.2788
 8780SOL    HW237800   2.168   0.596   5.524  0.6316 -0.4342  0.5727
 8781SOL     OW37801   4.541   3.306   4.814  0.0769  0.2526 -0.1278
 8781SOL    HW137802   4.534   3.347   4.727 -0.8804 -1.3148 -0.7898
 8781SOL    HW237803   4.586   3.365   4.875  2.9065 -3.5464  1.4169
 8782SOL     OW37804   2.346   3.259  17.616  0.2781 -0.1902 -0.3356
 8782SOL    HW137805   2.277   3.275  17.680  0.3744 -0.5473 -0.1431
 8782SOL    HW237806   2.419   3.302  17.661  0.6072 -0.3833 -0.6938
 8783SOL     OW37807   0.821   2.766   7.200  0.4637  0.4033  0.1460
 8783SOL    HW137808   0.898   2.817   7.172 -0.9075  2.0676 -0.6193
 8783SOL    HW237809   0.754   2.788   7.136  0.7770  1.1077  0.0628
 8784SOL     OW37810   4.650   4.132   9.191 -0.1042 -0.3149 -1.0307
 8784SOL    HW137811   4.666   4.155   9.283  1.0572 -0.1159 -1.2806
 8784SOL    HW237812   4.558   4.106   9.197 -0.2267  0.4375  0.6994
 8785SOL     OW37813   2.156   1.195   1.268  0.3431 -0.5011 -0.3688
 8785SOL    HW137814   2.169   1.141   1.345 -2.3817 -1.3651 -0.5240
 8785SOL    HW237815   2.062   1.187   1.253  0.1569  2.4258 -0.7205
 8786SOL     OW37816   3.450   2.381  11.920  0.5690  0.3232 -0.1970
 8786SOL    HW137817   3.470   2.465  11.961 -0.6433  0.6543 -0.2877
 8786SOL    HW237818   3.533   2.342  11.893 -1.7301 -3.1407 -2.2941
 8787SOL     OW37819   3.827   3.908   2.404 -0.0470 -0.1431 -0.0863
 8787SOL    HW137820   3.840   3.833   2.347  1.1728  0.3842 -0.5058
 8787SOL    HW237821   3.900   3.968   2.385 -2.1323  0.7211 -5.3017
 8788SOL     OW37822   4.324   3.533   3.376  0.0650  0.1251 -0.4506
 8788SOL    HW137823   4.385   3.548   3.303 -1.6750 -0.5569 -2.0519
 8788SOL    HW237824   4.361   3.580   3.451 -1.4782  0.1832  0.2776
 8789SOL     OW37825   2.130   2.028  15.693  0.3089 -0.1625 -0.5550
 8789SOL    HW137826   2.043   2.059  15.671  0.6603  0.6785 -0.7539
 8789SOL    HW237827   2.181   2.060  15.618  0.5382  0.5706 -0.0894
 8790SOL     OW37828   3.965   3.899   4.150  0.1559  0.5300 -0.2364
 8790SOL    HW137829   3.968   3.890   4.054 -0.0211  0.2015 -0.2132
 8790SOL    HW237830   4.014   3.824   4.185 -0.2672  1.0513  1.4368
 8791SOL     OW37831   0.113   2.846   7.073  0.2813  0.6428  1.1404
 8791SOL    HW137832   0.027   2.881   7.095 -0.0583  0.0210  0.7981
 8791SOL    HW237833   0.107   2.847   6.978 -1.0309 -1.2437  1.2072
 8792SOL     OW37834   3.416   3.977   4.532 -0.6306  0.3543  0.3077
 8792SOL    HW137835   3.337   3.972   4.586 -0.0929 -2.7062  0.8465
 8792SOL    HW237836   3.392   4.044   4.469 -1.2738 -0.2355 -0.0729
 8793SOL     OW37837   3.224   2.493   5.446  0.7771 -0.6123  0.4273
 8793SOL    HW137838   3.220   2.415   5.391 -0.0466 -1.1953  1.3088
 8793SOL    HW237839   3.133   2.507   5.471  0.8532 -0.5102  0.6460
 8794SOL     OW37840   1.835   2.745   3.245  0.1984 -0.3530  0.1161
 8794SOL    HW137841   1.914   2.722   3.294  0.8944  1.2870 -0.2200
 8794SOL    HW237842   1.768   2.697   3.293  0.7346 -2.1333 -0.9441
 8795SOL     OW37843   3.926   4.024   8.259 -0.0870  0.7063 -0.1077
 8795SOL    HW137844   3.977   3.976   8.195  1.3818  2.8630 -0.5664
 8795SOL    HW237845   3.833   4.020   8.235 -0.4076  0.4786  1.1639
 8796SOL     OW37846   0.475   2.016   7.472  0.4831  0.3850  0.6445
 8796SOL    HW137847   0.452   2.101   7.509  0.5179 -0.2545  2.1138
 8796SOL    HW237848   0.450   1.958   7.544  0.6120 -1.2152 -0.6033
 8797SOL     OW37849   0.821   2.798   4.658  0.1292  0.4779  0.2250
 8797SOL    HW137850   0.869   2.840   4.587  1.2815 -0.6478  0.3469
 8797SOL    HW237851   0.773   2.732   4.609 -1.8145  1.1897  1.1625
 8798SOL     OW37852   2.215   4.126   3.659 -0.4367  0.1682  0.4923
 8798SOL    HW137853   2.300   4.083   3.661 -0.0668  0.9127  0.6293
 8798SOL    HW237854   2.157   4.049   3.666 -0.8670  0.7140  2.9093
 8799SOL     OW37855   3.632   2.645   6.207  0.0216 -0.3716 -0.2785
 8799SOL    HW137856   3.692   2.715   6.183 -1.3592  0.6745 -0.6764
 8799SOL    HW237857   3.698   2.578   6.223 -0.8836 -1.6443 -1.8454
 8800SOL     OW37858   4.338   4.702   8.909  0.1210 -0.2654 -0.2137
 8800SOL    HW137859   4.297   0.051   8.958  1.9755  0.8981 -0.3672
 8800SOL    HW237860   4.416   4.682   8.961  0.3151 -0.6762 -0.6626
 8801SOL     OW37861   2.976   3.083   5.331  0.5163 -0.1085  0.1921
 8801SOL    HW137862   3.041   3.112   5.267 -0.2190  0.3293 -0.3651
 8801SOL    HW237863   2.900   3.082   5.272  0.9491 -3.0414 -0.3003
 8802SOL     OW37864   1.448   0.353  10.428  0.2539 -0.4622  0.2468
 8802SOL    HW137865   1.494   0.354  10.512  1.9032 -1.1436 -0.6600
 8802SOL    HW237866   1.411   0.441  10.422 -0.6858 -1.1151 -3.3982
 8803SOL     OW37867   2.520   2.142  13.593 -0.3316  0.5093 -0.4094
 8803SOL    HW137868   2.519   2.100  13.678 -1.4725  1.1228 -0.1204
 8803SOL    HW237869   2.439   2.192  13.600 -0.7907 -0.3782  0.5761
 8804SOL     OW37870   3.200   1.299   7.081  0.1391 -0.0265 -0.6559
 8804SOL    HW137871   3.221   1.206   7.069 -0.6702 -0.5777  2.2005
 8804SOL    HW237872   3.146   1.310   7.003 -1.5249  1.1413  0.6756
 8805SOL     OW37873   1.196   2.776   6.719 -0.2543  0.1229  0.3826
 8805SOL    HW137874   1.147   2.694   6.724  0.8227 -0.6447 -1.8331
 8805SOL    HW237875   1.213   2.779   6.625 -0.4311  0.7784  0.3727
 8806SOL     OW37876   0.937   0.606   9.375 -0.1861 -0.4911  0.1348
 8806SOL    HW137877   0.910   0.589   9.284 -0.7203  0.3123  0.1410
 8806SOL    HW237878   0.865   0.577   9.431 -1.0463  1.4217  0.0036
 8807SOL     OW37879   4.304   1.638   1.847  0.2297 -0.2279 -0.2413
 8807SOL    HW137880   4.399   1.635   1.842  0.4701  0.1833  3.5500
 8807SOL    HW237881   4.280   1.690   1.771  0.3590 -1.2856 -0.9992
 8808SOL     OW37882   0.394   2.528   3.491 -0.5039 -0.3747 -0.1426
 8808SOL    HW137883   0.298   2.532   3.493 -0.5488 -0.5678 -2.3984
 8808SOL    HW237884   0.401   2.502   3.399  1.6701 -2.6792  0.6596
 8809SOL     OW37885   2.752   1.515   6.094 -0.4973  0.0495  0.4213
 8809SOL    HW137886   2.747   1.471   6.179 -1.0098 -1.3565 -0.3379
 8809SOL    HW237887   2.831   1.569   6.098  0.1141 -0.8263  0.2593
 8810SOL     OW37888   2.334   2.879   3.089 -0.7486  0.0920  0.0923
 8810SOL    HW137889   2.286   2.928   3.023  0.1034 -1.2025 -1.4913
 8810SOL    HW237890   2.348   2.800   3.037  1.7873 -0.1997  1.2120
 8811SOL     OW37891   2.972   0.813   5.307  0.2249  0.0085  0.1229
 8811SOL    HW137892   2.931   0.783   5.387  1.8690  2.0641  1.7435
 8811SOL    HW237893   3.065   0.792   5.320  0.1593 -0.7152 -0.5570
 8812SOL     OW37894   3.851   1.834   8.218 -0.4170 -0.4380  0.5293
 8812SOL    HW137895   3.798   1.766   8.176  0.2701  0.7993 -2.3298
 8812SOL    HW237896   3.888   1.775   8.284  0.0484  1.0701  1.5968
 8813SOL     OW37897   0.559   0.490   2.838 -0.1602 -0.1579 -0.4093
 8813SOL    HW137898   0.587   0.580   2.819 -0.9986  0.4344  1.1366
 8813SOL    HW237899   0.466   0.504   2.854 -0.1561  0.9598 -1.3312
 8814SOL     OW37900   2.667   1.285  12.622 -0.5207 -0.0186 -0.5155
 8814SOL    HW137901   2.621   1.240  12.693  0.2558  0.8344  0.5238
 8814SOL    HW237902   2.757   1.254  12.628 -0.3934 -0.0052 -2.4149
 8815SOL     OW37903   4.313   4.352  12.993  0.1221 -0.2610 -0.2406
 8815SOL    HW137904   4.389   4.309  12.954 -0.3282 -0.0579 -1.3566
 8815SOL    HW237905   4.349   4.430  13.034 -1.5830  1.3559 -1.8419
 8816SOL     OW37906   2.256   0.411   0.123 -0.1424 -0.3725  0.2650
 8816SOL    HW137907   2.166   0.406   0.156 -0.1383 -2.4914 -0.0961
 8816SOL    HW237908   2.242   0.440   0.033  0.5002 -0.3326  0.1808
 8817SOL     OW37909   4.245   1.717   3.072 -0.0190 -0.6126  0.6761
 8817SOL    HW137910   4.152   1.743   3.075 -0.0600 -0.5006 -1.4608
 8817SOL    HW237911   4.246   1.642   3.013 -2.7095  0.6956 -1.0217
 8818SOL     OW37912   3.624   2.879  11.744 -0.1523 -0.0650 -0.2760
 8818SOL    HW137913   3.688   2.847  11.807 -2.1878 -0.0317  1.8242
 8818SOL    HW237914   3.547   2.909  11.793  0.2551 -2.7247  2.0002
 8819SOL     OW37915   1.803   1.276   8.656  0.5465 -0.4493 -0.0346
 8819SOL    HW137916   1.836   1.362   8.630 -1.8509  0.5643  0.2820
 8819SOL    HW237917   1.807   1.286   8.751 -1.4173 -1.4859  0.1525
 8820SOL     OW37918   4.002   1.215   2.831 -0.0368  0.2340  0.1605
 8820SOL    HW137919   4.008   1.180   2.920  2.5581  0.1379 -0.0444
 8820SOL    HW237920   3.943   1.154   2.788 -0.0924 -0.0654  0.6658
 8821SOL     OW37921   2.817   3.266   8.383 -0.2205 -0.6444 -0.9462
 8821SOL    HW137922   2.886   3.285   8.447 -0.1940 -2.0533 -0.5718
 8821SOL    HW237923   2.813   3.171   8.387  3.5111 -0.7280  0.9087
 8822SOL     OW37924   2.792   3.000   5.856 -0.2970 -0.2058 -0.1628
 8822SOL    HW137925   2.799   3.069   5.923  0.4847  0.9006 -1.3747
 8822SOL    HW237926   2.827   3.032   5.773 -0.1202  0.1846  0.0594
 8823SOL     OW37927   3.556   0.674  16.270 -0.3018  0.2447 -0.3318
 8823SOL    HW137928   3.631   0.723  16.235  1.0137 -0.6596  1.1945
 8823SOL    HW237929   3.574   0.673  16.364  0.8480  2.6449 -0.5301
 8824SOL     OW37930   3.932   3.884  13.699  0.7647 -0.6860 -0.6640
 8824SOL    HW137931   3.926   3.863  13.606 -1.4636 -2.7529 -0.0596
 8824SOL    HW237932   3.875   3.815  13.734  2.0640 -1.2636  0.2995
 8825SOL     OW37933   2.683   0.294   6.275 -0.2412 -0.0236  0.1622
 8825SOL    HW137934   2.638   0.210   6.265 -1.1886  0.6922 -1.6452
 8825SOL    HW237935   2.609   0.354   6.276 -0.6389 -0.4793 -1.3746
 8826SOL     OW37936   3.467   0.610   4.640 -0.0076  0.2198  0.1396
 8826SOL    HW137937   3.543   0.554   4.622 -1.3171 -2.0752  1.7963
 8826SOL    HW237938   3.396   0.548   4.655  0.0004  0.1481 -0.1141
 8827SOL     OW37939   2.584   0.683  16.593  0.5776  0.1006  0.5755
 8827SOL    HW137940   2.575   0.699  16.500  2.3583  0.9116  0.5430
 8827SOL    HW237941   2.674   0.713  16.609  0.6874  0.2250 -0.3265
 8828SOL     OW37942   0.047   4.046   2.536  0.3467  0.2521  0.0713
 8828SOL    HW137943   0.079   4.040   2.627 -1.0027  1.4471  0.6210
 8828SOL    HW237944   0.129   4.031   2.490 -0.4414 -2.0009 -0.6316
 8829SOL     OW37945   2.579   3.882   7.026  0.1949 -0.0678 -0.2479
 8829SOL    HW137946   2.621   3.868   6.941  0.4367 -0.5177 -0.0525
 8829SOL    HW237947   2.489   3.870   6.996 -0.1501 -0.1653  0.8341
 8830SOL     OW37948   3.631   4.553  15.810 -0.0736  0.2379  0.1322
 8830SOL    HW137949   3.644   4.486  15.877  0.1537 -0.2007 -0.3520
 8830SOL    HW237950   3.650   4.502  15.732 -2.1921  1.8359 -1.4275
 8831SOL     OW37951   1.995   1.640   2.686 -0.0658 -0.1598 -0.1068
 8831SOL    HW137952   1.910   1.683   2.694  1.8290  3.0277  2.8956
 8831SOL    HW237953   2.007   1.665   2.594 -0.5464 -0.1455 -0.1636
 8832SOL     OW37954   4.475   2.381   3.741  0.1690  0.0432 -0.0714
 8832SOL    HW137955   4.421   2.434   3.681 -0.4174 -1.2838 -0.7048
 8832SOL    HW237956   4.427   2.389   3.823  0.5314  1.2249  0.0248
 8833SOL     OW37957   0.497   0.855  11.366 -0.0404 -0.2650  0.8450
 8833SOL    HW137958   0.465   0.829  11.453  1.3117 -2.9008  0.5553
 8833SOL    HW237959   0.555   0.930  11.383  1.4568 -0.7377 -2.3070
 8834SOL     OW37960   4.551   3.304   3.580  0.0050  0.1744 -0.2848
 8834SOL    HW137961   4.462   3.317   3.613 -1.0911 -0.9806 -2.8098
 8834SOL    HW237962   4.536   3.288   3.487  0.6477 -1.1612 -0.1528
 8835SOL     OW37963   3.513   4.123   6.267 -0.0534  0.3330 -0.1681
 8835SOL    HW137964   3.534   4.195   6.206  0.6003 -0.1557 -0.5193
 8835SOL    HW237965   3.448   4.069   6.222  1.1776  0.2882 -1.8990
 8836SOL     OW37966   4.675   0.670   4.498  0.0618  0.0272 -0.5697
 8836SOL    HW137967   4.625   0.750   4.518  0.9476  0.6641 -0.9293
 8836SOL    HW237968   0.025   0.700   4.443 -0.5433 -0.8457 -1.8273
 8837SOL     OW37969   1.705   2.611   7.169 -0.0163 -1.1399 -0.1233
 8837SOL    HW137970   1.634   2.670   7.143  2.3584  1.6071 -0.2672
 8837SOL    HW237971   1.651   2.544   7.212 -0.2232 -0.3210  0.8731
 8838SOL     OW37972   1.136   0.485   1.496  0.0334 -0.1287  0.2517
 8838SOL    HW137973   1.179   0.401   1.480 -0.5700 -0.1504 -1.2564
 8838SOL    HW237974   1.163   0.520   1.412  0.0263  0.5366  0.5244
 8839SOL     OW37975   3.543   4.099   8.323  0.3572  0.4057  0.0751
 8839SOL    HW137976   3.452   4.071   8.322 -0.6710  3.6198  0.6402
 8839SOL    HW237977   3.578   4.036   8.261  0.2032  1.6425 -1.2791
 8840SOL     OW37978   3.434   3.178   6.599  0.2801 -0.4339  0.0545
 8840SOL    HW137979   3.367   3.246   6.594 -1.0187 -1.6287  1.2260
 8840SOL    HW237980   3.514   3.213   6.561  1.3746 -2.0755  0.8463
 8841SOL     OW37981   0.950   1.644  12.431  0.4184 -0.6133 -0.0316
 8841SOL    HW137982   0.864   1.617  12.465 -0.0252  1.4425  0.4927
 8841SOL    HW237983   1.014   1.573  12.434  2.1154  0.8645 -1.4048
 8842SOL     OW37984   1.381   0.754   4.357  0.8966  0.3453 -0.4036
 8842SOL    HW137985   1.338   0.750   4.271  1.2677  1.5107 -0.6484
 8842SOL    HW237986   1.372   0.665   4.389 -1.1852  0.9267  0.6254
 8843SOL     OW37987   1.904   2.832   9.910 -0.2644  0.1080 -0.1391
 8843SOL    HW137988   1.890   2.771   9.983 -0.3296 -1.2432 -1.2747
 8843SOL    HW237989   1.971   2.790   9.856 -1.7144 -0.9780 -1.1246
 8844SOL     OW37990   0.204   4.594   3.911 -0.0421  0.9541 -0.2095
 8844SOL    HW137991   0.222   4.660   3.845 -0.4799  1.9864  0.7017
 8844SOL    HW237992   0.221   4.643   3.992 -2.0056  0.3983  0.5385
 8845SOL     OW37993   3.620   0.445   7.294  0.5596 -0.3174 -0.2879
 8845SOL    HW137994   3.556   0.506   7.331  0.4741  0.2789 -1.4056
 8845SOL    HW237995   3.568   0.427   7.216 -1.0067 -1.4735  1.0195
 8846SOL     OW37996   4.176   0.135  14.776  0.3969  0.0244  0.0804
 8846SOL    HW137997   4.199   0.197  14.706 -1.9839  2.5103  1.4829
 8846SOL    HW237998   4.210   0.058  14.731  1.4550 -0.5277  1.8502
 8847SOL     OW37999   3.905   2.545   9.475 -0.5531 -0.2733 -0.2485
 8847SOL    HW138000   3.929   2.454   9.459 -1.3997 -0.5344 -0.0111
 8847SOL    HW238001   3.938   2.561   9.563 -1.1728 -2.6252  0.4154
 8848SOL     OW38002   4.562   0.738   8.756 -0.1550  0.1035 -0.2612
 8848SOL    HW138003   4.550   0.708   8.666 -2.2995  0.2982 -0.0401
 8848SOL    HW238004   4.579   0.831   8.739  0.2694 -0.0884 -0.9028
 8849SOL     OW38005   2.781   1.109  13.686 -0.3273 -0.2562  0.4941
 8849SOL    HW138006   2.698   1.123  13.730  0.7273  1.7657  1.8537
 8849SOL    HW238007   2.754   1.076  13.600  1.2304 -0.9998  0.2884
 8850SOL     OW38008   2.657   2.114  10.143  0.2205 -0.2728  0.5305
 8850SOL    HW138009   2.699   2.097  10.059 -1.6489 -0.2374 -0.4098
 8850SOL    HW238010   2.591   2.045  10.132  0.2942 -0.1761 -0.5375
 8851SOL     OW38011   4.054   0.227   6.567  0.5364  0.2231  0.3988
 8851SOL    HW138012   3.979   0.280   6.541  0.2194 -1.4813 -2.1869
 8851SOL    HW238013   4.086   0.281   6.639  2.2132 -1.3652  0.8603
 8852SOL     OW38014   1.477   1.482   2.170 -0.1832  0.5179 -0.2503
 8852SOL    HW138015   1.494   1.398   2.127  0.7218 -1.0278  3.1083
 8852SOL    HW238016   1.551   1.503   2.227 -0.8173 -0.0648  0.7929
 8853SOL     OW38017   4.050   4.614   8.775 -0.6285  0.0243  0.0938
 8853SOL    HW138018   4.093   4.698   8.758  0.3541 -0.0030  2.3584
 8853SOL    HW238019   4.108   4.566   8.717  0.5934  1.9773 -0.2980
 8854SOL     OW38020   0.439   3.122  14.437 -0.1233  0.5857  0.0881
 8854SOL    HW138021   0.371   3.170  14.486 -0.3386  0.6380 -0.2644
 8854SOL    HW238022   0.473   3.187  14.376 -1.7227  0.5809 -0.8110
 8855SOL     OW38023   1.481   0.153   3.848  0.2931 -0.1597  0.1866
 8855SOL    HW138024   1.568   0.138   3.883  0.0224 -0.8649  0.5654
 8855SOL    HW238025   1.503   0.159   3.755  2.5381  0.8952  0.8017
 8856SOL     OW38026   0.248   1.594  16.586  0.0872 -0.4999  0.1197
 8856SOL    HW138027   0.154   1.586  16.568 -0.1831 -0.1509  1.3640
 8856SOL    HW238028   0.246   1.639  16.671 -1.2625 -1.3629  0.5547
 8857SOL     OW38029   0.075   0.436  14.569 -0.3061 -0.1011  0.1635
 8857SOL    HW138030   0.019   0.457  14.643  0.8040  3.6573 -0.0552
 8857SOL    HW238031   0.162   0.454  14.605 -0.5958 -1.2664  1.4470
 8858SOL     OW38032   2.055   4.275   0.827  0.2375 -0.3637 -0.1132
 8858SOL    HW138033   1.991   4.204   0.826 -0.3534  0.1110  3.3431
 8858SOL    HW238034   2.108   4.241   0.900 -0.1451 -2.2553 -0.7258
 8859SOL     OW38035   1.266   2.262   1.328  0.0628 -0.1180 -0.7141
 8859SOL    HW138036   1.239   2.206   1.255  0.9348 -0.0955 -1.0542
 8859SOL    HW238037   1.357   2.287   1.313  0.2178  1.5146  3.2032
 8860SOL     OW38038   0.485   0.272  15.945  0.1202 -0.1357  0.6609
 8860SOL    HW138039   0.486   0.222  15.863  1.1152 -0.7626  1.0631
 8860SOL    HW238040   0.443   0.211  16.006 -0.6443  2.4472  2.7176
 8861SOL     OW38041   1.930   3.187   3.485 -0.2090  0.0975  0.1459
 8861SOL    HW138042   1.873   3.136   3.428 -1.7347  1.8555  0.1023
 8861SOL    HW238043   2.012   3.140   3.472  0.5205  1.3945 -0.0192
 8862SOL     OW38044   2.012   2.185   2.849 -0.2602 -0.3728 -0.2638
 8862SOL    HW138045   1.974   2.231   2.924  0.2231 -0.8784  0.2978
 8862SOL    HW238046   1.990   2.093   2.867 -0.5956 -0.1059  0.6760
 8863SOL     OW38047   0.655   4.605   2.533 -0.3735  0.1623 -0.0203
 8863SOL    HW138048   0.619   4.683   2.491 -0.7640  0.3450  0.6587
 8863SOL    HW238049   0.732   4.591   2.478 -0.1079 -1.1137  0.6826
 8864SOL     OW38050   3.133   1.366  14.297  0.0704 -0.1438 -0.2931
 8864SOL    HW138051   3.113   1.304  14.367 -0.5069 -0.8930 -1.1026
 8864SOL    HW238052   3.138   1.309  14.220  0.4170 -0.8204  0.2315
 8865SOL     OW38053   1.301   4.650   3.793  0.4415  0.0945  0.0890
 8865SOL    HW138054   1.373   4.602   3.835  1.5840  1.3294 -0.4581
 8865SOL    HW238055   1.310   0.015   3.831  0.4169  1.4172 -2.9047
 8866SOL     OW38056   1.711   2.017   3.062  1.0709 -0.0593 -0.0214
 8866SOL    HW138057   1.651   1.951   3.028 -0.5816  1.4638 -0.0633
 8866SOL    HW238058   1.787   2.007   3.005  0.6326 -0.1960 -0.5761
 8867SOL     OW38059   0.027   3.853   9.472 -0.1775  0.4530 -0.4157
 8867SOL    HW138060   0.034   3.948   9.472 -1.5517  0.5568 -2.0862
 8867SOL    HW238061   4.673   3.837   9.415  0.1940 -0.0352 -0.7798
 8868SOL     OW38062   4.274   2.884  13.096  0.0255 -0.2121 -0.2213
 8868SOL    HW138063   4.188   2.921  13.075  0.3952 -0.3791 -1.9858
 8868SOL    HW238064   4.247   2.829  13.170 -0.4216 -0.2928 -0.4451
 8869SOL     OW38065   4.205   1.084   3.853 -0.2472  0.3445  0.1396
 8869SOL    HW138066   4.171   1.126   3.932 -1.6503 -0.6192  0.0479
 8869SOL    HW238067   4.126   1.078   3.800 -0.7976  1.8026  0.7923
 8870SOL     OW38068   3.554   4.064   0.385  0.2492 -0.4834 -0.2795
 8870SOL    HW138069   3.607   4.111   0.448 -1.0033  0.9622 -0.2997
 8870SOL    HW238070   3.495   4.134   0.356 -1.2537 -0.9296  1.6838
 8871SOL     OW38071   4.032   1.617  15.239 -0.1317  0.3317 -0.2930
 8871SOL    HW138072   3.989   1.701  15.227 -0.1384  0.2911 -0.5437
 8871SOL    HW238073   3.976   1.548  15.202  1.6440 -2.2748  1.7914
 8872SOL     OW38074   0.333   4.040   5.839  0.0819 -0.5317 -0.2295
 8872SOL    HW138075   0.242   4.057   5.816  1.2247  0.3648 -4.0784
 8872SOL    HW238076   0.357   4.130   5.862 -3.8977  0.7178 -0.9987
 8873SOL     OW38077   4.462   1.588  16.862  0.6773  0.6736  0.1523
 8873SOL    HW138078   4.408   1.611  16.786  0.4945 -0.1621  0.0368
 8873SOL    HW238079   4.393   1.593  16.928  1.3573  2.4064  0.7411
 8874SOL     OW38080   3.388   0.816   2.731 -1.0557  0.0485  0.5797
 8874SOL    HW138081   3.449   0.756   2.687 -0.0118  0.9461  0.8065
 8874SOL    HW238082   3.323   0.812   2.661 -1.2569  2.5612  0.6255
 8875SOL     OW38083   2.514   1.769   3.507 -0.0162  0.3215  0.2939
 8875SOL    HW138084   2.548   1.698   3.453 -2.1473 -0.0748 -0.5258
 8875SOL    HW238085   2.533   1.732   3.594 -2.8545 -1.7081  0.0544
 8876SOL     OW38086   2.109   0.979   7.632  0.6114 -0.0691  0.3871
 8876SOL    HW138087   2.149   0.895   7.655 -1.3692 -1.0966  0.0610
 8876SOL    HW238088   2.112   1.018   7.720 -2.1392  0.8665  0.0678
 8877SOL     OW38089   0.817   1.068   4.618  0.1122  0.1165 -0.1276
 8877SOL    HW138090   0.890   1.033   4.669  0.0670  1.8005  1.0798
 8877SOL    HW238091   0.762   0.990   4.628 -2.8151  2.1075 -0.6253
 8878SOL     OW38092   2.474   3.198   8.018 -0.4103  0.2796 -0.4966
 8878SOL    HW138093   2.553   3.251   8.005  0.3041 -0.5572  0.3733
 8878SOL    HW238094   2.404   3.259   7.994  0.7696  2.2077  0.8625
 8879SOL     OW38095   4.362   2.781  13.340 -0.4113 -0.3355 -0.8005
 8879SOL    HW138096   4.299   2.726  13.293 -1.1281  1.1896 -1.6304
 8879SOL    HW238097   4.441   2.733  13.316 -0.0212 -0.3309  0.4694
 8880SOL     OW38098   0.164   1.903   7.146 -0.6012  0.0899 -0.3854
 8880SOL    HW138099   0.114   1.984   7.155 -0.5256  0.2542 -1.3965
 8880SOL    HW238100   0.101   1.840   7.181 -1.1158  0.7768 -0.0797
 8881SOL     OW38101   3.491   3.121   1.508  0.1717 -0.2754 -0.0728
 8881SOL    HW138102   3.448   3.086   1.587  1.4178 -1.3488  0.1321
 8881SOL    HW238103   3.413   3.136   1.454  0.0630 -0.1958  0.1054
 8882SOL     OW38104   0.166   3.045  15.041  0.4118  0.2868  0.2861
 8882SOL    HW138105   0.247   3.002  15.011 -0.1293  0.0729 -0.8521
 8882SOL    HW238106   0.131   2.990  15.111 -1.3534 -0.4409 -1.1851
 8883SOL     OW38107   2.449   1.693  15.240 -0.0344  0.1135  0.3104
 8883SOL    HW138108   2.451   1.640  15.320 -1.7858  0.3674  0.5073
 8883SOL    HW238109   2.394   1.767  15.264  0.7378  1.0330 -0.7397
 8884SOL     OW38110   1.427   0.395   8.884 -0.0213  0.0762  0.2300
 8884SOL    HW138111   1.518   0.403   8.856  0.2494 -0.1414  1.0397
 8884SOL    HW238112   1.394   0.472   8.838  1.0876 -0.4544 -1.4214
 8885SOL     OW38113   0.367   0.210   7.680  0.5552  0.0035  0.3597
 8885SOL    HW138114   0.295   0.231   7.620  1.3956 -1.9461 -1.3022
 8885SOL    HW238115   0.411   0.295   7.675  2.0157 -0.7644  0.1606
 8886SOL     OW38116   0.728   2.528   4.926  1.0847 -0.1351 -0.8697
 8886SOL    HW138117   0.735   2.563   5.014 -0.4044 -0.6770 -0.5431
 8886SOL    HW238118   0.706   2.435   4.934  2.1795 -0.4004 -0.9617
 8887SOL     OW38119   0.334   1.990  10.931 -0.7760  0.3940 -0.0780
 8887SOL    HW138120   0.249   1.965  10.966 -1.3405  0.8298 -1.1398
 8887SOL    HW238121   0.363   1.907  10.891  0.3629  1.0569 -0.6136
 8888SOL     OW38122   3.419   0.216  11.842 -0.2692  0.7082 -0.6554
 8888SOL    HW138123   3.495   0.233  11.898  1.2562  0.8571 -2.7573
 8888SOL    HW238124   3.412   0.122  11.854 -0.1518  1.0000  1.6092
 8889SOL     OW38125   0.156   3.692   0.024 -0.2701 -0.1591 -0.4137
 8889SOL    HW138126   0.064   3.667   0.036  0.5795 -3.6037 -1.3457
 8889SOL    HW238127   0.200   3.613  17.686 -0.5144 -0.6071  0.4310
 8890SOL     OW38128   1.831   0.313  14.380  0.6217 -0.0612  0.3953
 8890SOL    HW138129   1.740   0.321  14.352 -0.1851  0.8879  3.2837
 8890SOL    HW238130   1.837   0.219  14.400 -0.3037 -0.0361  0.7607
 8891SOL     OW38131   0.333   0.264   2.403 -0.0973 -0.3122 -0.5854
 8891SOL    HW138132   0.411   0.252   2.348 -1.0250 -0.3351 -1.8876
 8891SOL    HW238133   0.325   0.178   2.443 -0.9569  0.5252  1.0247
 8892SOL     OW38134   3.752   2.995   7.303  0.6570  0.4982  0.3125
 8892SOL    HW138135   3.776   3.087   7.318 -0.0140  0.9498 -1.3875
 8892SOL    HW238136   3.828   2.958   7.259  0.6519  0.9799 -0.1027
 8893SOL     OW38137   1.012   2.929   4.481  0.0524 -0.1478 -0.4466
 8893SOL    HW138138   1.022   2.995   4.413  3.8302  0.6790  0.8664
 8893SOL    HW238139   1.055   2.855   4.438  1.3019 -0.4832  1.3665
 8894SOL     OW38140   3.706   3.253   0.147  0.2674  0.2847 -0.3366
 8894SOL    HW138141   3.713   3.274   0.054  0.7526 -2.7875 -0.9827
 8894SOL    HW238142   3.669   3.165   0.158  1.8046 -0.4565 -1.1026
 8895SOL     OW38143   3.959   4.168   5.500 -0.5121 -0.0328 -0.0768
 8895SOL    HW138144   3.907   4.115   5.439  0.5266  1.4396 -2.2212
 8895SOL    HW238145   3.934   4.257   5.476 -0.6574  0.0226  0.2848
 8896SOL     OW38146   2.958   1.694   2.279  0.1738  0.1971  0.3309
 8896SOL    HW138147   2.947   1.677   2.185  2.5631 -2.4962  0.5253
 8896SOL    HW238148   2.908   1.627   2.326 -0.3038  0.5062  0.2683
 8897SOL     OW38149   2.736   3.292   4.133 -0.0947  0.1557  0.5695
 8897SOL    HW138150   2.813   3.278   4.079 -0.3356 -0.8043  0.4781
 8897SOL    HW238151   2.665   3.281   4.070 -0.7086 -0.0880  1.3057
 8898SOL     OW38152   0.170   4.376   5.755  0.0580 -0.9390 -0.0739
 8898SOL    HW138153   0.081   4.400   5.781 -1.1748 -2.2089 -3.2273
 8898SOL    HW238154   0.154   4.284   5.737  0.0431 -0.7533 -1.0007
 8899SOL     OW38155   1.066   1.435   5.180  0.0305  0.4525  0.5672
 8899SOL    HW138156   1.103   1.440   5.092 -0.1001  4.1764  0.7078
 8899SOL    HW238157   0.973   1.414   5.169  0.3654 -1.1134  0.6965
 8900SOL     OW38158   1.836   0.747  14.900 -0.6088 -0.3425 -0.3933
 8900SOL    HW138159   1.901   0.795  14.951  0.6007 -0.9002 -1.3810
 8900SOL    HW238160   1.845   0.654  14.924 -0.2634 -0.1636  0.1565
 8901SOL     OW38161   2.756   4.435   5.335 -0.0915 -0.1058  0.3078
 8901SOL    HW138162   2.683   4.398   5.385  1.2077 -1.4164  1.2299
 8901SOL    HW238163   2.706   4.513   5.309  0.7462  1.2886  2.9807
 8902SOL     OW38164   4.431   0.159   2.348  0.0771  0.0378  0.2600
 8902SOL    HW138165   4.426   0.175   2.254  1.5934 -2.0602 -0.1591
 8902SOL    HW238166   4.516   0.185   2.382 -0.3396 -0.0639  1.4066
 8903SOL     OW38167   1.700   0.186   2.523  0.0820 -0.1195 -0.3412
 8903SOL    HW138168   1.670   0.160   2.610  1.4318  0.1776  0.1998
 8903SOL    HW238169   1.794   0.168   2.528  0.3310  0.8562 -1.6583
 8904SOL     OW38170   4.072   1.855  13.478  0.0503  0.0042  0.1342
 8904SOL    HW138171   4.035   1.766  13.478  0.7990 -0.3035  2.1906
 8904SOL    HW238172   4.001   1.907  13.515  0.3553  0.5818 -0.1019
 8905SOL     OW38173   0.155   2.601  14.332  0.2615 -0.1805  0.1975
 8905SOL    HW138174   0.153   2.510  14.362 -1.7117 -0.2387 -0.1032
 8905SOL    HW238175   0.103   2.594  14.252 -0.0056 -0.3632  0.3848
 8906SOL     OW38176   0.391   3.145   5.876 -0.1854  0.6628 -0.1039
 8906SOL    HW138177   0.473   3.186   5.847  0.3040 -1.0417 -1.0910
 8906SOL    HW238178   0.416   3.116   5.963 -0.8508 -2.1516 -0.8487
 8907SOL     OW38179   2.359   4.338   7.201 -0.1288  0.1993 -0.2379
 8907SOL    HW138180   2.446   4.324   7.164  0.2454 -0.3382  0.8462
 8907SOL    HW238181   2.325   4.248   7.202 -1.2044  0.6526  2.5397
 8908SOL     OW38182   1.396   3.216   2.240  0.0165 -0.3989 -0.0608
 8908SOL    HW138183   1.335   3.150   2.271 -1.7448  0.2701 -2.1060
 8908SOL    HW238184   1.456   3.176   2.177  0.3543 -0.1912  0.1286
 8909SOL     OW38185   4.140   0.569  10.982  0.4819  0.1945  0.3991
 8909SOL    HW138186   4.201   0.640  10.999  1.1490 -0.5064  0.9160
 8909SOL    HW238187   4.100   0.586  10.897  0.9466  2.9575  0.7298
 8910SOL     OW38188   4.603   2.351  14.824  0.0093 -0.3842 -0.2721
 8910SOL    HW138189   4.645   2.319  14.744 -1.6605 -0.7287 -1.0004
 8910SOL    HW238190   4.634   2.442  14.823 -1.8935  0.2680 -0.7761
 8911SOL     OW38191   3.013   2.763  16.695  0.3731 -0.4337 -0.3119
 8911SOL    HW138192   3.007   2.833  16.631  1.5594 -1.0398 -1.1043
 8911SOL    HW238193   2.924   2.730  16.704  0.7823 -0.8557  2.3412
 8912SOL     OW38194   4.114   3.712   3.427 -0.4424 -0.2431  0.5956
 8912SOL    HW138195   4.091   3.690   3.337  1.0566 -0.1175  0.1856
 8912SOL    HW238196   4.189   3.654   3.439  0.0547  0.6845  2.0095
 8913SOL     OW38197   3.084   3.540   4.611  0.5914  0.6049  0.0536
 8913SOL    HW138198   3.077   3.628   4.574  0.1895 -0.2732 -1.9762
 8913SOL    HW238199   3.180   3.529   4.612  0.5738  0.3928 -0.5567
 8914SOL     OW38200   2.967   1.837   8.238 -0.3952  1.1248 -0.5866
 8914SOL    HW138201   2.939   1.921   8.274 -0.3965  1.1361 -0.6141
 8914SOL    HW238202   3.057   1.831   8.269 -1.0987  2.1278  1.6069
 8915SOL     OW38203   4.436   2.390  15.479 -0.4854  1.1601 -0.7596
 8915SOL    HW138204   4.378   2.348  15.416  1.2720 -2.5389  0.0559
 8915SOL    HW238205   4.512   2.331  15.480 -1.2542  0.1570  2.5286
 8916SOL     OW38206   3.152   1.349  10.671  0.1434  0.1928 -0.1728
 8916SOL    HW138207   3.071   1.391  10.699 -0.8741 -0.1124 -2.6263
 8916SOL    HW238208   3.161   1.280  10.737 -1.0538  0.3858  0.1937
 8917SOL     OW38209   3.526   2.483  13.986 -0.0328 -0.2207 -0.7628
 8917SOL    HW138210   3.559   2.396  14.011 -0.1840 -0.5048 -1.5444
 8917SOL    HW238211   3.466   2.502  14.058 -2.3403 -0.9830 -2.4940
 8918SOL     OW38212   1.535   3.393   2.412 -0.0446  0.3981  0.3275
 8918SOL    HW138213   1.622   3.357   2.427 -0.1515  0.3849  0.9346
 8918SOL    HW238214   1.499   3.317   2.368 -0.8298 -0.1298  1.8957
 8919SOL     OW38215   2.057   3.924   1.858  0.5209  0.5159 -0.8149
 8919SOL    HW138216   2.066   3.998   1.797 -1.0713 -0.1450 -1.8711
 8919SOL    HW238217   1.966   3.943   1.883  0.5211 -2.0136  1.1112
 8920SOL     OW38218   0.864   0.576   4.776 -0.0791 -0.2929 -0.3694
 8920SOL    HW138219   0.818   0.520   4.838 -2.3979  0.8772 -1.0260
 8920SOL    HW238220   0.860   0.664   4.815  2.7469  0.3577 -1.5601
 8921SOL     OW38221   2.380   2.715  16.727 -0.0226  0.5931 -0.3560
 8921SOL    HW138222   2.343   2.663  16.798 -2.3187  0.9281 -1.3053
 8921SOL    HW238223   2.471   2.688  16.734 -0.4341 -0.7832 -0.4064
 8922SOL     OW38224   2.281   0.031   3.341  0.1268  0.8536 -0.4885
 8922SOL    HW138225   2.358   4.699   3.360 -0.0925  0.5106 -0.5969
 8922SOL    HW238226   2.284   0.024   3.245  0.9385 -2.2590 -0.2471
 8923SOL     OW38227   3.160   1.885   9.376 -0.3066  0.6912  0.4882
 8923SOL    HW138228   3.152   1.897   9.281 -2.2957 -0.6426  0.5048
 8923SOL    HW238229   3.135   1.972   9.405 -0.5013  1.4692 -1.9585
 8924SOL     OW38230   4.389   2.448   4.273 -0.4342 -0.5181  1.1339
 8924SOL    HW138231   4.374   2.527   4.221 -1.5987  0.0991  2.4237
 8924SOL    HW238232   4.457   2.488   4.328 -0.5497  0.3855  0.6194
 8925SOL     OW38233   0.717   1.763   2.939 -0.1127  0.1960 -0.0744
 8925SOL    HW138234   0.659   1.750   2.864  0.0180  2.3275 -0.5544
 8925SOL    HW238235   0.752   1.850   2.922  2.6149 -0.3271  2.9255
 8926SOL     OW38236   4.523   3.644  10.583  0.8140  0.3527  0.3902
 8926SOL    HW138237   4.502   3.602  10.666  0.5238 -0.3087 -0.0182
 8926SOL    HW238238   4.548   3.565  10.536 -1.6345 -0.5072  0.5785
 8927SOL     OW38239   0.008   2.881   5.897  0.5994  0.1311  0.5573
 8927SOL    HW138240   4.666   2.883   5.826  1.7915  1.4408 -0.5007
 8927SOL    HW238241   0.047   2.968   5.883  3.5601 -0.9083  2.2625
 8928SOL     OW38242   0.580   2.068   9.451 -0.1023  0.2516  0.4348
 8928SOL    HW138243   0.591   2.103   9.362 -0.0652 -1.2744 -0.1602
 8928SOL    HW238244   0.622   1.982   9.439 -0.5641 -0.0932  1.2926
 8929SOL     OW38245   2.958   2.838  14.397  0.0271  0.3680 -0.4375
 8929SOL    HW138246   3.018   2.770  14.367  0.4125 -1.0067  3.4118
 8929SOL    HW238247   2.920   2.868  14.314 -0.0719  0.3773 -0.3894
 8930SOL     OW38248   2.476   0.438   6.254  0.1847  0.2751 -0.2235
 8930SOL    HW138249   2.386   0.407   6.256 -0.5413  2.4669  0.2596
 8930SOL    HW238250   2.478   0.470   6.163  5.7889 -0.0859 -0.2362
 8931SOL     OW38251   0.014   3.880   4.691  0.0457  0.3910 -0.3117
 8931SOL    HW138252   0.049   3.803   4.736  0.6044 -0.2480 -1.8335
 8931SOL    HW238253   4.695   3.836   4.616 -2.2477  0.9724  0.6283
 8932SOL     OW38254   3.129   1.175   4.398  0.0333  0.0203  0.4739
 8932SOL    HW138255   3.071   1.239   4.439 -1.8591 -1.4015  0.0796
 8932SOL    HW238256   3.130   1.100   4.458 -2.1797 -0.5077 -0.1474
 8933SOL     OW38257   2.570   3.996   3.168  0.2569 -0.0479 -0.3777
 8933SOL    HW138258   2.517   4.046   3.105  0.0404 -1.2668 -1.1778
 8933SOL    HW238259   2.582   3.915   3.119 -0.9665  0.9953 -2.4129
 8934SOL     OW38260   3.678   1.859  15.122 -0.4446  0.4649  0.0268
 8934SOL    HW138261   3.735   1.830  15.051 -2.1654  3.0794 -2.4160
 8934SOL    HW238262   3.639   1.781  15.161 -3.2950  1.7331 -0.3063
 8935SOL     OW38263   4.144   2.888   0.551 -0.1839 -0.3589 -0.1452
 8935SOL    HW138264   4.088   2.963   0.572  1.0907  1.0041 -1.6324
 8935SOL    HW238265   4.225   2.912   0.595 -0.1292  0.0541 -0.4741
 8936SOL     OW38266   3.032   1.203   2.466 -0.1171 -0.3650  0.5721
 8936SOL    HW138267   3.083   1.278   2.435 -2.5847  1.1312  0.1166
 8936SOL    HW238268   3.044   1.151   2.386  0.1604  1.5116 -0.5967
 8937SOL     OW38269   0.835   2.449   6.942 -0.1238  0.2712  0.1696
 8937SOL    HW138270   0.770   2.439   6.873  0.1815 -0.1384 -0.0616
 8937SOL    HW238271   0.838   2.361   6.981 -1.5766  0.5314  0.8514
 8938SOL     OW38272   1.324   4.183  15.693  0.0883  0.1411  0.1187
 8938SOL    HW138273   1.332   4.154  15.603 -0.9031 -1.3548  0.5036
 8938SOL    HW238274   1.228   4.184  15.702 -0.1918  1.5957 -3.3869
 8939SOL     OW38275   0.673   0.556  12.401  0.0890 -0.4368 -0.0087
 8939SOL    HW138276   0.696   0.553  12.494 -1.7133 -0.6480  0.4323
 8939SOL    HW238277   0.589   0.514  12.415 -1.7061  2.2044 -2.6548
 8940SOL     OW38278   1.112   3.327   9.668  0.2580  0.0647  1.0374
 8940SOL    HW138279   1.171   3.387   9.713  0.2336  0.8575 -0.0024
 8940SOL    HW238280   1.067   3.393   9.616  1.1153  0.4596  0.8101
 8941SOL     OW38281   2.718   0.636   5.448 -0.6660 -0.2108  0.2507
 8941SOL    HW138282   2.717   0.699   5.376  1.3618 -0.6313 -0.1386
 8941SOL    HW238283   2.625   0.613   5.435 -1.0208  2.4574 -2.0608
 8942SOL     OW38284   1.196   0.696   9.279 -0.0128  0.6030 -0.0280
 8942SOL    HW138285   1.171   0.644   9.202  0.1236  1.3304 -0.5687
 8942SOL    HW238286   1.125   0.667   9.337 -0.2137  0.0872 -0.5301
 8943SOL     OW38287   4.561   0.105   0.345 -0.0265  0.7409  0.1889
 8943SOL    HW138288   4.568   0.014   0.370  0.0065  0.7549  0.2300
 8943SOL    HW238289   4.520   0.084   0.261  0.1767 -1.0391  0.5387
 8944SOL     OW38290   1.398   2.521   8.264  0.0267  0.3277 -0.5476
 8944SOL    HW138291   1.313   2.565   8.264  0.4322  1.1300 -0.3222
 8944SOL    HW238292   1.458   2.568   8.322  0.2046  1.9221 -1.9833
 8945SOL     OW38293   0.632   2.473   5.478  0.0278  0.2668 -0.0262
 8945SOL    HW138294   0.668   2.531   5.545 -0.1682 -0.4250  0.6859
 8945SOL    HW238295   0.596   2.539   5.419  1.3267 -0.6956 -1.8749
 8946SOL     OW38296   0.568   1.382  16.382 -0.6034  0.1299  0.1465
 8946SOL    HW138297   0.564   1.473  16.413  0.3325  0.0183  0.6188
 8946SOL    HW238298   0.480   1.351  16.405 -0.5109  0.4801  0.9985
 8947SOL     OW38299   3.436   2.932  11.948  0.0294 -0.5081 -0.2380
 8947SOL    HW138300   3.356   2.905  11.901  0.4172 -1.5602 -0.2959
 8947SOL    HW238301   3.462   2.850  11.989 -0.4077  0.8514  2.7741
 8948SOL     OW38302   2.347   3.118   0.280  0.2097 -0.0496  0.2980
 8948SOL    HW138303   2.272   3.176   0.267  1.2563  1.0712 -0.7087
 8948SOL    HW238304   2.328   3.025   0.273  1.5693 -0.3211  0.2280
 8949SOL     OW38305   0.529   4.653  12.183  0.2535 -0.2503  0.2821
 8949SOL    HW138306   0.480   4.690  12.109 -1.0632 -1.4072  0.5756
 8949SOL    HW238307   0.509   0.007  12.238  0.9748 -0.7591  1.2535
 8950SOL     OW38308   2.465   3.937   5.325 -0.0750  0.6862  0.2740
 8950SOL    HW138309   2.487   3.890   5.405 -1.0834 -0.8147 -0.3264
 8950SOL    HW238310   2.541   3.908   5.274 -0.4329 -0.7105  0.5328
 8951SOL     OW38311   1.146   2.841  15.156  0.7693 -0.5130  0.2223
 8951SOL    HW138312   1.171   2.927  15.189 -0.9536 -0.1350  0.5485
 8951SOL    HW238313   1.143   2.869  15.064 -0.0896 -1.3966 -0.0170
 8952SOL     OW38314   4.500   0.232   2.826 -0.4766 -0.7929 -0.0581
 8952SOL    HW138315   4.562   0.207   2.757  0.8933 -1.1930  1.3152
 8952SOL    HW238316   4.462   0.148   2.853  0.8335 -1.0739  0.8872
 8953SOL     OW38317   0.704   3.098   1.669 -0.6307 -0.4863  0.0217
 8953SOL    HW138318   0.747   3.177   1.701 -2.2980  0.2188  0.5042
 8953SOL    HW238319   0.776   3.036   1.656  0.4059  0.3407  1.8434
 8954SOL     OW38320   3.977   3.559   7.383  0.1558 -0.2709 -0.2994
 8954SOL    HW138321   4.036   3.618   7.429  0.4075 -1.1879  0.5597
 8954SOL    HW238322   4.031   3.545   7.305  1.8540  1.0316  0.6554
 8955SOL     OW38323   1.584   4.050   6.239 -0.4054 -0.3597  0.0193
 8955SOL    HW138324   1.644   4.080   6.307  1.3107 -2.3525 -0.6124
 8955SOL    HW238325   1.531   3.979   6.275  0.2412 -2.3911 -3.0545
 8956SOL     OW38326   0.932   2.878   5.707 -0.0603  0.0008  0.1319
 8956SOL    HW138327   0.897   2.837   5.786 -0.6835  0.8991  0.3229
 8956SOL    HW238328   1.018   2.836   5.697  0.2291  0.4718  0.6125
 8957SOL     OW38329   2.163   0.176   8.317  0.1516  0.0858  0.2626
 8957SOL    HW138330   2.209   0.181   8.401  0.0428  1.5030  0.2354
 8957SOL    HW238331   2.077   0.137   8.335 -0.4122  0.1350 -2.3382
 8958SOL     OW38332   4.496   0.056   6.709  0.5496 -0.0998  0.3031
 8958SOL    HW138333   4.569   0.117   6.696  0.1717  0.8473  2.4855
 8958SOL    HW238334   4.552   4.703   6.729  0.2487 -0.0888  1.1870
 8959SOL     OW38335   2.185   2.987   7.890  0.2208 -0.2192 -0.3551
 8959SOL    HW138336   2.245   2.928   7.936 -1.6393 -1.1259  0.9453
 8959SOL    HW238337   2.221   3.075   7.895 -1.9970  0.7479 -1.0063
 8960SOL     OW38338   4.519   4.251   7.160 -0.3426 -0.1616 -0.3702
 8960SOL    HW138339   4.448   4.270   7.221  0.4333  0.3732  0.3643
 8960SOL    HW238340   4.474   4.234   7.078 -1.0686 -1.8721  0.3872
 8961SOL     OW38341   2.932   4.300   8.790 -0.0641  0.8339 -0.4744
 8961SOL    HW138342   2.968   4.211   8.787  0.8839  1.2185 -0.4650
 8961SOL    HW238343   2.842   4.283   8.761 -0.4483  2.1837 -0.0782
 8962SOL     OW38344   3.263   3.056   7.843  0.2248  0.0414  0.7101
 8962SOL    HW138345   3.324   2.990   7.810  0.0657  0.2333  0.0278
 8962SOL    HW238346   3.248   3.120   7.774  1.5475  1.9258  2.1442
 8963SOL     OW38347   2.614   0.822   4.652 -0.1098 -0.5236  0.1204
 8963SOL    HW138348   2.690   0.770   4.627  0.7881 -0.2862  2.4023
 8963SOL    HW238349   2.658   0.905   4.666 -2.1629  0.5423  0.3077
 8964SOL     OW38350   1.949   0.911   2.666  0.0775 -0.4237  0.2699
 8964SOL    HW138351   1.963   0.817   2.657 -0.8532 -0.4873 -0.4860
 8964SOL    HW238352   2.017   0.954   2.614 -0.4362  0.3317  0.2233
 8965SOL     OW38353   0.317   1.362  12.803 -0.1364  0.4166  0.1918
 8965SOL    HW138354   0.323   1.380  12.897  0.3110  0.9224  0.0666
 8965SOL    HW238355   0.237   1.311  12.800  0.0270  0.2254 -0.7124
 8966SOL     OW38356   2.830   1.911   0.712 -0.3217  0.3231  0.3233
 8966SOL    HW138357   2.917   1.878   0.688 -0.3215 -1.5417  2.9144
 8966SOL    HW238358   2.798   1.922   0.623  0.1209 -1.2130 -0.0212
 8967SOL     OW38359   2.281   1.473   5.673 -0.2232 -0.3432 -0.2012
 8967SOL    HW138360   2.274   1.567   5.691  0.0944 -0.1568 -1.0739
 8967SOL    HW238361   2.367   1.489   5.635  0.1411 -0.1603  0.6984
 8968SOL     OW38362   3.502   4.455   3.482  0.1837  0.7142 -0.1976
 8968SOL    HW138363   3.574   4.407   3.440 -2.3229 -1.1457 -2.3940
 8968SOL    HW238364   3.508   4.540   3.440 -0.5583  0.8934  0.0504
 8969SOL     OW38365   2.559   3.699   0.897 -0.0278  0.7747 -0.6364
 8969SOL    HW138366   2.596   3.670   0.813  1.1187  2.0667 -0.5719
 8969SOL    HW238367   2.635   3.671   0.948  0.5046  2.5749 -0.4355
 8970SOL     OW38368   1.655   3.702   2.313 -0.5274  0.2892  0.0308
 8970SOL    HW138369   1.657   3.667   2.224 -0.1887  3.0234 -1.0527
 8970SOL    HW238370   1.725   3.664   2.365  0.0275  0.1174 -0.8590
 8971SOL     OW38371   2.918   3.355   3.909 -0.1258  0.3985  0.0136
 8971SOL    HW138372   2.977   3.382   3.980  0.9698  2.3336 -1.6271
 8971SOL    HW238373   2.979   3.362   3.835  1.8170 -2.0370  1.3817
 8972SOL     OW38374   4.226   0.612   2.786  0.3498  0.5954  0.3598
 8972SOL    HW138375   4.278   0.689   2.809  0.8072  0.7706 -1.2786
 8972SOL    HW238376   4.262   0.586   2.702 -0.7320 -0.5198  0.2306
 8973SOL     OW38377   1.082   0.410  10.692  0.0413 -0.4103  0.4724
 8973SOL    HW138378   1.171   0.388  10.719  0.5811 -0.6992 -1.5514
 8973SOL    HW238379   1.085   0.502  10.669  0.7375 -0.9000 -1.4034
 8974SOL     OW38380   2.330   3.889  15.674 -0.7457  0.6300  0.4767
 8974SOL    HW138381   2.280   3.943  15.613  1.4798 -0.0658 -1.9923
 8974SOL    HW238382   2.409   3.941  15.660 -0.1402 -0.7943 -1.5095
 8975SOL     OW38383   2.499   0.138   1.847 -0.0374 -0.1154 -0.3133
 8975SOL    HW138384   2.456   0.219   1.818 -0.0232  0.6245  1.7233
 8975SOL    HW238385   2.427   0.080   1.873 -0.2057  0.0530 -0.4021
 8976SOL     OW38386   4.297   3.878   2.871  0.1507  0.4960 -0.0319
 8976SOL    HW138387   4.291   3.971   2.849  1.0301  0.5122 -0.2233
 8976SOL    HW238388   4.369   3.846   2.816  0.6674  1.8138 -0.1157
 8977SOL     OW38389   1.369   3.543   8.158 -0.1187 -0.1397 -0.5916
 8977SOL    HW138390   1.458   3.570   8.134 -0.3792  0.6325 -0.6732
 8977SOL    HW238391   1.352   3.485   8.083  0.4609  0.2577 -1.0313
 8978SOL     OW38392   4.614   2.971  16.084  0.3410 -0.4297  0.2876
 8978SOL    HW138393   4.555   2.933  16.019 -2.0737  1.9118  1.1314
 8978SOL    HW238394   4.608   2.907  16.155 -3.2992 -0.7351 -0.3226
 8979SOL     OW38395   2.013   0.504  12.065 -0.5238 -0.8873 -0.3957
 8979SOL    HW138396   2.010   0.511  11.970 -0.9208  0.1854 -0.3085
 8979SOL    HW238397   2.102   0.470  12.070 -0.5469 -0.9204 -0.2157
 8980SOL     OW38398   1.685   3.551  12.891 -0.3683  0.2279 -0.7221
 8980SOL    HW138399   1.600   3.576  12.854 -0.9654  0.2853  0.7103
 8980SOL    HW238400   1.740   3.560  12.813 -0.7136  1.6176 -0.8170
 8981SOL     OW38401   3.001   4.338   4.361  0.6105 -0.1488 -0.4384
 8981SOL    HW138402   3.048   4.276   4.417 -2.0238 -0.2350  1.6447
 8981SOL    HW238403   3.054   4.324   4.282 -0.5952  1.0643 -1.4637
 8982SOL     OW38404   0.235   1.191   2.730  0.4068 -0.1370  0.8897
 8982SOL    HW138405   0.159   1.178   2.672  0.3970 -1.4772  1.1915
 8982SOL    HW238406   0.295   1.230   2.668  1.1503 -1.7120  0.6089
 8983SOL     OW38407   2.621   3.040   8.219 -0.0221  0.2045  0.7029
 8983SOL    HW138408   2.553   3.043   8.152  1.0218  0.0940 -0.3578
 8983SOL    HW238409   2.699   3.042   8.164  0.2964  0.1492  1.1597
 8984SOL     OW38410   0.148   2.897  13.726 -0.0302  0.2676 -0.0578
 8984SOL    HW138411   0.056   2.871  13.732  0.5041 -1.4263  0.9247
 8984SOL    HW238412   0.188   2.859  13.804  1.5182  0.6639 -0.6617
 8985SOL     OW38413   1.259   1.817   6.183 -0.3840  0.2679 -0.0635
 8985SOL    HW138414   1.193   1.773   6.237 -0.9557 -1.3341 -2.0917
 8985SOL    HW238415   1.309   1.742   6.150  2.1431  1.2760  1.4462
 8986SOL     OW38416   4.026   4.101   2.397  0.1934  0.3320 -0.2147
 8986SOL    HW138417   3.980   4.183   2.411  0.4930  0.2041  1.5041
 8986SOL    HW238418   4.118   4.128   2.393  0.2690  0.3089  1.4462
 8987SOL     OW38419   1.884   3.793   2.565  0.2664  0.3504  0.8793
 8987SOL    HW138420   1.801   3.805   2.612 -0.2876 -1.7916  0.4295
 8987SOL    HW238421   1.882   3.700   2.546 -0.6940  0.5921 -0.1472
 8988SOL     OW38422   4.249   1.079   6.292  0.7923 -0.1827  0.5632
 8988SOL    HW138423   4.266   1.088   6.385 -0.3932  2.1021  0.5531
 8988SOL    HW238424   4.323   1.023   6.268  1.0699  0.7636 -0.7905
 8989SOL     OW38425   2.883   2.997   3.110 -0.3129  0.1329  0.4398
 8989SOL    HW138426   2.944   2.924   3.122 -1.0698  0.1686  4.4796
 8989SOL    HW238427   2.798   2.968   3.077 -1.0651  0.4692  2.0795
 8990SOL     OW38428   3.842   3.228   8.180  0.3261  0.1468 -0.8733
 8990SOL    HW138429   3.903   3.183   8.238 -1.2020 -0.0014  0.6222
 8990SOL    HW238430   3.809   3.292   8.243  0.8121  0.4524 -0.9307
 8991SOL     OW38431   0.034   2.218   2.414 -0.1540  0.7962  0.6370
 8991SOL    HW138432   0.116   2.181   2.448  0.3074  0.9566 -0.2713
 8991SOL    HW238433   0.015   2.298   2.462 -0.1675  1.2405 -0.0931
 8992SOL     OW38434   3.937   0.503   1.313 -0.5781  1.2809  0.3706
 8992SOL    HW138435   3.857   0.545   1.281 -1.8438 -0.4298  1.3223
 8992SOL    HW238436   3.917   0.414   1.287  1.0273  1.2183 -0.6788
 8993SOL     OW38437   3.683   3.830   3.535 -0.8417  0.5659 -0.1491
 8993SOL    HW138438   3.592   3.830   3.507 -1.6892  1.6496  2.5832
 8993SOL    HW238439   3.685   3.774   3.613  0.0866  0.4044 -0.2804
 8994SOL     OW38440   1.101   0.034   2.903 -0.7493  0.6160  0.0657
 8994SOL    HW138441   1.060   0.078   2.978  1.9526  1.8619  0.8164
 8994SOL    HW238442   1.026   0.013   2.847  0.5639  0.9306 -1.7861
 8995SOL     OW38443   3.830   0.046   7.476 -0.2552 -0.6684  0.2116
 8995SOL    HW138444   3.833   0.142   7.468 -1.6347 -0.8839 -2.8418
 8995SOL    HW238445   3.902   0.016   7.420 -1.0859 -2.4097  0.0866
 8996SOL     OW38446   3.290   0.186   7.102  0.1485  0.1536 -0.1754
 8996SOL    HW138447   3.374   0.160   7.063 -1.0694 -1.0561 -2.0035
 8996SOL    HW238448   3.255   0.261   7.055 -1.1993 -0.2354  0.1867
 8997SOL     OW38449   1.508   2.570   2.195  0.2651 -0.4771  0.0267
 8997SOL    HW138450   1.514   2.530   2.282 -0.1508 -0.5018  0.0460
 8997SOL    HW238451   1.428   2.519   2.180 -0.3156  0.4470 -0.0605
 8998SOL     OW38452   3.932   2.683  11.676 -0.6890 -0.6905 -0.6210
 8998SOL    HW138453   3.980   2.735  11.612  0.1073  0.4096  0.8872
 8998SOL    HW238454   3.942   2.730  11.758 -1.5947  2.0597 -2.1055
 8999SOL     OW38455   1.391   0.495   6.514  0.1379 -0.1579  0.7512
 8999SOL    HW138456   1.421   0.494   6.605  2.2865  2.7225  0.0842
 8999SOL    HW238457   1.297   0.497   6.531  0.3138  1.9377  1.5196
 9000SOL     OW38458   2.099   2.740   6.529 -0.1353  0.5484  0.1148
 9000SOL    HW138459   2.139   2.695   6.604  0.7695 -0.1540 -0.7883
 9000SOL    HW238460   2.033   2.679   6.495  0.7103 -1.9283  2.8204
 9001SOL     OW38461   3.224   3.511   6.288  0.4672 -0.0065 -0.0633
 9001SOL    HW138462   3.146   3.548   6.331  0.2349 -0.7468  0.1593
 9001SOL    HW238463   3.260   3.465   6.364 -2.0788  0.5647  1.4910
 9002SOL     OW38464   3.454   2.984   8.234  0.1592  0.1335 -0.2337
 9002SOL    HW138465   3.516   2.917   8.263 -2.1770 -2.0557 -0.2703
 9002SOL    HW238466   3.481   2.981   8.142  0.6432 -0.9190 -0.0557
 9003SOL     OW38467   3.278   0.953   2.269  0.5224  0.1179 -0.5038
 9003SOL    HW138468   3.325   0.901   2.204  0.4667 -1.1432  0.4666
 9003SOL    HW238469   3.351   1.008   2.297  1.7225 -1.5960 -0.2434
 9004SOL     OW38470   3.493   0.095   6.940  0.1050  0.3676 -0.2421
 9004SOL    HW138471   3.586   0.102   6.922  0.7828 -3.1493  1.9939
 9004SOL    HW238472   3.463   0.053   6.859  1.5634 -2.6200  0.7606
 9005SOL     OW38473   4.617   0.015   7.044  0.1673  0.2019 -0.7199
 9005SOL    HW138474   4.650   4.650   7.064 -2.5767 -1.1388 -2.0012
 9005SOL    HW238475   4.688   0.052   6.993  1.0305 -0.6156 -0.1143
 9006SOL     OW38476   2.618   2.187   1.427  0.6671  0.3743 -0.6966
 9006SOL    HW138477   2.680   2.166   1.496 -1.2815  0.9175  1.1959
 9006SOL    HW238478   2.634   2.108   1.375 -0.9864 -0.0963 -0.4831
 9007SOL     OW38479   2.389   1.258   5.843 -0.3549  0.4161  0.5200
 9007SOL    HW138480   2.388   1.345   5.883  1.1612  0.6479  0.0629
 9007SOL    HW238481   2.482   1.251   5.820 -0.6858 -1.5254 -0.1936
 9008SOL     OW38482   0.385   3.453  13.045 -0.1581  0.3165 -0.6523
 9008SOL    HW138483   0.373   3.482  12.955  0.4400  0.1321 -0.7876
 9008SOL    HW238484   0.310   3.497  13.086 -1.0683 -1.0948 -0.8183
 9009SOL     OW38485   3.022   1.405   4.826 -0.0637  0.3488 -0.9818
 9009SOL    HW138486   3.032   1.358   4.743  0.8247 -1.0185 -0.1030
 9009SOL    HW238487   2.928   1.398   4.845  0.5736 -0.2979  1.8854
 9010SOL     OW38488   2.568   3.531   2.664  0.4979 -0.5639 -0.6626
 9010SOL    HW138489   2.564   3.621   2.698 -1.8895 -0.9582  0.1188
 9010SOL    HW238490   2.482   3.499   2.690  1.2100 -0.2039  2.2512
 9011SOL     OW38491   0.574   4.199  16.428 -0.0575 -0.2600 -0.5992
 9011SOL    HW138492   0.600   4.122  16.377 -2.8052 -1.5206 -0.1126
 9011SOL    HW238493   0.485   4.164  16.427  0.3479 -1.3718  1.4274
 9012SOL     OW38494   0.312   1.209   9.149 -0.5914  0.8088  0.3878
 9012SOL    HW138495   0.256   1.284   9.166 -0.3090  0.4798  2.8069
 9012SOL    HW238496   0.243   1.144   9.134  1.0002 -0.9749  0.7306
 9013SOL     OW38497   3.849   0.406   3.937 -0.0903 -0.0825  0.5459
 9013SOL    HW138498   3.804   0.490   3.924  0.8081  0.1938 -0.7937
 9013SOL    HW238499   3.862   0.398   4.032  0.1805 -0.7423  0.4492
 9014SOL     OW38500   4.013   0.197   3.482 -0.1625  0.2906  0.3683
 9014SOL    HW138501   3.927   0.155   3.490  0.4788 -0.9509  0.7888
 9014SOL    HW238502   4.032   0.215   3.574 -2.9603  1.9901  0.6123
 9015SOL     OW38503   1.912   2.141  13.830  0.0220  0.3757  0.1532
 9015SOL    HW138504   1.856   2.186  13.894 -1.1976  0.0049 -0.6458
 9015SOL    HW238505   1.959   2.213  13.788  0.5945 -0.4391 -0.5740
 9016SOL     OW38506   3.032   0.313   3.847 -0.2973 -0.3694 -0.4579
 9016SOL    HW138507   2.959   0.369   3.874  0.3953  0.1195  0.4120
 9016SOL    HW238508   3.009   0.292   3.757  0.3422 -2.4161 -0.1291
 9017SOL     OW38509   1.033   3.601   9.616 -0.3180  0.2077 -0.1646
 9017SOL    HW138510   1.059   3.598   9.524  0.3354  1.3058 -0.0261
 9017SOL    HW238511   0.986   3.684   9.610 -1.3788 -0.4317 -0.5968
 9018SOL     OW38512   0.280   0.127   2.781 -0.3636 -0.2944  0.1341
 9018SOL    HW138513   0.251   0.218   2.776  1.1990  0.1593 -0.5730
 9018SOL    HW238514   0.373   0.132   2.803 -0.1484 -0.8401 -0.6697
 9019SOL     OW38515   2.294   3.622  14.294  0.1041  0.0857  0.1727
 9019SOL    HW138516   2.278   3.604  14.202  1.2923  0.8481 -0.1833
 9019SOL    HW238517   2.217   3.671  14.323  0.4784  1.0376 -0.4255
 9020SOL     OW38518   1.285   1.857  11.973  1.0122  0.7888  0.0602
 9020SOL    HW138519   1.239   1.892  11.897  1.2583  1.0449  0.0268
 9020SOL    HW238520   1.372   1.852  11.934  1.1626  0.2580  0.4720
 9021SOL     OW38521   1.558   2.196   7.423 -0.2526  0.9468  0.3772
 9021SOL    HW138522   1.472   2.156   7.410  0.4262  0.4364 -2.4696
 9021SOL    HW238523   1.565   2.171   7.515  1.1185  1.5385  0.4378
 9022SOL     OW38524   2.845   4.436  10.096 -0.3899 -0.0143 -0.3286
 9022SOL    HW138525   2.859   4.524  10.129 -0.2133  0.3238 -1.3106
 9022SOL    HW238526   2.763   4.456  10.051 -1.6255  0.0934  1.9462
 9023SOL     OW38527   2.057   0.122   4.316  0.2389  0.2653  0.4275
 9023SOL    HW138528   2.070   0.120   4.221  0.5455  1.2600  0.4473
 9023SOL    HW238529   2.139   0.149   4.358  0.6106  1.5986 -1.1486
 9024SOL     OW38530   1.539   4.704   1.901  0.0295  0.0775 -0.2784
 9024SOL    HW138531   1.547   4.698   1.806 -0.2648 -0.7730 -0.2566
 9024SOL    HW238532   1.626   4.680   1.931 -0.6364 -0.7699  1.0113
 9025SOL     OW38533   3.416   1.743  11.201  0.1042  0.8296  0.1237
 9025SOL    HW138534   3.477   1.676  11.170 -0.4344  0.3772  0.0660
 9025SOL    HW238535   3.371   1.700  11.273  1.0535  0.6148  0.5957
 9026SOL     OW38536   4.218   4.184   5.444 -0.1087 -0.4902  0.1009
 9026SOL    HW138537   4.215   4.186   5.348 -0.9904 -0.4950  0.1295
 9026SOL    HW238538   4.125   4.184   5.465 -0.0395 -1.3697  0.4100
 9027SOL     OW38539   0.182   2.852   6.616 -0.0051 -0.3607  0.3428
 9027SOL    HW138540   0.180   2.915   6.544 -0.6986 -1.3797 -0.5303
 9027SOL    HW238541   0.256   2.795   6.597  1.1192  0.6608  1.7232
 9028SOL     OW38542   1.466   2.087   5.169  0.0496 -0.1435 -0.8009
 9028SOL    HW138543   1.435   2.157   5.226  1.3056  0.7848 -1.2772
 9028SOL    HW238544   1.430   2.114   5.084  0.8972 -0.7503 -1.3517
 9029SOL     OW38545   3.341   3.557  12.712  0.3051  0.3991 -0.3966
 9029SOL    HW138546   3.391   3.481  12.743 -0.2655 -0.3738 -1.3835
 9029SOL    HW238547   3.408   3.600  12.658  1.4355 -0.6768  0.1320
 9030SOL     OW38548   4.598   2.144   8.479  0.4445 -0.2633 -0.0173
 9030SOL    HW138549   4.564   2.056   8.463 -1.2649  0.5402 -0.8718
 9030SOL    HW238550   4.650   2.153   8.399 -0.5938 -0.2530 -0.6888
 9031SOL     OW38551   0.033   0.764   3.652  0.5709 -0.4458  0.7680
 9031SOL    HW138552   0.116   0.726   3.679  0.2244 -2.1944 -0.6009
 9031SOL    HW238553   0.026   0.718   3.568 -1.6132 -2.3366  1.9774
 9032SOL     OW38554   0.899   3.632   3.479 -0.3722  0.2667 -0.0145
 9032SOL    HW138555   0.860   3.621   3.566 -0.2842 -2.0347 -0.2693
 9032SOL    HW238556   0.989   3.659   3.496 -0.9847  1.2559  1.6516
 9033SOL     OW38557   0.145   3.098  10.104 -0.3846 -0.1099 -0.1429
 9033SOL    HW138558   0.118   3.076  10.015  1.0910 -0.8722 -0.4000
 9033SOL    HW238559   0.129   3.193  10.108 -2.5790 -0.4814  0.0945
 9034SOL     OW38560   3.466   4.393   0.148 -0.3115 -0.6715 -0.2543
 9034SOL    HW138561   3.422   4.320   0.105  1.9769 -0.8056 -2.3032
 9034SOL    HW238562   3.410   4.395   0.226  0.7326 -2.9903  0.5194
 9035SOL     OW38563   1.499   2.944   3.209  0.2087  0.1594  0.2323
 9035SOL    HW138564   1.502   2.852   3.236 -1.3740  0.4588  1.4168
 9035SOL    HW238565   1.407   2.968   3.196 -0.0019 -0.0273  1.3668
 9036SOL     OW38566   2.191   2.163   8.362 -0.1450  0.6203 -0.0366
 9036SOL    HW138567   2.196   2.102   8.289  2.1950  2.5000 -1.4419
 9036SOL    HW238568   2.106   2.204   8.350 -0.4082  0.8759  2.6988
 9037SOL     OW38569   2.847   2.933   4.568 -0.2241  0.1352 -0.2768
 9037SOL    HW138570   2.823   2.921   4.477  0.1614 -0.1532 -0.3393
 9037SOL    HW238571   2.824   2.849   4.607 -1.1424 -0.3990 -1.9936
 9038SOL     OW38572   0.664   3.226   5.723  0.4363 -0.2574  0.7917
 9038SOL    HW138573   0.756   3.211   5.742  0.8274  0.2951 -0.6486
 9038SOL    HW238574   0.654   3.161   5.654  1.3096  0.4764 -0.0242
 9039SOL     OW38575   0.942   4.664   2.448  0.6170  0.0399 -0.4163
 9039SOL    HW138576   0.934   4.677   2.542  0.5317  2.2274 -0.7240
 9039SOL    HW238577   0.952   0.031   2.414 -2.8218  0.7214  0.3295
 9040SOL     OW38578   3.642   3.636  15.318 -0.4660 -0.6659 -0.3875
 9040SOL    HW138579   3.720   3.682  15.347 -2.1986  2.3395 -0.5701
 9040SOL    HW238580   3.571   3.689  15.354  0.4448  1.6754 -2.1022
 9041SOL     OW38581   0.994   0.204   3.099  0.0783  0.3612 -0.0682
 9041SOL    HW138582   1.071   0.261   3.103 -0.1809  0.5564  2.0311
 9041SOL    HW238583   0.942   0.212   3.179 -0.3577  1.4788 -0.4574
 9042SOL     OW38584   2.411   3.416   8.683 -0.4124  0.3182 -0.1465
 9042SOL    HW138585   2.469   3.480   8.724 -0.1205  0.8357 -1.3602
 9042SOL    HW238586   2.473   3.380   8.619  1.2801  1.4220  0.8508
 9043SOL     OW38587   2.314   2.269   9.497  0.5765  0.0813 -0.6953
 9043SOL    HW138588   2.335   2.306   9.583 -0.3669 -0.9261 -0.0348
 9043SOL    HW238589   2.345   2.344   9.446  1.1343  1.7303  2.1126
 9044SOL     OW38590   1.302   1.699   5.345 -0.1637 -0.6035 -0.7766
 9044SOL    HW138591   1.285   1.664   5.432  0.3767 -1.0106 -0.8363
 9044SOL    HW238592   1.334   1.616   5.309  2.3089 -0.1881  0.4969
 9045SOL     OW38593   2.884   1.735   3.733  0.1960  0.2456  0.4875
 9045SOL    HW138594   2.873   1.649   3.774  0.4802  0.1997  0.4612
 9045SOL    HW238595   2.955   1.774   3.783  0.1638  1.4287 -0.3719
 9046SOL     OW38596   3.431   3.953   5.549 -0.1452  0.8689 -0.4708
 9046SOL    HW138597   3.414   3.895   5.474 -0.1340 -1.0981  1.0360
 9046SOL    HW238598   3.434   4.036   5.502  0.3787  0.4963 -1.1010
 9047SOL     OW38599   3.229   0.213  15.432  0.0908 -0.6323  0.0049
 9047SOL    HW138600   3.246   0.140  15.491 -3.0385 -2.1339 -0.9184
 9047SOL    HW238601   3.204   0.283  15.492  3.5601 -0.6735  1.4732
 9048SOL     OW38602   3.619   3.483  12.241  0.3317  0.2834  0.9770
 9048SOL    HW138603   3.563   3.406  12.250 -0.3114  0.4420 -1.4812
 9048SOL    HW238604   3.704   3.439  12.228  1.0712  1.9530  0.1425
 9049SOL     OW38605   0.030   0.486   2.777  0.4133  0.2003  0.3800
 9049SOL    HW138606   0.102   0.446   2.728 -0.6703 -1.3722  0.0629
 9049SOL    HW238607   0.086   0.550   2.821 -1.3960  0.2392  2.6220
 9050SOL     OW38608   2.677   1.909   0.483 -1.0373  0.2708 -0.6094
 9050SOL    HW138609   2.693   1.901   0.388 -3.2907  2.1096 -1.1425
 9050SOL    HW238610   2.622   1.987   0.478 -0.5652  0.6734  0.5053
 9051SOL     OW38611   2.676   4.493   6.043 -0.1079 -0.0330  0.1413
 9051SOL    HW138612   2.737   4.456   5.979 -0.5325  0.7169 -0.6944
 9051SOL    HW238613   2.607   4.525   5.985 -0.2120  1.0640  0.8837
 9052SOL     OW38614   3.823   0.464   8.558 -0.2345  0.0528 -0.0776
 9052SOL    HW138615   3.913   0.490   8.577 -0.3217  2.3373 -2.8549
 9052SOL    HW238616   3.829   0.379   8.601  0.8365  0.9367  1.5004
 9053SOL     OW38617   3.334   3.080  14.129  0.4386  0.1749 -0.8558
 9053SOL    HW138618   3.345   2.997  14.175 -0.6174  0.9979  0.8830
 9053SOL    HW238619   3.378   3.058  14.047 -1.2018 -2.3393 -1.0781
 9054SOL     OW38620   0.164   1.300  16.622 -0.0423  0.1286  0.4742
 9054SOL    HW138621   0.184   1.280  16.530 -1.3366  0.2723  0.1663
 9054SOL    HW238622   0.252   1.315  16.656  0.4659 -0.0265 -0.7860
 9055SOL     OW38623   2.128   2.523   3.070  0.1561 -0.1100 -0.2104
 9055SOL    HW138624   2.172   2.482   2.996 -2.9395 -0.6865 -1.7380
 9055SOL    HW238625   2.044   2.549   3.032 -0.4115 -0.8789  0.5149
 9056SOL     OW38626   1.810   1.190   4.933  0.1049  0.1909 -0.2397
 9056SOL    HW138627   1.725   1.161   4.968  0.6517 -1.2267 -0.0851
 9056SOL    HW238628   1.840   1.251   5.000 -2.4608 -0.3887  1.4386
 9057SOL     OW38629   4.621   1.189   7.115 -0.6849 -0.0731 -0.5429
 9057SOL    HW138630   4.621   1.104   7.071  0.4999 -0.5261  0.3309
 9057SOL    HW238631   4.649   1.170   7.205  1.2849  0.5779 -1.0313
 9058SOL     OW38632   2.724   3.871   3.426  0.0560 -0.3491  0.0977
 9058SOL    HW138633   2.708   3.777   3.418 -2.7627  0.0928  0.5342
 9058SOL    HW238634   2.637   3.912   3.425  0.9539  1.5970  1.0581
 9059SOL     OW38635   3.586   4.320   4.281  0.9970  0.5053  0.6190
 9059SOL    HW138636   3.638   4.307   4.202  2.1144  1.7707  1.1412
 9059SOL    HW238637   3.502   4.280   4.259  1.5758 -0.3288 -0.0734
 9060SOL     OW38638   0.728   3.597   7.199 -0.3913  0.2654  0.3322
 9060SOL    HW138639   0.811   3.584   7.243 -0.1233  0.1443 -0.2070
 9060SOL    HW238640   0.738   3.673   7.142  0.1869  0.0277  0.1195
 9061SOL     OW38641   3.455   1.138  10.722  0.2426  1.0277 -0.0204
 9061SOL    HW138642   3.533   1.123  10.669 -0.3361 -3.5729  0.4555
 9061SOL    HW238643   3.497   1.165  10.803  0.0849 -2.5607  1.2511
 9062SOL     OW38644   1.103   0.542   4.018  0.0928 -0.0188  0.5412
 9062SOL    HW138645   1.019   0.502   3.995 -0.7787  0.6452  2.6510
 9062SOL    HW238646   1.158   0.466   3.997  0.3837  0.5597 -0.8190
 9063SOL     OW38647   0.806   0.701   1.913  0.4620 -0.1595 -0.0946
 9063SOL    HW138648   0.802   0.779   1.969  0.6323  0.6625 -1.2364
 9063SOL    HW238649   0.805   0.739   1.826 -0.7908 -2.3542 -1.0300
 9064SOL     OW38650   0.686   4.049   6.654  0.3014  0.2953 -0.6236
 9064SOL    HW138651   0.688   4.040   6.749 -0.9578  0.4946 -0.5758
 9064SOL    HW238652   0.696   3.957   6.630  0.3177  0.0753  0.2136
 9065SOL     OW38653   0.733   1.050  11.287 -0.0068  0.1178  0.2001
 9065SOL    HW138654   0.808   1.108  11.276 -1.3688  1.6991 -0.8516
 9065SOL    HW238655   0.677   1.082  11.358 -1.6793 -1.4495 -0.4290
 9066SOL     OW38656   2.188   4.506  11.945 -0.2071  0.1117  0.2016
 9066SOL    HW138657   2.131   4.573  11.983 -1.3762 -1.3757  1.0664
 9066SOL    HW238658   2.210   4.544  11.860  0.0425 -0.1091  0.1665
 9067SOL     OW38659   0.311   2.493  13.662  0.6213 -0.0917  0.4632
 9067SOL    HW138660   0.367   2.422  13.695  0.5938 -1.8435 -3.2690
 9067SOL    HW238661   0.287   2.468  13.573 -1.0369 -1.0515  1.1931
 9068SOL     OW38662   1.967   2.080  15.156  0.2055 -0.2804  0.0525
 9068SOL    HW138663   2.022   2.153  15.184  0.8996 -0.2654 -1.2990
 9068SOL    HW238664   1.966   2.024  15.233  1.6627 -2.5978 -1.5887
 9069SOL     OW38665   0.580   3.195   9.008  0.2972  0.7383 -0.6277
 9069SOL    HW138666   0.561   3.192   9.102 -0.3151 -2.6652 -0.8560
 9069SOL    HW238667   0.513   3.137   8.973  1.0374  0.7586 -2.0841
 9070SOL     OW38668   2.004   3.287   6.510 -0.0985 -0.2419  0.8985
 9070SOL    HW138669   2.059   3.243   6.445 -1.2565  0.5118 -0.6081
 9070SOL    HW238670   2.024   3.239   6.590 -0.7873  1.1721  1.9203
 9071SOL     OW38671   3.651   3.229   4.400  0.0735 -0.2584  0.3574
 9071SOL    HW138672   3.621   3.245   4.311  0.0356  0.1703  0.4509
 9071SOL    HW238673   3.570   3.183   4.421 -1.2947  2.7425  1.4868
 9072SOL     OW38674   1.227   1.464   4.938 -0.4259  0.3487 -0.3251
 9072SOL    HW138675   1.245   1.557   4.924  2.8391  0.0374  1.7759
 9072SOL    HW238676   1.200   1.433   4.851 -0.2913 -0.3556 -0.1149
 9073SOL     OW38677   3.242   3.569  14.843 -0.5423  0.0098  0.0727
 9073SOL    HW138678   3.186   3.545  14.769  2.5371 -2.8290 -1.3145
 9073SOL    HW238679   3.221   3.661  14.862  1.1867  0.4018  0.0605
 9074SOL     OW38680   1.769   3.059   3.866 -0.0244  0.2730 -0.0086
 9074SOL    HW138681   1.863   3.079   3.866  0.2738 -1.1211 -2.0130
 9074SOL    HW238682   1.744   3.131   3.808 -1.4506 -0.5623 -0.4319
 9075SOL     OW38683   0.089   2.102  10.921 -0.1604  0.3526 -0.5802
 9075SOL    HW138684   0.129   2.148  10.995 -0.2288 -2.3980  1.1428
 9075SOL    HW238685   0.016   2.063  10.970  1.9620 -2.1072  0.5623
 9076SOL     OW38686   2.545   0.787   0.916  0.2030  0.5742  0.0097
 9076SOL    HW138687   2.519   0.746   0.998  1.0080  0.4527  0.2050
 9076SOL    HW238688   2.564   0.711   0.860  2.0603  1.0326  0.0284
 9077SOL     OW38689   3.555   2.881   7.958 -0.6098 -0.2227  0.3863
 9077SOL    HW138690   3.609   2.960   7.957  0.2628 -0.8205 -0.1321
 9077SOL    HW238691   3.525   2.882   7.867  0.5070 -1.4609  0.0133
 9078SOL     OW38692   1.735   0.829  11.455 -0.2018  0.4567  0.1481
 9078SOL    HW138693   1.745   0.924  11.441 -2.3797  0.6676  0.0167
 9078SOL    HW238694   1.733   0.807  11.362  2.4051 -1.4705  0.5656
 9079SOL     OW38695   0.248   3.960   3.876  0.1896 -0.1927 -0.3407
 9079SOL    HW138696   0.338   3.991   3.877  1.4576 -3.8945  0.4498
 9079SOL    HW238697   0.263   3.869   3.903 -2.5286 -0.2296  1.0160
 9080SOL     OW38698   4.485   3.898   9.304 -0.3429  0.4736 -0.0816
 9080SOL    HW138699   4.422   3.836   9.339  0.5281 -0.6002 -0.4293
 9080SOL    HW238700   4.436   3.979   9.290  2.9853  2.0810 -2.4021
 9081SOL     OW38701   2.988   4.308   3.555  0.2234  0.7355 -0.3206
 9081SOL    HW138702   3.063   4.326   3.499  0.2186 -0.0977 -0.5854
 9081SOL    HW238703   2.972   4.214   3.544 -0.4574  0.8036  0.0350
 9082SOL     OW38704   3.376   1.918   5.305 -0.3740  0.2556  0.6692
 9082SOL    HW138705   3.458   1.966   5.299  0.2250 -0.7286  1.0230
 9082SOL    HW238706   3.336   1.940   5.221 -1.4936  1.6616  1.5579
 9083SOL     OW38707   3.019   1.230   2.742  0.8375 -0.0382 -0.3745
 9083SOL    HW138708   3.103   1.275   2.729  0.1774  1.3418  0.1642
 9083SOL    HW238709   3.007   1.224   2.647 -0.2819 -1.3669 -0.1401
 9084SOL     OW38710   3.653   3.484   5.574  0.6152 -0.3099 -0.1232
 9084SOL    HW138711   3.720   3.541   5.534 -1.0789  0.7549 -1.4595
 9084SOL    HW238712   3.699   3.400   5.575 -1.0804 -1.2409 -1.2099
 9085SOL     OW38713   3.102   0.336   4.182 -0.0508 -0.1967  0.4782
 9085SOL    HW138714   3.065   0.401   4.241  0.0849  0.2018  0.1207
 9085SOL    HW238715   3.158   0.391   4.128  0.1658 -0.1909  0.7095
 9086SOL     OW38716   3.254   3.600   5.666  0.7232  0.4576  0.1126
 9086SOL    HW138717   3.277   3.540   5.594  0.9696  0.3382  0.2905
 9086SOL    HW238718   3.178   3.643   5.627  0.4614 -1.9369 -2.0364
 9087SOL     OW38719   0.936   2.298   8.156  0.1374  0.3636  0.2363
 9087SOL    HW138720   1.016   2.334   8.119  1.0436  0.2900  2.1320
 9087SOL    HW238721   0.957   2.204   8.160 -1.3131  0.0260 -0.0413
 9088SOL     OW38722   3.211   1.007   5.215 -0.1860  0.2371  0.0545
 9088SOL    HW138723   3.304   1.022   5.232 -0.4689 -0.2731  2.0660
 9088SOL    HW238724   3.178   1.094   5.190 -0.6213  0.1139  0.2058
 9089SOL     OW38725   0.632   1.905   2.282  0.2839 -0.1691  0.2757
 9089SOL    HW138726   0.675   1.988   2.301 -0.5257  0.4584 -0.6610
 9089SOL    HW238727   0.612   1.915   2.189 -0.8817  0.6889  0.6118
 9090SOL     OW38728   0.461   0.038  14.192 -0.6018  0.0663 -0.7449
 9090SOL    HW138729   0.413   0.052  14.273 -0.0314  2.3981 -0.7989
 9090SOL    HW238730   0.545   0.007  14.225 -0.0682  0.8994 -1.3145
 9091SOL     OW38731   3.152   2.327   3.523  0.1201 -0.1643 -0.1735
 9091SOL    HW138732   3.080   2.346   3.463 -1.1413 -1.1613  1.0073
 9091SOL    HW238733   3.159   2.232   3.509  0.7431 -0.0119 -0.9034
 9092SOL     OW38734   4.226   0.167   3.959 -0.4636 -0.1160 -0.4216
 9092SOL    HW138735   4.185   0.102   4.015  0.8721 -0.3885  0.2453
 9092SOL    HW238736   4.303   0.181   4.015  0.6636 -0.7264 -1.8133
 9093SOL     OW38737   0.887   4.171   4.076  0.2334 -0.5804 -0.1053
 9093SOL    HW138738   0.899   4.178   3.981  1.0159 -0.0419  0.0349
 9093SOL    HW238739   0.979   4.151   4.095  0.3575  1.1090  1.0995
 9094SOL     OW38740   0.082   3.443  11.695  0.1611  0.5427  0.1361
 9094SOL    HW138741   0.000   3.400  11.718  0.8189  0.4536  2.2279
 9094SOL    HW238742   0.130   3.452  11.777 -1.2192  1.1058  0.8674
 9095SOL     OW38743   1.464   4.180   6.032 -0.5537 -0.0951  0.2557
 9095SOL    HW138744   1.483   4.115   6.099 -0.3068  0.0659  0.3414
 9095SOL    HW238745   1.456   4.131   5.950  0.9127  0.9405 -0.5208
 9096SOL     OW38746   2.001   3.895   5.688 -0.1966  0.0030  0.5577
 9096SOL    HW138747   2.038   3.807   5.688  1.2692  0.5848  4.0428
 9096SOL    HW238748   2.022   3.914   5.597  2.0109 -1.2806  0.7966
 9097SOL     OW38749   1.887   1.535   8.153  0.0701  0.0895 -0.5883
 9097SOL    HW138750   1.856   1.612   8.201  0.2129 -0.2584  0.0576
 9097SOL    HW238751   1.980   1.557   8.145 -0.7565  2.9805 -2.3431
 9098SOL     OW38752   3.103   0.844   8.192  0.2535 -0.7321  0.0109
 9098SOL    HW138753   3.155   0.782   8.242 -0.7182 -2.6931 -1.3946
 9098SOL    HW238754   3.017   0.814   8.219 -0.1783 -0.7135 -1.3253
 9099SOL     OW38755   4.623   4.345   5.650 -0.1377 -0.6727 -0.4468
 9099SOL    HW138756   4.638   4.435   5.678  0.8605 -1.1027  0.3770
 9099SOL    HW238757   4.533   4.348   5.618  0.3778 -0.3769 -1.8537
 9100SOL     OW38758   3.104   4.548   4.593  0.4226 -0.1242  0.1749
 9100SOL    HW138759   3.059   4.491   4.531 -0.2964 -2.5026  2.8835
 9100SOL    HW238760   3.161   4.484   4.636 -0.6155 -0.4811  1.0179
 9101SOL     OW38761   3.621   0.125  14.250 -0.2285  0.0955 -1.0421
 9101SOL    HW138762   3.630   0.060  14.181  1.0821 -1.3691  0.5307
 9101SOL    HW238763   3.686   0.190  14.222 -0.6184  0.2875 -1.5078
 9102SOL     OW38764   1.836   1.987   8.451  0.0823  0.0448  0.2078
 9102SOL    HW138765   1.747   2.004   8.484  0.5530 -0.0023  1.4916
 9102SOL    HW238766   1.837   2.032   8.367 -0.4409  0.9540  0.6974
 9103SOL     OW38767   1.428   2.337   9.237 -1.0084  0.1032  0.1505
 9103SOL    HW138768   1.486   2.284   9.183 -1.1948 -0.3194  0.3698
 9103SOL    HW238769   1.487   2.331   9.312 -1.8836  0.3510  0.8524
 9104SOL     OW38770   4.639   2.792   5.283 -0.2820  0.0737 -0.5946
 9104SOL    HW138771   4.620   2.858   5.216  1.2116  0.3554 -0.7467
 9104SOL    HW238772   4.653   2.720   5.221 -1.3545 -0.3886 -0.3038
 9105SOL     OW38773   1.277   1.136   8.565  0.1050 -0.2578 -0.0158
 9105SOL    HW138774   1.369   1.162   8.569 -0.3234  1.5889 -2.3201
 9105SOL    HW238775   1.271   1.096   8.478  0.7346 -0.5668  0.0827
 9106SOL     OW38776   2.604   1.637   4.306  0.1934 -0.0127  0.2340
 9106SOL    HW138777   2.658   1.681   4.372  1.1320 -2.1394  0.8667
 9106SOL    HW238778   2.652   1.659   4.227 -2.0728  1.8481 -0.6558
 9107SOL     OW38779   4.332   4.294   7.354 -0.2325 -0.4533 -0.2673
 9107SOL    HW138780   4.328   4.368   7.416  1.0116 -1.0717  0.5494
 9107SOL    HW238781   4.332   4.223   7.418 -1.2943  0.3854  0.6638
 9108SOL     OW38782   3.462   2.050  15.711 -0.4559 -0.1813 -0.5742
 9108SOL    HW138783   3.528   2.025  15.776  0.1990 -0.1894 -1.2453
 9108SOL    HW238784   3.502   2.116  15.655  0.2301 -1.0485 -1.0953
 9109SOL     OW38785   3.554   1.534   2.282 -0.6485  0.1946  0.1947
 9109SOL    HW138786   3.584   1.612   2.328  4.4889 -2.4922  1.3048
 9109SOL    HW238787   3.470   1.550   2.238 -0.9791 -0.6100  0.5242
 9110SOL     OW38788   1.045   0.015   5.389 -0.1979  0.1698 -0.7276
 9110SOL    HW138789   1.115   0.058   5.438 -0.6815  0.8975 -0.6737
 9110SOL    HW238790   0.989   0.093   5.378  2.4014  2.0610 -0.5161
 9111SOL     OW38791   3.160   2.399   8.213 -0.4288  0.9016 -0.0260
 9111SOL    HW138792   3.187   2.438   8.130  3.5911  0.6073  1.1169
 9111SOL    HW238793   3.066   2.417   8.211 -0.7937 -1.2651 -1.4151
 9112SOL     OW38794   1.754   2.835   5.944  0.0485  0.7246 -0.4603
 9112SOL    HW138795   1.798   2.753   5.966  0.7564  1.0164 -0.8024
 9112SOL    HW238796   1.703   2.802   5.870  2.7488 -0.6948 -1.6955
 9113SOL     OW38797   4.320   0.845  15.436  0.3133 -0.1773 -0.3409
 9113SOL    HW138798   4.324   0.933  15.399 -1.3337  0.3060  0.6235
 9113SOL    HW238799   4.402   0.802  15.413 -0.0336 -1.1366  0.2190
 9114SOL     OW38800   2.222   0.316   7.665  0.2767  0.2265 -0.3455
 9114SOL    HW138801   2.211   0.326   7.571 -2.6734 -1.8586 -0.2081
 9114SOL    HW238802   2.154   0.378   7.692 -0.9820 -0.9920 -0.7900
 9115SOL     OW38803   4.037   4.485   4.437  0.2791  0.0542 -0.0757
 9115SOL    HW138804   3.943   4.499   4.447 -0.0014 -0.6087 -1.6875
 9115SOL    HW238805   4.050   4.400   4.479  0.4127  1.0415  1.8520
 9116SOL     OW38806   1.307   4.475   8.986 -0.0300  0.9945  0.0853
 9116SOL    HW138807   1.402   4.469   8.998 -0.0409  0.9121  0.1274
 9116SOL    HW238808   1.280   4.435   9.068  1.6105  4.6611  2.4199
 9117SOL     OW38809   0.341   4.093   6.511  0.2210  0.1414 -0.2103
 9117SOL    HW138810   0.311   4.003   6.519 -1.9399  0.8331 -0.4280
 9117SOL    HW238811   0.435   4.089   6.492 -0.1906 -0.5927 -2.0182
 9118SOL     OW38812   0.389   1.891   0.871 -0.2445  0.0405 -0.0736
 9118SOL    HW138813   0.307   1.912   0.916  0.6850  1.0478  1.1539
 9118SOL    HW238814   0.350   1.901   0.784  1.0405 -2.7448 -0.9661
 9119SOL     OW38815   4.228   0.711   6.187 -0.1304 -0.2875 -0.2586
 9119SOL    HW138816   4.151   0.740   6.237  0.1827  0.8335 -0.4319
 9119SOL    HW238817   4.199   0.726   6.097 -1.4127  1.8410  0.5215
 9120SOL     OW38818   0.426   0.814   5.998 -0.3373 -0.2988 -0.1062
 9120SOL    HW138819   0.420   0.829   5.903  0.1516 -0.4175 -0.1577
 9120SOL    HW238820   0.499   0.871   6.021  1.2648 -2.1273 -0.5926
 9121SOL     OW38821   3.274   4.120   5.922  0.2768  0.2134  0.2266
 9121SOL    HW138822   3.202   4.061   5.944  1.2489 -1.1598 -0.2243
 9121SOL    HW238823   3.235   4.206   5.905  1.5183  1.4026  3.3870
 9122SOL     OW38824   4.259   4.051   3.511  0.2286 -0.4604 -0.2100
 9122SOL    HW138825   4.297   3.996   3.442  0.4371 -0.9574  0.3030
 9122SOL    HW238826   4.322   4.035   3.581 -0.1779  1.0818  0.5110
 9123SOL     OW38827   0.752   1.586   4.403  0.0600  0.4097  0.3394
 9123SOL    HW138828   0.807   1.622   4.473  0.3375  2.8660 -1.1320
 9123SOL    HW238829   0.666   1.610   4.436 -0.3577 -1.0817  0.3617
 9124SOL     OW38830   2.054   2.392   1.829  0.0841  0.2482 -0.2822
 9124SOL    HW138831   2.002   2.407   1.908  0.5228 -0.8077  0.2089
 9124SOL    HW238832   2.015   2.450   1.764  1.4194  1.7748  0.2814
 9125SOL     OW38833   0.494   0.520   5.772 -0.2700  0.1090  0.4670
 9125SOL    HW138834   0.574   0.567   5.749 -0.2139  1.1373  2.7312
 9125SOL    HW238835   0.531   0.459   5.836  0.7581  0.8089  0.5419
 9126SOL     OW38836   2.216   1.011   5.151  0.5752  0.4905  0.7801
 9126SOL    HW138837   2.153   1.032   5.082 -0.1692 -0.5751  1.1433
 9126SOL    HW238838   2.167   0.974   5.224 -1.0388 -1.4640 -1.2961
 9127SOL     OW38839   3.495   0.194  14.555 -0.0052 -0.6357 -0.1209
 9127SOL    HW138840   3.570   0.144  14.587 -2.0360 -3.6306  0.0341
 9127SOL    HW238841   3.482   0.232  14.642 -0.1746 -1.8660  0.3886
 9128SOL     OW38842   4.113   3.161  14.289  0.2355 -0.3988  0.0194
 9128SOL    HW138843   4.196   3.123  14.263  0.3476 -1.6366  2.2192
 9128SOL    HW238844   4.099   3.203  14.203  2.0314  0.1610  0.0051
 9129SOL     OW38845   3.998   0.267   6.897 -0.4057 -0.2040 -0.1921
 9129SOL    HW138846   3.992   0.242   6.989 -1.7923 -0.9056 -0.4762
 9129SOL    HW238847   4.087   0.238   6.878  0.3681  1.3781  0.9762
 9130SOL     OW38848   3.308   3.486   2.139 -0.2248 -0.1014 -0.0506
 9130SOL    HW138849   3.338   3.512   2.052  1.0315 -1.3341  0.0226
 9130SOL    HW238850   3.387   3.491   2.193 -1.2946  0.6473  1.4596
 9131SOL     OW38851   2.427   0.365   8.432  0.2453 -0.2198 -0.0255
 9131SOL    HW138852   2.375   0.291   8.462  3.0050 -1.7390  1.0516
 9131SOL    HW238853   2.369   0.403   8.366  0.7531  2.2422  0.9378
 9132SOL     OW38854   0.541   2.488   4.736 -0.3126 -0.7351  0.0762
 9132SOL    HW138855   0.595   2.409   4.730  1.6207  0.8122 -2.6215
 9132SOL    HW238856   0.585   2.525   4.813  0.4885 -4.1067  1.2407
 9133SOL     OW38857   2.018   4.004   3.923  0.1292  0.0533  0.5505
 9133SOL    HW138858   2.103   3.959   3.920 -0.2490 -0.6502  0.5755
 9133SOL    HW238859   1.998   3.995   3.829  0.2452 -0.9925  0.6310
 9134SOL     OW38860   0.712   2.802   1.576  0.3163 -0.3020  0.0196
 9134SOL    HW138861   0.797   2.775   1.540  0.9797 -0.4494  1.6743
 9134SOL    HW238862   0.724   2.770   1.665  2.6558 -1.4784 -0.7169
 9135SOL     OW38863   3.960   2.818   8.776  0.0957  0.0619  0.1600
 9135SOL    HW138864   3.957   2.889   8.712 -1.4705 -2.1037 -2.1794
 9135SOL    HW238865   3.889   2.762   8.747  0.6066 -0.2315 -0.5268
 9136SOL     OW38866   2.523   3.410   0.409  0.1482 -0.2911 -0.1991
 9136SOL    HW138867   2.441   3.404   0.458  0.0248  0.7516 -0.2817
 9136SOL    HW238868   2.550   3.498   0.435  0.2696 -0.6694  0.9784
 9137SOL     OW38869   1.465   1.764   8.931 -0.2455  0.4611 -0.2436
 9137SOL    HW138870   1.509   1.688   8.895 -0.9989  0.5577 -1.3838
 9137SOL    HW238871   1.545   1.812   8.950  0.2296 -0.2252 -0.5145
 9138SOL     OW38872   1.261   3.811   7.499 -0.5574 -0.4477 -0.1582
 9138SOL    HW138873   1.274   3.828   7.593  0.4187 -0.2541 -0.3279
 9138SOL    HW238874   1.337   3.856   7.460 -0.0912 -1.6747 -0.6447
 9139SOL     OW38875   3.493   1.015   7.507  0.3435  0.0460 -0.1529
 9139SOL    HW138876   3.485   1.034   7.600  1.4044 -0.1973 -0.0115
 9139SOL    HW238877   3.404   0.985   7.491  1.1419 -1.0854 -2.4285
 9140SOL     OW38878   2.218   0.575  12.758 -0.5371  0.2961 -0.3271
 9140SOL    HW138879   2.136   0.611  12.793 -0.1475 -0.6017  1.4996
 9140SOL    HW238880   2.197   0.483  12.746 -0.9935  0.2607  0.7813
 9141SOL     OW38881   3.586   0.992  16.342 -0.2578 -0.4550 -0.2496
 9141SOL    HW138882   3.505   1.042  16.346 -0.8674 -1.3262 -1.6243
 9141SOL    HW238883   3.563   0.938  16.266 -1.4395 -0.4303  0.0905
 9142SOL     OW38884   0.553   0.760  11.100  0.3938 -0.0423 -0.3405
 9142SOL    HW138885   0.490   0.822  11.063  0.6757  0.3034 -0.2420
 9142SOL    HW238886   0.548   0.782  11.193 -0.0413 -0.1817 -0.3297
 9143SOL     OW38887   4.667   2.572   0.014  0.4281 -0.4010 -0.6298
 9143SOL    HW138888   4.574   2.583   0.031  0.2490 -0.1939 -1.7808
 9143SOL    HW238889   4.704   2.580   0.102 -0.5206  0.9768 -0.3553
 9144SOL     OW38890   3.886   2.322   2.373  0.0036  0.2168  0.4038
 9144SOL    HW138891   3.867   2.233   2.404  1.1436 -0.0120  0.4490
 9144SOL    HW238892   3.903   2.290   2.284 -1.4849 -1.6442  0.7678
 9145SOL     OW38893   1.397   3.550   3.075  0.1642 -0.7932 -0.6445
 9145SOL    HW138894   1.439   3.630   3.108 -0.3309 -0.6991 -0.2262
 9145SOL    HW238895   1.352   3.586   2.999  1.5472  2.0673 -0.1126
 9146SOL     OW38896   2.647   2.607   2.439 -0.3266  0.9524  0.1654
 9146SOL    HW138897   2.556   2.634   2.429 -0.0872  2.4113  1.9528
 9146SOL    HW238898   2.647   2.518   2.403  3.7515 -0.0597  2.6716
 9147SOL     OW38899   3.644   0.333  13.307 -0.3595  0.3222 -0.6877
 9147SOL    HW138900   3.584   0.307  13.377  1.2299 -1.2284  0.1049
 9147SOL    HW238901   3.618   0.265  13.245  0.5223 -1.4632  0.9276
 9148SOL     OW38902   0.690   0.051  15.892  0.2872  0.0313 -0.3933
 9148SOL    HW138903   0.596   0.055  15.873 -0.2176 -0.5305  2.0352
 9148SOL    HW238904   0.711   4.680  15.898 -2.1510 -0.5393 -0.5657
 9149SOL     OW38905   4.497   2.172   4.503  0.0297 -0.0577  0.6716
 9149SOL    HW138906   4.506   2.184   4.598 -0.1282  1.6780  0.4714
 9149SOL    HW238907   4.407   2.204   4.492  0.0967 -0.3000 -0.5232
 9150SOL     OW38908   3.410   2.878   5.933 -0.0259 -0.0156  0.0415
 9150SOL    HW138909   3.345   2.808   5.923  1.2230 -1.2131  0.2817
 9150SOL    HW238910   3.408   2.890   6.028 -1.7119  0.7100 -0.0868
 9151SOL     OW38911   3.294   2.099   8.257  0.2437 -0.5020  0.5651
 9151SOL    HW138912   3.277   2.165   8.324 -1.4168  0.6747 -1.0249
 9151SOL    HW238913   3.389   2.093   8.249  0.2344  1.8237 -1.3304
 9152SOL     OW38914   2.030   3.780   8.565 -0.0879 -0.3799 -0.0314
 9152SOL    HW138915   2.111   3.728   8.568  0.3735  0.2843 -0.9584
 9152SOL    HW238916   2.040   3.831   8.485  0.1099 -0.0933  0.1732
 9153SOL     OW38917   3.193   3.222   6.355  0.2686 -0.0425  0.9743
 9153SOL    HW138918   3.286   3.231   6.375 -0.1681  0.8668  2.5567
 9153SOL    HW238919   3.202   3.155   6.287  2.0262 -0.8796  2.0437
 9154SOL     OW38920   3.968   4.588   1.342  0.4736 -0.0818 -0.4775
 9154SOL    HW138921   3.879   4.566   1.372  0.1771  0.0866 -1.2260
 9154SOL    HW238922   4.016   4.506   1.355  0.2597 -0.3188 -1.1742
 9155SOL     OW38923   2.591   0.817   8.454  0.9694 -0.5985  0.1862
 9155SOL    HW138924   2.541   0.735   8.447  0.0888 -0.0628  0.2849
 9155SOL    HW238925   2.550   0.866   8.383  0.8695  0.4934  1.0137
 9156SOL     OW38926   1.707   2.496   6.083 -0.0387 -0.3646  0.7179
 9156SOL    HW138927   1.753   2.422   6.123 -0.2335 -1.2683 -0.7112
 9156SOL    HW238928   1.784   2.529   6.038  0.3687  0.1856  1.8265
 9157SOL     OW38929   2.147   4.022  15.524  0.1819 -0.3622 -0.0409
 9157SOL    HW138930   2.163   4.115  15.509  0.0898 -0.1383  1.2647
 9157SOL    HW238931   2.098   4.039  15.604 -0.3689  2.1018 -0.8933
 9158SOL     OW38932   0.614   0.197   7.403  0.1923 -0.1994 -0.0685
 9158SOL    HW138933   0.602   0.167   7.493  0.7461  0.0407  0.0814
 9158SOL    HW238934   0.697   0.241   7.418  0.0363  0.0442  0.0725
 9159SOL     OW38935   3.012   3.941  17.503  0.2416  0.5056 -0.4267
 9159SOL    HW138936   3.020   4.036  17.505  3.5389  0.2351 -0.9842
 9159SOL    HW238937   3.056   3.922  17.586  0.1927  0.3244 -0.4405
 9160SOL     OW38938   3.452   1.095   0.828 -0.1492 -0.7668 -0.3188
 9160SOL    HW138939   3.434   1.098   0.734  0.9502 -1.0767 -0.5475
 9160SOL    HW238940   3.544   1.068   0.827  0.0256 -0.1279 -0.7576
 9161SOL     OW38941   4.428   1.987   0.421 -0.1195 -0.5478 -0.2244
 9161SOL    HW138942   4.353   1.936   0.392 -0.0915 -0.1262 -1.0351
 9161SOL    HW238943   4.386   2.055   0.474 -0.2006 -1.0106  0.3066
 9162SOL     OW38944   1.686   4.352   9.961  0.5724 -0.7522 -0.1662
 9162SOL    HW138945   1.591   4.345   9.946  0.2161  1.7927  0.9656
 9162SOL    HW238946   1.709   4.443   9.947 -0.1316 -0.8668 -1.9984
 9163SOL     OW38947   1.835   2.825   1.108  0.1473 -0.2484 -0.8958
 9163SOL    HW138948   1.867   2.915   1.115 -1.1821  0.0867  0.7392
 9163SOL    HW238949   1.853   2.802   1.199  2.5703  0.8748 -1.1043
 9164SOL     OW38950   3.047   0.836  14.037  0.1041  0.1867 -0.7241
 9164SOL    HW138951   3.041   0.886  13.956  2.0178  0.4435 -0.7044
 9164SOL    HW238952   3.045   0.748  14.000  1.1114 -0.3560  0.5076
 9165SOL     OW38953   1.742   2.048  11.681  0.5867 -0.1104 -0.3107
 9165SOL    HW138954   1.787   2.132  11.693  2.0408 -1.1499  1.3504
 9165SOL    HW238955   1.812   1.990  11.653 -3.0325 -3.9098 -1.4181
 9166SOL     OW38956   3.144   3.380   4.119  0.2460 -0.0475 -0.2679
 9166SOL    HW138957   3.191   3.299   4.136 -1.5914 -1.7234 -3.2524
 9166SOL    HW238958   3.089   3.388   4.197 -1.3276 -1.4557 -1.2234
 9167SOL     OW38959   1.000   4.045   6.665  0.1442 -0.2488  0.9835
 9167SOL    HW138960   1.087   4.045   6.703  0.6564  1.2317 -0.1756
 9167SOL    HW238961   0.952   4.038   6.748  0.9281  1.6184  1.5907
 9168SOL     OW38962   1.835   0.577   7.945 -0.1509 -0.4540  0.4113
 9168SOL    HW138963   1.776   0.622   8.004 -1.3867  1.9984 -2.6901
 9168SOL    HW238964   1.854   0.646   7.882  0.8616 -1.1291 -0.0411
 9169SOL     OW38965   3.188   0.281   8.693  0.2127 -0.0481  0.0706
 9169SOL    HW138966   3.169   0.375   8.697 -2.9503 -0.6582 -0.2440
 9169SOL    HW238967   3.185   0.251   8.784 -0.4999 -2.8061 -0.8574
 9170SOL     OW38968   4.486   1.751  15.808 -0.2737 -0.1079  0.2064
 9170SOL    HW138969   4.415   1.687  15.812 -0.1573 -0.3389 -1.4359
 9170SOL    HW238970   4.543   1.707  15.745 -0.8065 -0.3378 -0.1143
 9171SOL     OW38971   2.524   2.106   1.785  1.1283  0.3792  0.0802
 9171SOL    HW138972   2.434   2.138   1.786  1.8568  2.4436  1.1291
 9171SOL    HW238973   2.548   2.112   1.877 -0.2677 -1.5266  0.5768
 9172SOL     OW38974   1.250   4.619   5.250  0.2569 -0.1067  0.2514
 9172SOL    HW138975   1.166   4.631   5.294  0.1081 -2.1700  0.5463
 9172SOL    HW238976   1.311   4.633   5.322  2.7227  1.0552 -2.0186
 9173SOL     OW38977   0.157   4.459   2.918 -0.4205  0.0526 -0.1742
 9173SOL    HW138978   0.238   4.502   2.946  0.2103 -1.5547  0.4566
 9173SOL    HW238979   0.110   4.532   2.877  0.5413  0.4931 -0.5098
 9174SOL     OW38980   1.332   2.137   0.450 -0.8798  0.1794  0.0736
 9174SOL    HW138981   1.274   2.209   0.425 -3.7931 -1.8553  0.9365
 9174SOL    HW238982   1.408   2.185   0.481  0.1825 -0.7650 -1.0620
 9175SOL     OW38983   1.277   4.356   3.997 -0.0544 -0.5893  0.3818
 9175SOL    HW138984   1.370   4.378   3.991 -0.2754  0.3551  0.4445
 9175SOL    HW238985   1.263   4.295   3.925 -3.2114  2.4349 -1.5759
 9176SOL     OW38986   1.581   4.393   2.868 -0.3378  0.2063  0.6769
 9176SOL    HW138987   1.542   4.409   2.782 -1.1252  1.9847  1.3668
 9176SOL    HW238988   1.655   4.454   2.867  0.4252 -0.7311 -0.2482
 9177SOL     OW38989   4.242   1.339   8.440  0.2933 -1.3084  0.1517
 9177SOL    HW138990   4.167   1.355   8.497  2.7625 -0.3125  3.1537
 9177SOL    HW238991   4.226   1.252   8.404 -2.7259 -0.8303  0.3036
 9178SOL     OW38992   1.481   3.697  13.140 -0.9580  0.0722  0.2588
 9178SOL    HW138993   1.453   3.656  13.222  0.6457 -1.3568  0.1079
 9178SOL    HW238994   1.540   3.769  13.162 -0.7643  0.1799 -0.5898
 9179SOL     OW38995   2.854   0.562   9.422  0.1252 -0.2534  0.0603
 9179SOL    HW138996   2.845   0.655   9.442  0.8267  0.0126 -0.8448
 9179SOL    HW238997   2.948   0.575   9.408  0.3199 -1.0707  0.6427
 9180SOL     OW38998   3.381   4.486   5.989 -0.2221  0.8180 -0.5260
 9180SOL    HW138999   3.297   4.527   6.009 -1.2520 -2.3511  1.7202
 9180SOL    HW239000   3.420   4.536   5.918 -2.0828  3.5092  0.3519
 9181SOL     OW39001   3.072   1.114   8.091 -0.4631  0.3162  0.2634
 9181SOL    HW139002   3.053   1.021   8.103 -2.2009  0.6134 -0.1758
 9181SOL    HW239003   3.043   1.147   8.176  2.5681 -0.6422  1.6599
 9182SOL     OW39004   4.470   2.519  16.372 -0.2227  0.1240 -0.3777
 9182SOL    HW139005   4.565   2.515  16.364 -0.2834 -1.5377 -0.3096
 9182SOL    HW239006   4.435   2.431  16.356 -1.8697  0.6385  0.3581
 9183SOL     OW39007   1.460   3.368   2.867 -0.7924 -0.1121 -0.7745
 9183SOL    HW139008   1.551   3.342   2.858  0.3145  3.2958  0.4424
 9183SOL    HW239009   1.467   3.431   2.939 -1.6004  0.4136 -1.1484
 9184SOL     OW39010   4.624   3.301   8.825 -0.7013  0.6502 -0.5069
 9184SOL    HW139011   4.714   3.329   8.842 -0.4182  0.5154 -1.7859
 9184SOL    HW239012   4.625   3.213   8.863 -0.2284 -0.4872 -3.1314
 9185SOL     OW39013   0.624   3.103   1.297 -0.0445 -0.3188 -0.0247
 9185SOL    HW139014   0.567   3.145   1.233 -0.6928 -1.6054 -0.3065
 9185SOL    HW239015   0.572   3.030   1.331  0.2226 -0.7317 -0.5013
 9186SOL     OW39016   0.122   1.341  17.016 -0.9514 -0.0906 -0.0668
 9186SOL    HW139017   0.079   1.398  16.953 -0.5751 -1.0796 -1.2158
 9186SOL    HW239018   0.153   1.269  16.962 -0.6651  0.0176 -0.0463
 9187SOL     OW39019   1.921   3.180   8.203 -0.1038 -0.4146 -0.1136
 9187SOL    HW139020   1.895   3.103   8.153  1.0746 -0.0932 -1.2091
 9187SOL    HW239021   1.926   3.144   8.292  0.9754  0.6400  0.2578
 9188SOL     OW39022   1.233   0.731   7.774  0.0252  0.7419 -0.3635
 9188SOL    HW139023   1.287   0.680   7.835 -0.9391 -1.1335 -1.0679
 9188SOL    HW239024   1.213   0.808   7.826  0.6174 -0.0738  1.0906
 9189SOL     OW39025   2.722   4.493   2.948 -0.0407 -0.6431  0.5267
 9189SOL    HW139026   2.693   4.502   3.038  1.5171  1.8729  0.7661
 9189SOL    HW239027   2.694   4.402   2.933  0.4320 -1.2536  3.4893
 9190SOL     OW39028   3.721   4.594   2.883 -0.3668  0.0588  0.4008
 9190SOL    HW139029   3.732   4.571   2.975 -0.5321  0.6698  0.5713
 9190SOL    HW239030   3.809   4.628   2.866 -0.4847  1.4524  2.6481
 9191SOL     OW39031   4.448   3.805   1.932  0.3377  0.0722  0.3833
 9191SOL    HW139032   4.403   3.871   1.880 -0.3917  0.3163  1.3069
 9191SOL    HW239033   4.519   3.791   1.870  0.6586  2.3375  0.2495
 9192SOL     OW39034   2.587   1.584   6.622  0.2638 -0.0332 -0.7896
 9192SOL    HW139035   2.593   1.679   6.636 -0.4172 -0.0223 -0.5545
 9192SOL    HW239036   2.671   1.554   6.655 -1.0577 -3.6276 -0.7209
 9193SOL     OW39037   0.714   1.482   9.816 -0.1056  0.3378  0.3394
 9193SOL    HW139038   0.669   1.403   9.845 -0.8667  0.7969  0.3821
 9193SOL    HW239039   0.663   1.479   9.735  0.5862  1.2504 -0.1290
 9194SOL     OW39040   1.281   4.436  16.471  0.5020 -0.0992 -0.6622
 9194SOL    HW139041   1.354   4.494  16.447  1.4945 -0.3837  1.6532
 9194SOL    HW239042   1.238   4.438  16.385 -0.7670 -0.3902 -0.0199
 9195SOL     OW39043   2.561   2.513   5.357  0.2622 -0.9437 -0.1948
 9195SOL    HW139044   2.488   2.454   5.339 -0.2131 -0.5325  0.3330
 9195SOL    HW239045   2.631   2.474   5.306 -0.8173 -3.2732  0.1301
 9196SOL     OW39046   1.042   1.543   2.235  0.0163 -0.1423 -0.2574
 9196SOL    HW139047   0.948   1.563   2.228  0.0538  0.4560  0.9316
 9196SOL    HW239048   1.095   1.616   2.204 -0.8438 -0.0284 -1.4359
 9197SOL     OW39049   3.109   3.777   4.514  0.8574 -0.5357  0.0626
 9197SOL    HW139050   3.071   3.839   4.452  0.9107 -1.0828 -0.5026
 9197SOL    HW239051   3.139   3.830   4.589 -0.9994  1.1635 -0.3977
 9198SOL     OW39052   1.032   3.439   9.231  0.0271 -0.2002  0.9078
 9198SOL    HW139053   1.062   3.380   9.300  1.3995  0.5083  0.9215
 9198SOL    HW239054   0.949   3.472   9.266 -1.5874 -1.3586 -1.8590
 9199SOL     OW39055   4.422   3.409   8.280 -0.5479 -0.3585 -0.1276
 9199SOL    HW139056   4.445   3.483   8.224 -0.6315  0.1335  0.4913
 9199SOL    HW239057   4.338   3.437   8.315  0.0689 -0.2603  1.2457
 9200SOL     OW39058   2.030   3.433   3.543  0.2341 -0.0377  0.3582
 9200SOL    HW139059   2.018   3.466   3.454 -1.1921 -2.5858 -0.3892
 9200SOL    HW239060   2.005   3.341   3.533  2.0561 -0.6815  1.7091
 9201SOL     OW39061   1.635   0.853   1.471  0.1267 -0.1546  0.6538
 9201SOL    HW139062   1.570   0.790   1.501 -0.7915  1.5498  2.2575
 9201SOL    HW239063   1.659   0.891   1.556  0.5435 -1.0759  0.9547
 9202SOL     OW39064   1.939   1.862   5.404 -0.1177 -0.3822  0.3624
 9202SOL    HW139065   1.859   1.908   5.430  1.3049  1.9562  0.6351
 9202SOL    HW239066   1.923   1.821   5.319 -2.3569 -1.1394  1.1356
 9203SOL     OW39067   0.316   1.375  14.002  0.4724 -0.2908 -0.0300
 9203SOL    HW139068   0.372   1.415  14.068  0.2875 -2.0274  1.1877
 9203SOL    HW239069   0.339   1.415  13.919 -0.5847 -1.3098 -0.8097
 9204SOL     OW39070   1.502   4.548   7.434 -0.3342 -0.4459 -0.5889
 9204SOL    HW139071   1.463   4.539   7.348 -1.1138 -2.4235 -0.0281
 9204SOL    HW239072   1.492   4.643   7.445 -1.3975 -0.7613  1.1266
 9205SOL     OW39073   3.570   1.040   3.988 -0.2181  0.2491 -0.0780
 9205SOL    HW139074   3.552   0.995   3.905 -0.4219 -1.6769  1.0062
 9205SOL    HW239075   3.646   0.994   4.025 -0.4858 -1.3223 -1.4392
 9206SOL     OW39076   1.956   0.490  16.504  0.0685  0.6971  0.3654
 9206SOL    HW139077   1.872   0.478  16.460  0.7772  1.5068 -1.2117
 9206SOL    HW239078   1.974   0.397  16.521 -0.2360  0.5763  0.0364
 9207SOL     OW39079   2.018   3.071  16.385 -0.0383 -0.1224 -0.8411
 9207SOL    HW139080   2.049   3.160  16.400  1.2650 -0.4230 -1.7441
 9207SOL    HW239081   1.927   3.069  16.415  1.0881 -0.9449  2.5046
 9208SOL     OW39082   3.874   2.765   1.825 -0.6037  0.0737  0.1647
 9208SOL    HW139083   3.925   2.712   1.764  0.1897  1.3412 -0.2692
 9208SOL    HW239084   3.941   2.806   1.880 -0.3319  0.1600 -0.2333
 9209SOL     OW39085   3.382   0.211   2.709 -0.1330 -0.6256  0.5879
 9209SOL    HW139086   3.438   0.264   2.766  0.7278 -1.1611  0.2402
 9209SOL    HW239087   3.419   0.124   2.726  0.9315  0.1866  2.4686
 9210SOL     OW39088   1.508   4.521   3.938 -0.0478 -0.2014 -0.1918
 9210SOL    HW139089   1.575   4.538   4.004 -0.4642  2.6001 -0.4623
 9210SOL    HW239090   1.564   4.494   3.865 -0.6994 -2.4825  0.1527
 9211SOL     OW39091   1.201   0.495  10.980 -0.5403 -0.9242  0.7374
 9211SOL    HW139092   1.237   0.443  10.909  0.1862  1.4428 -0.6109
 9211SOL    HW239093   1.258   0.572  10.981 -1.8605  0.0735  0.0875
 9212SOL     OW39094   2.462   1.366   6.173 -0.7923  0.3605 -0.1154
 9212SOL    HW139095   2.537   1.338   6.225 -2.4737 -1.1235  1.5219
 9212SOL    HW239096   2.414   1.284   6.168 -0.0939 -0.0305 -0.3992
 9213SOL     OW39097   3.812   0.357   6.572 -0.3370 -0.1866  0.0128
 9213SOL    HW139098   3.828   0.403   6.489 -0.4633 -4.1067 -2.1717
 9213SOL    HW239099   3.722   0.333   6.548 -0.1167 -0.4154 -0.6043
 9214SOL     OW39100   1.047   2.568   7.103  0.0118  0.1762  0.0108
 9214SOL    HW139101   0.978   2.603   7.046  0.5801  1.5676  0.1766
 9214SOL    HW239102   1.020   2.591   7.192  1.4074 -1.2721  0.8015
 9215SOL     OW39103   2.401   1.215   5.203 -0.2663  0.1284  0.7581
 9215SOL    HW139104   2.338   1.144   5.197 -0.4632  0.2195  1.8568
 9215SOL    HW239105   2.475   1.172   5.159 -0.3503  1.0446 -0.2900
 9216SOL     OW39106   0.845   3.829  15.284  0.1135 -0.7027  0.6447
 9216SOL    HW139107   0.937   3.807  15.295  0.2204 -0.0855  0.9931
 9216SOL    HW239108   0.817   3.751  15.235 -1.4156  0.0076  0.3638
 9217SOL     OW39109   4.193   3.448   9.016  0.0822 -0.2600 -0.0054
 9217SOL    HW139110   4.254   3.385   8.979  0.7860 -0.3560  1.3268
 9217SOL    HW239111   4.239   3.531   9.017 -0.7567  0.1891  2.1234
 9218SOL     OW39112   2.372   3.707   6.884 -0.0668 -0.2248  0.1896
 9218SOL    HW139113   2.280   3.689   6.903  0.0176 -0.8542 -0.0113
 9218SOL    HW239114   2.415   3.626   6.910 -1.3726 -1.2711 -0.9192
 9219SOL     OW39115   2.510   4.294   0.125 -0.9372 -0.2732 -0.3147
 9219SOL    HW139116   2.511   4.313   0.031 -0.9561 -0.2512 -0.3103
 9219SOL    HW239117   2.511   4.381   0.163  1.0878 -0.7021  0.6219
 9220SOL     OW39118   0.755   2.962   5.102 -0.0023 -0.2471 -0.3097
 9220SOL    HW139119   0.792   2.874   5.113 -0.4823 -0.3730  0.2964
 9220SOL    HW239120   0.715   2.946   5.017 -2.0921 -1.2743  0.8584
 9221SOL     OW39121   3.690   2.591  11.013 -0.7566 -0.1422 -0.0524
 9221SOL    HW139122   3.656   2.502  11.027  0.5306 -0.5971  0.2452
 9221SOL    HW239123   3.700   2.619  11.104  0.1796  1.1932 -0.5743
 9222SOL     OW39124   4.245   0.784   6.554 -0.2813  0.0673 -0.9389
 9222SOL    HW139125   4.186   0.733   6.497  0.5267 -0.2883 -1.4594
 9222SOL    HW239126   4.196   0.776   6.636 -0.7831  0.5643 -1.1856
 9223SOL     OW39127   1.988   2.374  12.054 -0.4735 -0.5849 -0.1765
 9223SOL    HW139128   2.014   2.450  12.003  1.1698 -0.1521  1.3139
 9223SOL    HW239129   2.037   2.311  12.001  2.2982  1.6968 -0.3353
 9224SOL     OW39130   0.972   3.869   7.695 -0.5439 -0.3254 -0.4132
 9224SOL    HW139131   0.980   3.870   7.791  1.7163  0.4249 -0.6087
 9224SOL    HW239132   0.994   3.778   7.675  0.8180  0.1452 -1.0587
 9225SOL     OW39133   1.579   4.707   7.904 -0.4649 -0.0205 -0.5046
 9225SOL    HW139134   1.654   0.042   7.885 -0.2103  0.0800  0.7738
 9225SOL    HW239135   1.595   4.643   7.835 -0.7336  0.0418 -0.6249
 9226SOL     OW39136   4.475   2.805  10.961 -0.0222 -0.6944  0.6811
 9226SOL    HW139137   4.492   2.784  10.869  0.0315 -1.9971  0.9949
 9226SOL    HW239138   4.488   2.723  11.008 -1.9081 -1.0860  0.5229
 9227SOL     OW39139   0.338   3.833   1.635  0.0726  0.2770 -0.4166
 9227SOL    HW139140   0.398   3.907   1.621 -1.0998  1.1749 -0.7277
 9227SOL    HW239141   0.277   3.854   1.565  0.8148  1.1656 -0.8014
 9228SOL     OW39142   0.796   0.502  11.030 -0.3541  0.5700 -0.3578
 9228SOL    HW139143   0.874   0.458  11.063 -0.3212 -0.8199 -2.3008
 9228SOL    HW239144   0.761   0.531  11.115 -0.1042 -0.3825  0.0624
 9229SOL     OW39145   0.142   2.482   9.481 -0.2175  0.2951 -0.6779
 9229SOL    HW139146   0.071   2.431   9.443  1.5296 -2.4386 -0.2826
 9229SOL    HW239147   0.123   2.473   9.574  0.4040 -2.0558 -0.7657
 9230SOL     OW39148   3.270   1.278   8.621 -0.5807  0.0339  0.2217
 9230SOL    HW139149   3.252   1.267   8.715  1.7783  3.7787  1.1128
 9230SOL    HW239150   3.179   1.268   8.593 -0.8841 -0.0949  1.2324
 9231SOL     OW39151   0.827   1.317   4.721 -0.1821  0.0751  0.5642
 9231SOL    HW139152   0.756   1.376   4.696  0.8926  1.1405  0.0482
 9231SOL    HW239153   0.794   1.229   4.701 -1.0720  0.1373  1.7178
 9232SOL     OW39154   0.444   4.290  15.331 -0.2422 -0.1222 -0.0931
 9232SOL    HW139155   0.470   4.230  15.401 -1.7614 -0.6913 -0.0026
 9232SOL    HW239156   0.467   4.237  15.255  0.8519 -0.4825  0.4878
 9233SOL     OW39157   1.274   1.526   7.984 -0.0407 -0.1114 -0.0482
 9233SOL    HW139158   1.268   1.440   7.942 -0.2443 -0.1879  0.1369
 9233SOL    HW239159   1.190   1.525   8.030  0.8449  0.0470  1.5603
 9234SOL     OW39160   2.369   4.526   6.569 -0.1370 -0.0162  0.0174
 9234SOL    HW139161   2.307   4.598   6.582  2.0284  1.7512  0.5776
 9234SOL    HW239162   2.313   4.459   6.530 -2.4701  1.6969  0.4774
 9235SOL     OW39163   4.115   3.201   7.414 -0.2158  0.4495  0.2136
 9235SOL    HW139164   4.162   3.265   7.360  0.5828 -0.8215 -0.5817
 9235SOL    HW239165   4.026   3.209   7.378  0.3873  1.0341 -1.1721
 9236SOL     OW39166   4.048   0.525   7.820  0.0244 -0.1076 -0.1547
 9236SOL    HW139167   4.078   0.615   7.836  1.6288 -0.8263  0.9435
 9236SOL    HW239168   3.988   0.550   7.750  0.9598  2.4800 -0.0388
 9237SOL     OW39169   3.193   1.119  12.877 -0.2774  0.4595  0.3759
 9237SOL    HW139170   3.215   1.026  12.878 -2.8565 -0.1305  1.5905
 9237SOL    HW239171   3.139   1.121  12.956 -0.9657  0.2415 -0.0990
 9238SOL     OW39172   4.105   4.497  17.286  0.2189 -0.1852  0.3866
 9238SOL    HW139173   4.044   4.501  17.360 -2.2828 -1.1493 -1.6020
 9238SOL    HW239174   4.179   4.532  17.336  0.1802  0.8509 -0.2867
 9239SOL     OW39175   1.493   0.919   2.789  0.1377 -0.0702 -0.0908
 9239SOL    HW139176   1.399   0.936   2.782 -0.0238  0.0811  2.2970
 9239SOL    HW239177   1.531   0.971   2.718 -1.6881  3.3804  1.4396
 9240SOL     OW39178   4.106   1.269   3.549 -0.1121  0.4697 -0.2537
 9240SOL    HW139179   4.187   1.318   3.561  0.4226 -0.3480 -0.4547
 9240SOL    HW239180   4.097   1.259   3.454 -0.7466 -1.9058  0.0446
 9241SOL     OW39181   4.228   2.357   9.718  0.0180 -0.0196  0.2010
 9241SOL    HW139182   4.148   2.408   9.733  0.3652  0.7382 -0.4964
 9241SOL    HW239183   4.252   2.393   9.633 -0.9740  1.8600  0.6931
 9242SOL     OW39184   2.325   3.900   4.527  0.7466 -0.2681 -0.3107
 9242SOL    HW139185   2.252   3.881   4.468  0.1400 -0.1124  0.3802
 9242SOL    HW239186   2.367   3.956   4.462  0.0920 -0.1215 -0.6043
 9243SOL     OW39187   0.564   3.711   3.850 -0.2980 -0.1817 -1.1831
 9243SOL    HW139188   0.536   3.803   3.844 -0.9384 -0.3507 -0.7767
 9243SOL    HW239189   0.496   3.666   3.799 -0.9880  1.3375 -1.6023
 9244SOL     OW39190   2.670   3.776   2.362 -0.5353 -0.7305  0.4910
 9244SOL    HW139191   2.739   3.830   2.400  0.7026 -1.3114 -0.9614
 9244SOL    HW239192   2.722   3.720   2.304  1.6437  1.2002  0.5837
 9245SOL     OW39193   2.422   4.385  13.949 -0.1592 -0.0104  0.3788
 9245SOL    HW139194   2.339   4.391  13.994 -1.7364 -0.5443 -2.4284
 9245SOL    HW239195   2.480   4.447  13.993 -0.8554 -0.1972  1.5388
 9246SOL     OW39196   0.982   3.097  17.307  0.3854 -0.6775  0.1906
 9246SOL    HW139197   1.001   3.012  17.266 -0.5533 -0.9276  0.2605
 9246SOL    HW239198   0.935   3.067  17.385  1.2039  0.0814  0.9724
 9247SOL     OW39199   1.943   0.707  12.819  0.0935  0.0894  0.5262
 9247SOL    HW139200   1.872   0.770  12.833  0.2492  0.3981 -0.0624
 9247SOL    HW239201   1.898   0.625  12.839 -1.1695  0.5614 -0.3749
 9248SOL     OW39202   2.778   3.627   1.027  0.0991 -0.0910  0.4096
 9248SOL    HW139203   2.808   3.670   1.107 -0.1559  0.6041  0.1283
 9248SOL    HW239204   2.858   3.632   0.975 -1.0215  1.1670 -1.1933
 9249SOL     OW39205   1.735   3.415  16.759  0.2241 -0.0172 -0.6891
 9249SOL    HW139206   1.820   3.403  16.716  0.3128  3.5303 -1.5201
 9249SOL    HW239207   1.723   3.329  16.798 -1.2392 -0.1870 -1.5358
 9250SOL     OW39208   2.071   0.447   1.111  0.3011 -0.8826 -0.1223
 9250SOL    HW139209   2.068   0.542   1.126  0.3184 -0.8958 -0.0373
 9250SOL    HW239210   2.158   0.434   1.075  0.5819  0.6639 -0.0094
 9251SOL     OW39211   2.728   2.597   2.089  0.3682  0.1251  0.0047
 9251SOL    HW139212   2.773   2.682   2.086  0.7710 -0.0904 -0.0989
 9251SOL    HW239213   2.779   2.569   2.166  2.1613  0.5660 -1.0233
 9252SOL     OW39214   3.094   1.195  14.082 -0.3876 -0.0059  0.2780
 9252SOL    HW139215   3.048   1.115  14.059  1.1417 -0.4802 -1.0916
 9252SOL    HW239216   3.171   1.198  14.025  0.9581  0.7521  2.1261
 9253SOL     OW39217   2.981   0.497   8.020 -0.7893 -0.2265 -0.4251
 9253SOL    HW139218   2.991   0.487   8.114 -0.7454  2.6083 -0.1516
 9253SOL    HW239219   2.890   0.474   7.999 -0.5550  0.1636 -1.9155
 9254SOL     OW39220   3.015   1.950   5.493 -0.2201  0.5708 -0.6592
 9254SOL    HW139221   2.992   2.001   5.415 -2.9133  1.4689  0.7349
 9254SOL    HW239222   2.963   1.870   5.485  0.9455 -0.4717  2.1535
 9255SOL     OW39223   4.106   3.647   4.730  0.4033 -0.3340  0.0747
 9255SOL    HW139224   4.078   3.696   4.653 -0.2135 -0.8457 -0.0312
 9255SOL    HW239225   4.019   3.614   4.754 -1.5828  3.5466 -1.6626
 9256SOL     OW39226   0.309   4.538   0.559  0.1196 -0.0469  0.4535
 9256SOL    HW139227   0.286   4.446   0.552 -1.6754  0.4457 -0.2282
 9256SOL    HW239228   0.403   4.543   0.538 -0.0102 -1.8078 -0.5314
 9257SOL     OW39229   4.122   4.248   6.463  0.1620 -0.2042  0.3167
 9257SOL    HW139230   4.079   4.167   6.490 -1.0285  0.7974  1.4234
 9257SOL    HW239231   4.066   4.275   6.391 -0.2182  0.9964  1.0681
 9258SOL     OW39232   2.403   2.042   8.702 -0.3198  0.0237  0.4539
 9258SOL    HW139233   2.407   1.982   8.628  0.8668  1.3900 -0.5980
 9258SOL    HW239234   2.478   2.098   8.682 -3.0353  2.6630 -2.2538
 9259SOL     OW39235   2.543   0.995   5.496  0.3462  0.3248 -0.2138
 9259SOL    HW139236   2.491   1.070   5.527 -1.7238 -1.3479  0.3892
 9259SOL    HW239237   2.537   0.923   5.559 -0.4079  0.9367  0.4094
 9260SOL     OW39238   0.244   3.907   9.677 -0.4435 -0.3505  0.1049
 9260SOL    HW139239   0.202   3.825   9.704 -0.0302  0.0145  1.8752
 9260SOL    HW239240   0.237   3.957   9.759 -0.4389 -1.4520  0.7823
 9261SOL     OW39241   1.843   3.972   2.368 -0.4019  0.3992  0.1302
 9261SOL    HW139242   1.827   4.049   2.424  0.6619  0.1150  0.8049
 9261SOL    HW239243   1.892   3.909   2.420 -0.4875 -0.4124 -0.7812
 9262SOL     OW39244   1.140   1.128   2.079  0.3053 -0.0258 -0.1883
 9262SOL    HW139245   1.087   1.153   2.155 -0.0413 -1.3398  0.0117
 9262SOL    HW239246   1.126   1.034   2.066  0.6952 -0.2874  1.2854
 9263SOL     OW39247   3.283   4.214  17.527 -0.0528 -0.3683 -0.1014
 9263SOL    HW139248   3.321   4.148  17.586 -0.2101  1.0171  1.5587
 9263SOL    HW239249   3.356   4.275  17.531 -0.0584 -0.3551 -0.2242
 9264SOL     OW39250   0.843   3.774   8.776  0.0820  0.2143 -0.2207
 9264SOL    HW139251   0.863   3.783   8.869 -0.6607  0.4788 -0.0890
 9264SOL    HW239252   0.759   3.820   8.771 -0.0075  0.1338  0.5536
 9265SOL     OW39253   4.244   1.175   1.975  0.7080 -0.5861 -0.1107
 9265SOL    HW139254   4.329   1.132   1.965  0.0025 -2.0790  0.2457
 9265SOL    HW239255   4.190   1.120   1.918 -1.2116  0.2526  0.9064
 9266SOL     OW39256   0.419   3.188  12.928 -0.2539  0.1443 -0.5014
 9266SOL    HW139257   0.399   3.278  12.953  0.4086  0.0602  0.3319
 9266SOL    HW239258   0.454   3.160  13.012  2.4220  1.8428 -1.0423
 9267SOL     OW39259   0.468   3.686  11.930  0.7705 -0.3390  0.7112
 9267SOL    HW139260   0.448   3.767  11.977  1.5309  0.7321 -0.7992
 9267SOL    HW239261   0.388   3.663  11.882  0.3135  1.0382  0.8290
 9268SOL     OW39262   3.811   0.237   5.571  0.4400 -0.6260  0.4025
 9268SOL    HW139263   3.898   0.257   5.605  0.5030 -0.1544 -0.0501
 9268SOL    HW239264   3.811   0.294   5.495 -0.2245 -1.4454 -0.2158
 9269SOL     OW39265   0.401   0.687  10.735 -0.1154  0.4975  0.4062
 9269SOL    HW139266   0.386   0.619  10.800 -2.8270 -0.6966 -1.4448
 9269SOL    HW239267   0.486   0.723  10.759 -0.5320  0.5473  1.8255
 9270SOL     OW39268   2.403   2.806  16.002 -0.2418  0.1043 -0.2011
 9270SOL    HW139269   2.411   2.896  16.035  0.3514 -0.0913  0.1769
 9270SOL    HW239270   2.468   2.796  15.933 -1.9067  4.4803 -2.4318
 9271SOL     OW39271   0.433   1.356   6.852  0.7754  0.6362 -0.2029
 9271SOL    HW139272   0.365   1.420   6.872  1.9580  1.1287  2.2489
 9271SOL    HW239273   0.509   1.406   6.883  0.0751  1.0436  0.8515
 9272SOL     OW39274   4.453   3.693  16.727 -0.3962 -0.1037 -0.2754
 9272SOL    HW139275   4.522   3.643  16.684  1.0901  0.0670  1.9192
 9272SOL    HW239276   4.490   3.723  16.810 -0.1292  0.2253 -0.5117
 9273SOL     OW39277   2.687   3.387   7.985 -0.5463 -0.0134 -0.4720
 9273SOL    HW139278   2.624   3.436   7.932 -1.3312  1.1348  1.5323
 9273SOL    HW239279   2.762   3.386   7.925 -0.2160  2.5765 -0.0998
 9274SOL     OW39280   0.314   1.343   7.145  0.5004  0.0146 -0.1796
 9274SOL    HW139281   0.332   1.377   7.233  1.1520  1.4553 -0.8596
 9274SOL    HW239282   0.399   1.305   7.122 -0.5664 -2.3166 -0.1546
 9275SOL     OW39283   0.775   4.058   4.677  0.1511  0.1981 -0.4838
 9275SOL    HW139284   0.771   4.060   4.773  1.5418 -2.8659 -0.3940
 9275SOL    HW239285   0.754   3.969   4.651  0.8073 -0.6161  1.7351
 9276SOL     OW39286   4.608   3.624   0.050 -0.0796 -0.0108 -0.0289
 9276SOL    HW139287   4.624   3.647   0.142  0.5029  0.1656 -0.1714
 9276SOL    HW239288   4.540   3.558   0.057  0.1469 -0.2784 -0.3318
 9277SOL     OW39289   4.111   2.768   2.943  0.0661 -0.0358  0.5465
 9277SOL    HW139290   4.144   2.749   3.031  0.5337  2.2817  0.8689
 9277SOL    HW239291   4.121   2.681   2.903  1.1631  0.6167 -0.6177
 9278SOL     OW39292   2.014   1.687  13.143  0.2388  0.1541  0.2672
 9278SOL    HW139293   2.097   1.708  13.099  0.5576 -2.4350 -0.3444
 9278SOL    HW239294   2.040   1.637  13.220  1.9471 -0.1052 -0.4668
 9279SOL     OW39295   2.926   3.874   8.495  0.1859 -0.3344 -0.5004
 9279SOL    HW139296   2.833   3.867   8.474  0.3438 -2.1256 -0.5964
 9279SOL    HW239297   2.950   3.947   8.439  0.7785 -1.2528 -1.4562
 9280SOL     OW39298   3.938   3.225   4.716  0.2815 -0.1056 -0.2093
 9280SOL    HW139299   4.024   3.244   4.754 -0.3103 -1.2121  1.7004
 9280SOL    HW239300   3.918   3.142   4.761  1.7998 -0.6792 -0.6037
 9281SOL     OW39301   0.943   3.111   3.782 -0.2913 -0.0312 -0.1760
 9281SOL    HW139302   0.864   3.131   3.831 -1.0084 -0.2607 -1.2270
 9281SOL    HW239303   0.964   3.030   3.828  2.5159  0.7387 -0.0903
 9282SOL     OW39304   4.579   3.728   7.714  0.2111  0.3986 -0.6179
 9282SOL    HW139305   4.546   3.646   7.750 -1.7809  2.1347  1.5380
 9282SOL    HW239306   4.609   3.695   7.629 -0.6761  0.6297 -1.0221
 9283SOL     OW39307   3.785   4.084   3.435 -0.7224 -0.8575  0.4571
 9283SOL    HW139308   3.705   4.034   3.454  0.1943 -1.8826  1.6724
 9283SOL    HW239309   3.847   4.031   3.485  0.8927  0.1390 -0.5070
 9284SOL     OW39310   0.724   0.082   4.312  0.0718 -0.0774  0.2170
 9284SOL    HW139311   0.815   0.057   4.325  0.5939  1.6983 -0.0767
 9284SOL    HW239312   0.699   0.062   4.402 -0.7875 -0.8187 -0.1808
 9285SOL     OW39313   1.070   3.293   6.909  0.0739 -0.3037 -0.1644
 9285SOL    HW139314   1.109   3.206   6.922  1.6875  0.6435  1.4739
 9285SOL    HW239315   1.023   3.282   6.992 -1.1337 -2.0926 -1.0744
 9286SOL     OW39316   2.115   0.282  14.381  0.4160  0.4187  0.7252
 9286SOL    HW139317   2.133   0.320  14.296  1.2515 -0.7042  0.3954
 9286SOL    HW239318   2.026   0.297  14.414  0.9049 -1.2622  2.8270
 9287SOL     OW39319   2.759   2.370   2.881 -0.2093 -0.1978  0.5487
 9287SOL    HW139320   2.847   2.353   2.845  0.1160 -3.4320  2.8374
 9287SOL    HW239321   2.722   2.444   2.832  0.6972  0.0959  0.2968
 9288SOL     OW39322   4.033   3.791  10.443  0.4879 -0.2129  0.0262
 9288SOL    HW139323   4.096   3.749  10.384  0.8659 -0.1011  0.3497
 9288SOL    HW239324   3.975   3.825  10.375  0.9108  1.3667  0.4610
 9289SOL     OW39325   4.304   4.527   8.214 -0.2260  0.3561  0.0578
 9289SOL    HW139326   4.286   4.571   8.131  0.8282 -0.8782 -0.8221
 9289SOL    HW239327   4.213   4.499   8.224 -0.6980  1.2297 -1.8435
 9290SOL     OW39328   0.524   1.430   4.776  0.1293  0.3610  0.0967
 9290SOL    HW139329   0.503   1.354   4.830 -0.4648 -0.2426 -1.0006
 9290SOL    HW239330   0.515   1.507   4.832  1.5537 -0.2184  1.1329
 9291SOL     OW39331   4.331   0.534   7.532 -0.2215  0.2715 -0.1911
 9291SOL    HW139332   4.269   0.605   7.513 -0.6449  0.1994  0.9317
 9291SOL    HW239333   4.331   0.528   7.628 -1.9591 -1.4762 -0.2963
 9292SOL     OW39334   3.546   1.240   3.669  0.0438 -0.4585  0.2702
 9292SOL    HW139335   3.626   1.187   3.662  0.6889  0.5167  0.3858
 9292SOL    HW239336   3.581   1.319   3.709 -0.4309  0.7227 -1.6593
 9293SOL     OW39337   0.667   4.410   7.098 -0.1645  0.0085 -0.5804
 9293SOL    HW139338   0.623   4.328   7.075  0.9019  0.0644 -2.8778
 9293SOL    HW239339   0.753   4.381   7.127 -1.0109 -0.4862  1.3995
 9294SOL     OW39340   1.844   3.986  17.410 -0.3176 -0.6613 -0.3758
 9294SOL    HW139341   1.810   3.957  17.326  0.1184  0.8212 -1.0669
 9294SOL    HW239342   1.927   3.939  17.418  1.1615  1.6442 -2.1463
 9295SOL     OW39343   3.147   4.033   4.113 -0.2333  0.4388  0.1502
 9295SOL    HW139344   3.143   4.116   4.160  0.6157 -0.6164  2.0360
 9295SOL    HW239345   3.223   4.056   4.060  0.2227 -1.3114  0.0660
 9296SOL     OW39346   0.881   1.128  10.337  0.1270  0.3094 -0.0840
 9296SOL    HW139347   0.822   1.203  10.336  0.1152  0.2907 -2.0413
 9296SOL    HW239348   0.897   1.120  10.243  0.1500 -0.3268 -0.0272
 9297SOL     OW39349   3.008   0.446  11.711  0.3587 -0.6511 -0.6328
 9297SOL    HW139350   2.947   0.447  11.637 -0.0562  2.7270 -0.2734
 9297SOL    HW239351   3.039   0.356  11.701 -0.5084 -1.0285  0.1786
 9298SOL     OW39352   4.181   2.349  12.560  0.7922 -0.1753 -0.0340
 9298SOL    HW139353   4.249   2.364  12.494 -1.5231  1.9283 -1.9677
 9298SOL    HW239354   4.177   2.435  12.603  0.4770  1.1203 -2.6726
 9299SOL     OW39355   1.087   4.062   2.311  0.3828  0.4891 -0.0786
 9299SOL    HW139356   1.107   4.022   2.227  1.7172 -0.3284  0.6285
 9299SOL    HW239357   0.992   4.047   2.310  0.3632  0.4579  1.6323
 9300SOL     OW39358   3.875   1.970   7.570  0.3453 -0.3741  0.4197
 9300SOL    HW139359   3.817   2.045   7.554  1.6059  0.5848  0.3691
 9300SOL    HW239360   3.875   1.929   7.484 -1.5005  0.7633 -0.1507
 9301SOL     OW39361   4.057   1.882   7.858  0.0567  0.1143 -0.3559
 9301SOL    HW139362   3.970   1.845   7.846 -1.0525  2.5128  0.4368
 9301SOL    HW239363   4.109   1.803   7.878 -1.8317 -0.7495  1.0929
 9302SOL     OW39364   2.872   0.658   4.615  0.1909  0.7409  0.0558
 9302SOL    HW139365   2.964   0.669   4.642  0.5185 -0.2138 -0.6696
 9302SOL    HW239366   2.853   0.566   4.634 -0.8115  0.6441 -1.4306
 9303SOL     OW39367   4.123   0.322   4.628 -0.0317 -0.5969  0.0430
 9303SOL    HW139368   4.123   0.373   4.547 -1.1012  0.7179  0.8793
 9303SOL    HW239369   4.034   0.287   4.630 -0.2831 -0.0242 -1.1018
 9304SOL     OW39370   0.655   2.922   3.809  0.0357 -0.2344  0.3574
 9304SOL    HW139371   0.563   2.914   3.782  0.6806  0.6694 -2.0566
 9304SOL    HW239372   0.657   3.011   3.845 -1.5452  0.9182 -2.3902
 9305SOL     OW39373   4.209   0.432   4.192  0.1269 -0.2502  0.1617
 9305SOL    HW139374   4.156   0.451   4.115 -1.3325 -0.6257  1.0646
 9305SOL    HW239375   4.224   0.340   4.175  1.0457  0.2020 -1.4761
 9306SOL     OW39376   2.409   3.025   4.561  0.1627  0.2287 -0.5817
 9306SOL    HW139377   2.321   2.998   4.535 -0.2030 -2.1607  3.2858
 9306SOL    HW239378   2.401   3.120   4.554  0.0688  0.3770  1.7525
 9307SOL     OW39379   3.064   0.929   6.164  0.4022 -0.3283 -0.2390
 9307SOL    HW139380   3.004   0.997   6.196  0.3973  1.6121 -4.3582
 9307SOL    HW239381   3.151   0.954   6.196  1.3264 -2.0493 -1.4702
 9308SOL     OW39382   4.380   2.510   6.732  0.3909  0.1877 -0.2990
 9308SOL    HW139383   4.415   2.435   6.780 -1.5876 -0.6350 -0.1619
 9308SOL    HW239384   4.331   2.466   6.662 -0.1460 -0.1414  0.2906
 9309SOL     OW39385   0.730   4.123  17.268  0.3756 -0.0434 -0.0942
 9309SOL    HW139386   0.744   4.126  17.363  0.8843 -1.2514 -0.1350
 9309SOL    HW239387   0.758   4.033  17.252  0.2177 -0.1191  0.0594
 9310SOL     OW39388   4.157   0.346   5.111 -0.2056 -0.1420 -0.3525
 9310SOL    HW139389   4.219   0.412   5.078 -0.8892  0.3223 -0.7168
 9310SOL    HW239390   4.151   0.293   5.032  1.6828 -1.8713  0.6623
 9311SOL     OW39391   1.813   2.548  10.097  0.1745 -0.2593 -0.1169
 9311SOL    HW139392   1.898   2.559  10.139  0.0283 -0.7492  0.3033
 9311SOL    HW239393   1.764   2.542  10.179  0.0582  0.8150 -0.1101
 9312SOL     OW39394   2.571   0.315  17.577 -0.1324 -0.2327  0.3191
 9312SOL    HW139395   2.495   0.328  17.519  2.4674  0.6390 -2.9083
 9312SOL    HW239396   2.537   0.340  17.663  0.3950 -1.1334  0.7782
 9313SOL     OW39397   2.070   0.101   3.797 -0.3746  0.0152  0.4258
 9313SOL    HW139398   2.002   0.033   3.791  0.1399 -0.5397  0.9414
 9313SOL    HW239399   2.089   0.111   3.704  0.7242 -3.5440  0.2597
 9314SOL     OW39400   3.243   3.104   0.810  0.0764  0.0689  1.3020
 9314SOL    HW139401   3.235   3.024   0.758 -1.2796  1.0635 -0.0287
 9314SOL    HW239402   3.334   3.089   0.835  0.3351 -0.3013  0.0966
 9315SOL     OW39403   1.901   3.480   6.674  0.3033  0.7219  0.5051
 9315SOL    HW139404   1.978   3.536   6.668  0.8086 -0.1053 -0.8306
 9315SOL    HW239405   1.936   3.409   6.620 -1.6357  0.6184 -0.6074
 9316SOL     OW39406   3.264   3.827   4.292 -0.4185  0.6953 -0.0676
 9316SOL    HW139407   3.229   3.800   4.377 -2.9591 -0.6259 -1.5280
 9316SOL    HW239408   3.184   3.831   4.239  1.0910  1.2475 -2.2917
 9317SOL     OW39409   1.074   3.602   8.880 -0.1955 -0.0801  0.1342
 9317SOL    HW139410   1.001   3.636   8.931 -0.3974  1.4074 -1.1577
 9317SOL    HW239411   1.063   3.636   8.791  2.5495  1.8626  0.5424
 9318SOL     OW39412   3.745   3.700  13.760 -0.6000  0.5738  0.1155
 9318SOL    HW139413   3.736   3.605  13.749  2.0453 -0.0106  3.0638
 9318SOL    HW239414   3.685   3.721  13.831 -0.1588  0.4930  0.5080
 9319SOL     OW39415   0.020   3.566   7.978  0.1757  0.2906  0.3329
 9319SOL    HW139416   4.715   3.643   7.928  1.6830  0.4277 -0.2924
 9319SOL    HW239417   0.010   3.492   7.918  1.0535  0.3132  0.1666
 9320SOL     OW39418   1.372   2.508  12.145 -0.5077 -0.1937  0.5193
 9320SOL    HW139419   1.399   2.599  12.145 -0.2883 -0.2671 -1.8039
 9320SOL    HW239420   1.310   2.506  12.219 -1.5474 -1.1411 -0.3651
 9321SOL     OW39421   0.028   2.442   4.796  0.4761 -0.0094 -0.2040
 9321SOL    HW139422   4.676   2.499   4.776  0.6524 -0.5505 -2.3733
 9321SOL    HW239423   0.105   2.489   4.764  1.4431 -2.3145 -1.2587
 9322SOL     OW39424   0.329   4.000   1.328 -0.1675  0.0345 -0.1819
 9322SOL    HW139425   0.263   3.955   1.381 -0.7546  0.5761 -0.4477
 9322SOL    HW239426   0.401   3.981   1.388 -2.0735 -1.9495  1.4573
 9323SOL     OW39427   0.431   3.820  14.699 -0.4090  0.1301  0.7905
 9323SOL    HW139428   0.425   3.765  14.777 -1.9082 -1.5678 -0.5089
 9323SOL    HW239429   0.412   3.904  14.738  1.3108  0.3587  1.1519
 9324SOL     OW39430   4.008   3.942   3.523 -0.0336  0.0279  0.8674
 9324SOL    HW139431   4.097   3.979   3.525 -0.0160 -0.0261  1.0779
 9324SOL    HW239432   4.027   3.862   3.475 -0.5417 -0.3505  1.3050
 9325SOL     OW39433   3.358   3.635   7.610 -0.1062 -0.6850 -0.2694
 9325SOL    HW139434   3.402   3.673   7.686 -1.2958 -1.1771  0.6519
 9325SOL    HW239435   3.334   3.544   7.630  0.7253 -0.9957 -0.6780
 9326SOL     OW39436   2.299   2.197   9.080 -0.3799  0.3924 -0.0284
 9326SOL    HW139437   2.336   2.160   9.160 -0.5224 -1.0836 -0.6512
 9326SOL    HW239438   2.208   2.219   9.103 -0.2278 -1.6988  2.6415
 9327SOL     OW39439   1.633   3.361   6.634 -0.1027 -0.2550 -0.0301
 9327SOL    HW139440   1.666   3.438   6.587  1.2093 -0.6578  0.2276
 9327SOL    HW239441   1.635   3.375   6.729  1.1106  0.3624 -0.1476
 9328SOL     OW39442   1.031   0.675   9.646  0.1208 -0.2243  0.6629
 9328SOL    HW139443   0.991   0.639   9.567  1.5073  0.2110 -0.2176
 9328SOL    HW239444   1.014   0.769   9.640 -0.6026 -0.1738  3.1821
 9329SOL     OW39445   4.288   2.428  15.709 -0.0398 -0.2152  0.5841
 9329SOL    HW139446   4.207   2.461  15.670  0.3255  0.5371  0.4651
 9329SOL    HW239447   4.333   2.388  15.634 -0.4955 -0.8410  0.6410
 9330SOL     OW39448   4.401   1.292   4.840  0.0334  0.1668  0.1464
 9330SOL    HW139449   4.411   1.202   4.869 -0.1131 -0.5335 -1.9297
 9330SOL    HW239450   4.428   1.342   4.917  0.0073 -2.1623  1.6602
 9331SOL     OW39451   4.179   4.665  12.300 -0.3532  0.7256  0.0260
 9331SOL    HW139452   4.204   0.028  12.336 -0.7415  1.4319 -1.3754
 9331SOL    HW239453   4.255   4.653  12.243 -0.5817  2.2131 -0.5847
 9332SOL     OW39454   1.395   2.271   2.577 -0.1657 -0.3306 -0.5097
 9332SOL    HW139455   1.433   2.351   2.614 -0.9521 -0.6947  1.1008
 9332SOL    HW239456   1.320   2.306   2.528  1.2272  1.7271 -1.1405
 9333SOL     OW39457   4.344   1.905  16.664  0.2833  0.5204  0.2588
 9333SOL    HW139458   4.283   1.834  16.646  0.5863 -0.4230  2.9325
 9333SOL    HW239459   4.350   1.893  16.758  0.4382  2.7927  0.5393
 9334SOL     OW39460   4.575   0.435  16.237 -0.1652  0.4256  0.6421
 9334SOL    HW139461   4.574   0.375  16.312  2.3433 -1.1438 -0.5722
 9334SOL    HW239462   4.499   0.406  16.188 -0.3889 -1.4655  2.1098
 9335SOL     OW39463   1.135   0.474  11.594 -0.0761 -0.2840  0.0324
 9335SOL    HW139464   1.118   0.513  11.680  1.4840  0.2496  0.1079
 9335SOL    HW239465   1.229   0.485  11.607 -0.5910  0.6416  3.0918
 9336SOL     OW39466   3.402   4.697   6.332  0.3882  0.1496  0.0382
 9336SOL    HW139467   3.316   4.688   6.373  1.0818 -1.1503  1.2265
 9336SOL    HW239468   3.458   4.639   6.384 -2.9566 -1.9993  1.2125
 9337SOL     OW39469   4.213   4.235   7.113  0.5349  0.2422  0.4323
 9337SOL    HW139470   4.204   4.314   7.059  0.5737  0.6554  1.0318
 9337SOL    HW239471   4.239   4.279   7.194  1.9067  1.0125 -0.4219
 9338SOL     OW39472   3.720   2.101   5.122  0.3360  0.0809 -0.2539
 9338SOL    HW139473   3.645   2.132   5.070  0.4883 -0.2915 -0.7000
 9338SOL    HW239474   3.687   2.093   5.211  0.2329 -3.0747 -0.5995
 9339SOL     OW39475   3.036   3.537  12.641  0.0244  0.5178 -0.1826
 9339SOL    HW139476   3.015   3.620  12.683  1.3109  1.9949 -2.4476
 9339SOL    HW239477   3.126   3.539  12.674  0.2077  2.4136 -0.8214
 9340SOL     OW39478   1.177   3.829   7.112  0.0473  0.0327  0.0932
 9340SOL    HW139479   1.216   3.745   7.136 -1.3144 -0.8600 -0.8155
 9340SOL    HW239480   1.231   3.843   7.034 -0.7307 -0.4597 -0.5328
 9341SOL     OW39481   2.263   1.341  10.437 -0.2400  0.3277 -0.4017
 9341SOL    HW139482   2.348   1.298  10.439 -0.7700 -0.6270  1.1942
 9341SOL    HW239483   2.241   1.319  10.347  0.7502 -0.6768 -0.4073
 9342SOL     OW39484   3.839   0.166   9.003  0.6232 -0.5572 -0.7244
 9342SOL    HW139485   3.904   0.127   9.063  1.6731  1.6972 -0.4026
 9342SOL    HW239486   3.755   0.172   9.049  1.8397 -0.1389  1.4349
 9343SOL     OW39487   4.090   0.844  11.726  0.3591 -0.6106 -0.0373
 9343SOL    HW139488   4.029   0.776  11.697  1.6044 -0.9121 -1.9771
 9343SOL    HW239489   4.072   0.913  11.662 -2.4583 -2.1214 -0.8760
 9344SOL     OW39490   2.386   1.003   0.801 -0.6243  0.6191  0.0605
 9344SOL    HW139491   2.334   1.022   0.878  1.3386  0.3182  1.4527
 9344SOL    HW239492   2.427   0.920   0.827  0.9785  1.7609  1.1818
 9345SOL     OW39493   4.325   4.480   2.013  0.3521 -0.1550 -0.3106
 9345SOL    HW139494   4.390   4.538   2.053  3.4084 -1.6825 -3.0155
 9345SOL    HW239495   4.286   4.540   1.950  3.5566  0.9265 -1.2822
 9346SOL     OW39496   2.547   0.547  17.052 -0.3389  0.2059  0.4292
 9346SOL    HW139497   2.490   0.478  17.018 -0.0176  0.5336 -0.7360
 9346SOL    HW239498   2.604   0.554  16.976  1.5523  2.4284  2.0589
 9347SOL     OW39499   1.439   0.384   2.744  0.0980 -0.0499 -0.2044
 9347SOL    HW139500   1.378   0.451   2.714  1.3512  1.0903 -0.1676
 9347SOL    HW239501   1.381   0.343   2.809 -1.4163 -0.1825 -1.6406
 9348SOL     OW39502   2.736   2.796   3.351 -0.3341 -0.2324  0.1160
 9348SOL    HW139503   2.759   2.832   3.437 -2.9204 -2.9166  1.8943
 9348SOL    HW239504   2.821   2.792   3.306 -0.9074  0.6292 -1.0399
 9349SOL     OW39505   1.674   3.679   0.989  0.0152 -0.2801 -0.5721
 9349SOL    HW139506   1.633   3.761   1.014 -0.2109 -0.4580 -0.3565
 9349SOL    HW239507   1.747   3.680   1.051  0.5250 -1.7003 -1.1513
 9350SOL     OW39508   1.563   0.147   2.750  0.3408 -0.6533 -0.3888
 9350SOL    HW139509   1.519   0.232   2.749  0.1412 -0.7656 -1.2154
 9350SOL    HW239510   1.495   0.088   2.782 -0.9353  1.0161 -0.0236
 9351SOL     OW39511   1.670   2.103   3.331 -0.8843 -0.1722 -0.6875
 9351SOL    HW139512   1.694   2.072   3.244 -1.2258 -0.6968 -0.5968
 9351SOL    HW239513   1.724   2.048   3.388  0.3668  2.2636  0.4924
 9352SOL     OW39514   1.070   0.665  11.775 -0.8753 -0.2199  0.1599
 9352SOL    HW139515   1.097   0.754  11.796 -4.2874  1.3005 -1.8939
 9352SOL    HW239516   1.013   0.630  11.844 -0.7309  0.0630  0.4214
 9353SOL     OW39517   0.071   3.884   7.551  0.2637 -0.7866 -0.3543
 9353SOL    HW139518   0.060   3.794   7.522  2.0027 -2.1969  3.4121
 9353SOL    HW239519   0.090   3.914   7.462  0.0107 -0.5170 -0.3189
 9354SOL     OW39520   2.085   1.427   5.950 -0.7947 -0.1471 -0.0952
 9354SOL    HW139521   2.166   1.443   5.901 -0.6087  0.1275  0.3034
 9354SOL    HW239522   2.066   1.515   5.982 -2.0079 -0.1194 -0.8827
 9355SOL     OW39523   4.009   0.750   9.227  0.4265  0.1808  0.0292
 9355SOL    HW139524   3.958   0.713   9.299  0.1509 -0.9572 -0.7510
 9355SOL    HW239525   3.943   0.753   9.157  3.3536 -2.2030 -2.8591
 9356SOL     OW39526   3.651   0.791  11.906  0.1325 -0.2200  0.8070
 9356SOL    HW139527   3.624   0.700  11.891 -2.7036  0.4105  1.9582
 9356SOL    HW239528   3.575   0.826  11.953  0.2160 -0.1942  0.9233
 9357SOL     OW39529   2.496   4.322   3.715 -0.0286 -0.6294  0.1034
 9357SOL    HW139530   2.524   4.311   3.624 -1.2433 -2.6296 -0.0522
 9357SOL    HW239531   2.403   4.298   3.707 -0.7157  2.1061 -0.2165
 9358SOL     OW39532   3.558   2.442   4.047 -0.3077  0.7198 -0.2787
 9358SOL    HW139533   3.574   2.393   4.128  1.4796  2.5549  0.4667
 9358SOL    HW239534   3.556   2.370   3.984  1.9041 -1.8905  2.6382
 9359SOL     OW39535   0.999   0.323   7.093 -0.1242 -0.0267  0.6291
 9359SOL    HW139536   0.983   0.329   6.999 -1.4218  2.4590  1.0147
 9359SOL    HW239537   1.040   0.236   7.094  1.6282  0.7849 -1.2851
 9360SOL     OW39538   0.193   3.085  11.582  0.0889 -0.0018  0.1996
 9360SOL    HW139539   0.274   3.135  11.584  0.7292 -0.9176 -2.3131
 9360SOL    HW239540   0.229   2.997  11.570  1.9173  0.9713 -1.4788
 9361SOL     OW39541   0.036   1.423   7.202  0.2248  0.2330  0.1488
 9361SOL    HW139542   0.114   1.388   7.159  0.5654  2.6584 -1.1757
 9361SOL    HW239543   4.713   1.338   7.199  0.4740  0.1060 -0.0392
 9362SOL     OW39544   0.103   3.151  12.972 -0.0950  0.1169 -0.1531
 9362SOL    HW139545   0.022   3.126  13.017 -0.0817 -0.7953 -0.6359
 9362SOL    HW239546   0.100   3.246  12.968  0.3416  0.1670  0.6598
 9363SOL     OW39547   4.218   3.479   0.859  0.1894 -0.0323 -0.1799
 9363SOL    HW139548   4.208   3.440   0.946  1.2057 -1.8342 -0.8927
 9363SOL    HW239549   4.131   3.467   0.821 -1.2297 -0.2903  3.1423
 9364SOL     OW39550   2.032   4.071   9.971  0.6496  0.0385  0.3100
 9364SOL    HW139551   1.937   4.085   9.969  0.7505  0.3601 -2.7030
 9364SOL    HW239552   2.046   4.036  10.058 -0.5686 -0.7560  0.1897
 9365SOL     OW39553   2.109   1.235   0.841 -0.2481 -0.2287  0.0526
 9365SOL    HW139554   2.172   1.307   0.853 -2.6775  2.4607 -3.3498
 9365SOL    HW239555   2.139   1.212   0.753 -1.0022  2.6456 -0.9547
 9366SOL     OW39556   3.385   1.466   7.194 -0.3643 -0.3469 -0.1162
 9366SOL    HW139557   3.325   1.413   7.143  2.0100 -1.0812 -2.1325
 9366SOL    HW239558   3.471   1.447   7.157  0.3343  2.9932 -0.2436
 9367SOL     OW39559   0.158   0.974   9.221 -0.3037 -0.0089  0.2139
 9367SOL    HW139560   0.094   0.948   9.154 -0.1608 -0.6853  0.3378
 9367SOL    HW239561   0.107   1.009   9.293 -1.6368 -1.1624 -0.1629
 9368SOL     OW39562   2.923   0.985   4.545 -0.1619 -0.4775  0.0558
 9368SOL    HW139563   2.846   1.018   4.591  0.8365  1.0823  0.5761
 9368SOL    HW239564   2.992   0.982   4.611 -1.1322 -0.0687  1.0887
 9369SOL     OW39565   1.581   1.116   7.227 -1.1784 -0.2945  0.0107
 9369SOL    HW139566   1.592   1.024   7.249 -0.4622  0.2464  1.9042
 9369SOL    HW239567   1.602   1.112   7.134  2.8331 -1.8080  0.9692
 9370SOL     OW39568   1.480   1.833   4.483  0.1434  0.0190  0.1077
 9370SOL    HW139569   1.488   1.915   4.433  0.6584  0.2608  0.5927
 9370SOL    HW239570   1.573   1.811   4.491  0.0876 -0.6520 -1.0587
 9371SOL     OW39571   0.706   2.442   2.225 -0.6864  0.4004 -0.2176
 9371SOL    HW139572   0.671   2.510   2.167  0.9635 -0.1536 -1.8606
 9371SOL    HW239573   0.700   2.487   2.310 -1.6089  1.7212 -0.9723
 9372SOL     OW39574   4.711   1.364   4.422  0.3040  0.3191 -0.4182
 9372SOL    HW139575   4.662   1.312   4.486 -0.4710 -0.9639 -2.0545
 9372SOL    HW239576   4.669   1.331   4.343  0.1013 -1.5639  0.4734
 9373SOL     OW39577   1.042   2.818  13.806 -0.5098 -0.0460  0.2752
 9373SOL    HW139578   1.047   2.905  13.846 -1.9907  0.2715 -0.2648
 9373SOL    HW239579   1.082   2.772  13.880  0.7258  2.2808  1.0675
 9374SOL     OW39580   0.497   1.173  13.900 -0.6768  0.0823 -0.8060
 9374SOL    HW139581   0.577   1.211  13.936 -0.7142  0.5398 -1.1974
 9374SOL    HW239582   0.432   1.229  13.943  0.8916 -0.4120  2.1631
 9375SOL     OW39583   0.658   0.503   6.741 -0.0689  0.5390 -0.0879
 9375SOL    HW139584   0.681   0.448   6.816 -0.3991  0.8990  0.2775
 9375SOL    HW239585   0.741   0.549   6.729 -0.2125  0.2251 -2.2641
 9376SOL     OW39586   3.219   0.409   9.287  0.0052 -0.2666 -0.0186
 9376SOL    HW139587   3.164   0.482   9.315  1.1355  0.7994 -0.5733
 9376SOL    HW239588   3.217   0.422   9.192  1.0562  0.5289  0.0713
 9377SOL     OW39589   1.293   3.350   3.213  0.0590  0.0448 -0.7316
 9377SOL    HW139590   1.337   3.420   3.164  0.3187 -0.3170 -1.0054
 9377SOL    HW239591   1.301   3.386   3.301 -0.0893 -1.7367  0.0059
 9378SOL     OW39592   0.360   0.040   6.273  0.0004  1.1187 -0.2539
 9378SOL    HW139593   0.375   4.676   6.235  0.1158  1.2690 -0.5523
 9378SOL    HW239594   0.444   0.084   6.259 -0.7768  2.0785 -1.8095
 9379SOL     OW39595   2.388   2.828   9.780 -0.0588  0.3650 -0.2208
 9379SOL    HW139596   2.340   2.867   9.707  0.4570  0.7522 -0.3528
 9379SOL    HW239597   2.333   2.774   9.837  2.3295 -1.8368 -0.0057
 9380SOL     OW39598   3.593   0.279   2.879  0.3459  0.4989  0.2903
 9380SOL    HW139599   3.590   0.349   2.945 -0.3430  0.3457  0.4209
 9380SOL    HW239600   3.688   0.282   2.865  0.7058 -1.8618  2.3000
 9381SOL     OW39601   0.345   1.408   2.560  0.2197 -0.3085  0.1120
 9381SOL    HW139602   0.313   1.495   2.584  0.4933 -0.8110  2.2877
 9381SOL    HW239603   0.419   1.439   2.507 -2.8543  2.3639 -2.7001
 9382SOL     OW39604   2.628   1.556   3.356 -0.0625 -0.8828  0.1548
 9382SOL    HW139605   2.621   1.492   3.427  1.4241 -0.6501  0.5103
 9382SOL    HW239606   2.663   1.510   3.280  1.0076 -0.8341  0.6230
 9383SOL     OW39607   0.536   1.860   2.529 -0.4518  0.3514  0.1353
 9383SOL    HW139608   0.462   1.914   2.499 -0.3060 -0.1446 -1.1321
 9383SOL    HW239609   0.569   1.864   2.439  0.4696  0.0137  0.4670
 9384SOL     OW39610   2.323   3.837   2.963  0.4873 -0.4516 -0.0733
 9384SOL    HW139611   2.271   3.763   2.932  0.5895 -0.2540 -0.7026
 9384SOL    HW239612   2.413   3.806   2.960  1.3807  1.9858  1.5940
 9385SOL     OW39613   2.728   2.969   7.828  0.2471 -0.1667 -0.4788
 9385SOL    HW139614   2.776   2.990   7.748 -0.1769  0.6318 -0.5219
 9385SOL    HW239615   2.674   3.047   7.822  0.8676  0.3455  0.6266
 9386SOL     OW39616   3.025   4.609   3.773 -0.4049 -0.3207 -0.6236
 9386SOL    HW139617   2.963   4.677   3.747 -0.2880  0.4313  1.0275
 9386SOL    HW239618   2.976   4.550   3.831  0.3217 -0.9063 -0.5991
 9387SOL     OW39619   2.094   2.958  17.373  0.0256 -0.5435  0.3862
 9387SOL    HW139620   2.124   2.907  17.297 -0.2431 -1.0209  0.6049
 9387SOL    HW239621   2.175   2.973  17.423  1.0616  0.3304 -1.5290
 9388SOL     OW39622   2.099   2.557   0.707  0.4276  0.0460  0.3914
 9388SOL    HW139623   2.142   2.564   0.792 -1.1946 -1.1242  1.3157
 9388SOL    HW239624   2.011   2.537   0.739  0.7207 -1.5594  0.1686
 9389SOL     OW39625   3.059   2.801  16.205 -0.2038 -0.5881 -0.5222
 9389SOL    HW139626   3.093   2.881  16.164 -0.2401 -0.5677 -0.5120
 9389SOL    HW239627   2.996   2.764  16.142 -1.6503  1.2032 -0.1183
 9390SOL     OW39628   3.611   2.858   3.652  0.0587  0.1463  0.6806
 9390SOL    HW139629   3.689   2.844   3.597 -0.6730 -1.1141 -0.0228
 9390SOL    HW239630   3.595   2.771   3.688 -1.7841  0.0761 -0.3011
 9391SOL     OW39631   1.142   2.076   8.494  0.5673 -0.4597  0.6035
 9391SOL    HW139632   1.152   2.167   8.466  1.9251 -0.7742  0.0825
 9391SOL    HW239633   1.052   2.066   8.462  0.5650 -1.1182  0.8034
 9392SOL     OW39634   2.288   3.658   8.889  1.0799  0.1382  0.4154
 9392SOL    HW139635   2.203   3.625   8.916  1.3602  1.4482  2.8463
 9392SOL    HW239636   2.347   3.593   8.927  0.2697 -1.2894 -0.7605
 9393SOL     OW39637   3.982   0.757   2.706  0.3512 -0.5604 -0.0715
 9393SOL    HW139638   4.032   0.677   2.687 -0.3717 -0.8452 -0.7709
 9393SOL    HW239639   3.892   0.728   2.724  0.0979 -0.1359 -0.6433
 9394SOL     OW39640   3.228   2.966   7.319  0.0788  0.0523 -0.3046
 9394SOL    HW139641   3.312   2.973   7.273 -0.5882 -1.4072 -1.7421
 9394SOL    HW239642   3.202   3.058   7.329 -0.5064 -0.2397  0.7577
 9395SOL     OW39643   1.823   2.577   9.225 -0.4596  0.4497  0.4371
 9395SOL    HW139644   1.859   2.512   9.286  2.5301  0.0956 -1.7271
 9395SOL    HW239645   1.814   2.644   9.293 -1.4883  0.0842  0.6543
 9396SOL     OW39646   1.021   2.812   2.434  0.1655 -0.1095 -0.1781
 9396SOL    HW139647   0.967   2.763   2.496 -1.9258  0.9523 -1.1501
 9396SOL    HW239648   0.969   2.887   2.407 -0.7625 -0.1549  1.4988
 9397SOL     OW39649   3.192   4.318   2.122  0.0992 -0.0395  0.2773
 9397SOL    HW139650   3.212   4.370   2.044 -1.0357  3.5803  2.3937
 9397SOL    HW239651   3.261   4.253   2.110  0.7862  0.5815  0.8024
 9398SOL     OW39652   2.881   4.720   4.304 -0.3855 -0.3687  0.7245
 9398SOL    HW139653   2.827   4.684   4.234 -1.8680 -0.4694  1.9381
 9398SOL    HW239654   2.964   4.711   4.257 -0.7795  0.4074 -0.1133
 9399SOL     OW39655   0.428   0.528   2.532  0.1304  0.4057  0.0667
 9399SOL    HW139656   0.373   0.491   2.463  1.2628  2.4295 -1.8989
 9399SOL    HW239657   0.494   0.582   2.490 -1.5008  0.4594 -2.4675
 9400SOL     OW39658   3.899   3.920   6.161 -0.4738 -0.2991  0.0820
 9400SOL    HW139659   3.884   4.007   6.123  0.4359  0.0445  0.5137
 9400SOL    HW239660   3.840   3.932   6.235 -1.5530 -0.3404 -0.7516
 9401SOL     OW39661   1.546   1.182   4.647 -0.1556  0.0334  0.1559
 9401SOL    HW139662   1.485   1.182   4.721 -2.3646 -1.2303 -1.6602
 9401SOL    HW239663   1.505   1.106   4.606  0.3006 -1.0240  1.6529
 9402SOL     OW39664   1.641   2.777   4.070  0.3639 -0.1178 -0.3852
 9402SOL    HW139665   1.635   2.787   3.975 -1.7205 -0.7226 -0.3240
 9402SOL    HW239666   1.654   2.866   4.103  0.4942 -0.1127 -0.4510
 9403SOL     OW39667   2.328   2.400   2.037 -0.4808 -0.2589 -0.8104
 9403SOL    HW139668   2.326   2.401   1.941 -0.8326 -1.7142 -0.8245
 9403SOL    HW239669   2.379   2.320   2.050 -0.8399 -0.2686  0.5320
 9404SOL     OW39670   1.164   3.501   9.863 -0.3064  0.1353  0.2983
 9404SOL    HW139671   1.245   3.523   9.909  2.1088 -2.0882 -2.8830
 9404SOL    HW239672   1.145   3.585   9.822 -1.4414 -0.1114  0.3050
 9405SOL     OW39673   3.936   3.434   4.048 -0.2721 -0.3006  0.8715
 9405SOL    HW139674   3.871   3.490   4.092  0.4017  1.6917 -0.6739
 9405SOL    HW239675   3.945   3.470   3.960  0.9801 -1.2250  0.6266
 9406SOL     OW39676   2.792   3.359   7.706  0.2247  0.5289  0.0425
 9406SOL    HW139677   2.870   3.368   7.651  0.5314  0.9583  0.5463
 9406SOL    HW239678   2.747   3.443   7.713  3.3863  2.1899 -0.0658
 9407SOL     OW39679   1.690   3.895   3.634 -0.3906  0.3625  0.2620
 9407SOL    HW139680   1.646   3.841   3.568  2.1544  1.1430 -2.0581
 9407SOL    HW239681   1.770   3.846   3.652 -0.4958  0.1974  0.2817
 9408SOL     OW39682   3.259   3.130   4.135 -0.2743 -0.7582 -0.5712
 9408SOL    HW139683   3.264   3.050   4.188 -0.3032  0.7276  1.6982
 9408SOL    HW239684   3.267   3.098   4.045  0.9034  0.0587 -0.7474
 9409SOL     OW39685   3.967   4.259   9.460  0.3677 -0.1668  0.0059
 9409SOL    HW139686   4.046   4.247   9.407  0.4811 -0.3320  0.2105
 9409SOL    HW239687   3.923   4.316   9.397  0.1396 -2.1215 -1.5781
 9410SOL     OW39688   3.945   4.020  11.439 -0.2905 -0.6409 -0.1162
 9410SOL    HW139689   4.020   4.022  11.379  0.3064  1.4897  0.6911
 9410SOL    HW239690   3.905   4.105  11.423 -0.1724 -0.5015  0.3241
 9411SOL     OW39691   3.487   3.005   7.214 -0.3273 -0.1032  0.5113
 9411SOL    HW139692   3.560   3.009   7.277 -0.7254 -0.2710  0.9865
 9411SOL    HW239693   3.489   2.910   7.201 -0.8112 -0.0613  0.1638
 9412SOL     OW39694   0.349   1.390   6.529  0.1165  0.7136 -0.4428
 9412SOL    HW139695   0.300   1.471   6.537  1.2258  1.2558  0.7901
 9412SOL    HW239696   0.431   1.424   6.492 -0.7063  1.5831 -1.4729
 9413SOL     OW39697   3.099   3.155  12.631  0.3568  0.0887  0.1101
 9413SOL    HW139698   3.096   3.204  12.712  0.7177 -0.9968  0.7798
 9413SOL    HW239699   3.109   3.063  12.658 -1.9656 -0.2550 -0.2281
 9414SOL     OW39700   0.081   0.132   6.883 -0.5526  0.7111 -0.6370
 9414SOL    HW139701   0.044   0.160   6.799 -0.0678  3.6699  0.1438
 9414SOL    HW239702   0.141   0.205   6.898 -2.4127  1.9446  0.8085
 9415SOL     OW39703   1.292   2.929  13.038 -0.3264  0.0606 -0.0508
 9415SOL    HW139704   1.278   3.006  12.983  1.7726  0.7696  0.3777
 9415SOL    HW239705   1.264   2.969  13.120  0.1787  0.9183 -0.2908
 9416SOL     OW39706   1.331   2.136   8.905  0.3696 -0.0134  0.2363
 9416SOL    HW139707   1.259   2.197   8.921  1.7556  2.1516 -1.8349
 9416SOL    HW239708   1.286   2.066   8.858  0.3921 -0.0024  0.1983
 9417SOL     OW39709   2.043   3.809   6.070 -0.3587  0.1854  0.1828
 9417SOL    HW139710   2.017   3.742   6.007 -1.7923 -0.5631  1.5890
 9417SOL    HW239711   1.973   3.872   6.055  0.7097  1.8131  1.9284
 9418SOL     OW39712   1.985   3.196   9.227 -0.0932 -0.5110  0.2343
 9418SOL    HW139713   1.912   3.211   9.167 -0.3366 -2.6274 -0.0054
 9418SOL    HW239714   1.953   3.239   9.307  1.3464  1.4899 -0.2925
 9419SOL     OW39715   2.954   1.686  16.979 -1.1783  0.2108  0.4964
 9419SOL    HW139716   2.989   1.669  16.892  0.4529 -0.9515  1.3947
 9419SOL    HW239717   3.004   1.635  17.042 -1.7621 -1.0639 -0.0742
 9420SOL     OW39718   3.196   1.632   4.499 -0.3640  0.3005 -0.0121
 9420SOL    HW139719   3.259   1.572   4.539 -0.6000  1.0867  1.5178
 9420SOL    HW239720   3.228   1.717   4.527 -3.6339  0.9654  1.7152
 9421SOL     OW39721   2.630   1.965   3.317 -0.1175  0.0454 -0.4288
 9421SOL    HW139722   2.563   2.030   3.295 -0.8373 -0.6660 -0.3602
 9421SOL    HW239723   2.585   1.903   3.374 -0.8783  1.4728  0.5174
 9422SOL     OW39724   2.491   0.331   7.540  0.3680  0.1742  0.1064
 9422SOL    HW139725   2.411   0.338   7.489  1.5025 -1.2789 -1.8610
 9422SOL    HW239726   2.556   0.353   7.473  0.3912  0.2761  0.1628
 9423SOL     OW39727   1.511   2.806   2.551  0.0756  0.2741 -0.2974
 9423SOL    HW139728   1.437   2.746   2.547  1.0415 -1.0433  1.0491
 9423SOL    HW239729   1.515   2.822   2.457 -1.8904 -1.4532 -0.6873
 9424SOL     OW39730   4.600   3.694  10.300 -0.2707 -0.8566 -0.5196
 9424SOL    HW139731   4.560   3.690  10.386  0.2295  0.3570 -0.2273
 9424SOL    HW239732   4.541   3.649  10.240  0.8154 -1.6072 -1.0301
 9425SOL     OW39733   3.303   3.950  17.317 -0.4697 -0.1749  0.6318
 9425SOL    HW139734   3.378   4.002  17.348 -0.6064  1.2494 -1.3891
 9425SOL    HW239735   3.226   3.984  17.362 -1.4968 -0.6858 -0.7508
 9426SOL     OW39736   0.207   2.656   7.827  0.3126 -0.0179 -0.4631
 9426SOL    HW139737   0.209   2.633   7.734 -0.5169  1.2847 -0.7994
 9426SOL    HW239738   0.116   2.684   7.831  0.5595  1.0010 -1.7374
 9427SOL     OW39739   0.257   3.543   2.949 -0.5781 -0.3350 -0.4878
 9427SOL    HW139740   0.239   3.531   2.856 -0.3319  0.4502 -0.6383
 9427SOL    HW239741   0.322   3.613   2.950  0.9597 -1.7308 -2.0013
 9428SOL     OW39742   3.771   4.377   9.335  0.6697 -0.1302  0.4929
 9428SOL    HW139743   3.701   4.439   9.357  2.3292  1.0229  2.5062
 9428SOL    HW239744   3.716   4.299   9.346 -0.2476  0.3750 -0.4846
 9429SOL     OW39745   4.600   3.086   7.672 -0.2690 -0.4037  0.2800
 9429SOL    HW139746   4.650   3.027   7.728  1.1976  0.6124  0.0461
 9429SOL    HW239747   4.663   3.157   7.662 -0.0212 -0.3472  2.1875
 9430SOL     OW39748   4.281   4.488  15.736  0.3792 -0.3780 -0.0860
 9430SOL    HW139749   4.333   4.489  15.816  2.0199 -2.2324 -1.1549
 9430SOL    HW239750   4.249   4.579  15.743 -0.4467 -0.4673 -2.3723
 9431SOL     OW39751   1.319   3.876   3.447 -0.3113 -0.5978 -0.4536
 9431SOL    HW139752   1.261   3.914   3.381  0.1479 -0.3500 -0.7181
 9431SOL    HW239753   1.248   3.844   3.502 -1.5745  0.3345 -1.5412
 9432SOL     OW39754   1.327   3.265   3.663 -0.0790  0.8317  0.0545
 9432SOL    HW139755   1.264   3.223   3.605  0.4366 -1.2672  1.0198
 9432SOL    HW239756   1.405   3.282   3.610 -0.1881  0.4846 -0.2195
 9433SOL     OW39757   3.620   3.184   3.389 -0.0291 -0.3622 -0.2432
 9433SOL    HW139758   3.603   3.272   3.421  0.6735 -0.1701 -0.4022
 9433SOL    HW239759   3.539   3.137   3.409 -0.0898 -1.1114 -2.2949
 9434SOL     OW39760   2.152   2.494   0.995 -0.2705  0.2402  0.2405
 9434SOL    HW139761   2.225   2.438   1.022  0.0051  0.8823  0.7964
 9434SOL    HW239762   2.142   2.551   1.071 -0.7682  0.1694  0.2292
 9435SOL     OW39763   0.486   0.927  13.345 -0.3238  0.5181 -0.2774
 9435SOL    HW139764   0.470   0.851  13.401  1.4261  0.5249  0.2268
 9435SOL    HW239765   0.581   0.936  13.342 -0.1023 -1.8692 -0.0840
 9436SOL     OW39766   1.172   2.644  12.885  0.2514  0.7286  0.1120
 9436SOL    HW139767   1.147   2.726  12.843 -0.8839  0.3008 -0.0397
 9436SOL    HW239768   1.202   2.681  12.967 -0.0469 -1.2326  1.0989
 9437SOL     OW39769   1.421   1.486  16.596  0.0856 -0.0477 -0.1841
 9437SOL    HW139770   1.431   1.528  16.511  1.9193  1.2374  0.6742
 9437SOL    HW239771   1.477   1.534  16.657  1.8315 -2.8479  0.4263
 9438SOL     OW39772   2.785   0.405  10.945 -0.0827  0.0499 -0.2550
 9438SOL    HW139773   2.706   0.424  10.996 -0.6532  2.1011 -1.8911
 9438SOL    HW239774   2.855   0.421  11.008  0.0373 -1.5769  0.0188
 9439SOL     OW39775   3.852   2.851   0.706 -0.1155  0.1237 -0.8743
 9439SOL    HW139776   3.908   2.851   0.784 -0.6427  2.3052 -0.4997
 9439SOL    HW239777   3.903   2.791   0.652 -0.3250 -0.3150 -0.5842
 9440SOL     OW39778   4.711   3.730   3.724 -0.5611 -0.5252 -0.1891
 9440SOL    HW139779   0.042   3.762   3.797 -0.0490 -0.5918 -0.5278
 9440SOL    HW239780   4.710   3.635   3.736  0.9114 -0.2738  2.0090
 9441SOL     OW39781   0.952   0.287   6.806 -0.1670  0.6390  0.1888
 9441SOL    HW139782   0.958   0.359   6.743 -0.4563 -0.7346 -1.3954
 9441SOL    HW239783   0.920   0.220   6.746 -0.4252 -0.5208  1.6152
 9442SOL     OW39784   0.922   3.184   4.299 -0.1141 -0.1909 -0.2907
 9442SOL    HW139785   0.981   3.205   4.226  1.6774  3.5934  2.2583
 9442SOL    HW239786   0.952   3.249   4.362 -1.1998 -0.4173  0.4398
 9443SOL     OW39787   2.567   2.526   6.290  0.3393 -0.4739  0.1021
 9443SOL    HW139788   2.610   2.495   6.210 -0.1143 -1.5023  0.2537
 9443SOL    HW239789   2.523   2.447   6.322  2.9442 -1.5878  0.8608
 9444SOL     OW39790   2.518   1.741   7.671  0.9676 -0.6542 -0.3894
 9444SOL    HW139791   2.492   1.689   7.595  1.1538  1.3604 -1.8117
 9444SOL    HW239792   2.552   1.818   7.628  0.5162  0.0360  0.4846
 9445SOL     OW39793   0.613   1.567   8.818 -0.1664  0.2699  0.1463
 9445SOL    HW139794   0.673   1.547   8.890 -0.0185  2.7336  0.7210
 9445SOL    HW239795   0.559   1.489   8.813 -1.0081  1.0475 -2.6570
 9446SOL     OW39796   1.188   3.674   2.539 -0.2632  0.3106  1.1308
 9446SOL    HW139797   1.284   3.667   2.534 -0.3080  0.3347  0.0831
 9446SOL    HW239798   1.167   3.767   2.541 -0.2754  0.3616 -0.5822
 9447SOL     OW39799   2.509   3.074   7.014 -0.1780  0.0216 -0.0058
 9447SOL    HW139800   2.596   3.097   6.980 -1.1460  1.9392 -1.2231
 9447SOL    HW239801   2.511   3.137   7.086  1.9763 -1.0025  0.8279
 9448SOL     OW39802   1.895   0.109   5.917  0.2145  0.1659  0.0061
 9448SOL    HW139803   1.828   0.042   5.926  1.3635 -0.9698  0.2548
 9448SOL    HW239804   1.915   0.128   6.009  2.4017 -1.6795 -0.0736
 9449SOL     OW39805   1.897   1.869  12.077 -0.0539 -0.1704  0.0230
 9449SOL    HW139806   1.895   1.802  12.009  1.7966  0.1684 -0.3478
 9449SOL    HW239807   1.819   1.921  12.056  0.4025 -0.7837 -3.0889
 9450SOL     OW39808   2.569   1.084   9.477 -0.2548 -0.0631 -0.0851
 9450SOL    HW139809   2.659   1.113   9.465 -1.0106  1.5132 -1.8854
 9450SOL    HW239810   2.539   1.070   9.387 -0.9559  2.8284 -0.2848
 9451SOL     OW39811   4.481   2.972   4.119  0.2529 -0.4934 -0.0636
 9451SOL    HW139812   4.460   2.888   4.077  0.2827 -0.1798 -0.7062
 9451SOL    HW239813   4.407   3.031   4.106  1.2954  0.0541 -3.6005
 9452SOL     OW39814   3.054   4.639  10.069  0.3981 -0.1128  0.5493
 9452SOL    HW139815   3.144   4.660  10.042  0.2884  2.3756  2.1113
 9452SOL    HW239816   3.017   0.005  10.065 -0.7122 -0.5669  0.8553
 9453SOL     OW39817   1.906   2.886   6.856  0.1139  0.4151 -0.7030
 9453SOL    HW139818   1.832   2.946   6.846 -1.8958 -1.8285  0.6947
 9453SOL    HW239819   1.957   2.938   6.918 -1.5250  0.0058  1.0110
 9454SOL     OW39820   0.745   0.148   4.699  0.3937  0.1890  0.0784
 9454SOL    HW139821   0.671   0.206   4.712  0.5038  0.3403  0.0258
 9454SOL    HW239822   0.720   0.071   4.647  0.6809  0.5282 -0.5671
 9455SOL     OW39823   1.854   0.778   1.327  0.4607 -0.2265  0.5583
 9455SOL    HW139824   1.916   0.845   1.357 -1.2422  1.6292 -0.0915
 9455SOL    HW239825   1.774   0.828   1.341  0.6109  0.7497 -2.1523
 9456SOL     OW39826   1.038   2.903   8.264 -0.1435 -0.4643 -0.0798
 9456SOL    HW139827   1.052   2.953   8.344  2.7477 -2.4871  0.6847
 9456SOL    HW239828   1.045   2.968   8.194  0.4793 -0.5602 -0.1070
 9457SOL     OW39829   3.862   2.853   5.203  0.0597  0.1594 -0.0003
 9457SOL    HW139830   3.891   2.784   5.144  0.3752  0.8814 -0.6927
 9457SOL    HW239831   3.785   2.812   5.243 -0.3868 -0.8703 -1.9401
 9458SOL     OW39832   1.116   2.072   6.566 -0.3264  0.4213 -0.7677
 9458SOL    HW139833   1.194   2.051   6.515 -0.2133  1.1477 -0.8807
 9458SOL    HW239834   1.075   1.987   6.586  1.2749 -0.7900 -2.6449
 9459SOL     OW39835   0.901   0.716  15.231 -0.0115 -0.0771  0.8601
 9459SOL    HW139836   0.983   0.677  15.202  0.4600  1.8165 -0.3948
 9459SOL    HW239837   0.854   0.641  15.267 -1.3646  1.0058  1.3566
 9460SOL     OW39838   0.150   0.726   4.299  0.0121  0.0445  0.5226
 9460SOL    HW139839   0.115   0.723   4.210  2.0040  0.6719 -0.2747
 9460SOL    HW239840   0.224   0.667   4.289 -0.0366  0.2395 -0.9217
 9461SOL     OW39841   3.839   0.532  12.335 -0.4340  0.0344  0.2407
 9461SOL    HW139842   3.808   0.453  12.378  0.8873 -0.9742 -0.6594
 9461SOL    HW239843   3.791   0.525  12.252 -0.2674  1.4105  0.0315
 9462SOL     OW39844   3.956   4.503  17.527  0.0998 -0.4744  0.3206
 9462SOL    HW139845   3.885   4.468  17.581 -1.6927  0.9210 -1.1616
 9462SOL    HW239846   4.032   4.480  17.580 -0.6695 -1.9124  0.8175
 9463SOL     OW39847   2.385   1.854  16.005  0.4697 -0.4942 -0.3075
 9463SOL    HW139848   2.372   1.788  16.073 -0.7603 -0.8744 -0.9072
 9463SOL    HW239849   2.449   1.814  15.946  1.9023  2.4394 -0.7290
 9464SOL     OW39850   3.305   1.184  10.117 -0.3690 -0.2049  0.5878
 9464SOL    HW139851   3.334   1.160  10.205  2.7228 -0.9149 -0.6509
 9464SOL    HW239852   3.341   1.273  10.116  1.4163 -0.9306  0.9494
 9465SOL     OW39853   0.224   3.326   8.870  0.7311 -0.1597 -0.7315
 9465SOL    HW139854   0.312   3.361   8.882  0.0075  0.7776  1.9909
 9465SOL    HW239855   0.163   3.397   8.892 -1.2007 -1.9851 -0.1910
 9466SOL     OW39856   0.084   3.793   6.990 -0.0472 -0.0709  0.8313
 9466SOL    HW139857   0.151   3.833   6.936  0.6431 -1.1215  0.9076
 9466SOL    HW239858   0.023   3.866   6.980  0.3491  0.0401 -0.6776
 9467SOL     OW39859   1.639   0.343   7.916 -0.5167 -0.3575 -0.4072
 9467SOL    HW139860   1.585   0.358   7.838 -1.5749  3.0927  0.9869
 9467SOL    HW239861   1.717   0.382   7.877 -1.9027 -0.5002 -3.3374
 9468SOL     OW39862   0.115   4.497   1.901  0.0998  0.2074  0.1874
 9468SOL    HW139863   0.113   4.475   1.807  0.6385 -1.2961  0.5324
 9468SOL    HW239864   0.080   4.415   1.936 -2.8922  0.7927 -1.4103
 9469SOL     OW39865   1.365   1.116   7.735 -0.1136 -0.3324  0.0494
 9469SOL    HW139866   1.339   1.198   7.777 -0.4691 -1.2250  1.5830
 9469SOL    HW239867   1.383   1.144   7.645 -0.0507  0.3887  0.2899
 9470SOL     OW39868   1.823   4.486   2.719 -0.5947  0.6692  0.2594
 9470SOL    HW139869   1.912   4.464   2.748 -0.9769 -3.9314 -2.0227
 9470SOL    HW239870   1.825   4.469   2.625  2.6826  0.7960  0.3142
 9471SOL     OW39871   3.509   2.721  17.005  0.1997 -0.0061 -0.1175
 9471SOL    HW139872   3.542   2.810  16.988  1.3913 -0.2214  1.1293
 9471SOL    HW239873   3.439   2.739  17.068 -1.4792 -2.2627 -1.3493
 9472SOL     OW39874   3.672   3.732   3.784  0.5895 -1.3936 -0.0438
 9472SOL    HW139875   3.740   3.668   3.802 -0.3242 -2.4455 -0.3489
 9472SOL    HW239876   3.593   3.695   3.822 -0.3606  0.5913 -0.0846
 9473SOL     OW39877   2.564   0.050   3.172  0.4678 -0.2658  0.0674
 9473SOL    HW139878   2.590   4.694   3.221  0.0986  0.0110  0.7066
 9473SOL    HW239879   2.492   0.020   3.117 -0.9974  3.7037 -0.1991
 9474SOL     OW39880   2.814   0.041  15.197  0.0890 -0.8599  0.1325
 9474SOL    HW139881   2.807   0.037  15.293 -2.7306 -0.9351 -0.0645
 9474SOL    HW239882   2.732   0.006  15.162  0.2885 -1.4650  0.2672
 9475SOL     OW39883   4.442   2.873   2.581  0.5749 -0.2668 -0.3060
 9475SOL    HW139884   4.456   2.929   2.657 -0.6074 -1.7543  1.0025
 9475SOL    HW239885   4.423   2.789   2.622  0.4736 -0.2822 -0.3848
 9476SOL     OW39886   1.846   1.297   8.271  0.2047  0.1537 -0.3037
 9476SOL    HW139887   1.850   1.376   8.218  1.2815 -0.6415 -1.4206
 9476SOL    HW239888   1.812   1.336   8.352  0.6992 -1.0692  0.4957
 9477SOL     OW39889   1.694   1.581   1.049  0.3249 -0.2645 -0.2088
 9477SOL    HW139890   1.759   1.624   0.992  2.0725 -1.7272  0.6578
 9477SOL    HW239891   1.757   1.564   1.119  0.0846 -1.2263 -0.2251
 9478SOL     OW39892   3.380   3.474   4.312  0.1113 -0.3130 -0.3681
 9478SOL    HW139893   3.352   3.556   4.270  1.4712 -0.4317 -1.5161
 9478SOL    HW239894   3.391   3.403   4.248  1.8795 -1.5562  1.3498
 9479SOL     OW39895   0.710   0.455   6.374  0.0562 -0.0140 -0.1851
 9479SOL    HW139896   0.714   0.450   6.278 -2.6983 -0.6916 -0.2769
 9479SOL    HW239897   0.721   0.550   6.372  0.7803 -0.0773  0.5412
 9480SOL     OW39898   2.186   3.937   8.717 -0.0060  0.4342 -0.0722
 9480SOL    HW139899   2.170   4.022   8.675 -1.4739  1.0845  1.7894
 9480SOL    HW239900   2.116   3.886   8.677  0.6055  0.4969 -1.2296
 9481SOL     OW39901   2.155   1.617   8.213 -0.5942 -0.1651  0.1453
 9481SOL    HW139902   2.233   1.665   8.185 -1.6255  1.4976  0.1786
 9481SOL    HW239903   2.105   1.687   8.254  1.2078  1.9748 -1.3421
 9482SOL     OW39904   2.953   1.128  17.419 -0.4096 -0.6459 -0.4726
 9482SOL    HW139905   2.915   1.141  17.332  1.1393 -0.7424 -1.1711
 9482SOL    HW239906   3.018   1.198  17.411 -2.0192  0.7920 -0.8645
 9483SOL     OW39907   2.986   2.760  13.541  0.3114  0.4930 -0.1033
 9483SOL    HW139908   3.078   2.761  13.515  0.4873  0.1509  0.4996
 9483SOL    HW239909   2.952   2.791  13.457  3.3468  0.8820 -1.2034
 9484SOL     OW39910   3.631   3.961  17.312  0.2637  0.4542  0.3084
 9484SOL    HW139911   3.703   4.015  17.279 -0.2378  0.0639 -1.4557
 9484SOL    HW239912   3.678   3.937  17.392  0.1319 -0.8079  0.0133
 9485SOL     OW39913   2.863   2.049   5.755  0.3848  0.5446 -0.2118
 9485SOL    HW139914   2.949   2.089   5.756 -0.6034  2.5867  2.1054
 9485SOL    HW239915   2.850   2.010   5.669 -1.3390  0.7487 -0.0487
 9486SOL     OW39916   2.606   0.182   2.605  0.6087  0.6460  0.1943
 9486SOL    HW139917   2.631   0.184   2.512 -1.3347 -0.3918 -0.3662
 9486SOL    HW239918   2.596   0.088   2.621  0.0134  0.2580 -2.4386
 9487SOL     OW39919   2.570   2.670  16.490 -0.0813 -0.0759  0.8138
 9487SOL    HW139920   2.624   2.733  16.443 -2.4844  1.5928  0.2955
 9487SOL    HW239921   2.535   2.622  16.415  1.2375 -1.8650  1.3330
 9488SOL     OW39922   0.627   1.017   7.581  0.4997 -0.1440 -0.7859
 9488SOL    HW139923   0.683   1.095   7.591  0.1497 -0.1046  0.8934
 9488SOL    HW239924   0.692   0.947   7.578  0.9999  0.2461  0.6952
 9489SOL     OW39925   4.427   0.790   2.067 -0.0939 -0.1713 -0.2717
 9489SOL    HW139926   4.389   0.792   2.155 -2.3833 -2.1339 -1.2177
 9489SOL    HW239927   4.357   0.742   2.023  0.1258 -0.0700 -0.7279
 9490SOL     OW39928   0.102   0.547  13.435  0.6817  0.5954 -0.2678
 9490SOL    HW139929   0.064   0.472  13.390 -1.6168  1.4919  0.1825
 9490SOL    HW239930   0.037   0.613  13.416  0.3681  0.2122 -0.5235
 9491SOL     OW39931   2.606   1.703   1.266  0.1782 -0.2657  0.4940
 9491SOL    HW139932   2.622   1.797   1.275  1.4390 -0.3545 -0.7978
 9491SOL    HW239933   2.636   1.692   1.176 -0.5582 -0.3677  0.2571
 9492SOL     OW39934   2.836   1.483   8.539 -0.0724  0.4854  0.3713
 9492SOL    HW139935   2.880   1.523   8.464  0.0613 -1.1789 -0.4473
 9492SOL    HW239936   2.802   1.561   8.582 -1.1040  0.7329 -0.9080
 9493SOL     OW39937   0.781   3.549   5.325 -0.2617  0.1548 -0.5757
 9493SOL    HW139938   0.781   3.464   5.369 -0.1810  0.6523  0.4072
 9493SOL    HW239939   0.872   3.576   5.334 -0.4882  1.1735 -1.3646
 9494SOL     OW39940   2.730   2.582   7.837  0.5195 -0.1655  0.8638
 9494SOL    HW139941   2.653   2.590   7.781  1.1423  0.2881  0.0770
 9494SOL    HW239942   2.719   2.500   7.885 -0.6405  0.3414  1.4730
 9495SOL     OW39943   3.419   0.348  12.278 -1.4369  0.1662 -0.3540
 9495SOL    HW139944   3.434   0.442  12.265  0.0745 -0.0230 -0.0442
 9495SOL    HW239945   3.464   0.327  12.196 -1.0714 -0.2698 -0.0415
 9496SOL     OW39946   2.066   2.471   7.525  0.3031  0.0457 -0.3096
 9496SOL    HW139947   2.134   2.489   7.460  2.0927 -0.5402  1.4016
 9496SOL    HW239948   1.997   2.533   7.501 -0.3925 -0.1372  1.2192
 9497SOL     OW39949   1.409   0.083   8.254  0.2615 -0.4606  0.3998
 9497SOL    HW139950   1.460   0.132   8.319  0.3647  0.6427 -0.5052
 9497SOL    HW239951   1.333   0.138   8.237  0.2040 -0.2330  1.4288
 9498SOL     OW39952   3.586   2.278   4.300 -0.4099 -0.1257  0.3146
 9498SOL    HW139953   3.678   2.302   4.296 -0.2889 -0.8326 -1.5294
 9498SOL    HW239954   3.563   2.304   4.389 -0.3661  1.3226 -0.1058
 9499SOL     OW39955   2.922   1.586   0.847  0.3891  0.6775 -0.3522
 9499SOL    HW139956   2.996   1.570   0.906 -0.3629 -1.5669 -0.0398
 9499SOL    HW239957   2.979   1.592   0.769  1.7220  0.1412  0.5844
 9500SOL     OW39958   3.090   0.187  11.610  0.2294 -0.3061 -0.3420
 9500SOL    HW139959   3.182   0.166  11.594  1.1998  2.2696  1.8371
 9500SOL    HW239960   3.049   0.101  11.616 -2.8518  1.1773  0.0531
 9501SOL     OW39961   4.607   4.466  10.640  0.4040  0.0308 -0.3586
 9501SOL    HW139962   4.622   4.373  10.625  0.4744  0.1854 -1.2976
 9501SOL    HW239963   4.528   4.484  10.588  0.6980  0.8513 -0.5176
 9502SOL     OW39964   0.016   1.933  16.125  0.3123 -0.1059 -0.2132
 9502SOL    HW139965   0.034   1.889  16.042  0.2382 -0.4757 -0.0291
 9502SOL    HW239966   4.705   1.864  16.182 -2.2304  1.4056  0.1521
 9503SOL     OW39967   4.056   4.418   5.240 -0.5759  0.3172 -0.2060
 9503SOL    HW139968   4.097   4.362   5.173  0.9338  0.6714  0.4066
 9503SOL    HW239969   3.999   4.483   5.198 -2.2745 -0.4242  0.9663
 9504SOL     OW39970   2.142   1.759   4.471 -0.2571 -0.4100 -0.2460
 9504SOL    HW139971   2.213   1.803   4.517  0.8327 -1.0062 -1.3649
 9504SOL    HW239972   2.112   1.819   4.403 -0.7555 -0.0764  0.2615
 9505SOL     OW39973   0.303   4.086   7.530 -0.2364 -0.0223 -0.2456
 9505SOL    HW139974   0.320   4.015   7.468  1.0194  0.9153 -0.9789
 9505SOL    HW239975   0.226   4.047   7.572 -0.6613 -0.8235 -1.7729
 9506SOL     OW39976   0.472   0.883   7.947  0.0938 -0.3712 -0.1869
 9506SOL    HW139977   0.401   0.945   7.928  2.3944  2.3459  0.0460
 9506SOL    HW239978   0.517   0.920   8.022 -2.6979  3.1025 -0.1931
 9507SOL     OW39979   2.422   1.540   8.793 -0.4640 -0.0301 -0.4403
 9507SOL    HW139980   2.483   1.590   8.847 -0.2190  2.7470 -3.3056
 9507SOL    HW239981   2.335   1.569   8.819 -0.7953 -0.5778 -0.9167
 9508SOL     OW39982   0.973   3.022   3.235 -0.1447 -0.3866 -0.1025
 9508SOL    HW139983   0.933   3.108   3.219  1.7777  0.3917 -0.7466
 9508SOL    HW239984   0.912   2.991   3.302 -1.6897 -2.1588 -2.3224
 9509SOL     OW39985   3.355   1.108  16.246  0.3298 -0.4292 -0.1569
 9509SOL    HW139986   3.429   1.168  16.254  0.1792 -0.2417 -0.1973
 9509SOL    HW239987   3.301   1.152  16.182 -0.6792 -1.1290  0.2090
 9510SOL     OW39988   1.576   1.962   2.688 -0.4124 -0.5902  0.0641
 9510SOL    HW139989   1.539   1.877   2.710 -3.5663  1.3427  2.1629
 9510SOL    HW239990   1.649   1.932   2.634 -1.3190 -1.7532 -0.5133
 9511SOL     OW39991   3.515   3.590   8.661  0.2574  0.0340 -0.0843
 9511SOL    HW139992   3.419   3.595   8.656  0.3547  0.2742 -2.0563
 9511SOL    HW239993   3.534   3.672   8.706 -1.7838 -0.7400  2.2045
 9512SOL     OW39994   3.686   0.030  14.662  0.1852  0.2370  0.3932
 9512SOL    HW139995   3.684   4.668  14.708  2.2486  0.7688  1.4423
 9512SOL    HW239996   3.769   0.072  14.685  1.6342 -2.5158  0.2489
 9513SOL     OW39997   0.936   1.105   3.818 -0.0559  0.1782  0.2137
 9513SOL    HW139998   0.899   1.146   3.897  1.8672  0.0264  1.1773
 9513SOL    HW239999   1.016   1.158   3.821  0.4688 -0.6496  0.8139
 9514SOL     OW40000   1.607   1.222   3.783  0.2064 -0.2284  0.7110
 9514SOL    HW140001   1.676   1.157   3.798  0.5885  0.1182  0.4292
 9514SOL    HW240002   1.537   1.182   3.835 -1.3156 -0.1976 -1.3162
 9515SOL     OW40003   1.704   4.432   2.468  0.9173  0.4534  0.2893
 9515SOL    HW140004   1.632   4.393   2.517  0.0519 -0.8382 -2.0447
 9515SOL    HW240005   1.675   4.417   2.378  1.4488  0.8909  0.0436
 9516SOL     OW40006   2.578   3.776   2.943 -0.9690 -0.4220 -0.4276
 9516SOL    HW140007   2.624   3.819   2.871  2.4239 -0.1152  1.9028
 9516SOL    HW240008   2.646   3.713   2.967 -0.7944 -0.8264 -1.9979
 9517SOL     OW40009   1.220   1.339   6.166 -0.0974  0.8033  0.2921
 9517SOL    HW140010   1.143   1.361   6.219  0.2387  0.1055  1.0797
 9517SOL    HW240011   1.281   1.412   6.175  0.3102  0.5018 -0.0311
 9518SOL     OW40012   3.269   2.406  14.155 -0.4954 -0.2465 -0.2719
 9518SOL    HW140013   3.232   2.461  14.086 -0.9531  0.1495  0.2885
 9518SOL    HW240014   3.199   2.419  14.218 -0.2877 -3.2334  0.5890
 9519SOL     OW40015   3.064   1.189   0.448 -0.5373  0.2209  0.0501
 9519SOL    HW140016   3.088   1.277   0.420  3.0006 -0.9030 -0.4071
 9519SOL    HW240017   3.048   1.150   0.362  0.7043 -2.2160  0.9284
 9520SOL     OW40018   3.820   0.270   1.246  0.0086 -0.1986 -0.4254
 9520SOL    HW140019   3.814   0.188   1.197  0.0736 -0.5010  0.0767
 9520SOL    HW240020   3.734   0.280   1.286  0.9155  2.2709  0.9280
 9521SOL     OW40021   4.319   4.347   0.230  0.2231  0.3109 -0.1794
 9521SOL    HW140022   4.307   4.424   0.285 -0.1212  1.0335 -1.2590
 9521SOL    HW240023   4.412   4.325   0.233 -0.1836 -1.3591  0.1697
 9522SOL     OW40024   3.587   4.081   6.859 -0.1108 -0.0007  0.2309
 9522SOL    HW140025   3.536   4.006   6.891 -0.6718  1.0009  1.6787
 9522SOL    HW240026   3.658   4.085   6.923  0.6549  1.7408 -0.7329
 9523SOL     OW40027   2.375   3.597   4.158 -0.4162  0.1379 -0.2327
 9523SOL    HW140028   2.425   3.602   4.077 -1.5485  0.5801 -0.8940
 9523SOL    HW240029   2.298   3.554   4.122  0.2070 -0.6400 -0.6454
 9524SOL     OW40030   4.629   1.091   7.571  0.4367 -0.1258 -0.2944
 9524SOL    HW140031   4.631   1.052   7.484 -0.3321 -0.5375 -0.1273
 9524SOL    HW240032   4.603   1.017   7.625 -2.6200 -0.4714 -2.2799
 9525SOL     OW40033   4.560   0.842  13.182 -0.2952 -0.3679  0.1585
 9525SOL    HW140034   4.573   0.789  13.260 -1.4290  0.3099  0.8018
 9525SOL    HW240035   4.555   0.769  13.121 -0.3187  1.3668 -1.9441
 9526SOL     OW40036   2.059   3.731  14.405  0.4482 -0.1696  0.5642
 9526SOL    HW140037   1.965   3.727  14.388  0.6956 -0.6059 -0.7023
 9526SOL    HW240038   2.055   3.744  14.500 -0.1321  2.1803  0.2163
 9527SOL     OW40039   1.916   2.056   2.579  0.0630  0.2811 -0.2658
 9527SOL    HW140040   2.009   2.035   2.569  0.0632 -0.0580  0.4621
 9527SOL    HW240041   1.928   2.112   2.655  1.5555 -2.0166  1.1948
 9528SOL     OW40042   0.682   2.111   3.978  0.6027 -0.1272 -0.6662
 9528SOL    HW140043   0.655   2.081   4.065  2.2843  1.5352  0.4345
 9528SOL    HW240044   0.769   2.146   3.996  0.5618  0.1653 -1.0515
 9529SOL     OW40045   1.763   0.550   4.747 -0.9058 -0.0409 -0.6423
 9529SOL    HW140046   1.761   0.595   4.832  0.0243  0.4975 -0.9089
 9529SOL    HW240047   1.828   0.480   4.755  2.1214  2.7852 -0.9001
 9530SOL     OW40048   4.113   4.232  13.498  0.3808  0.1161  0.0010
 9530SOL    HW140049   4.179   4.280  13.448  1.2567  1.0194  2.0341
 9530SOL    HW240050   4.071   4.302  13.548  2.0163  1.8859 -1.1072
 9531SOL     OW40051   2.402   0.047   9.468 -0.6182 -0.3868  0.4605
 9531SOL    HW140052   2.369   0.082   9.551 -2.0220  1.0113 -0.6666
 9531SOL    HW240053   2.424   4.682   9.498  0.3121 -0.2822  0.1040
 9532SOL     OW40054   0.776   3.171   7.053  0.3594 -0.3322  0.1456
 9532SOL    HW140055   0.771   3.077   7.035  0.6347 -0.5594  1.2050
 9532SOL    HW240056   0.863   3.171   7.092 -0.0330  1.5603  0.9969
 9533SOL     OW40057   3.836   3.034   3.381 -0.3694 -0.7182  0.2002
 9533SOL    HW140058   3.749   3.064   3.407 -1.4921 -1.6622 -2.4637
 9533SOL    HW240059   3.791   2.958   3.343 -0.8102 -0.5427  0.3645
 9534SOL     OW40060   3.233   0.633  12.070  0.0199  0.4671  0.2895
 9534SOL    HW140061   3.325   0.638  12.096  0.8472  4.0681 -3.2941
 9534SOL    HW240062   3.224   0.540  12.049 -1.1715  0.7143 -0.2917
 9535SOL     OW40063   1.008   3.925   7.968  0.1694 -0.2165 -0.0081
 9535SOL    HW140064   0.996   4.013   8.005 -0.3637 -0.1559 -0.3177
 9535SOL    HW240065   1.068   3.888   8.032  0.4070 -1.3088 -0.8603
 9536SOL     OW40066   0.956   2.714   1.475 -0.5406 -0.1324 -0.7323
 9536SOL    HW140067   1.007   2.710   1.394  1.7807 -1.0649  0.7853
 9536SOL    HW240068   0.964   2.631   1.523 -1.3003 -0.5549 -1.3238
 9537SOL     OW40069   2.729   1.816   6.421  0.8749  0.3344 -0.5798
 9537SOL    HW140070   2.706   1.907   6.440 -1.0656 -0.1298 -0.6724
 9537SOL    HW240071   2.699   1.789   6.335 -1.2701  1.6071 -0.2283
 9538SOL     OW40072   1.012   0.184   4.763  0.1730 -0.3969 -0.0883
 9538SOL    HW140073   1.064   0.121   4.714  0.1472 -1.3203  1.0834
 9538SOL    HW240074   0.923   0.148   4.767  0.6356 -1.4755  0.5197
 9539SOL     OW40075   2.990   3.243   3.144  0.4063  0.0415 -0.4889
 9539SOL    HW140076   2.947   3.158   3.133  0.5278 -0.0215 -0.4672
 9539SOL    HW240077   3.074   3.206   3.171  0.2165  0.7411  1.0540
 9540SOL     OW40078   1.163   0.828   6.921  0.3629 -0.5574  0.5048
 9540SOL    HW140079   1.069   0.806   6.919  0.1582  0.1552  2.2334
 9540SOL    HW240080   1.199   0.786   6.999  0.8194  0.8461  1.0506
 9541SOL     OW40081   0.151   3.656   4.811  0.0077  0.3390  0.2531
 9541SOL    HW140082   0.135   3.697   4.897 -2.9987  2.9738 -1.5222
 9541SOL    HW240083   0.145   3.563   4.831  0.1296  0.0915 -0.8708
 9542SOL     OW40084   3.600   3.476  15.533  0.0083  0.1635 -0.0985
 9542SOL    HW140085   3.689   3.484  15.569  0.1073 -0.6140 -0.1654
 9542SOL    HW240086   3.610   3.534  15.457 -0.8748 -1.8678 -1.7666
 9543SOL     OW40087   4.294   3.888   4.498  0.3415  0.0073  0.3885
 9543SOL    HW140088   4.345   3.940   4.560  0.4715 -1.6206  1.6530
 9543SOL    HW240089   4.364   3.865   4.439 -0.2222  2.0291 -1.0720
 9544SOL     OW40090   2.754   4.445   1.062 -0.1243  0.3178  0.1395
 9544SOL    HW140091   2.708   4.423   0.981  1.6224  1.4168 -1.1478
 9544SOL    HW240092   2.815   4.373   1.071 -1.8883 -0.9035  2.5036
 9545SOL     OW40093   0.663   1.199   0.848  0.2384 -0.5809 -0.1834
 9545SOL    HW140094   0.625   1.268   0.903 -2.2311 -1.9608 -0.1618
 9545SOL    HW240095   0.711   1.143   0.910 -0.8707 -0.9788  0.3158
 9546SOL     OW40096   2.077   4.144   5.825  0.4565  0.4294  0.0810
 9546SOL    HW140097   1.991   4.174   5.854 -0.3397 -0.2321 -1.5743
 9546SOL    HW240098   2.071   4.051   5.803  2.5248  0.0045  1.3180
 9547SOL     OW40099   2.800   3.777  13.165 -0.3176 -0.2708  0.3692
 9547SOL    HW140100   2.775   3.760  13.257  0.5798  1.7722  0.9782
 9547SOL    HW240101   2.836   3.692  13.140  0.4243  0.0788  0.2726
 9548SOL     OW40102   4.275   4.145   2.859 -0.1617 -0.9591  0.5621
 9548SOL    HW140103   4.246   4.185   2.777  3.0902  1.6234  0.6921
 9548SOL    HW240104   4.369   4.160   2.854 -0.2924 -0.9529 -2.2594
 9549SOL     OW40105   0.267   3.178   3.102 -0.1925 -0.1682  0.3771
 9549SOL    HW140106   0.337   3.238   3.127 -1.8088  2.0186 -0.2835
 9549SOL    HW240107   0.212   3.232   3.045  0.9946 -0.3456 -0.9318
 9550SOL     OW40108   3.551   4.569   1.015  0.3860  0.1258  0.3951
 9550SOL    HW140109   3.545   4.663   1.000  3.6526  0.6702  2.4276
 9550SOL    HW240110   3.528   4.568   1.108  1.1622  0.4597  0.5912
 9551SOL     OW40111   3.731   2.073   3.466 -0.0409 -0.1485 -0.3906
 9551SOL    HW140112   3.820   2.045   3.489 -0.9856 -0.7240  2.5949
 9551SOL    HW240113   3.738   2.066   3.371  1.4348 -1.7305 -0.1719
 9552SOL     OW40114   3.756   4.243   3.744  0.3051 -0.1138  0.0743
 9552SOL    HW140115   3.754   4.245   3.648 -0.0491 -1.7371  0.0533
 9552SOL    HW240116   3.714   4.159   3.761  0.8010 -0.4174 -0.2245
 9553SOL     OW40117   3.487   2.150   2.999  0.1079 -0.0762 -0.2293
 9553SOL    HW140118   3.406   2.127   3.044 -0.4061 -1.1677 -1.7249
 9553SOL    HW240119   3.495   2.245   3.002  0.5736 -0.1136 -0.2196
 9554SOL     OW40120   1.165   4.294   9.180 -0.2235 -0.5338  0.0080
 9554SOL    HW140121   1.169   4.348   9.260 -2.1003 -0.7143  0.2284
 9554SOL    HW240122   1.074   4.268   9.169 -0.1373 -0.0461 -1.7650
 9555SOL     OW40123   1.814   0.653   7.184  0.6819 -0.3837  0.2380
 9555SOL    HW140124   1.902   0.666   7.150 -0.7774  0.0174 -3.3313
 9555SOL    HW240125   1.832   0.657   7.278 -2.1972  1.2445  0.7483
 9556SOL     OW40126   0.398   1.563  15.657 -0.2473  0.5280 -1.1208
 9556SOL    HW140127   0.462   1.494  15.641 -2.3885 -1.6049 -0.3712
 9556SOL    HW240128   0.456   1.634  15.628  0.0933 -0.1185 -2.0431
 9557SOL     OW40129   2.461   3.545  17.084 -0.7709  0.6477 -0.0714
 9557SOL    HW140130   2.471   3.638  17.106  0.9288  0.8157 -1.5643
 9557SOL    HW240131   2.410   3.519  17.160  0.1572  0.7984  0.5991
 9558SOL     OW40132   4.628   1.615   8.430  0.1139  0.0530 -0.0965
 9558SOL    HW140133   4.582   1.542   8.471 -0.2491 -0.6916 -1.8056
 9558SOL    HW240134   4.719   1.601   8.455  0.6388  2.5673 -0.6724
 9559SOL     OW40135   0.084   1.125  17.427  0.7111 -0.3870  0.3597
 9559SOL    HW140136   0.019   1.111  17.496 -0.6809  3.0846 -0.2336
 9559SOL    HW240137   0.119   1.036  17.436  2.4819  0.4179  1.2915
 9560SOL     OW40138   3.665   1.064   6.652 -0.2290  0.2811 -0.1006
 9560SOL    HW140139   3.671   1.123   6.727  0.4574 -1.4069  1.1692
 9560SOL    HW240140   3.671   0.981   6.699  3.0060 -0.8194 -2.4112
 9561SOL     OW40141   2.534   1.917   9.058  0.0332 -0.3917  0.0842
 9561SOL    HW140142   2.615   1.964   9.039 -1.3106  1.0917 -1.9818
 9561SOL    HW240143   2.480   1.993   9.080 -0.6266 -1.4245  2.0002
 9562SOL     OW40144   4.215   0.996  16.769 -0.4191 -0.1343  0.3477
 9562SOL    HW140145   4.163   1.034  16.699 -0.3979  0.2745  0.5559
 9562SOL    HW240146   4.297   1.011  16.722 -0.2822  0.4600  0.7797
 9563SOL     OW40147   3.930   0.643   9.461  0.1087  0.6149 -0.3304
 9563SOL    HW140148   4.019   0.608   9.464  0.0192  0.4192 -0.0203
 9563SOL    HW240149   3.891   0.570   9.508  1.6938 -0.6950 -1.0375
 9564SOL     OW40150   4.195   4.436   5.784 -0.9354 -0.1404  0.1295
 9564SOL    HW140151   4.148   4.355   5.767  1.6434 -1.2142 -1.8727
 9564SOL    HW240152   4.262   4.420   5.718  1.0162  2.6468  1.4301
 9565SOL     OW40153   1.245   4.294   4.379  0.1939  0.3871 -0.8966
 9565SOL    HW140154   1.297   4.366   4.415  1.3923 -0.1357 -1.5850
 9565SOL    HW240155   1.249   4.246   4.462 -1.0719  0.7618 -0.6141
   4.72237   4.72237  17.69158
