Membrane in water
40155
    1TCq1    O1    1   4.652   3.734  11.449 -0.0223  0.3669 -0.2757
    1TCq1    C1    2   4.632   3.802  11.568 -0.7918  0.3072  0.0101
    1TCq1    O2    3   4.606   3.922  11.576 -0.6249 -0.3609 -0.0306
    1TCq1    C2    4   4.612   3.708  11.678  0.2088  0.1454  0.2047
    1TCq1    C3    5   4.517   3.728  11.771  1.3839 -0.0452 -0.0822
    1TCq1    C4    6   4.517   3.655  11.886  0.3061  0.1028 -0.2538
    1TCq1    C5    7   4.598   3.549  11.899  0.0125 -0.7813 -0.3667
    1TCq1    C6    8   4.688   3.515  11.806 -0.1563 -0.5925 -0.5890
    1TCq1    C7    9   4.705   3.601  11.698 -0.2251 -0.0776 -0.0268
    1TCq1    C8   10   0.061   3.405  11.845 -0.2578 -0.7498  0.2831
    1TCq1    O4   11   0.107   3.340  11.750  0.5509 -0.0633 -0.1319
    1TCq1    C9   12   4.437   3.693  11.997  0.2971 -1.1219  0.1866
    1TCq1    O5   13   4.435   3.626  12.106 -0.2333  0.5558  0.4324
    1TCq1    O6   14   4.351   3.779  11.976  0.4394 -0.1711 -0.5566
    1TCq1    H1   15   4.683   3.645  11.475  0.7771  1.0212  1.0380
    1TCq1    H2   16   4.453   3.815  11.763  2.5383  0.6911 -1.3151
    1TCq1    H3   17   4.601   3.507  11.999 -0.4525 -0.5409 -0.2514
    1TCq1    H4   18   0.071   3.580  11.640 -0.0738  2.4170 -0.7142
    2MPD2     C   19   0.385   3.192  12.175 -0.3151  0.4953 -0.2838
    2MPD2    C1   20   0.400   3.218  12.041 -0.0172  0.6423 -0.7325
    2MPD2    C2   21   0.293   3.270  11.971 -0.3870 -0.4622  0.1505
    2MPD2    C3   22   0.180   3.313  12.038 -0.6391  0.0481 -0.1256
    2MPD2    C4   23   0.180   3.294  12.180  0.7236 -0.5443 -0.2885
    2MPD2    C5   24   0.277   3.225  12.252 -0.0310 -0.3863  0.2754
    2MPD2     H   25   0.299   3.285  11.864 -0.8198  0.4466  0.2610
    2MPD2    H1   26   0.086   3.323  12.226  1.1908  1.2674 -0.4424
    2MPD2    H2   27   0.462   3.139  12.231 -1.3539  1.3657  1.9542
    2MPD2    H3   28   0.279   3.215  12.360  2.0880  2.0036  0.4735
    2MPD2     N   29   0.083   3.401  11.977  0.2092  0.1510  0.1641
    2MPD2    H5   30   0.018   3.450  12.038 -0.9062 -0.6315 -0.3977
    2MPD2    N1   31   0.518   3.193  11.973  0.0585 -0.0960  0.3489
    2MPD2    H7   32   0.526   3.238  11.882 -2.4323 -1.5679 -0.6073
    3TCq1    O1   33   0.562   3.404  11.081  0.7528  0.0536 -0.5552
    3TCq1    C1   34   0.617   3.417  10.959  0.9433 -0.4102 -0.0785
    3TCq1    O2   35   0.710   3.348  10.917  0.4500  0.2727 -0.0542
    3TCq1    C2   36   0.591   3.553  10.900 -0.4596  0.4303  0.2485
    3TCq1    C3   37   0.606   3.564  10.766 -0.5899  0.2597  0.5661
    3TCq1    C4   38   0.559   3.672  10.704  0.3555  0.1360 -0.5599
    3TCq1    C5   39   0.506   3.781  10.776  0.4916  1.0900 -0.2624
    3TCq1    C6   40   0.495   3.763  10.916  0.4591  0.2383 -0.4384
    3TCq1    C7   41   0.533   3.646  10.979  0.0459  0.0325  0.8099
    3TCq1    C8   42   0.474   3.875  11.005 -0.3895 -0.1668  0.1008
    3TCq1    O4   43   0.467   3.851  11.125  0.0152  0.0611  0.2970
    3TCq1    C9   44   0.572   3.678  10.566  0.5626 -0.0044  0.0095
    3TCq1    O5   45   0.643   3.598  10.502 -0.2465 -0.5736 -0.1698
    3TCq1    O6   46   0.520   3.771  10.506  0.4258 -0.0551  0.3346
    3TCq1    H1   47   0.489   3.462  11.112 -0.0526 -1.1101 -0.2756
    3TCq1    H2   48   0.644   3.483  10.706  1.6214  0.8025  1.2399
    3TCq1    H3   49   0.483   3.873  10.722 -0.4685  0.1081 -1.5223
    3TCq1    H4   50   0.542   3.641  11.087  2.0684  0.6916  0.6843
    4MPD2     C   51   0.375   4.367  11.093  0.0036  0.6340 -0.3296
    4MPD2    C1   52   0.387   4.343  10.955 -0.2654  0.7707 -0.0171
    4MPD2    C2   53   0.425   4.225  10.898 -0.1027 -0.3334  0.2998
    4MPD2    C3   54   0.427   4.117  10.985  0.1653  0.0215 -0.1380
    4MPD2    C4   55   0.392   4.130  11.115  0.4377 -0.1981  0.0369
    4MPD2    C5   56   0.374   4.256  11.173  0.3853 -0.2100 -0.3162
    4MPD2     H   57   0.432   4.213  10.791 -3.1644  1.0885 -0.0439
    4MPD2    H1   58   0.378   4.042  11.176 -1.1628 -0.6942 -1.0555
    4MPD2    H2   59   0.351   4.463  11.136  0.5356  0.7543 -0.3029
    4MPD2    H3   60   0.345   4.278  11.275 -1.5060  1.6502 -1.2474
    4MPD2     N   61   0.453   3.986  10.936 -0.1499  0.1199  0.1103
    4MPD2    H5   62   0.470   3.988  10.836  0.6196  5.1826  0.3610
    4MPD2    N1   63   0.379   4.459  10.874 -0.0436 -0.2498 -0.1632
    4MPD2    H7   64   0.381   4.437  10.775  2.1729 -0.4169 -0.0813
    5TCq1    O1   65   1.996   0.796  11.731 -0.7916  0.0807 -0.1927
    5TCq1    C1   66   1.947   0.762  11.617  0.3558 -0.2612  0.2590
    5TCq1    O2   67   2.002   0.697  11.534 -0.0484  0.4497  0.3915
    5TCq1    C2   68   1.832   0.846  11.597 -0.1706  0.3300  0.1051
    5TCq1    C3   69   1.755   0.892  11.703 -0.2766  0.1427  0.3414
    5TCq1    C4   70   1.637   0.948  11.671 -0.1110 -0.9932  0.2722
    5TCq1    C5   71   1.599   0.966  11.542  0.5604  0.4744  0.3979
    5TCq1    C6   72   1.671   0.906  11.438  0.3734  0.2477 -0.0484
    5TCq1    C7   73   1.785   0.840  11.470 -1.0296 -0.4916  0.6717
    5TCq1    C8   74   1.627   0.917  11.297 -0.3256 -0.4406 -0.3191
    5TCq1    O4   75   1.672   0.826  11.229  0.3132 -0.0367  0.1944
    5TCq1    C9   76   1.543   0.984  11.778 -0.1600  0.2654  0.0904
    5TCq1    O5   77   1.586   0.973  11.897  0.4728 -0.7658  0.0801
    5TCq1    O6   78   1.426   1.019  11.744 -0.5516  0.3351  0.2704
    5TCq1    H1   79   1.943   0.862  11.781  1.3357  0.5176  1.4865
    5TCq1    H2   80   1.784   0.886  11.807 -1.0906 -1.9396  0.4547
    5TCq1    H3   81   1.505   1.016  11.524 -0.3200 -1.2184  0.2554
    5TCq1    H4   82   1.831   0.774  11.397  3.9116  1.6116  1.8578
    6MPD2     C   83   1.413   1.157  11.128  0.1865 -0.1705 -0.4611
    6MPD2    C1   84   1.484   1.042  11.136  0.7070  0.3089 -0.0272
    6MPD2    C2   85   1.504   0.965  11.023 -0.7826  0.0928  0.0328
    6MPD2    C3   86   1.454   1.005  10.899 -0.7996  0.8057  0.2047
    6MPD2    C4   87   1.387   1.125  10.891  0.0996  0.3313 -0.0618
    6MPD2    C5   88   1.371   1.200  11.005 -0.0842  0.4707 -0.0288
    6MPD2     H   89   1.563   0.875  11.026 -1.6352 -0.4457  0.6706
    6MPD2    H1   90   1.344   1.165  10.799  1.9590 -0.2874 -1.1939
    6MPD2    H2   91   1.388   1.215  11.216 -3.6545  1.2154 -2.4965
    6MPD2    H3   92   1.324   1.296  10.989  0.1889  0.6941  0.4784
    6MPD2     N   93   1.466   0.918  10.792  0.6190 -0.0767  0.8469
    6MPD2    H5   94   1.521   0.834  10.806 -0.6130 -0.8464  1.1160
    6MPD2    N1   95   1.543   1.016  11.264 -0.4487  0.3781 -0.2312
    6MPD2    H7   96   1.530   1.081  11.341  0.0917  0.0651  0.1277
    7TCq1    O1   97   3.173   1.211  13.004  0.0376  0.9177  0.3943
    7TCq1    C1   98   3.196   1.134  13.105  0.0113 -0.2268 -0.1254
    7TCq1    O2   99   3.239   1.166  13.212 -0.1368  1.2118 -0.1063
    7TCq1    C2  100   3.200   0.995  13.053 -0.3733 -1.1800  0.4861
    7TCq1    C3  101   3.149   0.956  12.932 -0.2320 -0.3888  1.4460
    7TCq1    C4  102   3.167   0.825  12.894  0.9450 -0.0673 -0.0165
    7TCq1    C5  103   3.241   0.741  12.978  0.4123 -0.9486  0.3841
    7TCq1    C6  104   3.300   0.783  13.097  0.1295  0.7759 -0.4664
    7TCq1    C7  105   3.277   0.910  13.138  0.2814  0.0976  0.0847
    7TCq1    C8  106   3.397   0.700  13.155 -0.1971  0.4367  0.6896
    7TCq1    O4  107   3.412   0.587  13.105 -0.8513 -0.4816  0.2019
    7TCq1    C9  108   3.113   0.760  12.776 -0.2056  0.1057  0.6669
    7TCq1    O5  109   3.137   0.638  12.754 -0.4861 -0.5552  0.0664
    7TCq1    O6  110   3.038   0.830  12.702  0.0814 -0.1456 -0.2260
    7TCq1    H1  111   3.183   1.157  12.923 -2.0293 -0.3511  0.9603
    7TCq1    H2  112   3.076   1.015  12.878 -1.2290 -1.8427  1.1910
    7TCq1    H3  113   3.258   0.639  12.946 -0.3995 -1.7611  2.5474
    7TCq1    H4  114   3.302   0.942  13.239  0.7984  3.7274 -1.1805
    8MPD2     C  115   3.732   0.543  13.519  0.3764  0.0811 -0.7098
    8MPD2    C1  116   3.661   0.472  13.427 -0.2292 -0.9718  0.2855
    8MPD2    C2  117   3.585   0.542  13.335  0.2630 -0.1919 -0.3044
    8MPD2    C3  118   3.566   0.675  13.331  0.2313  0.4794  0.6235
    8MPD2    C4  119   3.641   0.743  13.421  0.8814 -0.1037  1.2946
    8MPD2    C5  120   3.726   0.683  13.508 -0.0059 -0.4711 -0.7094
    8MPD2     H  121   3.545   0.481  13.254  0.7369  1.2716 -1.6464
    8MPD2    H1  122   3.633   0.851  13.422 -0.3605 -0.1958  1.3042
    8MPD2    H2  123   3.802   0.497  13.588 -0.9721  2.5330  2.3135
    8MPD2    H3  124   3.801   0.739  13.562 -0.4999  0.5858 -1.1367
    8MPD2     N  125   3.468   0.753  13.258 -0.3341  0.0399 -0.3978
    8MPD2    H5  126   3.463   0.852  13.282 -0.9996  0.0283 -0.4885
    8MPD2    N1  127   3.685   0.332  13.426  0.1271 -0.5256  0.3311
    8MPD2    H7  128   3.753   0.310  13.498  1.1095 -1.6834 -0.9411
    9TCq1    O1  129   0.567   0.026  10.427  0.2348  0.5422  0.0037
    9TCq1    C1  130   0.690   0.086  10.406 -0.3558 -0.1534  0.4111
    9TCq1    O2  131   0.747   0.087  10.299  0.3092  0.0537  0.2761
    9TCq1    C2  132   0.758   0.058  10.532 -0.0456  0.5433  0.3157
    9TCq1    C3  133   0.694   0.064  10.651  0.4274 -0.0802 -0.5814
    9TCq1    C4  134   0.753   0.001  10.757  0.2833  0.1070  0.0538
    9TCq1    C5  135   0.876   4.660  10.744 -0.1644 -0.5767  0.4334
    9TCq1    C6  136   0.936   4.652  10.624  0.2127 -0.0007  1.1134
    9TCq1    C7  137   0.884   4.720  10.515 -0.4879 -0.1286  0.0108
    9TCq1    C8  138   1.062   4.585  10.605 -0.1570  0.6000  0.7607
    9TCq1    O4  139   1.123   4.619  10.505  0.1989  0.0992 -0.4643
    9TCq1    C9  140   0.703   0.018  10.893  0.7482 -0.8820  0.3848
    9TCq1    O5  141   0.755   4.671  10.983  0.2703 -0.1875  0.6022
    9TCq1    O6  142   0.616   0.109  10.909  0.1254 -0.2403 -0.5034
    9TCq1    H1  143   0.562   4.716  10.519 -4.3230  1.5394  0.1311
    9TCq1    H2  144   0.599   0.114  10.662 -0.8391 -2.6380 -0.0261
    9TCq1    H3  145   0.912   4.615  10.835  0.0432  1.3269  1.2877
    9TCq1    H4  146   0.925   4.720  10.415 -1.0026 -1.0005 -0.1973
   10MPD2     C  147   1.320   4.473  10.686 -0.8537  0.7018  0.0999
   10MPD2    C1  148   1.205   4.446  10.753 -0.3181  0.1217 -0.3623
   10MPD2    C2  149   1.203   4.364  10.861  0.8800 -0.3273 -0.1463
   10MPD2    C3  150   1.311   4.291  10.896  0.4951 -0.4112  0.5454
   10MPD2    C4  151   1.429   4.310  10.825 -0.0486 -0.4666 -0.2154
   10MPD2    C5  152   1.436   4.401  10.717  0.3990  0.0452  0.2106
   10MPD2     H  153   1.107   4.367  10.912  0.9557 -0.5152  0.0048
   10MPD2    H1  154   1.517   4.253  10.852 -0.3740  0.3823  2.6372
   10MPD2    H2  155   1.326   4.548  10.608  2.7874  0.0506 -0.2575
   10MPD2    H3  156   1.529   4.409  10.661 -0.9768 -1.2692 -2.2680
   10MPD2     N  157   1.319   4.205  11.005 -0.2343  0.5656 -0.2886
   10MPD2    H5  158   1.409   4.160  11.020  0.6961  2.4483 -0.2172
   10MPD2    N1  159   1.088   4.513  10.718 -0.0024 -0.2589 -0.0468
   10MPD2    H7  160   1.014   4.482  10.780  0.8430 -0.0966  1.0553
   11TCq1    O1  161   2.504   3.336  14.835  0.1069  0.7043  0.2481
   11TCq1    C1  162   2.487   3.339  14.700  0.2277 -0.7686 -0.8121
   11TCq1    O2  163   2.490   3.240  14.631 -0.1057  0.3796  0.3334
   11TCq1    C2  164   2.461   3.482  14.664  0.1460  0.1366  0.0606
   11TCq1    C3  165   2.543   3.576  14.703 -0.3327  0.8234 -0.3714
   11TCq1    C4  166   2.569   3.690  14.631 -0.3622  0.2156  1.0124
   11TCq1    C5  167   2.500   3.716  14.516  0.0097 -0.1608 -0.4729
   11TCq1    C6  168   2.411   3.613  14.469 -0.5525  0.1826  0.1269
   11TCq1    C7  169   2.391   3.503  14.548 -0.4897  0.7445  1.0348
   11TCq1    C8  170   2.317   3.627  14.357  0.6444  0.2868  0.8098
   11TCq1    O4  171   2.231   3.542  14.348  0.1993  0.0445 -0.0479
   11TCq1    C9  172   2.670   3.781  14.676 -0.3859 -0.0927  0.2643
   11TCq1    O5  173   2.703   3.877  14.596  0.6966 -0.3122 -0.3188
   11TCq1    O6  174   2.715   3.761  14.792 -0.3560  0.3765 -0.0297
   11TCq1    H1  175   2.476   3.413  14.888  1.0590  0.1265  1.6139
   11TCq1    H2  176   2.602   3.563  14.793  0.4066  1.1760 -0.8019
   11TCq1    H3  177   2.498   3.819  14.482  0.3510  0.9867  3.0147
   11TCq1    H4  178   2.321   3.424  14.524 -0.9361  1.0306  1.4011
   12MPD2     C  179   2.328   3.838  14.058 -0.4698 -0.5453 -0.7029
   12MPD2    C1  180   2.308   3.728  14.133 -0.5404  0.1429  0.2084
   12MPD2    C2  181   2.257   3.615  14.070 -0.0718  0.8735  0.4088
   12MPD2    C3  182   2.213   3.617  13.938  0.1630 -0.4763  0.6627
   12MPD2    C4  183   2.240   3.729  13.864 -0.1002 -0.0135  0.0137
   12MPD2    C5  184   2.300   3.841  13.924  0.3846  0.8997  0.0393
   12MPD2     H  185   2.247   3.523  14.127 -2.2871  0.4022 -0.7321
   12MPD2    H1  186   2.216   3.725  13.758 -0.3852  0.8984  0.0449
   12MPD2    H2  187   2.368   3.928  14.104  2.4273 -2.1222 -0.0885
   12MPD2    H3  188   2.333   3.931  13.874  1.1804  0.6459  0.1048
   12MPD2     N  189   2.146   3.510  13.877 -0.0847  0.2502 -0.2873
   12MPD2    H5  190   2.107   3.529  13.785 -1.2173  1.2291  0.3939
   12MPD2    N1  191   2.348   3.729  14.271 -0.3500 -0.4692  0.2844
   12MPD2    H7  192   2.412   3.803  14.298  0.1707 -1.0216  0.5670
   13TCq1    O1  193   0.650   4.430  10.415 -0.3788 -0.4813 -0.1812
   13TCq1    C1  194   0.642   4.390  10.541  0.0611 -0.2656 -0.0460
   13TCq1    O2  195   0.575   4.437  10.627 -0.2631  0.2472  0.5731
   13TCq1    C2  196   0.694   4.256  10.532  0.2479 -0.4033  0.2061
   13TCq1    C3  197   0.707   4.201  10.408  0.3105 -0.2524  0.5146
   13TCq1    C4  198   0.738   4.067  10.404 -0.4269 -0.7603 -0.0154
   13TCq1    C5  199   0.778   4.003  10.520  0.1448  0.3815 -0.4081
   13TCq1    C6  200   0.767   4.069  10.640  0.8515  0.5082 -0.0005
   13TCq1    C7  201   0.720   4.195  10.647 -0.0949  0.2706  0.2845
   13TCq1    C8  202   0.813   4.008  10.758 -1.0209 -0.0930 -0.4654
   13TCq1    O4  203   0.804   4.080  10.855  0.2643  0.3426 -0.0619
   13TCq1    C9  204   0.737   3.995  10.279  0.6275  0.5474  0.5074
   13TCq1    O5  205   0.718   4.069  10.176 -0.5607  0.0150 -0.0308
   13TCq1    O6  206   0.744   3.871  10.284 -0.5749 -0.4027 -0.5508
   13TCq1    H1  207   0.737   4.397  10.386 -0.1155  0.6223 -0.6765
   13TCq1    H2  208   0.690   4.249  10.312 -0.1032 -0.9207  0.2576
   13TCq1    H3  209   0.806   3.899  10.515 -0.5865 -0.0025  3.8380
   13TCq1    H4  210   0.697   4.241  10.742  0.3579  0.5038  0.2792
   14MPD2     C  211   0.913   3.661  10.844  0.3792 -0.3728 -0.1965
   14MPD2    C1  212   0.873   3.788  10.862 -0.0175 -0.9567 -0.0688
   14MPD2    C2  213   0.839   3.825  10.989 -0.2978 -0.1817  0.5567
   14MPD2    C3  214   0.839   3.734  11.097 -0.5051  0.1183 -0.0460
   14MPD2    C4  215   0.881   3.610  11.080 -0.3106 -0.1863 -0.0601
   14MPD2    C5  216   0.926   3.579  10.951  0.1415 -0.2590  0.8196
   14MPD2     H  217   0.795   3.919  11.017  0.5561  0.2656  0.4028
   14MPD2    H1  218   0.884   3.538  11.162  0.1061 -0.2452 -0.1284
   14MPD2    H2  219   0.933   3.621  10.745 -1.4701 -2.4091  0.2319
   14MPD2    H3  220   0.956   3.478  10.924 -1.7862 -0.4902 -0.4583
   14MPD2     N  221   0.791   3.786  11.223  0.3931  0.3257  0.2250
   14MPD2    H5  222   0.777   3.887  11.226  1.6250  0.4903  0.4162
   14MPD2    N1  223   0.843   3.873  10.750  0.0311 -0.3101 -0.2033
   14MPD2    H7  224   0.841   3.828  10.659 -1.3386  1.8098 -1.2048
   15TCq1    O1  225   2.780   3.148   1.779 -0.0883  0.5909  0.7882
   15TCq1    C1  226   2.877   3.132   1.683  0.3476 -0.1508  1.0778
   15TCq1    O2  227   2.846   3.101   1.572  0.2623 -0.0852 -0.0509
   15TCq1    C2  228   3.009   3.165   1.727  0.6465 -0.1066  0.1946
   15TCq1    C3  229   3.014   3.256   1.830  0.3446  0.3134  0.0436
   15TCq1    C4  230   3.133   3.319   1.848  0.2252 -0.4686 -0.5918
   15TCq1    C5  231   3.245   3.302   1.773 -0.0077 -0.4389  0.1659
   15TCq1    C6  232   3.239   3.209   1.672  0.3664 -0.5009  1.0772
   15TCq1    C7  233   3.124   3.143   1.646 -0.1830 -0.0164  1.0449
   15TCq1    C8  234   3.353   3.201   1.581 -0.0953 -0.5563 -0.1691
   15TCq1    O4  235   3.460   3.244   1.619  0.0747 -0.6572  0.8379
   15TCq1    C9  236   3.138   3.421   1.953  0.5975  0.2597  0.2839
   15TCq1    O5  237   3.225   3.512   1.944  0.6192 -0.9016 -0.2942
   15TCq1    O6  238   3.045   3.420   2.040 -0.0923 -0.2366  0.0306
   15TCq1    H1  239   2.808   3.117   1.868  1.6583 -0.8754 -0.2811
   15TCq1    H2  240   2.943   3.275   1.910  1.5558 -0.9564  1.4300
   15TCq1    H3  241   3.336   3.357   1.795  0.2685 -0.9301  0.2649
   15TCq1    H4  242   3.114   3.060   1.578  0.2607 -0.2914  1.3113
   16MPD2     C  243   3.359   3.130   1.218  0.4899  0.9398  0.6025
   16MPD2    C1  244   3.408   3.135   1.348  0.5156  0.0493  0.0667
   16MPD2    C2  245   3.545   3.117   1.363 -0.2787 -0.4425 -0.1413
   16MPD2    C3  246   3.620   3.063   1.263  0.1572  0.1971  0.1721
   16MPD2    C4  247   3.565   3.057   1.133  0.0443 -0.0528 -0.6582
   16MPD2    C5  248   3.434   3.092   1.107 -0.0814  0.1794 -1.2786
   16MPD2     H  249   3.590   3.130   1.461 -2.4387  1.6301  0.5575
   16MPD2    H1  250   3.627   3.030   1.048  1.8029 -3.9245  1.8653
   16MPD2    H2  251   3.255   3.148   1.193  1.0983 -0.7446 -3.2798
   16MPD2    H3  252   3.382   3.100   1.012 -1.6928  0.7711 -0.3463
   16MPD2     N  253   3.755   3.028   1.295 -0.0268  0.6740  0.1730
   16MPD2    H5  254   3.789   3.069   1.380  1.8728  0.3657 -0.4349
   16MPD2    N1  255   3.311   3.169   1.453  0.0198 -0.1014  0.2674
   16MPD2    H7  256   3.212   3.164   1.430  0.2687  1.1914 -1.0483
   17TCq1    O1  257   0.682   1.904  10.504  0.6496 -0.1104  0.0419
   17TCq1    C1  258   0.792   1.883  10.573 -0.2064 -0.3633  0.5836
   17TCq1    O2  259   0.904   1.869  10.521  0.4723 -0.3185 -0.3519
   17TCq1    C2  260   0.773   1.924  10.709  0.2562 -0.2365 -0.3408
   17TCq1    C3  261   0.649   1.933  10.759 -0.3884  0.7239 -0.2011
   17TCq1    C4  262   0.639   1.997  10.882 -0.6648 -0.1291 -0.1703
   17TCq1    C5  263   0.753   2.048  10.941 -0.4724 -0.0666  0.0019
   17TCq1    C6  264   0.869   2.050  10.868  0.5409 -0.1446 -0.0890
   17TCq1    C7  265   0.883   1.987  10.754 -0.1285 -0.2879  0.2798
   17TCq1    C8  266   0.986   2.121  10.922 -1.2083  0.2700  0.8183
   17TCq1    O4  267   0.998   2.129  11.040  0.5300  0.3902 -0.0093
   17TCq1    C9  268   0.519   1.992  10.943 -0.4286 -0.5285  0.7644
   17TCq1    O5  269   0.533   2.014  11.071  0.4587  0.1142 -0.1767
   17TCq1    O6  270   0.418   1.976  10.875  0.4190  0.2254 -0.2818
   17TCq1    H1  271   0.598   1.921  10.550  1.9513  3.0376  1.2715
   17TCq1    H2  272   0.560   1.883  10.722 -0.3757 -0.0157  0.7699
   17TCq1    H3  273   0.745   2.098  11.036  1.8308  0.8161 -0.2835
   17TCq1    H4  274   0.979   1.963  10.710  0.7721  0.4026  1.8680
   18MPD2     C  275   1.208   2.308  10.960  0.1876  0.0821  0.4380
   18MPD2    C1  276   1.167   2.268  10.838  0.1348  0.9346 -0.2510
   18MPD2    C2  277   1.233   2.305  10.723 -0.0373  0.1393 -0.2281
   18MPD2    C3  278   1.338   2.390  10.736  0.0759  0.3649  0.6445
   18MPD2    C4  279   1.368   2.443  10.862 -0.4233  0.2620 -0.0370
   18MPD2    C5  280   1.314   2.389  10.972  0.3214 -0.3918  0.1559
   18MPD2     H  281   1.197   2.273  10.626 -1.3844 -0.6232  0.5126
   18MPD2    H1  282   1.446   2.518  10.866 -1.2216  1.0642  0.3488
   18MPD2    H2  283   1.158   2.284  11.053 -1.6522 -0.1073 -0.6198
   18MPD2    H3  284   1.344   2.426  11.069  0.9256  0.0080 -0.1835
   18MPD2     N  285   1.415   2.441  10.628 -0.3601  0.0565 -0.0920
   18MPD2    H5  286   1.497   2.498  10.645  0.0311 -0.2850 -0.8243
   18MPD2    N1  287   1.060   2.175  10.818  0.0374  0.1679 -0.2401
   18MPD2    H7  288   1.036   2.170  10.719 -2.2721  3.3019  0.1716
   19TMC2    C1  289   3.149   3.488  14.226  0.1056  0.2668 -0.0070
   19TMC2    C2  290   3.137   3.550  14.101  0.4840  0.7812 -0.4255
   19TMC2    C3  291   3.027   3.519  14.025  0.1781 -0.4235  0.5817
   19TMC2    C4  292   3.069   3.383  14.261  0.0130 -0.0691 -0.6436
   19TMC2    C5  293   2.968   3.352  14.177 -0.6192  0.3413 -0.1995
   19TMC2    C6  294   2.939   3.416  14.058 -0.9378 -0.6395 -0.7172
   19TMC2     C  295   3.251   3.536  14.314 -0.1385  0.1095  0.2628
   19TMC2     O  296   3.259   3.655  14.318 -0.0637 -0.5331  0.7182
   19TMC2     H  297   3.199   3.635  14.078  0.8117  0.9042  0.9169
   19TMC2    H1  298   3.082   3.340  14.359  1.0959 -1.4135 -1.3782
   19TMC2    H2  299   2.839   3.404  14.019 -1.3966  0.3083  0.1703
   19TMC2    C7  300   2.910   3.220  14.192  0.3843  0.3137 -0.2572
   19TMC2    C8  301   2.994   3.621  13.923 -0.0515  0.1917  0.9574
   19TMC2    O1  302   2.910   3.175  14.307  0.1822  0.1034  0.0034
   19TMC2    O2  303   2.880   3.649  13.893 -0.3183 -0.2549 -0.2553
   19TMC2    O5  304   3.096   3.605  13.830  0.0884 -0.0104  0.3527
   19TMC2    H5  305   3.164   3.549  13.872  0.7936  1.2962  0.9718
   20MPD2     C  306   3.458   3.597  14.520  0.1382 -0.2893  0.1496
   20MPD2    C1  307   3.368   3.489  14.520 -0.0841 -0.4365  0.5368
   20MPD2    C2  308   3.360   3.413  14.636  0.1944  0.2788 -0.1192
   20MPD2    C3  309   3.436   3.447  14.748 -0.6704 -0.5696  0.1435
   20MPD2    C4  310   3.514   3.558  14.743 -0.2506 -0.6783  0.2753
   20MPD2    C5  311   3.529   3.634  14.630 -0.5675 -0.2823 -0.7674
   20MPD2     H  312   3.302   3.322  14.626  0.9324 -0.6228  3.7319
   20MPD2    H1  313   3.561   3.589  14.836 -1.8277  0.6634  0.6147
   20MPD2    H2  314   3.471   3.657  14.431  4.1841  4.6855  4.0147
   20MPD2    H3  315   3.594   3.718  14.651 -0.0593 -1.1040  0.9880
   20MPD2     N  316   3.424   3.375  14.875  0.8199 -0.2217  0.5422
   20MPD2    H5  317   3.466   3.422  14.955  1.6867 -2.7700  1.5717
   20MPD2    N1  318   3.298   3.446  14.403 -0.0160 -0.1820 -0.0786
   20MPD2    H7  319   3.269   3.349  14.400 -0.4806 -0.0840  1.2421
   21MPD2     C  320   0.607   4.299  14.121  0.8002  0.6169  0.4082
   21MPD2    C1  321   0.700   4.216  14.173  0.1428 -0.0938 -0.6700
   21MPD2    C2  322   0.660   4.107  14.249 -0.3351 -0.2631 -0.2838
   21MPD2    C3  323   0.523   4.076  14.256  0.2242  0.3299  0.1393
   21MPD2    C4  324   0.431   4.166  14.203 -0.8515  0.5205  0.5425
   21MPD2    C5  325   0.477   4.278  14.134  0.0016  0.5323  0.3220
   21MPD2     H  326   0.736   4.043  14.291 -0.7284 -1.1529 -0.9061
   21MPD2    H1  327   0.325   4.144  14.210 -0.6491 -0.7429 -0.2650
   21MPD2    H2  328   0.637   4.394  14.079  0.1459  0.6657  0.0555
   21MPD2    H3  329   0.403   4.346  14.093  0.7210  1.3039  0.3301
   21MPD2     N  330   0.473   3.969  14.333  0.0571 -0.0088 -0.2622
   21MPD2    H5  331   0.374   3.971  14.354  0.3991 -2.5519  1.5569
   21MPD2    N1  332   0.837   4.250  14.174  0.4549  0.5478 -0.8001
   21MPD2    H7  333   0.896   4.200  14.239  0.4819  1.8703  0.1959
   22TCq2    C1  334   0.554   3.861  14.358  0.6842  0.1564 -0.6490
   22TCq2    O2  335   0.657   3.824  14.301  0.6312  0.5772 -0.2421
   22TCq2    C2  336   0.502   3.767  14.459 -0.9083  0.0150 -0.0484
   22TCq2    C3  337   0.579   3.656  14.472  0.0096  0.1413 -0.6097
   22TCq2    C4  338   0.571   3.593  14.593 -0.1095 -0.3965  0.0044
   22TCq2    C5  339   0.468   3.624  14.680 -0.8011 -0.8013 -1.3007
   22TCq2    C6  340   0.388   3.732  14.655 -0.0749 -0.8071 -0.2756
   22TCq2    C7  341   0.399   3.806  14.541 -0.4388  0.7397  0.0819
   22TCq2    C8  342   0.275   3.755  14.739 -0.2993 -0.3791  0.7396
   22TCq2    O4  343   0.263   3.704  14.851 -1.0613  0.1306  0.4997
   22TCq2    C9  344   0.652   3.485  14.624  0.1496  0.4321  0.6669
   22TCq2    O5  345   0.726   3.446  14.530 -0.6373 -0.8032 -0.2840
   22TCq2    O6  346   0.613   3.410  14.716 -0.5256  0.1964 -0.3862
   22TCq2    H2  347   0.651   3.625  14.397  1.5195 -0.4626  1.0791
   22TCq2    H3  348   0.449   3.567  14.770 -1.2385 -0.7613 -1.3704
   22TCq2    H4  349   0.352   3.902  14.523  1.3678  1.7385  0.6632
   23MPD2     C  350   1.994   0.582  15.019 -0.8883  0.2453 -0.2930
   23MPD2    C1  351   1.979   0.455  14.971  0.1413  0.0469  0.0981
   23MPD2    C2  352   1.889   0.439  14.861  1.1610  0.0593  0.0451
   23MPD2    C3  353   1.817   0.543  14.814  0.0838  0.4369 -0.0637
   23MPD2    C4  354   1.831   0.669  14.872  0.6682 -0.0892  1.0790
   23MPD2    C5  355   1.924   0.689  14.970 -0.8679  0.1050 -0.1009
   23MPD2     H  356   1.897   0.342  14.813 -1.1330  0.5607 -1.3491
   23MPD2    H1  357   1.777   0.755  14.835 -0.9709 -1.9521 -0.9227
   23MPD2    H2  358   2.068   0.610  15.093 -1.2133 -2.3780  1.0190
   23MPD2    H3  359   1.938   0.786  15.017  1.3717  0.3321 -1.2633
   23MPD2     N  360   1.729   0.536  14.699  0.1274  0.1058  0.8400
   23MPD2    H5  361   1.691   0.626  14.672  0.6151  0.1113  0.1583
   23MPD2    N1  362   2.069   0.357  15.025  0.1008 -0.1878 -0.1739
   23MPD2    H7  363   2.128   0.398  15.096 -1.4644 -1.1290  1.6849
   24TCq2    C1  364   1.700   0.430  14.620  0.1725 -0.7306 -0.1723
   24TCq2    O2  365   1.743   0.317  14.621 -0.0886  0.0687 -0.3577
   24TCq2    C2  366   1.572   0.430  14.554  0.5586 -0.0535  0.0421
   24TCq2    C3  367   1.500   0.550  14.545  0.1731 -0.2189 -0.2483
   24TCq2    C4  368   1.380   0.548  14.489 -0.6324  0.0885  0.0734
   24TCq2    C5  369   1.338   0.433  14.424  0.5456 -0.0933  0.3234
   24TCq2    C6  370   1.402   0.317  14.441  0.1175 -0.3578 -0.3718
   24TCq2    C7  371   1.520   0.309  14.512  0.2361  0.3615 -0.1301
   24TCq2    C8  372   1.363   0.198  14.366 -0.7565 -0.1434 -0.0299
   24TCq2    O4  373   1.438   0.100  14.365 -0.2140  0.6520  0.6244
   24TCq2    C9  374   1.305   0.669  14.475 -0.1865  0.3137 -0.1317
   24TCq2    O5  375   1.364   0.777  14.484  0.2634 -0.2468  0.1101
   24TCq2    O6  376   1.207   0.666  14.395 -0.3541  0.2538  0.2019
   24TCq2    H2  377   1.536   0.646  14.582 -1.1096  0.9024 -1.9099
   24TCq2    H3  378   1.247   0.439  14.366  2.0524 -1.1778 -2.1702
   24TCq2    H4  379   1.573   0.215  14.501  0.4369  0.5956 -1.1753
   25TMC2    C1  380   0.917   1.756  11.414 -0.4737 -0.2820  0.0032
   25TMC2    C2  381   0.963   1.652  11.495  0.2102 -0.0858 -0.2602
   25TMC2    C3  382   0.907   1.636  11.619  0.3064  0.2609  0.3078
   25TMC2    C4  383   0.812   1.837  11.459  0.5082 -0.1867 -0.4379
   25TMC2    C5  384   0.762   1.822  11.583 -0.3586 -0.1391  0.0137
   25TMC2    C6  385   0.807   1.719  11.667 -0.3039  0.1022 -0.1522
   25TMC2     C  386   0.967   1.749  11.273  0.5402 -0.3735 -0.6689
   25TMC2     O  387   1.087   1.726  11.256 -0.6969 -0.1869 -0.1356
   25TMC2     H  388   1.040   1.586  11.458  1.4610  1.0436  0.3145
   25TMC2    H1  389   0.775   1.904  11.382 -1.5276  1.3410  1.8955
   25TMC2    H2  390   0.756   1.687  11.757  0.4003 -1.5815 -0.3511
   25TMC2    C7  391   0.715   1.929  11.657 -0.1900  0.5116  0.1699
   25TMC2    C8  392   0.920   1.518  11.695  0.3076 -0.3043  0.3840
   25TMC2    O1  393   0.681   1.913  11.777  0.3570  0.2274 -0.1079
   25TMC2    O2  394   0.834   1.468  11.766  0.3294 -0.1560  0.0486
   25TMC2    O5  395   1.052   1.497  11.713 -0.1743 -0.1458 -0.9253
   25TMC2    H5  396   1.115   1.563  11.678 -0.2747 -0.9571 -2.6488
   26MPD2     C  397   0.892   1.597  10.809 -0.5722 -0.1613  0.0400
   26MPD2    C1  398   0.774   1.580  10.877 -0.2105  0.3395 -0.5158
   26MPD2    C2  399   0.765   1.643  11.001  0.4011 -0.4603  0.3551
   26MPD2    C3  400   0.878   1.697  11.057 -0.1809 -0.8091  0.2796
   26MPD2    C4  401   0.999   1.696  10.989 -0.5140  0.5580  0.5478
   26MPD2    C5  402   1.004   1.647  10.869  0.2881  0.0040  0.3908
   26MPD2     H  403   0.674   1.645  11.059  0.5379  1.8337  0.4862
   26MPD2    H1  404   1.085   1.752  11.024 -0.5483  0.7301  0.3532
   26MPD2    H2  405   0.910   1.578  10.703 -1.4941  2.0347 -0.5065
   26MPD2    H3  406   1.095   1.661  10.810  0.0691  1.8800  0.5035
   26MPD2     N  407   0.865   1.756  11.183  0.6267 -0.0334 -0.1169
   26MPD2    H5  408   0.771   1.773  11.218  1.5352  2.8651  0.8761
   26MPD2    N1  409   0.662   1.534  10.802  0.1604 -0.1861 -0.1425
   26MPD2    H7  410   0.678   1.499  10.708 -1.9801  3.2120 -1.7633
   27TMC2    C1  411   4.367   4.600  11.498 -0.1202  0.0497  0.5942
   27TMC2    C2  412   4.352   4.613  11.361  0.6035 -0.3878  0.1616
   27TMC2    C3  413   4.292   0.000  11.319 -0.6334  0.1066 -0.2485
   27TMC2    C4  414   4.339   4.698  11.587 -0.4094 -0.4449  0.7501
   27TMC2    C5  415   4.289   0.090  11.535  0.4989 -0.3761 -0.6295
   27TMC2    C6  416   4.271   0.105  11.400  0.0331 -0.2359  0.0334
   27TMC2     C  417   4.359   4.460  11.536  0.5366 -0.6137 -0.2302
   27TMC2     O  418   4.443   4.383  11.494  0.9510 -0.1539  0.1275
   27TMC2     H  419   4.373   4.534  11.291 -0.0060 -0.0968 -0.3550
   27TMC2    H1  420   4.373   4.696  11.690  0.8597  0.3613  0.3582
   27TMC2    H2  421   4.218   0.193  11.362  0.0457 -1.2032 -2.2529
   27TMC2    C7  422   4.228   0.182  11.630  0.3317 -0.5982  0.1688
   27TMC2    C8  423   4.212   4.713  11.198  0.1298 -0.4168  0.0318
   27TMC2    O1  424   4.244   0.148  11.744  0.1538  0.4122 -0.1890
   27TMC2    O2  425   4.155   4.609  11.170 -0.0695 -0.0971  0.2820
   27TMC2    O5  426   4.272   0.073  11.112 -0.4980  0.1808 -0.2024
   27TMC2    H5  427   4.330   0.136  11.160  0.6117 -2.8223  2.3533
   28MPD2     C  428   4.191   4.102  11.859 -0.4725 -0.0953 -0.0480
   28MPD2    C1  429   4.128   4.218  11.894 -0.2593 -0.4559 -0.8464
   28MPD2    C2  430   4.161   4.337  11.820  0.6294 -0.1812  0.1403
   28MPD2    C3  431   4.248   4.330  11.715 -0.1222  0.5523 -0.2878
   28MPD2    C4  432   4.308   4.212  11.685  0.0660  0.7534 -0.6799
   28MPD2    C5  433   4.280   4.096  11.754  0.8147  0.2609 -0.1312
   28MPD2     H  434   4.113   4.433  11.836 -0.7627 -0.9267  0.3517
   28MPD2    H1  435   4.372   4.197  11.598  1.6302  0.5839  0.5002
   28MPD2    H2  436   4.173   4.008  11.908  2.0732  0.8211  2.6846
   28MPD2    H3  437   4.315   3.999  11.722 -1.7328 -1.0722  1.1817
   28MPD2     N  438   4.271   4.449  11.642 -0.4249 -0.4263  0.2398
   28MPD2    H5  439   4.227   4.538  11.664  0.5230 -0.4401  2.2274
   28MPD2    N1  440   4.051   4.226  12.016 -0.2850  0.1769  0.0694
   28MPD2    H7  441   4.051   4.140  12.070  0.2259 -1.0738 -1.9151
   29MPD2     C  442   3.907   2.067  14.088  0.1907 -0.1691  0.0380
   29MPD2    C1  443   4.043   2.043  14.117 -0.4462 -0.0927  0.1288
   29MPD2    C2  444   4.120   2.148  14.168 -0.7116  0.0295 -0.1005
   29MPD2    C3  445   4.060   2.265  14.205 -0.4058  0.2972 -0.0665
   29MPD2    C4  446   3.927   2.284  14.176  0.3258  0.2954 -0.1895
   29MPD2    C5  447   3.852   2.188  14.118 -0.0062 -0.1751 -0.7132
   29MPD2     H  448   4.228   2.136  14.173 -0.6143  1.2267  0.8972
   29MPD2    H1  449   3.867   2.368  14.209  2.4211  1.6191  0.2954
   29MPD2    H2  450   3.839   1.999  14.039 -0.3318  2.1506 -2.4692
   29MPD2    H3  451   3.748   2.204  14.091 -0.2655  2.5500  1.8245
   29MPD2     N  452   4.113   2.360  14.285 -0.4173 -0.2837 -0.0131
   29MPD2    H5  453   4.065   2.448  14.300 -1.1792 -0.2417 -2.8802
   29MPD2    N1  454   4.094   1.914  14.106 -0.0855  0.4413 -0.2384
   29MPD2    H7  455   4.193   1.912  14.130 -0.2309 -0.2412  0.3072
   30TCq2    C1  456   4.234   2.351  14.345  0.6859 -0.0111 -0.4833
   30TCq2    O2  457   4.315   2.258  14.351 -0.1036  0.1030 -0.0467
   30TCq2    C2  458   4.261   2.469  14.425  0.0824  0.8204 -0.2206
   30TCq2    C3  459   4.370   2.456  14.515 -0.1152 -0.1564 -0.2113
   30TCq2    C4  460   4.401   2.569  14.589  0.0327  0.0252  0.3129
   30TCq2    C5  461   4.332   2.689  14.576  0.0367 -0.0739  0.7145
   30TCq2    C6  462   4.238   2.695  14.487 -0.1249 -0.0846 -0.2469
   30TCq2    C7  463   4.206   2.587  14.398  0.3619  0.1063 -0.2585
   30TCq2    C8  464   4.183   2.823  14.445  0.3363 -0.1827  0.2715
   30TCq2    O4  465   4.080   2.820  14.379 -0.6957  0.0893  0.3458
   30TCq2    C9  466   4.514   2.558  14.683 -0.0702  0.0238  0.2594
   30TCq2    O5  467   4.563   2.671  14.724 -0.3655  0.3508 -0.0406
   30TCq2    O6  468   4.580   2.449  14.684  0.2083 -0.1609  0.1383
   30TCq2    H2  469   4.426   2.366  14.539  1.0308  0.9752  1.3529
   30TCq2    H3  470   4.347   2.771  14.645  1.8716  1.3618 -1.4046
   30TCq2    H4  471   4.125   2.600  14.327 -1.1380 -0.6984  1.3004
   31MPD2     C  472   2.086   1.166  14.880  0.0158  0.1798 -0.2012
   31MPD2    C1  473   1.966   1.153  14.811 -0.4941 -0.2619 -0.4781
   31MPD2    C2  474   1.867   1.082  14.880 -0.3060  0.3689 -0.1036
   31MPD2    C3  475   1.874   1.044  15.009  1.1639  0.4279  0.1266
   31MPD2    C4  476   1.995   1.064  15.073  0.2615  0.9193  0.2238
   31MPD2    C5  477   2.102   1.119  15.008  0.1054 -0.2390 -0.4367
   31MPD2     H  478   1.772   1.085  14.828  0.0895 -3.6846 -1.0644
   31MPD2    H1  479   2.011   1.034  15.176  0.0409  1.4385  0.4090
   31MPD2    H2  480   2.162   1.226  14.832  1.1246  0.1555  1.5338
   31MPD2    H3  481   2.200   1.136  15.052  0.5469 -0.7466 -1.2201
   31MPD2     N  482   1.771   0.978  15.080 -0.1438  0.0260 -0.1979
   31MPD2    H5  483   1.781   0.973  15.181  1.3911  0.0650 -0.3596
   31MPD2    N1  484   1.959   1.201  14.681  0.1018 -0.4231  0.4282
   31MPD2    H7  485   2.044   1.210  14.627 -1.7238  0.0034 -2.4156
   32TCq2    C1  486   1.650   0.937  15.026 -0.5192  0.3204  0.0017
   32TCq2    O2  487   1.603   0.969  14.916  0.2768  0.3754 -0.2771
   32TCq2    C2  488   1.558   0.887  15.122  0.5035  0.0469 -0.6371
   32TCq2    C3  489   1.443   0.963  15.120  0.1576  0.4301  0.5209
   32TCq2    C4  490   1.386   0.982  15.245 -0.8248  1.1243  0.2485
   32TCq2    C5  491   1.449   0.936  15.358 -0.0648 -1.1032 -0.0567
   32TCq2    C6  492   1.555   0.852  15.347 -0.3431  0.7281  0.0510
   32TCq2    C7  493   1.605   0.817  15.229  0.9327  0.0228  1.1608
   32TCq2    C8  494   1.593   0.773  15.461  0.1625 -0.2237  0.1439
   32TCq2    O4  495   1.682   0.691  15.445  0.0227 -0.0046 -0.5788
   32TCq2    C9  496   1.268   1.062  15.265  0.8794 -0.2047  0.4705
   32TCq2    O5  497   1.262   1.119  15.379 -0.4194 -0.0935 -0.2713
   32TCq2    O6  498   1.219   1.106  15.159 -0.0287  0.3467  0.1616
   32TCq2    H2  499   1.399   1.016  15.036 -0.9425 -0.4469  0.5400
   32TCq2    H3  500   1.394   0.944  15.451 -1.1044  0.1378 -0.7678
   32TCq2    H4  501   1.705   0.775  15.225  0.4820 -0.7934 -1.4942
   33MPD2     C  502   1.912   3.025  10.426 -0.1598 -0.1827  0.4587
   33MPD2    C1  503   1.778   3.002  10.390 -0.1889  0.0269  0.1612
   33MPD2    C2  504   1.695   3.112  10.375  0.1883  0.9055 -0.0083
   33MPD2    C3  505   1.746   3.243  10.393 -0.2797 -0.6682 -0.0440
   33MPD2    C4  506   1.880   3.257  10.435  0.5283  0.0707  0.3133
   33MPD2    C5  507   1.964   3.147  10.442  0.1578 -0.2335  0.5238
   33MPD2     H  508   1.592   3.106  10.342  0.3070 -1.5564  0.0180
   33MPD2    H1  509   1.925   3.353  10.458  0.1690  0.1834  0.5367
   33MPD2    H2  510   1.986   2.951  10.452  1.8869  2.2312  1.4949
   33MPD2    H3  511   2.068   3.165  10.465  0.1097  0.7033  0.0121
   33MPD2     N  512   1.676   3.356  10.333  0.4187 -0.4385 -0.1725
   33MPD2    H5  513   1.715   3.447  10.355 -2.3177  0.2934  1.6022
   33MPD2    N1  514   1.732   2.868  10.385 -0.4640  0.1091 -0.5804
   33MPD2    H7  515   1.805   2.799  10.373 -0.2488  0.3850 -0.8624
   34TCq2    C1  516   1.573   3.349  10.239 -0.4095  0.0357  0.0778
   34TCq2    O2  517   1.504   3.254  10.205  0.7249  0.3192  0.9429
   34TCq2    C2  518   1.543   3.481  10.185  0.4754 -0.4620  0.5134
   34TCq2    C3  519   1.545   3.467  10.045  0.1483 -0.1427 -0.0814
   34TCq2    C4  520   1.569   3.586   9.975 -0.1495 -0.5073 -0.4213
   34TCq2    C5  521   1.590   3.704  10.048 -0.1568 -0.2083  0.1237
   34TCq2    C6  522   1.592   3.708  10.183  0.4917 -0.8956  0.6360
   34TCq2    C7  523   1.563   3.596  10.251 -0.6419 -0.3163  0.5134
   34TCq2    C8  524   1.612   3.839  10.244 -0.1574 -0.2703 -0.4502
   34TCq2    O4  525   1.663   3.936  10.181 -0.3360 -0.8282 -0.1663
   34TCq2    C9  526   1.560   3.587   9.833 -0.0157 -0.7321 -0.0127
   34TCq2    O5  527   1.546   3.696   9.774  0.0917  0.3246 -0.4220
   34TCq2    O6  528   1.529   3.480   9.779  0.6611 -0.3804 -0.1084
   34TCq2    H2  529   1.536   3.377   9.986  0.3781  0.2305 -0.6880
   34TCq2    H3  530   1.597   3.792   9.984 -0.3800 -0.9680 -0.9371
   34TCq2    H4  531   1.573   3.596  10.359  0.3629  2.5589  0.4347
   35MPD2     C  532   3.385   4.592  11.361  0.0169 -0.3334  0.9586
   35MPD2    C1  533   3.358   4.470  11.418 -0.0877  0.3211  0.2060
   35MPD2    C2  534   3.254   4.392  11.361  0.1426  0.1395 -0.4835
   35MPD2    C3  535   3.192   4.433  11.248 -0.3038  0.4748  0.0289
   35MPD2    C4  536   3.235   4.551  11.181 -0.7722 -0.1895 -0.3152
   35MPD2    C5  537   3.336   4.625  11.236 -0.0418  0.0031 -0.1578
   35MPD2     H  538   3.226   4.301  11.413  0.1068 -0.7495 -2.0805
   35MPD2    H1  539   3.188   4.592  11.092  1.4179  2.1433 -0.4276
   35MPD2    H2  540   3.464   4.653  11.404 -0.1977  2.2072 -2.2617
   35MPD2    H3  541   3.374   4.719  11.196  1.3292  0.5360  2.3756
   35MPD2     N  542   3.078   4.360  11.210 -0.2895 -0.0809 -0.2371
   35MPD2    H5  543   3.042   4.297  11.280 -0.7621  0.7373  0.2633
   35MPD2    N1  544   3.422   4.433  11.538 -0.2236  0.2424  0.0868
   35MPD2    H7  545   3.491   4.500  11.568 -0.8243  1.2512 -0.7996
   36TCq2    C1  546   3.018   4.350  11.082 -0.6221 -0.2464  0.0994
   36TCq2    O2  547   3.056   4.423  10.993  0.1985 -0.3629  0.4041
   36TCq2    C2  548   2.896   4.267  11.077 -0.3756 -0.0267 -0.2516
   36TCq2    C3  549   2.813   4.278  10.966 -0.4956 -0.2977 -0.5071
   36TCq2    C4  550   2.686   4.237  10.988  0.2915  0.5139 -0.2760
   36TCq2    C5  551   2.651   4.162  11.095 -0.3219  0.1418  0.7621
   36TCq2    C6  552   2.751   4.124  11.181  0.5288 -0.1367 -0.0652
   36TCq2    C7  553   2.872   4.178  11.184  0.0767  0.1553 -0.0547
   36TCq2    C8  554   2.719   4.011  11.269 -0.6160 -0.2732  0.1011
   36TCq2    O4  555   2.629   3.941  11.226 -0.3594  0.1292  0.0220
   36TCq2    C9  556   2.588   4.265  10.882 -0.7947  0.1326 -0.5469
   36TCq2    O5  557   2.465   4.263  10.919  0.6632 -0.3565 -0.1716
   36TCq2    O6  558   2.634   4.292  10.768 -0.0107 -0.0448  0.7611
   36TCq2    H2  559   2.843   4.346  10.887 -2.1271  0.5582 -0.3875
   36TCq2    H3  560   2.548   4.129  11.106 -0.2092 -0.5343 -0.2577
   36TCq2    H4  561   2.955   4.147  11.247  1.1009  3.0130  0.0147
   37TMC2    C1  562   0.640   0.242  11.459  0.1358  0.3185 -0.4257
   37TMC2    C2  563   0.652   0.250  11.324 -0.1740 -0.0600  0.0766
   37TMC2    C3  564   0.775   0.224  11.274 -1.1733  0.9188 -0.3927
   37TMC2    C4  565   0.751   0.236  11.543 -0.1637  0.3376 -0.4294
   37TMC2    C5  566   0.877   0.231  11.489 -0.3499  0.4993  0.1223
   37TMC2    C6  567   0.889   0.221  11.350 -0.5970  0.1850  0.5856
   37TMC2     C  568   0.506   0.245  11.515 -0.3126 -0.5610  0.1372
   37TMC2     O  569   0.421   0.301  11.440  0.3432 -0.5538  0.7062
   37TMC2     H  570   0.570   0.261  11.255 -0.0359  2.4223  0.3134
   37TMC2    H1  571   0.744   0.237  11.651  1.4529  2.7821 -0.3553
   37TMC2    H2  572   0.988   0.243  11.311 -0.4271  1.4966  1.7791
   37TMC2    C7  573   0.993   0.195  11.574 -0.1734  0.4601 -0.2075
   37TMC2    C8  574   0.801   0.279  11.142  0.4306 -0.5112 -0.8472
   37TMC2    O1  575   0.987   0.206  11.698 -0.0680 -0.4320  0.3857
   37TMC2    O2  576   0.732   0.368  11.092 -0.0238 -0.2895 -0.5361
   37TMC2    O5  577   0.917   0.231  11.102 -0.0797  0.0234 -0.0682
   37TMC2    H5  578   0.922   0.134  11.119 -2.1079  0.1705  1.3181
   38MPD2     C  579   0.163   0.231  11.906  0.4041  0.5130 -0.1403
   38MPD2    C1  580   0.277   0.165  11.946 -0.0877 -0.4518  0.1570
   38MPD2    C2  581   0.388   0.149  11.855  0.3680  0.2038 -1.0508
   38MPD2    C3  582   0.384   0.202  11.724 -0.5133 -0.4207 -0.2616
   38MPD2    C4  583   0.265   0.265  11.692  0.0229 -0.5163 -0.8769
   38MPD2    C5  584   0.158   0.273  11.778 -0.2070  0.1616  1.0064
   38MPD2     H  585   0.474   0.087  11.878  0.0517 -0.1151 -0.7390
   38MPD2    H1  586   0.244   0.309  11.595 -2.0104  0.5861  0.0474
   38MPD2    H2  587   0.078   0.246  11.971 -0.0943 -1.0639 -0.4253
   38MPD2    H3  588   0.079   0.334  11.735  1.2767  0.9246 -0.6378
   38MPD2     N  589   0.501   0.186  11.640  0.0391  0.2839 -0.1751
   38MPD2    H5  590   0.580   0.134  11.676  0.2793  1.6202  1.2303
   38MPD2    N1  591   0.301   0.129  12.081  0.5950 -0.3343  0.4515
   38MPD2    H7  592   0.385   0.076  12.103  0.5810 -0.5224  0.0515
   39MPD2     C  593   4.659   2.080   1.732  0.0637  0.5399  0.4474
   39MPD2    C1  594   4.536   2.120   1.780  0.3550  0.0775 -0.0405
   39MPD2    C2  595   4.438   2.161   1.694  0.1479  0.2243 -0.2545
   39MPD2    C3  596   4.458   2.151   1.554 -0.6797 -0.6372 -0.4448
   39MPD2    C4  597   4.577   2.097   1.511  0.7519  0.6719  0.1673
   39MPD2    C5  598   4.673   2.055   1.600 -0.2606  0.3738 -0.0928
   39MPD2     H  599   4.345   2.198   1.737 -0.4197 -0.7462 -0.6522
   39MPD2    H1  600   4.593   2.052   1.414 -1.8976 -0.4475  0.2353
   39MPD2    H2  601   0.023   2.067   1.796 -1.0922  0.5567  2.0245
   39MPD2    H3  602   0.036   2.006   1.557  0.6318  1.3463  0.5878
   39MPD2     N  603   4.362   2.190   1.455 -0.1595 -0.1559  0.1244
   39MPD2    H5  604   4.398   2.184   1.360  2.0964  1.2511  0.8783
   39MPD2    N1  605   4.521   2.124   1.919  0.0277  0.3674  0.2782
   39MPD2    H7  606   4.598   2.106   1.984  0.2489  0.3462  0.0100
   40TCq2    C1  607   4.401   2.124   1.986  0.6709  0.1845 -0.5266
   40TCq2    O2  608   4.291   2.095   1.943 -0.4297 -0.2104  0.1300
   40TCq2    C2  609   4.424   2.123   2.130 -0.2005 -0.1574  0.1076
   40TCq2    C3  610   4.359   2.026   2.199 -0.0697 -0.6372 -0.3191
   40TCq2    C4  611   4.410   1.982   2.320 -0.5411 -0.2649 -0.2436
   40TCq2    C5  612   4.514   2.052   2.378  1.1795  0.1374  0.2649
   40TCq2    C6  613   4.584   2.141   2.303  0.0383 -0.1047 -0.1832
   40TCq2    C7  614   4.540   2.174   2.176 -0.2943  0.5581 -0.3237
   40TCq2    C8  615   4.696   2.213   2.371  0.3444 -0.1481 -0.1422
   40TCq2    O4  616   0.004   2.190   2.489  0.2450  0.1454  0.0091
   40TCq2    C9  617   4.351   1.868   2.387 -0.6158  0.2277 -0.4540
   40TCq2    O5  618   4.270   1.803   2.318  0.6322 -0.2980  0.4697
   40TCq2    O6  619   4.391   1.841   2.497 -0.7714  0.8366 -0.5743
   40TCq2    H2  620   4.272   1.974   2.161 -0.5968 -0.6852  0.9315
   40TCq2    H3  621   4.552   2.025   2.476  0.4315  0.1893  0.5720
   40TCq2    H4  622   4.585   2.251   2.116 -1.8030  1.7993  0.1318
   41TMC2    C1  623   2.910   4.407  13.382 -0.3557 -0.2504  0.4829
   41TMC2    C2  624   2.956   4.529  13.428 -0.4542 -0.0651 -0.4066
   41TMC2    C3  625   2.923   4.636  13.349  0.4218  0.3810 -0.3695
   41TMC2    C4  626   2.849   4.391  13.262 -1.4618 -0.7267 -0.4012
   41TMC2    C5  627   2.816   4.508  13.192  0.6926 -1.3246 -1.0161
   41TMC2    C6  628   2.847   4.631  13.237 -0.1428  0.1634  0.5317
   41TMC2     C  629   2.913   4.286  13.463  0.1766  0.6901 -0.3639
   41TMC2     O  630   2.959   4.181  13.424 -0.2652 -0.0740  0.2478
   41TMC2     H  631   3.018   4.540  13.516  1.5672  0.3244 -1.8772
   41TMC2    H1  632   2.827   4.288  13.236  0.4473 -1.4078  0.6903
   41TMC2    H2  633   2.807   0.002  13.199 -0.8750  0.3616  1.8019
   41TMC2    C7  634   2.730   4.486  13.079 -0.2571 -0.0803 -0.2488
   41TMC2    C8  635   2.970   0.038  13.408 -0.9570  0.0093  0.2431
   41TMC2    O1  636   2.669   4.376  13.073 -0.3870  0.1292 -0.1595
   41TMC2    O2  637   2.996   0.051  13.525 -0.1699  0.1245  0.0046
   41TMC2    O5  638   3.012   0.108  13.299 -0.0960 -0.0419 -0.3622
   41TMC2    H5  639   2.983   0.052  13.224  0.6123 -1.6115  0.5240
   42MPD2     C  640   2.953   4.111  13.698  0.9240 -0.2008 -0.6061
   42MPD2    C1  641   2.902   4.243  13.708 -0.1212  0.2039  0.1862
   42MPD2    C2  642   2.899   4.298  13.837  0.1477  0.5201 -0.4452
   42MPD2    C3  643   2.920   4.217  13.947  0.4831 -0.0094  0.1214
   42MPD2    C4  644   2.949   4.087  13.935 -0.5853 -0.1691  0.0636
   42MPD2    C5  645   2.969   4.032  13.811  0.4239  0.1052  0.5134
   42MPD2     H  646   2.868   4.401  13.853 -0.8057  0.4883 -2.0816
   42MPD2    H1  647   2.969   4.019  14.018 -0.7425  0.2110  0.4136
   42MPD2    H2  648   2.969   4.061  13.603  0.0780  0.1646 -0.9402
   42MPD2    H3  649   3.015   3.934  13.810 -0.5950 -0.3858  1.5495
   42MPD2     N  650   2.931   4.266  14.078  0.0819 -0.3796  0.1571
   42MPD2    H5  651   2.974   4.206  14.147 -0.3707 -1.6633 -0.6823
   42MPD2    N1  652   2.887   4.323  13.592  0.0106  0.5655 -0.4254
   42MPD2    H7  653   2.854   4.418  13.605 -0.3451  0.2676  0.8538
   43MPD2     C  654   4.145   3.152   0.589  0.0008  0.2038  0.0255
   43MPD2    C1  655   4.244   3.203   0.665 -0.3187  0.2245  0.9038
   43MPD2    C2  656   4.215   3.297   0.760 -0.0894 -0.4072  0.1596
   43MPD2    C3  657   4.088   3.353   0.766 -0.0622 -0.5806 -0.4324
   43MPD2    C4  658   3.988   3.306   0.684  0.5646  0.0134  0.4827
   43MPD2    C5  659   4.016   3.196   0.611  0.7978 -0.7973 -0.0759
   43MPD2     H  660   4.294   3.330   0.827  0.3834 -3.0134  0.8760
   43MPD2    H1  661   3.890   3.351   0.691  1.0983  0.9712  1.9001
   43MPD2    H2  662   4.167   3.073   0.518 -2.7529 -0.3575 -0.2384
   43MPD2    H3  663   3.933   3.155   0.555  1.0164  0.3997 -1.2873
   43MPD2     N  664   4.061   3.455   0.867 -0.2713 -0.7054 -0.1893
   43MPD2    H5  665   3.965   3.488   0.863  0.1523  0.4529 -0.7634
   43MPD2    N1  666   4.380   3.158   0.664 -0.3912  0.5960 -0.1177
   43MPD2    H7  667   4.438   3.199   0.737  0.2024 -1.1056  0.3561
   44TCq2    C1  668   4.213   3.917   1.237  0.2717 -0.6006  0.1456
   44TCq2    O2  669   4.326   3.935   1.199  0.1778 -0.0021  0.3163
   44TCq2    C2  670   4.131   3.827   1.158  0.2851 -0.3288 -0.3838
   44TCq2    C3  671   3.998   3.853   1.168 -0.3493 -0.0378  0.3121
   44TCq2    C4  672   3.912   3.758   1.117  0.5692 -0.0304  0.4104
   44TCq2    C5  673   3.966   3.650   1.055 -0.3260 -0.6802  0.3066
   44TCq2    C6  674   4.100   3.633   1.023 -0.8972 -1.1470  0.0257
   44TCq2    C7  675   4.185   3.721   1.087  0.1705  0.6427 -1.0983
   44TCq2    C8  676   4.160   3.522   0.946  0.3838 -0.3973  0.0671
   44TCq2    O4  677   4.282   3.509   0.947  0.1095  0.2622 -0.2451
   44TCq2    C9  678   3.767   3.771   1.117  0.7014 -0.3032 -0.0916
   44TCq2    O5  679   3.702   3.718   1.026  0.3855  0.1595  0.5091
   44TCq2    O6  680   3.727   3.873   1.185 -0.1730  0.1901  0.1725
   44TCq2    H2  681   3.955   3.942   1.211 -0.4509  0.5554 -1.0081
   44TCq2    H3  682   3.895   3.575   1.023 -0.0535  0.1505 -2.3355
   44TCq2    H4  683   4.291   3.725   1.066  0.0604  2.2954 -1.3405
   45TMC2    C1  684   3.931   0.757   8.875 -0.3959  0.1043 -0.5740
   45TMC2    C2  685   3.840   0.773   8.773  0.3032  0.0396  0.1221
   45TMC2    C3  686   3.836   0.885   8.695 -1.2688 -0.6696 -0.3620
   45TMC2    C4  687   4.021   0.859   8.888  0.5083  0.1413 -0.3997
   45TMC2    C5  688   4.019   0.969   8.812  0.2896 -0.3893  0.1902
   45TMC2    C6  689   3.925   0.986   8.716 -0.2960  0.0148 -0.1854
   45TMC2     C  690   3.972   0.628   8.921  0.1455  0.6823  0.5051
   45TMC2     O  691   4.087   0.623   8.962  0.0312  0.1392  0.4609
   45TMC2     H  692   3.775   0.687   8.760 -2.2466  2.2133 -1.2774
   45TMC2    H1  693   4.101   0.854   8.960  2.9092 -0.0780 -3.0679
   45TMC2    H2  694   3.905   1.082   8.671 -2.5229 -0.5161 -0.3653
   45TMC2    C7  695   4.110   1.079   8.827  0.6392 -0.3656 -0.4896
   45TMC2    C8  696   3.716   0.914   8.618 -0.8893  0.4743 -0.1852
   45TMC2    O1  697   4.135   1.149   8.732  0.1218  0.0584  0.5461
   45TMC2    O2  698   3.688   1.027   8.589  0.3200 -0.0443  0.3563
   45TMC2    O5  699   3.624   0.819   8.616 -0.0575 -0.8703 -0.4778
   45TMC2    H5  700   3.659   0.727   8.617  0.9488 -0.4992 -1.5228
   46MPD2     C  701   4.001   0.336   8.966 -0.1093  0.5116 -0.6979
   46MPD2    C1  702   3.877   0.396   8.949  0.2702  0.5925 -0.3799
   46MPD2    C2  703   3.761   0.322   8.952 -0.0654  0.0724  0.8019
   46MPD2    C3  704   3.766   0.188   8.966 -0.0641 -0.4825  0.4992
   46MPD2    C4  705   3.888   0.124   8.977 -0.3605  0.2703  0.7647
   46MPD2    C5  706   4.005   0.201   8.960 -0.3904 -0.3197  0.1421
   46MPD2     H  707   3.663   0.366   8.940  0.4452  1.1772  0.6117
   46MPD2    H1  708   3.899   0.016   8.972  0.3232  0.3971 -0.5164
   46MPD2    H2  709   4.093   0.393   8.970  0.9413 -1.1748 -0.4507
   46MPD2    H3  710   4.099   0.148   8.968 -0.6065 -0.8961 -1.1611
   46MPD2     N  711   3.650   0.109   8.977  0.9754 -0.1669  0.1209
   46MPD2    H5  712   3.569   0.163   8.947  1.9370  0.9551 -0.4345
   46MPD2    N1  713   3.863   0.539   8.934 -0.1614  0.9199 -0.1544
   46MPD2    H7  714   3.768   0.575   8.934 -0.6689 -0.4000 -0.5947
   47TMC2    C1  715   1.620   0.331   8.739  0.1077 -0.2220 -0.0368
   47TMC2    C2  716   1.553   0.269   8.638  0.8751  0.3737 -0.3009
   47TMC2    C3  717   1.421   0.287   8.616  0.4237  0.2589  0.7764
   47TMC2    C4  718   1.550   0.418   8.820 -0.0295 -0.4272  0.9776
   47TMC2    C5  719   1.416   0.428   8.802  0.9130 -0.2846 -0.3396
   47TMC2    C6  720   1.348   0.363   8.702 -0.3390 -0.2060  0.3593
   47TMC2     C  721   1.766   0.316   8.729  1.0674 -0.3959 -0.1707
   47TMC2     O  722   1.810   0.274   8.625 -0.0670  0.2271  0.4551
   47TMC2     H  723   1.614   0.205   8.575  0.1587  1.1689 -1.7960
   47TMC2    H1  724   1.592   0.482   8.898  0.3393  0.6148 -0.0775
   47TMC2    H2  725   1.243   0.365   8.677 -0.4720 -0.2462  0.9085
   47TMC2    C7  726   1.341   0.511   8.891 -0.1940  0.2713 -0.3180
   47TMC2    C8  727   1.374   0.255   8.486 -0.5119 -0.4021 -0.6467
   47TMC2    O1  728   1.380   0.523   9.007  0.2622  0.2461  0.7304
   47TMC2    O2  729   1.448   0.263   8.387  0.3957  0.2947  0.1128
   47TMC2    O5  730   1.256   0.186   8.497  0.3146 -0.6193  0.2827
   47TMC2    H5  731   1.233   0.163   8.589  0.8925  0.9165  0.8223
   48MPD2     C  732   2.063   0.323   8.772  0.1044  0.3613  0.2921
   48MPD2    C1  733   1.967   0.341   8.873  0.8583 -0.0286  0.1012
   48MPD2    C2  734   2.005   0.345   9.004 -0.1066  0.0873  0.5730
   48MPD2    C3  735   2.135   0.324   9.045  0.0003  0.1288  0.4387
   48MPD2    C4  736   2.232   0.331   8.944 -0.1229 -0.6778  0.1133
   48MPD2    C5  737   2.192   0.323   8.816 -0.4015  0.4382 -0.2581
   48MPD2     H  738   1.925   0.349   9.078  1.4461  1.1600  2.1957
   48MPD2    H1  739   2.339   0.328   8.964 -0.4269 -2.0829  1.4751
   48MPD2    H2  740   2.038   0.323   8.667 -0.1430 -1.9413  0.3596
   48MPD2    H3  741   2.269   0.310   8.740 -1.6849  2.0002 -1.8198
   48MPD2     N  742   2.160   0.315   9.181  0.4787 -0.1242 -0.2164
   48MPD2    H5  743   2.080   0.330   9.241  0.4282 -1.0861 -0.0424
   48MPD2    N1  744   1.828   0.338   8.849  0.4718  0.7458 -0.5326
   48MPD2    H7  745   1.768   0.342   8.930  2.6270  0.8538  1.0493
   49MPD2     C  746   4.688   2.743   9.420  0.3074 -0.3084  0.4860
   49MPD2    C1  747   0.011   2.654   9.519 -0.8778  0.5715 -0.1968
   49MPD2    C2  748   0.076   2.706   9.629  0.2927 -0.3031  0.5140
   49MPD2    C3  749   0.086   2.846   9.644  0.0151 -0.7621 -0.2629
   49MPD2    C4  750   0.027   2.930   9.551 -0.1425 -0.3225 -0.5020
   49MPD2    C5  751   4.688   2.877   9.440 -0.3331  0.0419  0.8665
   49MPD2     H  752   0.120   2.639   9.702 -0.3121  2.1807  3.1700
   49MPD2    H1  753   0.028   3.038   9.543  0.2231 -0.2747  0.2791
   49MPD2    H2  754   4.660   2.701   9.324 -2.1409  0.9751  0.6426
   49MPD2    H3  755   4.652   2.944   9.364  2.9513 -0.3181 -0.9679
   49MPD2     N  756   0.145   2.914   9.757  0.2655  0.2638 -0.4071
   49MPD2    H5  757   0.162   3.012   9.738 -0.3042 -0.1710 -3.1638
   49MPD2    N1  758   4.718   2.514   9.511 -0.2354  0.5208  0.3485
   49MPD2    H7  759   0.047   2.452   9.572 -1.4643  0.9570  1.8272
   50TCq2    C1  760   4.653   2.445   9.412  0.7213  0.4031  0.0987
   50TCq2    O2  761   4.586   2.481   9.315 -0.5659 -0.1635  0.0442
   50TCq2    C2  762   4.649   2.299   9.431  0.1958  0.1599 -0.0388
   50TCq2    C3  763   4.575   2.234   9.340  0.2267  0.5522  0.1452
   50TCq2    C4  764   4.581   2.104   9.330 -0.5117 -0.0628 -0.0224
   50TCq2    C5  765   4.671   2.035   9.403 -0.2523 -0.4223  0.2455
   50TCq2    C6  766   0.029   2.102   9.486 -0.3465 -0.2225  0.6693
   50TCq2    C7  767   0.024   2.237   9.500 -0.1446 -0.7704 -0.2847
   50TCq2    C8  768   0.136   2.030   9.558  0.0495 -0.6466 -0.3142
   50TCq2    O4  769   0.158   1.912   9.543  0.0232 -0.2887  0.1691
   50TCq2    C9  770   4.492   2.027   9.243 -0.0809  0.1074  0.8156
   50TCq2    O5  771   4.427   2.088   9.154  0.1229 -0.3197 -0.0993
   50TCq2    O6  772   4.477   1.901   9.269  0.1839 -0.0138  0.0302
   50TCq2    H2  773   4.498   2.293   9.292 -1.8124 -1.2696  1.1996
   50TCq2    H3  774   4.673   1.926   9.405 -0.4042 -0.4596 -1.6159
   50TCq2    H4  775   0.079   2.286   9.580 -1.3195  3.0665 -1.8278
   51MPD2     C  776   0.849   1.828   1.509  0.0120  0.3404  0.5447
   51MPD2    C1  777   0.981   1.839   1.519  0.0963 -0.2981 -0.2799
   51MPD2    C2  778   1.041   1.936   1.604 -0.1304  0.0861 -0.3659
   51MPD2    C3  779   0.962   2.016   1.689  0.2354 -0.1869 -0.2477
   51MPD2    C4  780   0.829   1.979   1.693  0.1909 -0.2352  0.0547
   51MPD2    C5  781   0.783   1.886   1.606 -0.2888 -0.2669 -0.3395
   51MPD2     H  782   1.149   1.940   1.600 -0.0559 -1.2025  0.4112
   51MPD2    H1  783   0.765   2.040   1.756 -0.0049 -0.2927 -0.0878
   51MPD2    H2  784   0.796   1.753   1.451  0.6726 -0.5686  1.1283
   51MPD2    H3  785   0.679   1.858   1.621 -0.9380  2.4410  0.2922
   51MPD2     N  786   1.016   2.114   1.775 -0.5925  0.8266  0.3880
   51MPD2    H5  787   0.951   2.148   1.845  1.2231  2.0098  1.5136
   51MPD2    N1  788   1.070   1.747   1.456 -0.9194 -0.2955  0.3822
   51MPD2    H7  789   1.164   1.749   1.495 -0.2113  0.8149 -1.3854
   52TCq2    C1  790   1.143   2.172   1.774 -0.6339  0.4812 -0.4376
   52TCq2    O2  791   1.233   2.145   1.701 -0.1460  0.4630  0.4539
   52TCq2    C2  792   1.159   2.267   1.887  0.2959  0.8172 -0.5966
   52TCq2    C3  793   1.085   2.246   1.999 -0.2518 -0.3364  0.1786
   52TCq2    C4  794   1.123   2.322   2.106  0.0482 -0.4145  0.2132
   52TCq2    C5  795   1.225   2.402   2.111  0.1340  0.3419 -0.3103
   52TCq2    C6  796   1.306   2.406   2.001  1.3101 -0.3383  0.2034
   52TCq2    C7  797   1.276   2.333   1.892 -0.2301 -1.0320 -0.3240
   52TCq2    C8  798   1.415   2.506   2.001 -0.1752 -0.6767 -0.3614
   52TCq2    O4  799   1.494   2.498   1.910  0.6052  0.3749  0.1455
   52TCq2    C9  800   1.032   2.315   2.224  0.4017 -0.7351 -0.1635
   52TCq2    O5  801   0.938   2.236   2.219  0.1982 -0.0717 -1.1039
   52TCq2    O6  802   1.072   2.377   2.325  0.3688 -0.1827 -0.3220
   52TCq2    H2  803   0.990   2.195   2.000  1.6809 -3.9794 -0.9458
   52TCq2    H3  804   1.254   2.439   2.208 -1.1507  2.2517 -0.6647
   52TCq2    H4  805   1.328   2.347   1.798  0.7224 -0.9156  0.2235
   53TMC2    C1  806   1.603   0.302  11.980  0.3810  0.0431  0.3654
   53TMC2    C2  807   1.706   0.266  12.063  0.3470  0.0370  0.8684
   53TMC2    C3  808   1.705   0.328  12.188 -0.1489  0.0778  0.5527
   53TMC2    C4  809   1.508   0.392  12.013 -0.0993  0.1406 -0.3305
   53TMC2    C5  810   1.508   0.452  12.138 -0.1882  0.2278  0.8621
   53TMC2    C6  811   1.608   0.416  12.227  0.0842 -0.4593 -0.2393
   53TMC2     C  812   1.578   0.210  11.865  0.0588  0.3380  0.2454
   53TMC2     O  813   1.658   0.119  11.858 -0.1384  0.0058 -0.0163
   53TMC2     H  814   1.786   0.198  12.039  2.7253  2.4499  1.9687
   53TMC2    H1  815   1.430   0.411  11.941 -1.2461 -0.3280  0.7910
   53TMC2    H2  816   1.621   0.450  12.329 -0.2192 -0.9482 -0.0380
   53TMC2    C7  817   1.380   0.497  12.188 -0.3717  0.1979 -0.6206
   53TMC2    C8  818   1.801   0.280  12.291 -0.3512 -0.2385  0.5035
   53TMC2    O1  819   1.311   0.555  12.112 -0.4125  0.5948  0.4278
   53TMC2    O2  820   1.834   0.353  12.385  0.2181  0.2077  0.6817
   53TMC2    O5  821   1.810   0.142  12.281 -0.3692 -0.5593  0.1849
   53TMC2    H5  822   1.754   0.098  12.213 -0.5826  0.4089 -0.2639
   54MPD2     C  823   1.491   0.071  11.618  0.6301 -0.7048  0.0603
   54MPD2    C1  824   1.409   0.152  11.691 -0.4991  0.0494 -0.5380
   54MPD2    C2  825   1.272   0.166  11.660 -0.6461 -0.0248 -0.2326
   54MPD2    C3  826   1.223   0.104  11.544  0.9110  0.3428  0.6766
   54MPD2    C4  827   1.307   0.020  11.469 -0.8045 -0.9515 -0.9067
   54MPD2    C5  828   1.439   0.008  11.510 -0.5245  0.3770  0.1733
   54MPD2     H  829   1.198   0.208  11.727  0.1425 -0.8624  1.1524
   54MPD2    H1  830   1.273   4.696  11.377 -3.1766  0.5542 -0.7830
   54MPD2    H2  831   1.599   0.070  11.626  0.8560 -0.3896 -3.1037
   54MPD2    H3  832   1.509   4.667  11.457 -3.4303 -1.9210 -0.8330
   54MPD2     N  833   1.090   0.136  11.497  0.4727 -0.2184  0.1237
   54MPD2    H5  834   1.061   0.090  11.411 -0.1006 -1.2718  0.8756
   54MPD2    N1  835   1.458   0.226  11.798 -0.3152  0.0054 -0.2105
   54MPD2    H7  836   1.396   0.301  11.827  1.2684  0.3510  2.2106
   55MPD2     C  837   2.493   2.595  17.546  0.1935 -0.2928  0.2546
   55MPD2    C1  838   2.463   2.551  17.670  0.1167 -0.5148 -0.2507
   55MPD2    C2  839   2.379   2.626   0.060  0.7261  0.2416  0.4470
   55MPD2    C3  840   2.331   2.745   0.006 -0.1295  0.4386  0.6037
   55MPD2    C4  841   2.361   2.786  17.566  0.8008  0.1416 -0.3352
   55MPD2    C5  842   2.441   2.707  17.491 -0.6046  0.2035 -1.0832
   55MPD2     H  843   2.357   2.598   0.162 -1.8704  0.5442 -0.0433
   55MPD2    H1  844   2.318   2.872  17.517 -1.5556 -0.9639 -0.2193
   55MPD2    H2  845   2.556   2.541  17.477  2.8026  2.4138  0.4830
   55MPD2    H3  846   2.468   2.738  17.391  1.1348 -1.6993 -1.1983
   55MPD2     N  847   2.231   2.825   0.076  0.5809 -0.1180  0.0434
   55MPD2    H5  848   2.202   2.906   0.022 -0.0103  0.3945  1.1325
   55MPD2    N1  849   2.524   2.426   0.017 -0.1347 -0.2350 -0.2321
   55MPD2    H7  850   2.564   2.376  17.631  1.1209  0.7456 -0.2136
   56TCq2    C1  851   2.521   2.369   0.147  0.2003 -0.2774  0.3026
   56TCq2    O2  852   2.469   2.415   0.248  0.5645 -0.2239 -0.1673
   56TCq2    C2  853   2.562   2.228   0.150 -0.7206  0.1533 -0.3882
   56TCq2    C3  854   2.637   2.175   0.046  0.1531 -0.8845 -0.1232
   56TCq2    C4  855   2.699   2.057   0.061  0.9218 -0.1015  0.7777
   56TCq2    C5  856   2.680   1.989   0.173  0.1876 -0.1758 -0.4595
   56TCq2    C6  857   2.597   2.043   0.270 -0.4860 -0.0009  0.7563
   56TCq2    C7  858   2.531   2.161   0.266  0.2625  0.4083  0.4271
   56TCq2    C8  859   2.585   1.952   0.382 -0.3207 -0.0133 -0.4198
   56TCq2    O4  860   2.642   1.843   0.366  0.1089 -0.2644  0.2167
   56TCq2    C9  861   2.783   2.005  17.651 -0.5172 -0.0017 -0.4723
   56TCq2    O5  862   2.799   1.879  17.650 -0.1533 -0.0788 -0.1101
   56TCq2    O6  863   2.805   2.076  17.550 -0.7773 -0.1638  0.2260
   56TCq2    H2  864   2.652   2.229  17.647 -0.1176  0.9987  0.9176
   56TCq2    H3  865   2.735   1.897   0.186 -0.7337 -0.5687  0.5785
   56TCq2    H4  866   2.481   2.208   0.350  0.0890  2.7595 -0.9998
   57TMC2    C1  867   1.588   3.889  13.654 -0.1027  0.2752 -0.0160
   57TMC2    C2  868   1.664   3.793  13.714 -0.2390  0.3725 -0.3357
   57TMC2    C3  869   1.803   3.789  13.680  0.2783 -0.2964  0.6222
   57TMC2    C4  870   1.642   3.971  13.551 -0.1141 -0.3172  0.0742
   57TMC2    C5  871   1.770   3.948  13.515  0.5715  0.1524  0.0039
   57TMC2    C6  872   1.849   3.854  13.572 -0.0257 -0.2374 -0.2606
   57TMC2     C  873   1.467   3.932  13.717  0.1108  0.2581 -0.1277
   57TMC2     O  874   1.388   3.996  13.646  0.5124 -0.3105  0.2441
   57TMC2     H  875   1.607   3.730  13.781 -0.6240  0.4094 -0.6284
   57TMC2    H1  876   1.588   4.047  13.495  0.9461  0.1818 -0.2648
   57TMC2    H2  877   1.954   3.851  13.544  0.2477 -1.6978  0.9709
   57TMC2    C7  878   1.791   3.976  13.375  0.0734 -0.3765  0.1447
   57TMC2    C8  879   1.884   3.689  13.742 -0.2132  0.1688  0.0338
   57TMC2    O1  880   1.722   4.066  13.328 -0.0059  0.1941  0.2820
   57TMC2    O2  881   1.965   3.625  13.676 -0.6032 -0.0176  0.0484
   57TMC2    O5  882   1.818   3.645  13.850 -0.4297 -0.1794  0.0115
   57TMC2    H5  883   1.787   3.720  13.904 -0.4660 -0.7781  0.8269
   58MPD2     C  884   1.125   3.947  14.099  0.1717 -0.0222  0.2238
   58MPD2    C1  885   1.121   3.933  13.962  0.1226 -0.8493  0.5238
   58MPD2    C2  886   1.230   3.935  13.883  0.0312  0.1576  0.2395
   58MPD2    C3  887   1.351   3.929  13.935 -0.2501 -0.4469 -0.5226
   58MPD2    C4  888   1.363   3.947  14.071 -0.4502  0.5642 -0.2936
   58MPD2    C5  889   1.245   3.957  14.154 -0.4512 -0.8114  0.3135
   58MPD2     H  890   1.212   3.925  13.777  2.3057  0.8710 -0.2162
   58MPD2    H1  891   1.457   3.940  14.125 -1.4843 -0.0229  1.4332
   58MPD2    H2  892   1.034   3.962  14.157  0.0054  1.2062 -0.3593
   58MPD2    H3  893   1.253   3.963  14.262 -1.7537 -1.1216  0.4276
   58MPD2     N  894   1.464   3.908  13.855 -0.2007 -0.8321  0.4439
   58MPD2    H5  895   1.547   3.879  13.904 -0.9593 -1.4031  1.3922
   58MPD2    N1  896   0.999   3.957  13.893  0.1006 -0.2500 -0.7461
   58MPD2    H7  897   1.015   3.972  13.794  1.5967 -0.8493 -0.5961
   59MPD2     C  898   3.806   3.614  13.043 -0.0370  0.2989  0.4762
   59MPD2    C1  899   3.872   3.710  12.968 -0.5601 -0.5926  0.2953
   59MPD2    C2  900   3.885   3.833  13.022 -0.5372 -0.1203  0.0960
   59MPD2    C3  901   3.848   3.863  13.153 -0.4243  0.0289  0.1632
   59MPD2    C4  902   3.791   3.758  13.233 -0.1091 -0.1858 -0.5082
   59MPD2    C5  903   3.761   3.643  13.173 -0.2380 -0.1367  0.0962
   59MPD2     H  904   3.940   3.907  12.965 -0.2345 -1.3952 -1.2621
   59MPD2    H1  905   3.765   3.768  13.338 -0.6684  1.5289 -0.8180
   59MPD2    H2  906   3.801   3.512  13.005  0.0214  0.5656 -0.2512
   59MPD2    H3  907   3.715   3.566  13.234  0.0361  0.1860  0.7164
   59MPD2     N  908   3.863   3.991  13.212  0.2813  0.3340  0.2880
   59MPD2    H5  909   3.840   4.000  13.311  1.0845  1.6226  0.3594
   59MPD2    N1  910   3.920   3.689  12.839 -0.2463 -0.3812 -0.2350
   59MPD2    H7  911   3.955   3.774  12.796 -1.2778  0.5477  0.7285
   60TCq2    C1  912   3.884   3.586  12.756  0.3258  0.0599 -0.4517
   60TCq2    O2  913   3.820   3.485  12.780 -0.2995  0.1098  0.2825
   60TCq2    C2  914   3.929   3.605  12.625  0.5602  0.3039  0.1808
   60TCq2    C3  915   4.027   3.698  12.598 -0.5302  0.4186 -0.1796
   60TCq2    C4  916   4.050   3.736  12.470  0.1533  0.2518  0.1957
   60TCq2    C5  917   3.985   3.683  12.367  0.6569 -0.0327 -0.3839
   60TCq2    C6  918   3.897   3.580  12.392 -0.1024 -0.5010 -0.1705
   60TCq2    C7  919   3.867   3.539  12.523 -0.0300 -0.9998 -0.3002
   60TCq2    C8  920   3.790   3.567  12.289 -0.3583  0.0921 -0.6133
   60TCq2    O4  921   3.713   3.477  12.313 -0.2990  0.4674  0.3416
   60TCq2    C9  922   4.162   3.826  12.436  0.3344  0.0721  0.3588
   60TCq2    O5  923   4.225   3.793  12.332 -0.0311  0.0690 -0.0305
   60TCq2    O6  924   4.201   3.913  12.515 -0.4706  0.4003 -0.1256
   60TCq2    H2  925   4.084   3.747  12.676 -0.9176 -0.4035  0.6084
   60TCq2    H3  926   4.016   3.707  12.266 -2.3283 -4.3815 -2.3386
   60TCq2    H4  927   3.797   3.461  12.552 -0.1724 -0.7059  0.1629
   61MPD2     C  928   3.461   0.398  15.478 -0.3188  0.1140  0.2880
   61MPD2    C1  929   3.425   0.529  15.460 -0.0640  0.1834  0.6956
   61MPD2    C2  930   3.408   0.585  15.338  0.4829  0.4067 -0.4188
   61MPD2    C3  931   3.408   0.503  15.226 -0.8306  0.0543  1.0153
   61MPD2    C4  932   3.445   0.372  15.235 -0.0320 -0.3370  0.4207
   61MPD2    C5  933   3.461   0.318  15.363  0.2727  0.2165 -0.5304
   61MPD2     H  934   3.380   0.690  15.337 -3.2294 -0.5927 -1.8648
   61MPD2    H1  935   3.446   0.314  15.144  0.4680  1.1673 -0.5265
   61MPD2    H2  936   3.470   0.346  15.572 -2.2697 -1.6079 -0.4744
   61MPD2    H3  937   3.472   0.210  15.368 -0.3736  0.2502  1.9756
   61MPD2     N  938   3.382   0.553  15.095  0.6276  0.9743 -0.6233
   61MPD2    H5  939   3.379   0.483  15.022 -2.1890 -1.8572  2.2209
   61MPD2    N1  940   3.414   0.613  15.572 -0.0746  0.3707  0.3176
   61MPD2    H7  941   3.390   0.708  15.547 -1.1865  0.2072  0.7591
   62TCq2    C1  942   3.439   0.581  15.705  0.1187  0.3999  0.0932
   62TCq2    O2  943   3.473   0.474  15.753 -0.8294  0.2050  0.2655
   62TCq2    C2  944   3.403   0.690  15.794  0.6816 -0.1650  0.1844
   62TCq2    C3  945   3.332   0.661  15.915 -0.2192  0.0864 -0.0880
   62TCq2    C4  946   3.248   0.754  15.965  0.3752 -0.4549 -0.3503
   62TCq2    C5  947   3.246   0.878  15.920  0.0372 -0.1159  0.1174
   62TCq2    C6  948   3.331   0.911  15.812 -0.2000  0.9078 -0.1554
   62TCq2    C7  949   3.410   0.815  15.750  0.1036  0.8148 -0.1009
   62TCq2    C8  950   3.306   1.021  15.727 -0.2103 -0.1763 -0.0266
   62TCq2    O4  951   3.378   1.040  15.631  0.4148  0.0653  0.1608
   62TCq2    C9  952   3.164   0.716  16.075  0.2155 -0.2126 -0.3286
   62TCq2    O5  953   3.082   0.798  16.117 -0.2249  0.3438 -0.4974
   62TCq2    O6  954   3.175   0.594  16.109 -0.2475 -0.2558  0.4419
   62TCq2    H2  955   3.316   0.560  15.953 -1.9828  0.6319  0.5937
   62TCq2    H3  956   3.169   0.941  15.964 -1.3559 -1.1383 -0.8576
   62TCq2    H4  957   3.463   0.840  15.658  0.2185 -0.8499 -0.4829
   63TMC2    C1  958   2.814   0.856  10.266  0.1919 -0.2103  0.1495
   63TMC2    C2  959   2.919   0.949  10.250 -0.2528 -0.0957 -0.0872
   63TMC2    C3  960   2.922   1.019  10.138 -0.1617 -0.4247 -0.6767
   63TMC2    C4  961   2.714   0.839  10.171  0.1512  0.0674  0.2718
   63TMC2    C5  962   2.726   0.921  10.055 -0.1619 -0.9050 -0.3595
   63TMC2    C6  963   2.829   1.009  10.038  0.2610  0.0473 -0.2123
   63TMC2     C  964   2.794   0.806  10.396  0.0766  0.1078 -0.2487
   63TMC2     O  965   2.865   0.861  10.480 -0.0757 -0.0480  0.2576
   63TMC2     H  966   2.991   0.972  10.327  0.3540  1.2120 -1.0438
   63TMC2    H1  967   2.618   0.796  10.196 -0.4417  1.6460  0.6763
   63TMC2    H2  968   2.857   1.057   9.945  1.9646  1.9661  1.2890
   63TMC2    C7  969   2.604   0.940   9.981  0.2784  0.3324 -0.4096
   63TMC2    C8  970   3.048   1.082  10.102 -0.1211  0.5786  0.0359
   63TMC2    O1  971   2.515   0.853  10.001  0.3806 -1.3295  0.7066
   63TMC2    O2  972   3.156   1.047  10.148  0.3081  0.5290 -0.7097
   63TMC2    O5  973   3.023   1.207  10.059 -0.5230  0.4147  0.4086
   63TMC2    H5  974   2.934   1.241  10.035 -1.0182 -0.7903  0.5585
   64MPD2     C  975   2.549   0.522  10.740  0.1533 -0.2894 -0.3915
   64MPD2    C1  976   2.525   0.456  10.615 -0.0109 -0.8900  0.6516
   64MPD2    C2  977   2.591   0.511  10.504 -0.4887 -0.1297  0.1427
   64MPD2    C3  978   2.673   0.626  10.514 -0.4414 -0.4407 -0.3920
   64MPD2    C4  979   2.693   0.677  10.641 -0.0364  0.1074  0.3813
   64MPD2    C5  980   2.626   0.631  10.753  0.2969  0.6163  0.0628
   64MPD2     H  981   2.588   0.451  10.413 -0.2916 -0.3108  0.2564
   64MPD2    H1  982   2.748   0.770  10.650  0.4412  0.0071 -1.4063
   64MPD2    H2  983   2.503   0.487  10.831  1.6269 -0.6423  0.2126
   64MPD2    H3  984   2.640   0.683  10.848 -0.4350 -0.6494  0.8561
   64MPD2     N  985   2.719   0.692  10.400  0.2445  0.4644 -0.2938
   64MPD2    H5  986   2.711   0.648  10.310  2.5335  0.8694 -0.7006
   64MPD2    N1  987   2.448   0.336  10.603 -0.0354 -0.0848  0.2618
   64MPD2    H7  988   2.450   0.285  10.515 -0.8085  1.1004 -0.4416
   65MPD2     C  989   3.617   4.669  15.860  0.0084  0.1192  0.0360
   65MPD2    C1  990   3.664   4.646  15.728 -0.1170 -0.0419  0.9244
   65MPD2    C2  991   3.665   4.517  15.683 -0.5504  0.1392  0.0339
   65MPD2    C3  992   3.620   4.408  15.758  0.3476  0.0291  0.3003
   65MPD2    C4  993   3.579   4.429  15.885  0.1196  0.5517  0.0088
   65MPD2    C5  994   3.574   4.561  15.929  0.7459  0.3391 -0.8889
   65MPD2     H  995   3.700   4.506  15.581  0.8137  0.4596  0.4674
   65MPD2    H1  996   3.541   4.350  15.950  2.3880 -2.4644 -2.3035
   65MPD2    H2  997   3.617   0.047  15.900 -2.9693  0.5431 -1.0802
   65MPD2    H3  998   3.532   4.575  16.029  3.8074 -2.2126  0.7531
   65MPD2     N  999   3.623   4.272  15.715  0.3945  0.4506  0.0644
   65MPD2    H5 1000   3.595   4.208  15.789  0.3493  0.2809 -0.1011
   65MPD2    N1 1001   3.709   0.023  15.646 -0.3360 -0.8349 -0.2920
   65MPD2    H7 1002   3.720   4.710  15.551  2.1111 -1.1108  0.0910
   66TCq2    C1 1003   3.722   0.155  15.674  0.7474 -0.0277 -0.2461
   66TCq2    O2 1004   3.685   0.218  15.771  0.0280  0.2967  0.6681
   66TCq2    C2 1005   3.776   0.235  15.563 -0.9973 -0.4761 -0.2932
   66TCq2    C3 1006   3.829   0.173  15.450  0.4684 -0.0310 -0.3767
   66TCq2    C4 1007   3.858   0.254  15.345  0.2384  0.8049  0.0124
   66TCq2    C5 1008   3.835   0.391  15.349  0.5176 -0.0690  0.0705
   66TCq2    C6 1009   3.795   0.448  15.465  0.2688 -0.1316  0.5495
   66TCq2    C7 1010   3.771   0.372  15.572  0.0723  0.5970 -0.0738
   66TCq2    C8 1011   3.790   0.589  15.471 -0.9218 -0.6549  0.7303
   66TCq2    O4 1012   3.832   0.643  15.369 -0.4452 -0.2297 -0.3485
   66TCq2    C9 1013   3.908   0.193  15.222 -0.6920 -0.3540 -0.4800
   66TCq2    O5 1014   3.954   0.283  15.140  0.5808 -0.2956  0.0523
   66TCq2    O6 1015   3.943   0.069  15.208 -0.4201 -0.1050  0.0381
   66TCq2    H2 1016   3.868   0.072  15.450 -0.2491 -0.2940  2.2203
   66TCq2    H3 1017   3.849   0.450  15.260 -1.2211 -3.0806 -2.2113
   66TCq2    H4 1018   3.746   0.410  15.670 -1.2371 -1.5801  0.4311
   67MPD2     C 1019   3.845   4.095  14.179  0.6432  0.0627 -0.2533
   67MPD2    C1 1020   3.807   4.217  14.235  0.4437  0.6969 -0.7431
   67MPD2    C2 1021   3.725   4.307  14.173 -0.1155  0.0415 -0.1503
   67MPD2    C3 1022   3.694   4.287  14.042  0.0717  0.2691 -0.2726
   67MPD2    C4 1023   3.723   4.165  13.990  0.2577 -0.1228  0.1767
   67MPD2    C5 1024   3.798   4.067  14.054 -0.3364 -0.5932  0.5611
   67MPD2     H 1025   3.712   4.404  14.219  1.7035  0.8068 -1.2546
   67MPD2    H1 1026   3.705   4.141  13.886  2.1705 -0.3967 -0.0983
   67MPD2    H2 1027   3.909   4.020  14.223 -1.1231  0.5577  3.1450
   67MPD2    H3 1028   3.822   3.973  14.007 -0.5218  0.8416 -2.4237
   67MPD2     N 1029   3.618   4.377  13.963 -0.2885 -0.5197 -0.0428
   67MPD2    H5 1030   3.597   4.352  13.867 -1.2731  0.7977 -0.1674
   67MPD2    N1 1031   3.843   4.248  14.372 -0.1429 -0.8742  0.1183
   67MPD2    H7 1032   3.817   4.338  14.411  0.6083  0.3376 -2.1532
   68TCq2    C1 1033   3.920   4.167  14.446  0.3238  0.2036  0.6675
   68TCq2    O2 1034   3.983   4.063  14.421 -0.4954  0.3514  0.2324
   68TCq2    C2 1035   3.930   4.220  14.584  0.3331 -0.1143 -0.1809
   68TCq2    C3 1036   3.839   4.296  14.642  0.2210  0.4116 -0.6977
   68TCq2    C4 1037   3.869   4.342  14.770  0.5106 -0.0886  0.5263
   68TCq2    C5 1038   3.982   4.300  14.842 -0.3524 -0.2173 -0.1338
   68TCq2    C6 1039   4.068   4.227  14.777 -0.4944  0.3150 -0.1114
   68TCq2    C7 1040   4.053   4.190  14.644 -0.3045 -0.7320 -0.3048
   68TCq2    C8 1041   4.189   4.181  14.837  0.2554  0.0708  0.4011
   68TCq2    O4 1042   4.281   4.142  14.769 -0.0504  0.1383  0.2042
   68TCq2    C9 1043   3.757   4.414  14.836  0.9096 -0.3919 -0.0477
   68TCq2    O5 1044   3.652   4.436  14.767  0.0316  0.5471 -0.2382
   68TCq2    O6 1045   3.792   4.471  14.945 -0.0779 -0.2131  0.9364
   68TCq2    H2 1046   3.741   4.306  14.595  0.3801 -0.6591 -1.2581
   68TCq2    H3 1047   3.992   4.357  14.934 -2.9874 -1.6470  1.0480
   68TCq2    H4 1048   4.114   4.116  14.594  0.3454 -0.2075 -0.2888
   69TMC2    C1 1049   0.600   0.897  12.071  0.6868 -0.6430 -0.3152
   69TMC2    C2 1050   0.476   0.851  12.052 -0.3588 -0.6415  0.0432
   69TMC2    C3 1051   0.424   0.859  11.929  0.9392  0.0523 -0.8922
   69TMC2    C4 1052   0.672   0.949  11.970  0.3006  0.4694 -0.0949
   69TMC2    C5 1053   0.621   0.944  11.842 -0.4371  0.6996  0.5605
   69TMC2    C6 1054   0.496   0.895  11.824 -0.0793 -0.2244  0.5537
   69TMC2     C 1055   0.655   0.856  12.203  0.2175 -0.2627  0.1156
   69TMC2     O 1056   0.570   0.818  12.289  0.5145 -0.1241  0.2172
   69TMC2     H 1057   0.414   0.812  12.132 -2.4392 -0.2746 -1.4022
   69TMC2    H1 1058   0.768   0.997  11.986  0.3650  0.6289 -0.9419
   69TMC2    H2 1059   0.447   0.899  11.727 -0.6300  2.3516  0.9348
   69TMC2    C7 1060   0.711   0.971  11.734 -0.4647 -0.3512 -0.8550
   69TMC2    C8 1061   0.278   0.850  11.916 -0.1382 -0.6200 -0.0019
   69TMC2    O1 1062   0.826   0.968  11.768  0.2546  0.6946 -0.5035
   69TMC2    O2 1063   0.228   0.768  11.840  0.8691 -0.2017 -0.0940
   69TMC2    O5 1064   0.221   0.905  12.026  0.1915  1.0451 -0.4707
   69TMC2    H5 1065   0.290   0.952  12.077 -1.5256  2.0417  0.9325
   70MPD2     C 1066   1.013   0.833  12.281  0.2957  0.3721 -0.0727
   70MPD2    C1 1067   0.880   0.817  12.306  0.5576  0.1223  0.3180
   70MPD2    C2 1068   0.837   0.791  12.437  0.5409 -0.5085 -0.1621
   70MPD2    C3 1069   0.928   0.768  12.534 -0.4644 -0.5202  0.0283
   70MPD2    C4 1070   1.060   0.782  12.505  0.3602  0.6562 -0.1827
   70MPD2    C5 1071   1.098   0.818  12.386  0.0036 -0.4627  0.5364
   70MPD2     H 1072   0.731   0.774  12.452  1.0300 -0.4345  3.4449
   70MPD2    H1 1073   1.135   0.776  12.583  1.7167  1.3324 -1.4253
   70MPD2    H2 1074   1.043   0.866  12.182  0.4993  1.3918  0.3344
   70MPD2    H3 1075   1.203   0.841  12.372  0.3496 -2.9675 -1.1703
   70MPD2     N 1076   0.894   0.740  12.674  0.4361 -0.0997  0.2437
   70MPD2    H5 1077   0.975   0.716  12.729  0.4376 -0.4948  0.0667
   70MPD2    N1 1078   0.793   0.846  12.198  0.5108 -0.3025 -0.0351
   70MPD2    H7 1079   0.828   0.865  12.105  2.9343 -0.1451  0.9086
   71TMC2    C1 1080   0.133   1.631   1.295  0.1869  0.4026  0.2444
   71TMC2    C2 1081   0.241   1.547   1.285  0.1106 -0.2230  0.3390
   71TMC2    C3 1082   0.305   1.515   1.401  0.3083 -0.2069  0.0384
   71TMC2    C4 1083   0.098   1.693   1.416  0.3263 -0.0346  0.0617
   71TMC2    C5 1084   0.169   1.657   1.524 -0.0587 -0.7998 -0.2002
   71TMC2    C6 1085   0.269   1.564   1.524  0.3713 -0.1117  0.4631
   71TMC2     C 1086   0.060   1.671   1.176 -1.1424  0.0766  0.4129
   71TMC2     O 1087   4.680   1.740   1.187  0.1462  0.3100  0.7182
   71TMC2     H 1088   0.280   1.520   1.188  3.3648 -0.2007  1.6371
   71TMC2    H1 1089   0.023   1.771   1.413 -1.1882 -1.5423 -1.4274
   71TMC2    H2 1090   0.318   1.530   1.614 -1.0689 -3.9554 -0.2203
   71TMC2    C7 1091   0.117   1.694   1.647  0.4488 -0.1699  0.1422
   71TMC2    C8 1092   0.393   1.407   1.406  0.3465  0.0190 -0.5236
   71TMC2    O1 1093   0.201   1.732   1.729 -0.0926  0.1607 -0.5133
   71TMC2    O2 1094   0.475   1.403   1.502  0.2288  0.5290 -0.1702
   71TMC2    O5 1095   0.334   1.309   1.345 -0.1647  0.0936 -0.0853
   71TMC2    H5 1096   0.258   1.335   1.289  0.1011  0.5838 -0.2117
   72MPD2     C 1097   4.650   1.606   0.691 -0.4791  0.9588  0.9039
   72MPD2    C1 1098   4.610   1.703   0.777  0.5614  0.1936  0.0262
   72MPD2    C2 1099   4.659   1.696   0.904 -1.4999  0.2826  0.5229
   72MPD2    C3 1100   0.026   1.594   0.944 -0.0829  0.1752 -0.8129
   72MPD2    C4 1101   0.045   1.492   0.853 -0.0502 -0.2191  0.1536
   72MPD2    C5 1102   4.715   1.497   0.731  0.4451 -0.5018  0.2401
   72MPD2     H 1103   4.640   1.777   0.974  1.6434  0.9779  0.5983
   72MPD2    H1 1104   0.114   1.414   0.880 -1.7623 -1.6480  0.3784
   72MPD2    H2 1105   4.624   1.608   0.586 -0.0103 -1.2491  0.7488
   72MPD2    H3 1106   0.022   1.428   0.653 -0.5679 -0.4807 -0.1596
   72MPD2     N 1107   0.091   1.591   1.071  0.0041  0.4648  0.0830
   72MPD2    H5 1108   0.150   1.508   1.078 -1.2735 -0.4154  0.3258
   72MPD2    N1 1109   4.531   1.813   0.745 -0.7026 -0.0176  0.0547
   72MPD2    H7 1110   4.523   1.886   0.815 -1.9685  0.2093 -0.3114
   73TMC2    C1 1111   2.485   3.130  13.550 -0.7582  0.2232  0.4799
   73TMC2    C2 1112   2.416   3.245  13.546 -0.1857  0.3619  0.5032
   73TMC2    C3 1113   2.448   3.334  13.633 -0.1116 -0.1069 -0.1734
   73TMC2    C4 1114   2.590   3.119  13.640  0.0739  0.1818 -0.4783
   73TMC2    C5 1115   2.631   3.219  13.721 -0.4874  0.5865 -0.0542
   73TMC2    C6 1116   2.553   3.332  13.725  0.9467 -0.0242 -0.5206
   73TMC2     C 1117   2.548   3.100  13.427  0.5833 -0.3823 -0.1374
   73TMC2     O 1118   2.625   3.181  13.381  0.2246  0.4486 -0.5113
   73TMC2     H 1119   2.346   3.262  13.465 -0.8269  0.3086  1.0443
   73TMC2    H1 1120   2.660   3.039  13.622 -1.2052 -1.2291  0.9127
   73TMC2    H2 1121   2.575   3.406  13.801  1.5262  0.3534 -1.0514
   73TMC2    C7 1122   2.780   3.238  13.717 -0.5501  0.0499  0.4096
   73TMC2    C8 1123   2.354   3.451  13.639 -0.3136 -0.0463 -0.3989
   73TMC2    O1 1124   2.830   3.284  13.819  0.0643  0.6284  1.5256
   73TMC2    O2 1125   2.254   3.448  13.572  0.1840  0.0322  0.3220
   73TMC2    O5 1126   2.432   3.560  13.639 -0.3840  0.7572 -0.2687
   73TMC2    H5 1127   2.523   3.551  13.673 -0.7526  1.1056  0.8002
   74MPD2     C 1128   2.668   2.735  13.086  0.4191 -0.6899 -0.1236
   74MPD2    C1 1129   2.713   2.864  13.098 -0.9240 -0.6380  0.2456
   74MPD2    C2 1130   2.666   2.943  13.203  0.2094 -0.5036  0.3460
   74MPD2    C3 1131   2.564   2.899  13.279 -0.1209  0.5639  0.0600
   74MPD2    C4 1132   2.510   2.773  13.257 -0.1612 -0.4785 -0.3987
   74MPD2    C5 1133   2.565   2.696  13.163  0.3045  0.5050  0.3655
   74MPD2     H 1134   2.716   3.036  13.223 -1.1127  0.5181 -1.0780
   74MPD2    H1 1135   2.424   2.739  13.314 -0.5965  0.1417 -0.6770
   74MPD2    H2 1136   2.697   2.666  13.007 -3.1982 -0.6960 -1.4380
   74MPD2    H3 1137   2.521   2.600  13.137  0.2942  0.7059 -0.3728
   74MPD2     N 1138   2.514   2.970  13.386  0.3898  0.2673  0.4681
   74MPD2    H5 1139   2.443   2.931  13.447 -1.3422  1.6738 -0.6351
   74MPD2    N1 1140   2.825   2.909  13.018  0.7232 -0.0898  0.7634
   74MPD2    H7 1141   2.877   2.838  12.967  2.4295  0.9041  1.1397
   75TCq2    C1 1142   3.581   4.505  13.999  0.2353 -0.7944  0.6273
   75TCq2    O2 1143   3.617   4.557  14.107  0.4562  0.1093  0.4069
   75TCq2    C2 1144   3.530   4.585  13.885  0.0638  0.6195  0.0328
   75TCq2    C3 1145   3.509   4.716  13.911 -0.1140 -0.1786 -0.0999
   75TCq2    C4 1146   3.444   0.061  13.818  0.0121  0.5884 -0.8797
   75TCq2    C5 1147   3.401   0.013  13.693  0.0853 -0.5603 -0.0308
   75TCq2    C6 1148   3.425   4.604  13.673 -0.4069  0.0078 -0.1611
   75TCq2    C7 1149   3.479   4.528  13.773 -0.6669 -0.0191 -0.2682
   75TCq2    C8 1150   3.370   4.544  13.555  0.1811 -0.1004  0.3840
   75TCq2    O4 1151   3.360   4.420  13.563  0.1788  0.2280 -0.5694
   75TCq2    C9 1152   3.433   0.205  13.835  0.6463 -0.5752  0.8299
   75TCq2    O5 1153   3.429   0.279  13.729 -0.2736 -0.0720  0.2321
   75TCq2    O6 1154   3.464   0.246  13.949  0.0069 -0.1576 -0.0510
   75TCq2    H2 1155   3.565   0.039  13.991  1.3119  0.3601 -1.3990
   75TCq2    H3 1156   3.337   0.070  13.627  0.4666 -3.0918 -2.5934
   75TCq2    H4 1157   3.483   4.422  13.753 -1.6175 -0.1466  0.2420
   76MPD2     C 1158   1.768   0.480  11.762  0.5107 -0.0698  0.0052
   76MPD2    C1 1159   1.722   0.427  11.644 -0.7556 -0.0774 -0.2164
   76MPD2    C2 1160   1.799   0.339  11.580 -0.1671 -0.6590  1.0650
   76MPD2    C3 1161   1.916   0.285  11.632 -0.1728  0.3105  0.5131
   76MPD2    C4 1162   1.962   0.331  11.751  0.3399  0.3661 -0.8988
   76MPD2    C5 1163   1.884   0.430  11.818  0.3609 -0.0132  0.2365
   76MPD2     H 1164   1.762   0.304  11.484 -0.7339 -0.3444  1.1744
   76MPD2    H1 1165   2.052   0.300  11.802 -1.4904 -1.6898  1.1070
   76MPD2    H2 1166   1.710   0.553  11.817 -2.0238 -1.0425 -1.3830
   76MPD2    H3 1167   1.924   0.475  11.908  0.3973  1.0247 -0.3070
   76MPD2     N 1168   2.002   0.196  11.567 -0.0784  0.4476  0.0192
   76MPD2    H5 1169   2.079   0.163  11.625 -1.0289  0.3989  1.2544
   76MPD2    N1 1170   1.612   0.473  11.577 -0.2281 -0.0022  0.3337
   76MPD2    H7 1171   1.594   0.428  11.487  0.4370 -0.0916  0.2451
   77TCq2    C1 1172   2.001   0.173  11.429  0.0802  0.3592  0.2320
   77TCq2    O2 1173   1.917   0.212  11.348  0.4585  0.0305  0.1962
   77TCq2    C2 1174   2.097   0.077  11.395  0.8072  0.0467  0.4410
   77TCq2    C3 1175   2.165   0.098  11.277  0.0261 -0.5142 -0.0903
   77TCq2    C4 1176   2.289   0.051  11.257  1.0592 -0.2185 -0.2256
   77TCq2    C5 1177   2.345   4.684  11.352 -0.8153  1.2038 -0.2846
   77TCq2    C6 1178   2.277   4.667  11.470 -0.1455  0.0549 -0.1376
   77TCq2    C7 1179   2.149   4.715  11.490  0.1405  0.0051 -0.0642
   77TCq2    C8 1180   2.339   4.584  11.575  0.1235  0.5628  0.2912
   77TCq2    O4 1181   2.262   4.494  11.609  0.0393 -0.6421 -0.1581
   77TCq2    C9 1182   2.373   0.089  11.146  0.7605 -0.2899 -0.4519
   77TCq2    O5 1183   2.350   0.191  11.080  0.1920 -1.1014 -0.0479
   77TCq2    O6 1184   2.485   0.030  11.147 -0.2747  0.5147  0.0695
   77TCq2    H2 1185   2.136   0.182  11.215 -1.1564  0.6950  2.0888
   77TCq2    H3 1186   2.444   4.644  11.338  0.2217  2.7087  2.7492
   77TCq2    H4 1187   2.094   4.694  11.580  0.3608  1.6418  0.4604
   78MPD1     C 1188   4.149   1.290   0.237 -0.4835 -0.4232  0.7703
   78MPD1    C1 1189   4.187   1.181   0.317 -0.0889 -0.0074 -0.3581
   78MPD1    C2 1190   4.258   1.200   0.435  0.1503 -0.0368 -0.6584
   78MPD1    C3 1191   4.275   1.329   0.472  0.3312  0.5785  0.5207
   78MPD1    C4 1192   4.247   1.436   0.387  0.3654  0.9016 -0.1431
   78MPD1    C5 1193   4.185   1.417   0.267 -0.2826 -0.5705  0.6208
   78MPD1     H 1194   4.273   1.110   0.493  1.3510  0.4440 -0.2250
   78MPD1    H1 1195   4.266   1.540   0.408  0.2238  1.5157 -3.0334
   78MPD1    H2 1196   4.132   1.273   0.131  0.3824 -2.0715  0.8929
   78MPD1    H3 1197   4.170   1.500   0.200  2.7537  0.8275  1.6886
   78MPD1     N 1198   4.319   1.380   0.594 -0.4559  0.1121  0.1722
   78MPD1    H5 1199   4.314   1.480   0.604  0.8078  0.0379  1.5007
   78MPD1    N1 1200   4.174   1.050   0.266 -0.9488  0.1722  0.3392
   78MPD1    H6 1201   4.086   1.034   0.217 -0.5539 -0.1058 -0.2746
   78MPD1    H7 1202   4.151   0.985   0.341  4.6397 -0.4079  1.5558
   79TCq2    C1 1203   4.350   1.293   0.702  0.6169  0.4689 -0.1715
   79TCq2    O2 1204   4.379   1.174   0.696  0.4527  0.0528 -0.7290
   79TCq2    C2 1205   4.394   1.371   0.820 -0.4614 -0.5305 -0.1033
   79TCq2    C3 1206   4.335   1.496   0.843  0.5058 -0.2161  0.3254
   79TCq2    C4 1207   4.350   1.543   0.973 -0.2298  0.0824  0.0299
   79TCq2    C5 1208   4.411   1.471   1.067  0.0212  1.0996 -0.8288
   79TCq2    C6 1209   4.463   1.348   1.040  0.0415 -1.0037 -0.0173
   79TCq2    C7 1210   4.456   1.293   0.915 -0.2049 -0.0690 -0.3871
   79TCq2    C8 1211   4.548   1.296   1.144  0.3592 -0.4749 -0.4807
   79TCq2    O4 1212   4.601   1.374   1.220  0.0622 -0.2235  0.0739
   79TCq2    C9 1213   4.303   1.673   1.011  0.3591  0.2904  0.2650
   79TCq2    O5 1214   4.332   1.719   1.127 -1.2418 -0.1875 -0.1575
   79TCq2    O6 1215   4.224   1.733   0.932  0.5096  0.3432  0.0219
   79TCq2    H2 1216   4.275   1.555   0.775  1.8492 -0.9549 -1.4902
   79TCq2    H3 1217   4.415   1.509   1.168  1.5509 -0.8633 -0.1487
   79TCq2    H4 1218   4.497   1.194   0.901  1.9635  1.0569 -1.8478
   80MPD2     C 1219   1.073   0.100  12.598 -0.3350 -0.1733 -0.1152
   80MPD2    C1 1220   1.020   0.101  12.472  0.1493 -0.5809 -0.2396
   80MPD2    C2 1221   0.884   0.099  12.468 -0.2736 -0.1347  0.7156
   80MPD2    C3 1222   0.797   0.093  12.573  0.2942  0.2616 -0.1284
   80MPD2    C4 1223   0.849   0.082  12.698 -0.7708 -0.5170 -0.1592
   80MPD2    C5 1224   0.986   0.081  12.706 -0.0581 -0.0034 -0.2390
   80MPD2     H 1225   0.845   0.121  12.370  1.0314 -1.6976 -0.1460
   80MPD2    H1 1226   0.794   0.069  12.790  0.1809 -0.4131  0.4195
   80MPD2    H2 1227   1.179   0.118  12.610 -0.4372  1.2345 -1.3236
   80MPD2    H3 1228   1.032   0.066  12.803  0.4006 -2.7700 -0.8886
   80MPD2     N 1229   0.654   0.090  12.559 -0.1387  0.5422  0.6148
   80MPD2    H5 1230   0.601   0.057  12.639 -1.6236 -0.9270 -0.9635
   80MPD2    N1 1231   1.093   0.100  12.353  0.0874 -0.4807 -0.1166
   80MPD2    H7 1232   1.039   0.086  12.269  0.0179  1.3759 -0.3724
   81TCq2    C1 1233   1.228   0.112  12.344  0.0985 -0.3461  0.6270
   81TCq2    O2 1234   1.311   0.122  12.434 -0.0157 -0.8355 -0.1410
   81TCq2    C2 1235   1.271   0.104  12.205  0.7782 -0.0546  0.1599
   81TCq2    C3 1236   1.395   0.059  12.194 -0.4393  0.0124 -0.4208
   81TCq2    C4 1237   1.436   0.003  12.081  0.0334  0.0828 -0.1928
   81TCq2    C5 1238   1.355   4.698  11.976 -0.1086  0.3076  0.2469
   81TCq2    C6 1239   1.222   0.021  11.988 -0.2480  0.7009  0.0083
   81TCq2    C7 1240   1.178   0.082  12.101  0.3955 -0.5068  0.0913
   81TCq2    C8 1241   1.120   4.650  11.934  0.1623  0.8077 -0.4177
   81TCq2    O4 1242   1.012   4.639  11.991 -0.3713  0.8108  0.3552
   81TCq2    C9 1243   1.565   4.660  12.082  0.4612  0.1632  0.2493
   81TCq2    O5 1244   1.566   4.540  12.044  0.0680  0.4092 -0.3398
   81TCq2    O6 1245   1.654   4.709  12.150  0.1038 -0.3810 -0.1666
   81TCq2    H2 1246   1.462   0.065  12.280  0.5276 -2.0811 -1.0313
   81TCq2    H3 1247   1.391   4.631  11.900  3.3856  3.1465 -0.6007
   81TCq2    H4 1248   1.071   0.100  12.109  0.9687  2.3748  1.4661
   82MPD2     C 1249   3.759   4.335  10.401  0.6503 -0.4150  0.6885
   82MPD2    C1 1250   3.675   4.226  10.437  0.3805 -0.1171  0.2608
   82MPD2    C2 1251   3.729   4.116  10.494 -0.4753 -0.4441  0.3911
   82MPD2    C3 1252   3.869   4.107  10.513 -0.8382  0.0166 -0.8571
   82MPD2    C4 1253   3.949   4.202  10.457 -0.0204 -0.3524  1.3816
   82MPD2    C5 1254   3.896   4.310  10.395  0.1044  0.8877 -0.0857
   82MPD2     H 1255   3.667   4.033  10.529 -0.8455 -1.0282 -1.6482
   82MPD2    H1 1256   4.058   4.199  10.457 -0.0010 -0.1123 -0.8178
   82MPD2    H2 1257   3.720   4.430  10.367 -0.2040  0.1010  3.1235
   82MPD2    H3 1258   3.964   4.392  10.375 -0.3664  1.1286 -0.6905
   82MPD2     N 1259   3.927   3.990  10.570 -0.2740 -0.1046 -0.0165
   82MPD2    H5 1260   4.028   3.986  10.565 -0.3586  1.3943 -3.1519
   82MPD2    N1 1261   3.535   4.240  10.416 -0.2521  0.4054  0.0663
   82MPD2    H7 1262   3.503   4.331  10.385  0.2868  0.1730 -1.2113
   83TCq2    C1 1263   3.867   3.892  10.643  0.0099  0.1436 -1.0283
   83TCq2    O2 1264   3.751   3.868  10.664 -0.3580 -0.1514  0.9829
   83TCq2    C2 1265   3.958   3.798  10.696 -0.5407  0.3927  0.7263
   83TCq2    C3 1266   4.099   3.820  10.689  0.2751  0.4065 -0.0671
   83TCq2    C4 1267   4.181   3.710  10.696  0.3050  0.0556  0.6368
   83TCq2    C5 1268   4.132   3.586  10.720 -0.3197 -0.5933 -0.2038
   83TCq2    C6 1269   3.996   3.570  10.729 -0.6059  0.5564  0.5453
   83TCq2    C7 1270   3.908   3.673  10.718 -0.3414  0.4201  0.0655
   83TCq2    C8 1271   3.935   3.451  10.786 -0.0241 -0.4512 -0.2170
   83TCq2    O4 1272   3.847   3.477  10.869 -0.0012 -0.3710  0.5410
   83TCq2    C9 1273   4.318   3.721  10.666  0.1686  0.2857 -0.4851
   83TCq2    O5 1274   4.366   3.836  10.661  0.3770  0.0781 -0.7573
   83TCq2    O6 1275   4.379   3.611  10.646 -0.1080 -0.0961 -0.1956
   83TCq2    H2 1276   4.144   3.916  10.667 -0.7423  0.4188 -2.1139
   83TCq2    H3 1277   4.197   3.500  10.725  1.2625  0.6536  0.5688
   83TCq2    H4 1278   3.801   3.657  10.721 -0.4093  0.9207  0.2584
   84TCq2    C1 1279   0.204   2.852   9.867  0.5498  0.6657  1.0786
   84TCq2    O2 1280   0.205   2.733   9.897 -0.2409 -0.0983  0.4868
   84TCq2    C2 1281   0.291   2.948   9.939  0.0425 -0.4817  0.7030
   84TCq2    C3 1282   0.341   3.064   9.886  1.0626  0.1146 -0.5907
   84TCq2    C4 1283   0.410   3.154   9.962 -0.2797  0.4106  0.7487
   84TCq2    C5 1284   0.445   3.112  10.089  0.1337 -0.1117  0.6845
   84TCq2    C6 1285   0.386   2.993  10.136 -0.4476  0.3561 -0.3381
   84TCq2    C7 1286   0.312   2.905  10.068 -0.0918  0.7143  0.2758
   84TCq2    C8 1287   0.376   2.977  10.278 -0.3685  0.4972 -0.0118
   84TCq2    O4 1288   0.375   3.082  10.345  0.4762  0.1935  0.3587
   84TCq2    C9 1289   0.439   3.282   9.903 -0.6819  0.1077 -0.1420
   84TCq2    O5 1290   0.404   3.285   9.781 -0.1797  0.2380 -0.5514
   84TCq2    O6 1291   0.510   3.368   9.964  0.6196 -0.0950 -0.0606
   84TCq2    H2 1292   0.326   3.082   9.780 -1.5403 -1.9081 -0.5675
   84TCq2    H3 1293   0.482   3.177  10.168 -0.3745  0.9921  0.0087
   84TCq2    H4 1294   0.269   2.816  10.113 -0.1575 -0.4209 -2.0272
   85MPD2     C 1295   1.338   0.883  16.189 -0.2718  0.2788 -0.6959
   85MPD2    C1 1296   1.215   0.940  16.158 -0.0544  0.6757 -0.7519
   85MPD2    C2 1297   1.210   1.066  16.103  0.4777  0.8914 -0.4033
   85MPD2    C3 1298   1.328   1.139  16.087  0.4726  0.1860  0.3505
   85MPD2    C4 1299   1.446   1.077  16.116  0.3935 -0.2156  0.4456
   85MPD2    C5 1300   1.458   0.950  16.168 -0.5576  0.2012  0.2047
   85MPD2     H 1301   1.113   1.112  16.082 -0.9614 -1.3981  1.2586
   85MPD2    H1 1302   1.536   1.136  16.109  0.3351 -0.0622  0.9867
   85MPD2    H2 1303   1.343   0.788  16.241  3.0359  0.6092 -0.4719
   85MPD2    H3 1304   1.553   0.918  16.210 -0.7366  1.1904  1.3680
   85MPD2     N 1305   1.315   1.278  16.044 -0.2182 -0.0079 -0.0749
   85MPD2    H5 1306   1.220   1.309  16.029 -1.2308 -3.7998 -1.3526
   85MPD2    N1 1307   1.097   0.863  16.158  0.0159  0.3854  0.1018
   85MPD2    H7 1308   1.006   0.901  16.131  0.2144  1.0094  0.3048
   86TCq2    C1 1309   1.416   1.368  16.023 -0.5705 -0.6179 -0.1248
   86TCq2    O2 1310   1.534   1.360  16.060  0.3530  0.0773  0.4195
   86TCq2    C2 1311   1.377   1.493  15.964 -0.3998  0.0500  0.4362
   86TCq2    C3 1312   1.245   1.520  15.942 -0.1263 -0.4824 -0.2735
   86TCq2    C4 1313   1.212   1.645  15.898 -0.2576 -0.1978 -1.0312
   86TCq2    C5 1314   1.312   1.734  15.873 -0.4273  0.0562 -1.1207
   86TCq2    C6 1315   1.445   1.699  15.883  0.2823 -0.4877  0.1623
   86TCq2    C7 1316   1.477   1.583  15.946 -0.4846  0.7981  0.5164
   86TCq2    C8 1317   1.553   1.781  15.832 -0.0244 -0.0739 -0.2572
   86TCq2    O4 1318   1.669   1.737  15.838  0.0017 -0.1608  0.2489
   86TCq2    C9 1319   1.083   1.687  15.852 -1.0665  0.5229 -0.1532
   86TCq2    O5 1320   1.048   1.807  15.870 -0.3427 -0.0951 -0.6488
   86TCq2    O6 1321   1.039   1.609  15.771 -0.3826  0.1785 -0.1470
   86TCq2    H2 1322   1.163   1.450  15.953  0.2462 -0.8963 -0.1043
   86TCq2    H3 1323   1.287   1.815  15.806  0.4289  1.2323 -0.0182
   86TCq2    H4 1324   1.580   1.551  15.961 -0.0643  1.8159 -0.2257
   87MPD2     C 1325   3.234   4.265   0.983  0.1276 -0.3398 -0.0866
   87MPD2    C1 1326   3.292   4.392   0.995 -0.6301  0.0040  0.7913
   87MPD2    C2 1327   3.205   4.500   0.998  0.2231  0.0004 -0.5020
   87MPD2    C3 1328   3.069   4.489   0.963  0.5499  0.5804  0.0710
   87MPD2    C4 1329   3.023   4.364   0.934  0.5738  0.0968 -0.5988
   87MPD2    C5 1330   3.104   4.252   0.939  0.1122  0.1178 -0.3780
   87MPD2     H 1331   3.259   4.591   1.021  0.4406 -0.4675  0.8026
   87MPD2    H1 1332   2.921   4.345   0.905  0.1593  0.2588  0.7651
   87MPD2    H2 1333   3.289   4.172   0.985 -0.2664 -0.5661  0.0214
   87MPD2    H3 1334   3.061   4.154   0.923 -2.0846  0.6877  1.9650
   87MPD2     N 1335   2.992   4.608   0.940 -0.1924 -1.3286 -0.0317
   87MPD2    H5 1336   2.901   4.602   0.896  0.8593 -2.0168 -2.0822
   87MPD2    N1 1337   3.429   4.406   1.025  0.1765  0.7902  0.2488
   87MPD2    H7 1338   3.454   4.496   1.065  1.2506  0.0301  1.2781
   88TCq2    C1 1339   3.530   4.315   0.991 -0.6626  0.7489  0.7549
   88TCq2    O2 1340   3.520   4.209   0.928 -0.0339 -0.6104  0.6743
   88TCq2    C2 1341   3.656   4.374   1.025 -0.6516 -0.6200  0.9241
   88TCq2    C3 1342   3.660   4.494   1.096  0.5415 -0.0359 -0.6176
   88TCq2    C4 1343   3.776   4.572   1.088  0.7715 -1.7213 -0.5213
   88TCq2    C5 1344   3.878   4.549   0.995  0.2516 -0.3226  0.1677
   88TCq2    C6 1345   3.872   4.429   0.932  0.1796 -0.2801  0.5174
   88TCq2    C7 1346   3.761   4.349   0.936  0.3878 -0.0313  0.3361
   88TCq2    C8 1347   3.981   4.388   0.847  0.4624 -0.3427  0.3606
   88TCq2    O4 1348   4.024   4.469   0.766 -0.1829  0.0983  0.5884
   88TCq2    C9 1349   3.794   4.697   1.165 -0.3943  0.3001 -0.1295
   88TCq2    O5 1350   3.705   4.722   1.250  0.2331 -0.1176 -0.1498
   88TCq2    O6 1351   3.872   0.065   1.118  0.5471 -0.0559 -0.5928
   88TCq2    H2 1352   3.600   4.501   1.186  3.0276 -1.1512  1.1479
   88TCq2    H3 1353   3.965   4.615   0.996  0.5566 -0.7666  1.7777
   88TCq2    H4 1354   3.745   4.267   0.868  1.5170  1.1862 -1.4143
   89MPD2     C 1355   0.222   2.367   2.446 -0.0647 -0.0820 -0.4066
   89MPD2    C1 1356   0.156   2.379   2.325 -0.2091 -0.3781 -0.1687
   89MPD2    C2 1357   0.207   2.448   2.222  0.2547 -0.1954  0.2844
   89MPD2    C3 1358   0.323   2.520   2.240 -0.0358  0.1852 -0.7840
   89MPD2    C4 1359   0.395   2.500   2.355 -0.5795 -0.0788 -0.4368
   89MPD2    C5 1360   0.341   2.434   2.463 -0.2625  0.0856  0.7904
   89MPD2     H 1361   0.159   2.449   2.124 -1.2195 -1.5243  0.9953
   89MPD2    H1 1362   0.491   2.547   2.374 -0.2146 -1.5438  1.2973
   89MPD2    H2 1363   0.200   2.299   2.527 -0.7958  0.9764  0.2923
   89MPD2    H3 1364   0.396   2.440   2.556 -1.8477  1.1818  1.6442
   89MPD2     N 1365   0.378   2.580   2.132  0.3490  0.2464  0.0612
   89MPD2    H5 1366   0.313   2.581   2.053 -0.9995  0.6609  1.1754
   89MPD2    N1 1367   0.040   2.300   2.293  0.2299  0.3554 -0.2451
   89MPD2    H7 1368   0.015   2.304   2.195 -3.5113 -1.0924  0.6185
   90TCq2    C1 1369   0.492   2.658   2.133  0.3560 -0.6330 -0.7431
   90TCq2    O2 1370   0.556   2.699   2.227 -0.1363 -0.0250 -0.4041
   90TCq2    C2 1371   0.515   2.715   2.000 -0.1898  0.6195  0.0477
   90TCq2    C3 1372   0.456   2.661   1.889 -0.0015 -0.0952 -0.1546
   90TCq2    C4 1373   0.499   2.700   1.769 -0.3778  0.0630  0.0745
   90TCq2    C5 1374   0.618   2.768   1.761  0.5787 -0.2835  0.3027
   90TCq2    C6 1375   0.677   2.821   1.874  0.5366 -0.2481 -0.1984
   90TCq2    C7 1376   0.608   2.811   1.995 -0.1129  0.4106 -0.4793
   90TCq2    C8 1377   0.801   2.885   1.864 -0.6502 -0.5201  0.9346
   90TCq2    O4 1378   0.867   2.885   1.967  0.1033  0.0332 -0.2912
   90TCq2    C9 1379   0.440   2.647   1.651 -0.0969 -0.5183 -0.4800
   90TCq2    O5 1380   0.337   2.571   1.669  0.3146  0.8075  0.1707
   90TCq2    O6 1381   0.469   2.698   1.541 -0.3345 -0.5500 -0.4960
   90TCq2    H2 1382   0.383   2.581   1.887 -0.3670  0.1989  1.0529
   90TCq2    H3 1383   0.665   2.763   1.663 -0.1752  0.2351 -0.0841
   90TCq2    H4 1384   0.668   2.828   2.084  0.0904 -0.1049 -0.5143
   91TMC2    C1 1385   1.261   1.839  16.331 -0.0602  0.3721 -0.5239
   91TMC2    C2 1386   1.310   1.909  16.229 -0.6191  0.0785  0.2279
   91TMC2    C3 1387   1.222   1.953  16.125 -0.0488  0.0868  0.7687
   91TMC2    C4 1388   1.124   1.826  16.343  0.3078 -0.4202  0.0682
   91TMC2    C5 1389   1.047   1.876  16.243  0.7636  0.6012 -0.1099
   91TMC2    C6 1390   1.089   1.938  16.135 -0.7140  0.5666 -0.0620
   91TMC2     C 1391   1.324   1.715  16.366 -0.6416 -0.7427  0.6484
   91TMC2     O 1392   1.253   1.616  16.372 -0.2393  0.0658  0.3631
   91TMC2     H 1393   1.416   1.919  16.209 -0.3800 -0.0224  1.4334
   91TMC2    H1 1394   1.081   1.773  16.427  2.6545 -1.2390  0.7491
   91TMC2    H2 1395   1.021   1.973  16.058  2.2600 -0.3831 -3.1681
   91TMC2    C7 1396   0.915   1.815  16.236 -0.1261  0.0284  0.9948
   91TMC2    C8 1397   1.275   2.030  16.008 -0.4343  0.4932  0.3378
   91TMC2    O1 1398   0.865   1.788  16.345 -0.1415  0.0295  0.0811
   91TMC2    O2 1399   1.391   2.071  16.017 -0.1258  0.2294  0.3475
   91TMC2    O5 1400   1.206   2.010  15.895 -0.5877  0.4721 -0.0001
   91TMC2    H5 1401   1.130   1.949  15.900  1.2234 -1.6695  1.3010
   92MPD2     C 1402   1.531   1.498  16.396 -0.1659  0.3582  0.1022
   92MPD2    C1 1403   1.556   1.631  16.400  0.2044 -0.4936  0.1751
   92MPD2    C2 1404   1.684   1.669  16.424 -0.6962  0.5952 -0.3629
   92MPD2    C3 1405   1.793   1.588  16.441  0.5118 -0.5104 -0.5888
   92MPD2    C4 1406   1.768   1.453  16.436 -0.3294  0.4571 -0.5293
   92MPD2    C5 1407   1.637   1.419  16.418  0.4583  0.0940  0.1383
   92MPD2     H 1408   1.700   1.775  16.410  0.0059  0.6839  1.0466
   92MPD2    H1 1409   1.842   1.375  16.446 -1.7763 -1.1675 -2.6185
   92MPD2    H2 1410   1.433   1.455  16.376  0.4798 -1.6578  1.3971
   92MPD2    H3 1411   1.616   1.313  16.408  0.7547 -0.0028  0.5411
   92MPD2     N 1412   1.917   1.650  16.469  0.1036  1.3594  0.5961
   92MPD2    H5 1413   1.916   1.750  16.487 -0.8361  1.1274  1.9413
   92MPD2    N1 1414   1.457   1.735  16.384  0.2443  0.2147 -0.4953
   92MPD2    H7 1415   1.493   1.830  16.381  2.1198 -0.4292  1.6142
   93MPD2     C 1416   2.736   1.661  13.619 -0.0841  0.1215  0.4283
   93MPD2    C1 1417   2.754   1.750  13.517  0.5200 -0.0911  0.0365
   93MPD2    C2 1418   2.642   1.795  13.448 -0.0096  0.0432  0.2951
   93MPD2    C3 1419   2.514   1.755  13.482 -0.1725  0.0574 -0.3856
   93MPD2    C4 1420   2.499   1.669  13.585  0.1507  0.0428 -0.1614
   93MPD2    C5 1421   2.608   1.626  13.655  0.2105  0.1652 -0.0425
   93MPD2     H 1422   2.657   1.856  13.360  1.6825  0.3134  0.7587
   93MPD2    H1 1423   2.400   1.635  13.613  0.3211 -1.2882 -1.1661
   93MPD2    H2 1424   2.821   1.618  13.671  0.1634 -0.5718 -0.5384
   93MPD2    H3 1425   2.593   1.554  13.734  0.0334  1.6080  1.2463
   93MPD2     N 1426   2.408   1.813  13.408 -0.1130  0.5691  0.6929
   93MPD2    H5 1427   2.443   1.862  13.326 -1.2163 -0.2067 -0.2386
   93MPD2    N1 1428   2.873   1.805  13.484 -0.6466 -0.0492 -0.3227
   93MPD2    H7 1429   2.872   1.876  13.411  0.7349 -1.4017 -1.6507
   94TCq2    C1 1430   2.993   1.810  13.556 -0.3578 -0.0305 -0.0601
   94TCq2    O2 1431   3.020   1.754  13.661 -0.7693 -0.2440 -0.1814
   94TCq2    C2 1432   3.066   1.936  13.532  0.8755 -0.0317  0.0339
   94TCq2    C3 1433   2.988   2.046  13.491 -0.0554 -0.0093  0.1121
   94TCq2    C4 1434   3.049   2.172  13.499  0.4645 -0.0775 -0.1463
   94TCq2    C5 1435   3.174   2.187  13.554  0.5845 -0.2662  0.0970
   94TCq2    C6 1436   3.242   2.077  13.597  0.7878  0.5049 -0.2668
   94TCq2    C7 1437   3.190   1.950  13.584 -0.5079  0.4396  0.6553
   94TCq2    C8 1438   3.365   2.087  13.677  0.8845  0.3247  0.2600
   94TCq2    O4 1439   3.452   2.001  13.671 -0.3340 -0.2986 -0.1238
   94TCq2    C9 1440   2.971   2.287  13.455 -0.0289 -0.2000 -0.5079
   94TCq2    O5 1441   3.008   2.406  13.469  0.0055 -0.2274 -0.5934
   94TCq2    O6 1442   2.853   2.256  13.418 -0.7694 -0.1716 -0.2541
   94TCq2    H2 1443   2.883   2.039  13.465  0.2938 -0.8811 -1.0771
   94TCq2    H3 1444   3.222   2.284  13.555 -1.1719  0.5903  1.0352
   94TCq2    H4 1445   3.249   1.867  13.622  1.2984  1.9134  1.1179
   95TMC2    C1 1446   3.061   3.392  16.030 -0.5339 -0.6975  0.6333
   95TMC2    C2 1447   3.096   3.270  15.977  0.2771  0.5990 -0.6271
   95TMC2    C3 1448   3.109   3.166  16.065 -0.3151 -0.1129  0.3685
   95TMC2    C4 1449   3.058   3.407  16.165 -1.2156  0.5001  0.3264
   95TMC2    C5 1450   3.077   3.303  16.251 -0.2692  0.7977 -0.3063
   95TMC2    C6 1451   3.114   3.181  16.204 -0.1477 -0.5421 -0.3468
   95TMC2     C 1452   3.054   3.505  15.949  1.2316  0.2469 -0.1075
   95TMC2     O 1453   3.091   3.492  15.835 -0.2993  0.3766  0.7029
   95TMC2     H 1454   3.119   3.269  15.871 -2.8376  1.1586 -1.2983
   95TMC2    H1 1455   3.010   3.495  16.207 -1.1916 -0.0085  1.4326
   95TMC2    H2 1456   3.127   3.091  16.265 -0.5944 -0.4357 -0.0939
   95TMC2    C7 1457   3.094   3.334  16.386 -0.1929  0.0148 -0.2668
   95TMC2    C8 1458   3.175   3.045  16.024  0.6806 -0.5783 -0.2536
   95TMC2    O1 1459   3.071   3.448  16.416 -0.2605 -0.6809  0.4092
   95TMC2    O2 1460   3.264   2.988  16.088 -0.3498 -0.0920  0.2940
   95TMC2    O5 1461   3.096   2.991  15.927 -0.2379  0.2050  0.0826
   95TMC2    H5 1462   3.021   3.050  15.903 -1.8182  0.1700  4.8552
   96MPD2     C 1463   3.157   4.001  15.928  0.5037  0.4252 -0.2832
   96MPD2    C1 1464   3.207   3.902  15.843  0.2113  0.0347  0.4496
   96MPD2    C2 1465   3.167   3.768  15.868 -0.4524 -0.0379 -0.0604
   96MPD2    C3 1466   3.069   3.747  15.967  0.3557 -0.1065 -0.2289
   96MPD2    C4 1467   3.016   3.852  16.045 -0.2376  0.2136 -0.2729
   96MPD2    C5 1468   3.059   3.979  16.021  0.2381 -0.2317  0.3816
   96MPD2     H 1469   3.195   3.686  15.803 -0.9780 -1.1630  1.1292
   96MPD2    H1 1470   2.935   3.832  16.114 -0.7438  0.1203 -0.8924
   96MPD2    H2 1471   3.188   4.105  15.920 -0.6035  1.0045  2.8574
   96MPD2    H3 1472   3.015   4.064  16.072 -1.8612 -0.9857 -0.1643
   96MPD2     N 1473   3.023   3.621  16.011 -0.1203  0.2419  0.5024
   96MPD2    H5 1474   2.979   3.619  16.103 -0.1337 -2.8220  0.4362
   96MPD2    N1 1475   3.301   3.933  15.751 -0.3945  0.4789 -0.1709
   96MPD2    H7 1476   3.332   4.030  15.751  0.1071  0.3195 -0.4024
   97MPD2     C 1477   0.639   1.924   0.795 -0.2092 -0.1608 -0.7651
   97MPD2    C1 1478   0.709   1.961   0.909  0.1368 -0.0556 -1.0056
   97MPD2    C2 1479   0.843   1.917   0.923 -0.3259  0.1472 -0.3476
   97MPD2    C3 1480   0.898   1.825   0.830 -0.1396  0.0418 -0.3637
   97MPD2    C4 1481   0.818   1.788   0.722 -0.0716 -0.3824 -0.3905
   97MPD2    C5 1482   0.694   1.834   0.705 -0.0071  1.0419 -0.2027
   97MPD2     H 1483   0.905   1.948   1.006 -1.3981  0.0898  0.4642
   97MPD2    H1 1484   0.866   1.727   0.646 -0.3530 -1.5796  0.3854
   97MPD2    H2 1485   0.539   1.962   0.782 -0.8471 -1.5330  0.1927
   97MPD2    H3 1486   0.645   1.806   0.612  2.1954 -0.4694 -0.9337
   97MPD2     N 1487   1.037   1.793   0.834 -0.2994 -0.1021  0.5294
   97MPD2    H5 1488   1.073   1.725   0.768  0.3701  1.4134 -0.6743
   97MPD2    N1 1489   0.655   2.054   1.004  0.6869  0.1790 -0.0220
   97MPD2    H7 1490   0.574   2.105   0.971  0.7347  0.9595  1.0764
   98TCq2    C1 1491   1.128   1.826   0.932  0.1778 -0.5319  0.8510
   98TCq2    O2 1492   1.105   1.872   1.044  0.0625  0.2219  0.2577
   98TCq2    C2 1493   1.268   1.799   0.901 -0.8292  0.1942 -0.8953
   98TCq2    C3 1494   1.357   1.796   1.002 -0.5428 -0.7038 -0.0060
   98TCq2    C4 1495   1.486   1.765   0.977 -0.6252 -0.4971 -0.3686
   98TCq2    C5 1496   1.526   1.719   0.858 -0.2905 -0.7451 -1.5138
   98TCq2    C6 1497   1.435   1.724   0.754  0.2562 -0.1694 -0.1339
   98TCq2    C7 1498   1.303   1.759   0.778  0.0302  0.2047 -0.4065
   98TCq2    C8 1499   1.474   1.692   0.623 -0.3173  0.5665 -0.3246
   98TCq2    O4 1500   1.381   1.694   0.541 -0.3739  0.1243 -0.3710
   98TCq2    C9 1501   1.582   1.775   1.088 -0.8425  0.3326 -1.0928
   98TCq2    O5 1502   1.531   1.816   1.196  0.5522 -0.3002 -0.7289
   98TCq2    O6 1503   1.689   1.711   1.083  0.1713 -0.4154  0.4036
   98TCq2    H2 1504   1.335   1.821   1.105  2.6119 -1.0182  0.7611
   98TCq2    H3 1505   1.632   1.698   0.844  0.2172 -0.7223  2.1026
   98TCq2    H4 1506   1.239   1.750   0.691 -0.6548  0.1952  0.1007
   99MPD2     C 1507   4.270   4.323   1.534 -0.1908  0.9725  0.2186
   99MPD2    C1 1508   4.154   4.263   1.571 -0.8567 -0.2542 -0.5726
   99MPD2    C2 1509   4.118   4.141   1.518  0.4751 -0.1508 -0.3338
   99MPD2    C3 1510   4.204   4.080   1.428 -0.5021 -0.1695 -0.3436
   99MPD2    C4 1511   4.331   4.138   1.409  0.1037 -0.2275 -0.2195
   99MPD2    C5 1512   4.363   4.260   1.459 -0.0746  0.3644  0.2530
   99MPD2     H 1513   4.021   4.095   1.534  1.8149 -2.9953 -0.4004
   99MPD2    H1 1514   4.405   4.098   1.340  0.4023 -1.6807  0.9413
   99MPD2    H2 1515   4.313   4.414   1.575  0.6214  0.8118 -0.2668
   99MPD2    H3 1516   4.458   4.305   1.432  0.6000 -1.2913 -0.1178
   99MPD2     N 1517   4.154   3.969   1.350  0.0493 -0.1044 -0.5398
   99MPD2    H5 1518   4.059   3.942   1.371  0.1308  1.4928  1.8181
   99MPD2    N1 1519   4.069   4.319   1.669 -0.0187 -0.3375  0.5636
   99MPD2    H7 1520   4.002   4.249   1.701 -0.9590 -0.2807 -1.2456
  100TCq2    C1 1521   4.054   4.456   1.689  0.0536  0.1317 -0.6618
  100TCq2    O2 1522   4.118   4.548   1.638 -0.2036  0.0775 -0.0144
  100TCq2    C2 1523   3.952   4.487   1.787  0.2042 -0.8658 -0.4301
  100TCq2    C3 1524   3.971   4.600   1.861 -0.1377 -0.2701  0.4152
  100TCq2    C4 1525   3.874   4.632   1.946  0.6912 -0.2739 -0.1237
  100TCq2    C5 1526   3.760   4.558   1.967 -0.2825  0.6789  0.5060
  100TCq2    C6 1527   3.743   4.456   1.880  0.6652  0.0320 -0.0898
  100TCq2    C7 1528   3.835   4.411   1.792 -0.0265  0.9152  0.1898
  100TCq2    C8 1529   3.611   4.389   1.875  0.0126 -0.4134  0.3899
  100TCq2    O4 1530   3.509   4.445   1.915 -0.2721 -0.4900  0.2842
  100TCq2    C9 1531   3.886   0.022   2.031  0.0073  0.0365 -0.7914
  100TCq2    O5 1532   3.799   0.036   2.122  0.2251  0.7658  0.2376
  100TCq2    O6 1533   3.988   0.098   2.006  0.7375  0.2986  0.9817
  100TCq2    H2 1534   4.053   4.669   1.848 -1.0121  0.1637 -2.8205
  100TCq2    H3 1535   3.686   4.579   2.044 -0.2972 -1.5794  1.1258
  100TCq2    H4 1536   3.809   4.343   1.712 -0.5159  0.5552  0.6575
  101MPD2     C 1537   4.494   4.668  12.924  0.5972  0.3089  0.1004
  101MPD2    C1 1538   4.373   0.002  12.911 -0.9216  0.3255 -0.0397
  101MPD2    C2 1539   4.273   4.674  12.987  0.4949 -0.3485 -0.5724
  101MPD2    C3 1540   4.287   4.567  13.070 -0.1869  0.4577 -0.0478
  101MPD2    C4 1541   4.407   4.507  13.072  0.0965 -0.1626  0.8790
  101MPD2    C5 1542   4.509   4.562  12.997 -0.5116 -0.2256 -0.1382
  101MPD2     H 1543   4.174   4.714  12.972 -0.5860 -1.8477  2.5317
  101MPD2    H1 1544   4.426   4.425  13.140  0.6192  0.1510  1.1100
  101MPD2    H2 1545   4.581   4.705  12.871 -0.0273  1.5227 -0.0561
  101MPD2    H3 1546   4.605   4.511  13.001 -0.4370  0.0058  0.8826
  101MPD2     N 1547   4.170   4.519  13.135 -0.5226 -0.5731 -0.3056
  101MPD2    H5 1548   4.080   4.559  13.110  0.7929  0.9125 -2.6544
  101MPD2    N1 1549   4.374   0.107  12.813  0.1163 -0.1671  0.1459
  101MPD2    H7 1550   4.463   0.112  12.765  0.0954 -1.2401  0.0038
  102TCq2    C1 1551   4.509   0.389  12.400  0.1386 -0.1347 -0.1177
  102TCq2    O2 1552   4.599   0.302  12.410  0.4558 -0.4402  0.1157
  102TCq2    C2 1553   4.410   0.402  12.510  0.3746  0.1782  0.3297
  102TCq2    C3 1554   4.320   0.504  12.506 -1.1596  0.2483  0.1049
  102TCq2    C4 1555   4.209   0.498  12.586 -0.0891 -0.2224  0.8113
  102TCq2    C5 1556   4.198   0.396  12.680  0.0058  0.2550  0.3418
  102TCq2    C6 1557   4.294   0.305  12.688  0.9959 -0.2146 -0.4613
  102TCq2    C7 1558   4.403   0.307  12.612  0.6246  0.0067 -0.6604
  102TCq2    C8 1559   4.268   0.193  12.779 -0.4414  0.2429  0.0696
  102TCq2    O4 1560   4.150   0.185  12.815  0.0320 -0.4260  0.5840
  102TCq2    C9 1561   4.106   0.593  12.556  0.7632  0.5765 -0.1165
  102TCq2    O5 1562   4.028   0.628  12.652 -0.0322  0.5743  0.4902
  102TCq2    O6 1563   4.117   0.649  12.445  0.2137  0.2498  0.1533
  102TCq2    H2 1564   4.328   0.591  12.442 -0.5094  0.9498  1.1441
  102TCq2    H3 1565   4.110   0.394  12.744 -0.5162 -0.0849 -0.3874
  102TCq2    H4 1566   4.489   0.241  12.614  0.3548 -0.3466 -0.7861
  103TMC2    C1 1567   2.839   0.148  12.134 -0.0439 -0.1075 -0.6164
  103TMC2    C2 1568   2.913   0.261  12.127 -0.6310  0.5703 -0.6468
  103TMC2    C3 1569   2.975   0.305  12.244  0.3164 -0.3309 -0.1039
  103TMC2    C4 1570   2.813   0.091  12.255  0.5750 -0.1509  0.3009
  103TMC2    C5 1571   2.864   0.143  12.367 -0.3862  0.2688 -0.5074
  103TMC2    C6 1572   2.954   0.247  12.365  0.0780 -0.8013 -0.4695
  103TMC2     C 1573   2.789   0.090  12.005 -0.0412  0.5343  0.3648
  103TMC2     O 1574   2.768   0.165  11.908  0.8334  0.2062 -0.0236
  103TMC2     H 1575   2.955   0.293  12.033  0.1991  1.5319  0.0549
  103TMC2    H1 1576   2.738   0.013  12.256 -1.0429  1.3403 -3.1306
  103TMC2    H2 1577   3.003   0.288  12.452 -1.2924 -0.1109 -0.0233
  103TMC2    C7 1578   2.852   0.083  12.497  0.1215  0.0941  0.5135
  103TMC2    C8 1579   3.099   0.379  12.216  0.1160  0.2573  0.4745
  103TMC2    O1 1580   2.938   0.104  12.580 -0.5178  0.3563  0.4762
  103TMC2    O2 1581   3.142   0.391  12.106 -0.8735  0.0954  1.0270
  103TMC2    O5 1582   3.166   0.420  12.321  0.6291  0.6187  0.4700
  103TMC2    H5 1583   3.123   0.397  12.406  1.4009  0.6824  0.8723
  104MPD2     C 1584   2.625   4.492  11.986  0.2009 -0.2629  0.6006
  104MPD2    C1 1585   2.669   4.617  11.932 -0.0371 -0.3116 -0.0495
  104MPD2    C2 1586   2.608   4.657  11.808 -0.1497  0.5438  0.9185
  104MPD2    C3 1587   2.513   4.581  11.744  0.2002  0.1218  0.3922
  104MPD2    C4 1588   2.470   4.465  11.802 -0.0792  0.2152  1.5942
  104MPD2    C5 1589   2.531   4.423  11.919 -0.6874 -0.6210 -0.1139
  104MPD2     H 1590   2.638   0.027  11.762 -0.8488 -0.0833 -0.8047
  104MPD2    H1 1591   2.407   4.395  11.748  0.1737  2.2371 -1.2885
  104MPD2    H2 1592   2.661   4.452  12.080  0.9343 -0.9123  0.0426
  104MPD2    H3 1593   2.506   4.325  11.959 -1.1435  0.5448  2.4746
  104MPD2     N 1594   2.462   4.628  11.622 -0.2929  0.6354  0.3260
  104MPD2    H5 1595   2.491   4.718  11.584  0.2719  1.5431  2.9044
  104MPD2    N1 1596   2.761   4.679  12.016 -0.1430  0.5190  0.1669
  104MPD2    H7 1597   2.790   4.626  12.098  1.6321  0.2606 -0.6188
  105MPD2     C 1598   0.229   3.899  17.390 -0.1065 -0.0766 -0.2348
  105MPD2    C1 1599   0.140   3.997  17.351  0.2324  0.0814 -0.2625
  105MPD2    C2 1600   0.086   4.081  17.449  0.2765 -0.0588  0.0726
  105MPD2    C3 1601   0.125   4.063  17.589  1.0436  0.4308  0.1368
  105MPD2    C4 1602   0.222   3.964  17.618 -0.3833  0.0993  0.6402
  105MPD2    C5 1603   0.272   3.897  17.519 -0.6360 -0.1960 -0.1495
  105MPD2     H 1604   0.009   4.155  17.430 -2.1615 -2.8779 -1.0271
  105MPD2    H1 1605   0.273   3.951   0.019 -0.0945  0.8173  0.5837
  105MPD2    H2 1606   0.276   3.837  17.315 -0.4134 -0.8528  0.2189
  105MPD2    H3 1607   0.344   3.820  17.547 -0.4794 -1.1522 -3.0694
  105MPD2     N 1608   0.065   4.133  17.689  0.1718 -0.7742  0.3160
  105MPD2    H5 1609   0.002   4.206  17.657  0.7557 -0.9304 -1.2270
  105MPD2    N1 1610   0.100   4.030  17.221 -0.2338  0.2516 -1.1138
  105MPD2    H7 1611   0.037   4.110  17.221 -3.6536 -2.4109 -2.3848
  106TCq2    C1 1612   0.059   4.101   0.127  0.0842  0.4343  0.2491
  106TCq2    O2 1613   0.122   4.017   0.190 -0.2900  0.0298 -0.1208
  106TCq2    C2 1614   4.686   4.184   0.194 -0.7223  0.3375  0.2537
  106TCq2    C3 1615   4.669   4.315   0.165 -0.4864 -0.7065 -0.4484
  106TCq2    C4 1616   4.599   4.397   0.246 -0.7706  0.0994  0.0745
  106TCq2    C5 1617   4.533   4.347   0.360  0.6830  0.4906 -0.3538
  106TCq2    C6 1618   4.546   4.214   0.387  0.1836 -0.5483  0.5732
  106TCq2    C7 1619   4.638   4.135   0.311  0.7594 -0.0867  0.4916
  106TCq2    C8 1620   4.486   4.141   0.492 -0.4810 -1.2473  0.0942
  106TCq2    O4 1621   4.540   4.038   0.530  0.2287 -0.2770 -0.1617
  106TCq2    C9 1622   4.574   4.533   0.202 -0.5120  0.0346 -0.9575
  106TCq2    O5 1623   4.477   4.590   0.259 -0.3176 -0.0626 -0.0775
  106TCq2    O6 1624   4.647   4.589   0.118 -0.0354  0.0587 -0.3744
  106TCq2    H2 1625   4.702   4.350   0.067  0.5270  0.0629  0.1665
  106TCq2    H3 1626   4.464   4.412   0.412 -0.2349  1.1249 -2.3429
  106TCq2    H4 1627   4.638   4.027   0.320  1.2665 -0.1028  0.2997
  107TMC2    C1 1628   0.149   3.035  11.210  0.0849 -0.4960  0.0868
  107TMC2    C2 1629   0.165   3.165  11.184 -0.4839  0.4971  0.0657
  107TMC2    C3 1630   0.245   3.201  11.073  0.4024  0.1554  0.3135
  107TMC2    C4 1631   0.213   2.940  11.134 -0.2738  0.2673  0.2523
  107TMC2    C5 1632   0.286   2.975  11.025 -0.1494 -0.5079  0.0371
  107TMC2    C6 1633   0.310   3.103  10.998  0.6730  0.0769  0.4760
  107TMC2     C 1634   0.059   2.990  11.316 -0.0521 -0.6146 -0.0515
  107TMC2     O 1635   4.718   3.076  11.372 -0.1598 -0.0322 -0.5415
  107TMC2     H 1636   0.143   3.238  11.260 -2.0718  1.1560 -1.0151
  107TMC2    H1 1637   0.189   2.835  11.149  0.7542  0.0180  0.1010
  107TMC2    H2 1638   0.384   3.126  10.922 -0.2342  2.7922  0.4141
  107TMC2    C7 1639   0.307   2.869  10.932  0.6035 -0.2849  0.2862
  107TMC2    C8 1640   0.241   3.332  11.000  0.1147 -0.3324  0.5373
  107TMC2    O1 1641   0.331   2.760  10.983 -0.1683  0.9290  0.0563
  107TMC2    O2 1642   0.302   3.359  10.898  0.1372  0.2200 -0.8199
  107TMC2    O5 1643   0.119   3.384  11.045 -0.0521 -0.1087  0.8933
  107TMC2    H5 1644   0.080   3.336  11.121 -2.1631  0.4715  0.1763
  108MPD2     C 1645   0.019   2.667  11.506 -0.3259 -0.5450 -0.1825
  108MPD2    C1 1646   0.019   2.801  11.482  0.2554 -0.1066 -0.1913
  108MPD2    C2 1647   4.705   2.886  11.593  0.4018 -0.3118  0.5362
  108MPD2    C3 1648   4.648   2.840  11.712  0.2549 -0.5716  0.3349
  108MPD2    C4 1649   4.643   2.699  11.727 -0.1316 -0.4036  0.3376
  108MPD2    C5 1650   4.698   2.620  11.628 -0.5524 -0.0936 -0.4592
  108MPD2     H 1651   4.717   2.993  11.585  1.4485 -0.4975 -0.3760
  108MPD2    H1 1652   4.597   2.658  11.815  0.0341 -0.8828  0.2024
  108MPD2    H2 1653   0.048   2.596  11.429 -1.1063 -1.0465 -0.0190
  108MPD2    H3 1654   4.698   2.513  11.644  2.9332 -0.1962 -1.0513
  108MPD2     N 1655   4.607   2.926  11.822 -0.1687 -0.2522  0.2061
  108MPD2    H5 1656   4.592   2.886  11.914 -1.4733  0.1265  0.1616
  108MPD2    N1 1657   0.075   2.861  11.357  0.9263 -0.4348 -0.9550
  108MPD2    H7 1658   0.122   2.790  11.301  2.9159 -0.2797  0.5726
  109MPD2     C 1659   0.034   1.575   2.143 -0.0793  0.3692 -0.2931
  109MPD2    C1 1660   0.155   1.598   2.079 -0.9613 -0.4864  0.2377
  109MPD2    C2 1661   0.232   1.700   2.128  0.0135 -0.5477  0.0137
  109MPD2    C3 1662   0.207   1.773   2.240 -0.7384  0.2648  0.0681
  109MPD2    C4 1663   0.091   1.745   2.305 -0.4080  0.4772  0.0971
  109MPD2    C5 1664   0.011   1.647   2.258  0.4596 -0.5900  0.5484
  109MPD2     H 1665   0.315   1.739   2.070  0.8739 -1.2484  0.7735
  109MPD2    H1 1666   0.062   1.794   2.397 -0.1091 -0.3828  0.6437
  109MPD2    H2 1667   4.679   1.507   2.111  1.0053 -0.8463 -0.3645
  109MPD2    H3 1668   4.646   1.630   2.320 -0.1895 -1.4938 -0.6158
  109MPD2     N 1669   0.295   1.884   2.263 -0.0741  0.0022 -0.2525
  109MPD2    H5 1670   0.370   1.901   2.196 -2.6592  2.9261 -2.4274
  109MPD2    N1 1671   0.191   1.504   1.981 -0.2838  0.5235 -0.2887
  109MPD2    H7 1672   0.119   1.440   1.949 -1.1531  0.9597  0.7705
  110TCq2    C1 1673   0.284   1.959   2.378  0.1037 -0.0535  0.0129
  110TCq2    O2 1674   0.245   1.922   2.490 -0.0516  0.5036 -0.0782
  110TCq2    C2 1675   0.382   2.068   2.369  0.5768  0.4193 -0.4693
  110TCq2    C3 1676   0.445   2.104   2.486 -0.4084  0.0964 -0.1102
  110TCq2    C4 1677   0.552   2.191   2.472  0.0796 -0.0784  0.0604
  110TCq2    C5 1678   0.597   2.235   2.347 -0.0881 -0.1382  0.5604
  110TCq2    C6 1679   0.525   2.197   2.239 -0.8892 -0.2665 -0.6694
  110TCq2    C7 1680   0.415   2.122   2.242  0.2758 -0.1109 -0.0529
  110TCq2    C8 1681   0.556   2.256   2.115  0.0336 -0.2969 -0.1661
  110TCq2    O4 1682   0.497   2.209   2.019  0.2396 -0.2548 -0.1029
  110TCq2    C9 1683   0.631   2.228   2.595 -0.4320 -0.3410 -0.1396
  110TCq2    O5 1684   0.728   2.306   2.574  0.6450  0.2294  0.0139
  110TCq2    O6 1685   0.596   2.180   2.706  0.0812  0.2011 -0.0941
  110TCq2    H2 1686   0.416   2.051   2.575 -1.2589  0.9310  0.1037
  110TCq2    H3 1687   0.678   2.307   2.343  0.3316 -0.6770 -0.5211
  110TCq2    H4 1688   0.353   2.103   2.155  0.9489 -3.0238  0.1005
  111TMC2    C1 1689   0.563   0.673  10.921  0.2519  0.4421  0.1440
  111TMC2    C2 1690   0.683   0.672  10.854 -0.8332  0.1971  0.5726
  111TMC2    C3 1691   0.793   0.672  10.927 -1.1203  0.0333 -0.5680
  111TMC2    C4 1692   0.553   0.667  11.057  0.2759 -0.4390 -0.2499
  111TMC2    C5 1693   0.675   0.676  11.127 -0.4448  0.7974  0.3250
  111TMC2    C6 1694   0.795   0.687  11.060 -0.0089 -0.4615  0.1035
  111TMC2     C 1695   0.439   0.639  10.857 -0.5764 -0.2672  0.1718
  111TMC2     O 1696   0.334   0.699  10.873  0.2480  0.2136  0.1526
  111TMC2     H 1697   0.690   0.650  10.748 -1.5625 -2.1173  0.9984
  111TMC2    H1 1698   0.458   0.678  11.108  0.9894  1.6183  0.6118
  111TMC2    H2 1699   0.894   0.672  11.102  0.8185 -1.3398 -2.1534
  111TMC2    C7 1700   0.674   0.625  11.264 -0.0388 -0.3614 -0.7832
  111TMC2    C8 1701   0.923   0.658  10.862  0.0535  0.6487 -0.2098
  111TMC2    O1 1702   0.565   0.619  11.325  0.2980  0.4235  0.3607
  111TMC2    O2 1703   1.021   0.613  10.919 -0.1025  0.6047  0.1245
  111TMC2    O5 1704   0.924   0.729  10.744 -0.0005 -0.2543 -0.0526
  111TMC2    H5 1705   0.834   0.747  10.708 -0.4367 -1.7674  0.2595
  112MPD2     C 1706   0.211   0.372  10.460  0.2991 -0.5398 -0.2201
  112MPD2    C1 1707   0.156   0.478  10.542  0.2541 -0.2362  0.5469
  112MPD2    C2 1708   0.244   0.531  10.644 -0.3545  1.0586  0.0933
  112MPD2    C3 1709   0.374   0.495  10.662 -1.1161  0.1415  0.3429
  112MPD2    C4 1710   0.418   0.392  10.578  0.6535  0.8471  0.2468
  112MPD2    C5 1711   0.338   0.344  10.477  0.9820  0.1737  0.2073
  112MPD2     H 1712   0.214   0.614  10.707  0.3883  0.3493  1.3936
  112MPD2    H1 1713   0.519   0.353  10.588 -0.0958 -1.2777 -0.4092
  112MPD2    H2 1714   0.154   0.330  10.378 -0.0184 -0.5308 -0.0070
  112MPD2    H3 1715   0.370   0.256  10.421 -0.9074 -0.1881 -0.2820
  112MPD2     N 1716   0.460   0.539  10.767 -0.0434  0.2407 -0.6169
  112MPD2    H5 1717   0.547   0.488  10.780  0.6777  1.2427 -1.5378
  112MPD2    N1 1718   0.037   0.545  10.511 -0.1842 -0.4040  0.1537
  112MPD2    H7 1719   0.021   0.629  10.565 -1.4861 -0.0216 -0.8387
  113MPD2     C 1720   3.500   3.781   0.521 -0.0264 -0.5728 -0.4568
  113MPD2    C1 1721   3.446   3.686   0.605  0.0350 -0.1261 -0.1460
  113MPD2    C2 1722   3.386   3.567   0.559 -0.2834 -0.1249  1.0370
  113MPD2    C3 1723   3.375   3.548   0.420 -0.2918  0.3894 -0.3799
  113MPD2    C4 1724   3.435   3.643   0.335 -0.6082 -0.0113  0.3089
  113MPD2    C5 1725   3.498   3.747   0.386  0.0924  0.1197  0.4523
  113MPD2     H 1726   3.344   3.499   0.631 -0.7687 -1.9899 -1.0101
  113MPD2    H1 1727   3.448   3.631   0.228  2.7849  2.8725  0.4208
  113MPD2    H2 1728   3.547   3.871   0.561 -2.4985 -0.7546  2.8982
  113MPD2    H3 1729   3.526   3.822   0.313 -0.2670 -1.8940 -1.7265
  113MPD2     N 1730   3.305   3.442   0.365 -0.0783 -0.6644 -0.3972
  113MPD2    H5 1731   3.318   3.430   0.265  0.2994  1.5867 -0.6114
  113MPD2    N1 1732   3.437   3.708   0.747 -0.0740  0.2214 -0.2328
  113MPD2    H7 1733   3.385   3.641   0.803  2.1039 -0.5486  0.8539
  114TCq2    C1 1734   3.236   3.344   0.443 -0.6424  0.4633  1.0015
  114TCq2    O2 1735   3.218   3.328   0.563  0.3494  0.2172 -0.0159
  114TCq2    C2 1736   3.163   3.246   0.364  0.2744  0.0698  0.3141
  114TCq2    C3 1737   3.111   3.297   0.247  0.1486 -0.4658  0.1542
  114TCq2    C4 1738   2.984   3.270   0.217 -0.3587 -0.3272 -0.1686
  114TCq2    C5 1739   2.903   3.188   0.298  0.3945 -0.3934 -0.0442
  114TCq2    C6 1740   2.956   3.125   0.405 -0.3059 -0.3845  0.6142
  114TCq2    C7 1741   3.086   3.152   0.434  0.4707  0.4672 -0.4280
  114TCq2    C8 1742   2.864   3.056   0.488  0.6021 -0.7114  0.3360
  114TCq2    O4 1743   2.751   3.046   0.449  0.3736  0.2815 -0.3127
  114TCq2    C9 1744   2.933   3.333   0.098  0.4254 -0.5522  0.5796
  114TCq2    O5 1745   2.815   3.304   0.057 -0.2407 -0.2759  0.7478
  114TCq2    O6 1746   3.011   3.403   0.036 -0.1182 -0.1926  0.7032
  114TCq2    H2 1747   3.166   3.371   0.191 -0.1811 -1.8377 -1.9745
  114TCq2    H3 1748   2.796   3.183   0.281  0.4665  2.0619 -1.2270
  114TCq2    H4 1749   3.114   3.127   0.536 -1.0217  0.6828  0.0250
  115TMC2    C1 1750   4.184   1.143  17.589 -0.5680 -0.2189  0.4268
  115TMC2    C2 1751   4.311   1.159  17.653 -0.4645 -0.2675 -0.5510
  115TMC2    C3 1752   4.364   1.280  17.660  0.3705 -0.0023  0.4328
  115TMC2    C4 1753   4.120   1.251  17.543 -0.1160  0.0645 -0.4057
  115TMC2    C5 1754   4.182   1.374  17.547 -0.2486 -0.2108  0.1317
  115TMC2    C6 1755   4.304   1.389  17.600  0.3058  0.3039  0.3751
  115TMC2     C 1756   4.135   1.002  17.582  0.1508  0.2586  0.0992
  115TMC2     O 1757   4.036   0.996  17.511  0.4588 -0.5033 -0.3611
  115TMC2     H 1758   4.344   1.083   0.030  0.1984 -1.1057 -1.7723
  115TMC2    H1 1759   4.019   1.234  17.508  0.6998 -0.4919 -2.4715
  115TMC2    H2 1760   4.349   1.488  17.612  1.1584 -0.1135  0.6604
  115TMC2    C7 1761   4.119   1.481  17.478 -0.2745 -0.2281  0.2724
  115TMC2    C8 1762   4.483   1.307   0.041  0.4031  0.8226  0.5639
  115TMC2    O1 1763   4.002   1.471  17.450  0.2059 -0.1869 -0.0008
  115TMC2    O2 1764   4.519   1.423   0.066  0.4698 -0.7010 -0.0608
  115TMC2    O5 1765   4.548   1.193   0.058 -0.4204 -0.4807  0.0233
  115TMC2    H5 1766   4.520   1.117   0.004  0.3346 -2.1750  2.0139
  116MPD2     C 1767   4.116   0.493  17.633  0.1966 -0.3652 -0.3426
  116MPD2    C1 1768   4.015   0.582  17.620  0.5454 -0.2972  0.4830
  116MPD2    C2 1769   4.045   0.718  17.627  0.1603  0.4789 -0.1451
  116MPD2    C3 1770   4.181   0.764  17.634  0.4854 -0.8896 -0.5440
  116MPD2    C4 1771   4.274   0.670  17.660 -0.3036 -0.3205 -0.4028
  116MPD2    C5 1772   4.243   0.539  17.656 -0.1671 -0.5606 -0.5019
  116MPD2     H 1773   3.967   0.794  17.624 -0.0984  0.3065  2.6975
  116MPD2    H1 1774   4.376   0.697  17.687 -0.6151 -0.2019  0.6382
  116MPD2    H2 1775   4.100   0.386  17.639 -0.6453 -0.0106  3.4819
  116MPD2    H3 1776   4.319   0.462  17.656  1.4412  0.9808 -3.0852
  116MPD2     N 1777   4.212   0.904  17.642  0.0490  0.3535  0.6837
  116MPD2    H5 1778   4.307   0.926  17.670  1.0648 -0.3344 -2.2803
  116MPD2    N1 1779   3.887   0.531  17.588  0.3086 -0.4017 -0.2867
  116MPD2    H7 1780   3.874   0.431  17.598  1.2503 -0.3561  1.4238
  117TMC2    C1 1781   2.390   2.570  14.367 -0.6747 -0.5796 -1.1464
  117TMC2    C2 1782   2.370   2.586  14.506  0.3443 -0.3460  0.5980
  117TMC2    C3 1783   2.473   2.639  14.574  0.1105 -0.6155  0.1098
  117TMC2    C4 1784   2.508   2.606  14.308 -0.0622  0.4038  0.4690
  117TMC2    C5 1785   2.607   2.664  14.389  1.0522 -0.8901  0.3465
  117TMC2    C6 1786   2.587   2.677  14.516  0.1588  0.5783 -0.1852
  117TMC2     C 1787   2.286   2.517  14.283  0.4555 -0.8960 -0.6135
  117TMC2     O 1788   2.206   2.452  14.343  0.2482 -0.2149  0.6620
  117TMC2     H 1789   2.276   2.578  14.559  1.0330  0.9898  1.9968
  117TMC2    H1 1790   2.533   2.592  14.204 -0.2838 -0.9048  0.5888
  117TMC2    H2 1791   2.654   2.730  14.583  0.0343 -0.5789  0.8555
  117TMC2    C7 1792   2.691   2.767  14.332  0.5329 -0.4892 -0.5964
  117TMC2    C8 1793   2.447   2.667  14.716  0.1760 -0.2549  0.1667
  117TMC2    O1 1794   2.721   2.865  14.400 -0.0319  0.2603  0.1223
  117TMC2    O2 1795   2.411   2.578  14.786 -0.2384 -0.0815 -0.3776
  117TMC2    O5 1796   2.393   2.792  14.709 -0.3884  0.0183 -0.3685
  117TMC2    H5 1797   2.430   2.847  14.637 -0.7030  0.3210 -0.2980
  118MPD2     C 1798   2.817   2.764  13.988  0.0890 -0.1081  0.4191
  118MPD2    C1 1799   2.780   2.814  14.108 -0.2804 -0.1595  0.2118
  118MPD2    C2 1800   2.803   2.951  14.132  0.1598  0.4252  0.7855
  118MPD2    C3 1801   2.880   3.023  14.047  0.0527  0.0217  0.3516
  118MPD2    C4 1802   2.920   2.961  13.928 -0.0962  0.0670 -0.6023
  118MPD2    C5 1803   2.878   2.835  13.889  0.0059  0.2997 -0.0090
  118MPD2     H 1804   2.752   3.001  14.215 -1.8950 -1.3546  0.6016
  118MPD2    H1 1805   2.967   3.017  13.849  2.0257 -2.3352 -1.0623
  118MPD2    H2 1806   2.811   2.657  13.971 -2.4446 -0.2983  2.4544
  118MPD2    H3 1807   2.904   2.783  13.798 -0.7197  1.9521 -1.1728
  118MPD2     N 1808   2.915   3.157  14.068 -0.5005 -0.2017  0.1867
  118MPD2    H5 1809   2.952   3.213  13.991 -0.2791  0.5027  0.8074
  118MPD2    N1 1810   2.727   2.732  14.203 -0.5702 -0.0463 -0.2288
  118MPD2    H7 1811   2.702   2.637  14.176 -0.8467 -0.1660  0.4393
  119MPD2     C 1812   1.134   3.938  13.456  0.0332 -0.0148  0.3463
  119MPD2    C1 1813   0.999   3.970  13.482  1.0282 -0.8111  0.3623
  119MPD2    C2 1814   0.907   3.867  13.454  0.1057 -0.7871 -0.9716
  119MPD2    C3 1815   0.941   3.743  13.398  0.5306 -0.5105  0.1658
  119MPD2    C4 1816   1.068   3.729  13.347 -0.1855 -0.8769  0.2343
  119MPD2    C5 1817   1.166   3.822  13.383 -0.5472  0.3259 -0.4456
  119MPD2     H 1818   0.804   3.879  13.486  0.0542 -1.4743 -0.8692
  119MPD2    H1 1819   1.110   3.638  13.305  0.0684 -0.4229 -0.4938
  119MPD2    H2 1820   1.211   4.013  13.467 -0.1770  0.2973 -0.3054
  119MPD2    H3 1821   1.267   3.803  13.349  0.2476  1.0033  1.5297
  119MPD2     N 1822   0.850   3.634  13.383 -0.1642 -0.1366  0.4218
  119MPD2    H5 1823   0.895   3.558  13.335 -1.0833 -0.6732  0.4031
  119MPD2    N1 1824   0.964   4.099  13.540 -0.2583  0.4386 -0.2929
  119MPD2    H7 1825   1.037   4.156  13.581  1.5476 -3.0954  1.4521
  120TCq2    C1 1826   0.721   3.623  13.444  0.3181  0.6875  0.0501
  120TCq2    O2 1827   0.661   3.694  13.525  0.6674  0.1842 -0.3028
  120TCq2    C2 1828   0.640   3.508  13.395  1.0520  0.2348  0.4232
  120TCq2    C3 1829   0.681   3.444  13.281  0.3649  0.7427 -0.6266
  120TCq2    C4 1830   0.581   3.390  13.202  0.2317  0.3842 -0.5854
  120TCq2    C5 1831   0.448   3.411  13.235  0.1171 -0.0263 -0.2064
  120TCq2    C6 1832   0.420   3.464  13.357  0.6141  0.5426 -0.0109
  120TCq2    C7 1833   0.515   3.510  13.444  0.5507 -0.3124  0.2666
  120TCq2    C8 1834   0.278   3.490  13.382 -0.1472  0.3941  0.0327
  120TCq2    O4 1835   0.206   3.500  13.284  0.6622 -0.1169 -0.3119
  120TCq2    C9 1836   0.605   3.319  13.086  0.5858 -0.2198  0.1427
  120TCq2    O5 1837   0.722   3.322  13.043  0.0478  0.2031 -0.3583
  120TCq2    O6 1838   0.512   3.255  13.040  0.0074 -0.0193  0.0810
  120TCq2    H2 1839   0.783   3.436  13.244  0.5870 -2.0646  0.6084
  120TCq2    H3 1840   0.375   3.379  13.162  1.4026 -2.3700 -0.4431
  120TCq2    H4 1841   0.486   3.565  13.533 -0.5725  3.0456 -2.1849
  121TMC2    C1 1842   2.043   0.907  14.128  0.0424  0.6310 -0.3150
  121TMC2    C2 1843   2.040   0.833  14.239  0.5591  0.3814 -0.3311
  121TMC2    C3 1844   1.928   0.763  14.269  0.2890  0.0581  0.3104
  121TMC2    C4 1845   1.938   0.899  14.039 -0.1060  0.0389  0.2709
  121TMC2    C5 1846   1.828   0.832  14.078  0.1988 -0.5365  0.3433
  121TMC2    C6 1847   1.818   0.757  14.189  0.4835  0.1468 -0.5371
  121TMC2     C 1848   2.173   0.947  14.083  0.2071  0.0614  0.1957
  121TMC2     O 1849   2.258   0.968  14.171 -0.1819  0.3539 -0.0651
  121TMC2     H 1850   2.133   0.828  14.295  1.1822  1.8530 -1.2067
  121TMC2    H1 1851   1.936   0.963  13.952 -0.3656  0.3928  0.5422
  121TMC2    H2 1852   1.749   0.674  14.193  2.9109 -1.7961  1.3299
  121TMC2    C7 1853   1.708   0.846  14.007  0.3580 -0.2588  0.3748
  121TMC2    C8 1854   1.936   0.671  14.376 -0.1259  0.0201 -1.0299
  121TMC2    O1 1855   1.718   0.884  13.891  0.2149 -0.3397 -0.2201
  121TMC2    O2 1856   2.036   0.613  14.421  0.8333 -0.4109  0.5589
  121TMC2    O5 1857   1.810   0.651  14.421  0.2658  0.4851 -0.0322
  121TMC2    H5 1858   1.744   0.719  14.396  0.1376  0.2720 -0.2666
  122MPD2     C 1859   2.380   1.113  13.935 -0.4503  0.3792  0.3323
  122MPD2    C1 1860   2.271   1.051  13.875  0.5537 -0.1429  0.2543
  122MPD2    C2 1861   2.244   1.085  13.741  0.0009 -0.0736 -0.4144
  122MPD2    C3 1862   2.325   1.177  13.670 -0.1820  0.2858 -0.3065
  122MPD2    C4 1863   2.432   1.230  13.736 -0.0401 -0.4417  0.9613
  122MPD2    C5 1864   2.459   1.197  13.864 -0.6201  0.2887 -0.2321
  122MPD2     H 1865   2.158   1.039  13.694 -0.1167  1.8040 -2.0569
  122MPD2    H1 1866   2.500   1.294  13.681  0.8334 -1.9526  0.2823
  122MPD2    H2 1867   2.396   1.088  14.040  2.9261 -1.0926 -0.5225
  122MPD2    H3 1868   2.546   1.246  13.907 -0.4349 -0.8740  0.7286
  122MPD2     N 1869   2.298   1.224  13.538  0.3191 -0.2454 -0.2169
  122MPD2    H5 1870   2.343   1.312  13.515 -2.8880  1.7620  1.1682
  122MPD2    N1 1871   2.170   0.981  13.947  0.0959 -0.8436  0.0908
  122MPD2    H7 1872   2.097   0.941  13.890 -2.0483  0.4263  1.9170
  123MPD2     C 1873   4.005   4.653   9.249  0.2738  0.2017 -0.1045
  123MPD2    C1 1874   4.004   4.543   9.333  0.2870 -0.1433  0.1861
  123MPD2    C2 1875   4.083   4.535   9.444 -0.1853 -0.4444  0.3054
  123MPD2    C3 1876   4.164   4.643   9.485  0.5070 -1.0738  0.0528
  123MPD2    C4 1877   4.178   0.028   9.396  0.6336  0.3928  0.4000
  123MPD2    C5 1878   4.098   0.030   9.283  0.3974 -0.1225  0.2893
  123MPD2     H 1879   4.087   4.445   9.504 -1.3965 -0.8657 -0.2500
  123MPD2    H1 1880   4.240   0.115   9.410  1.5557 -0.4536  1.6078
  123MPD2    H2 1881   3.935   4.661   9.166  1.6220  1.7254 -1.1136
  123MPD2    H3 1882   4.102   0.121   9.225 -0.0627 -0.3059 -0.0295
  123MPD2     N 1883   4.236   4.637   9.603  0.3987 -0.6882  0.0034
  123MPD2    H5 1884   4.231   4.553   9.661 -2.0256 -0.6124 -0.0703
  123MPD2    N1 1885   3.924   4.437   9.288  0.0406  0.0387  0.2790
  123MPD2    H7 1886   3.890   4.449   9.194  0.8712  0.3045  0.0137
  124TCq2    C1 1887   4.303   0.017   9.665 -0.4620  0.0402 -0.0594
  124TCq2    O2 1888   4.291   0.138   9.642 -0.2778  0.2049 -0.3488
  124TCq2    C2 1889   4.403   4.703   9.765  0.1863  0.0599 -0.4828
  124TCq2    C3 1890   4.470   0.080   9.831  0.8608 -0.1576 -0.3063
  124TCq2    C4 1891   4.561   0.046   9.926  0.4967 -0.0543  0.2458
  124TCq2    C5 1892   4.591   4.632   9.951 -0.2100  0.0768  0.1745
  124TCq2    C6 1893   4.527   4.537   9.882 -0.4783  0.2334  1.2210
  124TCq2    C7 1894   4.431   4.574   9.791  0.7287 -0.0753  0.2862
  124TCq2    C8 1895   4.542   4.395   9.895 -0.3863  0.0672  0.5315
  124TCq2    O4 1896   4.655   4.363   9.932  0.4737 -0.3067  0.6456
  124TCq2    C9 1897   4.630   0.147   9.997 -0.2763 -0.7850  0.7599
  124TCq2    O5 1898   4.623   0.269   9.952 -0.3746 -0.4807  0.4651
  124TCq2    O6 1899   4.700   0.101  10.090 -0.0116 -0.5769 -1.0530
  124TCq2    H2 1900   4.446   0.179   9.794  0.8246 -1.0210 -2.5672
  124TCq2    H3 1901   4.659   4.597  10.027 -0.5225 -1.3406 -0.2060
  124TCq2    H4 1902   4.404   4.506   9.712  1.1767 -0.1890  0.2305
  125TMC2    C1 1903   0.995   0.692   9.617  0.1498  0.0745 -0.7970
  125TMC2    C2 1904   0.905   0.762   9.694  0.2585 -0.1135 -0.2951
  125TMC2    C3 1905   0.824   0.858   9.634 -0.2026  0.5818  0.3699
  125TMC2    C4 1906   1.004   0.707   9.482  0.4769  0.3804 -0.8049
  125TMC2    C5 1907   0.929   0.805   9.427 -0.8956  0.1822  0.0304
  125TMC2    C6 1908   0.838   0.877   9.503  0.4648 -0.2189 -0.2626
  125TMC2     C 1909   1.093   0.615   9.692 -0.5480  0.2016  0.3155
  125TMC2     O 1910   1.064   0.575   9.802 -0.2652 -0.5672 -0.6825
  125TMC2     H 1911   0.883   0.716   9.790  1.0417  0.7848  0.3205
  125TMC2    H1 1912   1.057   0.639   9.416  0.0568  0.1736 -0.9251
  125TMC2    H2 1913   0.794   0.963   9.452 -0.5416 -0.5992 -0.0357
  125TMC2    C7 1914   0.911   0.825   9.285 -0.6236  0.2607 -0.1975
  125TMC2    C8 1915   0.694   0.888   9.686 -0.1186  0.5537 -0.0868
  125TMC2    O1 1916   0.812   0.889   9.248 -0.3935 -0.3217  0.3448
  125TMC2    O2 1917   0.611   0.950   9.617  0.6526 -0.3503 -0.4172
  125TMC2    O5 1918   0.690   0.898   9.821 -0.3757 -0.0591 -0.6128
  125TMC2    H5 1919   0.775   0.867   9.859  0.3847  0.2379 -2.0462
  126MPD1     C 1920   1.504   0.322   9.731 -0.5492 -0.3146 -0.1104
  126MPD1    C1 1921   1.536   0.426   9.641  0.1647  0.1237  0.4563
  126MPD1    C2 1922   1.434   0.509   9.603  0.1871 -0.3268 -0.3870
  126MPD1    C3 1923   1.309   0.500   9.655 -0.3689 -0.2751  0.3493
  126MPD1    C4 1924   1.283   0.404   9.754 -0.0042  0.6147 -0.5398
  126MPD1    C5 1925   1.377   0.314   9.789 -0.5497 -0.1869 -0.0736
  126MPD1     H 1926   1.468   0.588   9.538 -1.7618  0.9586  0.1490
  126MPD1    H1 1927   1.188   0.393   9.804  0.1089  0.0240 -0.4598
  126MPD1    H2 1928   1.578   0.248   9.757 -0.8312 -0.5708 -0.0471
  126MPD1    H3 1929   1.357   0.234   9.859 -3.1361 -1.3165 -2.1090
  126MPD1     N 1930   1.204   0.593   9.621  0.3168 -0.1424 -0.5020
  126MPD1    H5 1931   1.224   0.639   9.533 -2.1625  1.8581  0.0053
  126MPD1    N1 1932   1.648   0.417   9.567 -0.3252 -0.4837  0.6107
  126MPD1    H6 1933   1.727   0.368   9.608 -0.8565 -0.0984  2.1005
  126MPD1    H7 1934   1.680   0.510   9.539 -0.4911 -1.2115 -1.9398
  127MPD2     C 1935   1.760   0.052  10.061  0.4037  0.6671 -0.0512
  127MPD2    C1 1936   1.895   0.012  10.070 -0.5691 -0.7479  0.4440
  127MPD2    C2 1937   1.990   0.045   9.979 -0.2450 -0.3018 -0.6478
  127MPD2    C3 1938   1.956   0.130   9.876  0.4494 -0.1035  0.6597
  127MPD2    C4 1939   1.820   0.161   9.862  0.1617  0.0658 -0.6953
  127MPD2    C5 1940   1.727   0.133   9.962  0.6725 -0.4630 -0.3835
  127MPD2     H 1941   2.096   0.023   9.985 -0.0674  1.4458  2.6202
  127MPD2    H1 1942   1.777   0.216   9.779 -3.9978 -1.5828  0.3576
  127MPD2    H2 1943   1.690   0.011  10.133  0.6386 -2.6220 -1.7106
  127MPD2    H3 1944   1.622   0.143   9.937  1.1789  2.5044 -1.2449
  127MPD2     N 1945   2.051   0.183   9.784  0.5787  0.0750 -0.2987
  127MPD2    H5 1946   2.147   0.168   9.815  0.1944  4.2104  2.7794
  127MPD2    N1 1947   1.926   4.653  10.179 -0.7034 -0.3517 -0.1987
  127MPD2    H7 1948   1.848   4.642  10.243 -1.7215  0.0509 -1.3722
  128TCq2    C1 1949   2.047   4.597  10.215 -0.0601 -0.3154  0.4300
  128TCq2    O2 1950   2.151   4.601  10.153  0.3228  0.2188 -0.0908
  128TCq2    C2 1951   2.049   4.510  10.329 -0.6398 -0.7161 -0.1257
  128TCq2    C3 1952   2.179   4.484  10.374  0.1803  0.2271  0.0955
  128TCq2    C4 1953   2.190   4.437  10.507 -0.2109  0.3692  0.3434
  128TCq2    C5 1954   2.081   4.399  10.576  0.0430 -0.6055 -0.8573
  128TCq2    C6 1955   1.961   4.416  10.519 -0.1604 -0.0016 -0.1591
  128TCq2    C7 1956   1.933   4.468  10.399  0.7288  0.4178 -0.5100
  128TCq2    C8 1957   1.849   4.349  10.579  0.7838 -0.2050  0.0902
  128TCq2    O4 1958   1.844   4.354  10.705 -0.9227 -0.1632  0.0172
  128TCq2    C9 1959   2.320   4.409  10.560  0.9122 -0.0936 -0.2911
  128TCq2    O5 1960   2.416   4.429  10.484 -0.1785 -0.0805 -0.5305
  128TCq2    O6 1961   2.334   4.319  10.649 -0.6828  0.0730 -0.1062
  128TCq2    H2 1962   2.265   4.516  10.317  0.7073 -0.9774  0.2230
  128TCq2    H3 1963   2.091   4.354  10.674  1.4123  1.1946 -0.1688
  128TCq2    H4 1964   1.834   4.471  10.355 -0.1518  0.8919  1.4819
  129MPD2     C 1965   1.192   1.054   1.955 -0.5797 -0.6429  0.1848
  129MPD2    C1 1966   1.080   1.124   1.917  0.0562 -0.2009  0.5432
  129MPD2    C2 1967   1.098   1.211   1.811 -0.8902 -0.0882  0.5757
  129MPD2    C3 1968   1.210   1.223   1.738 -0.2053 -0.1395  0.5561
  129MPD2    C4 1969   1.322   1.155   1.787 -0.4306  0.0562  0.5112
  129MPD2    C5 1970   1.314   1.079   1.901 -0.9349 -0.0098 -0.9467
  129MPD2     H 1971   1.017   1.278   1.782 -0.0045  0.6881 -0.1210
  129MPD2    H1 1972   1.419   1.163   1.741 -2.5017 -0.4787 -3.9533
  129MPD2    H2 1973   1.191   0.985   2.039  1.1281 -2.2624 -1.1195
  129MPD2    H3 1974   1.400   1.024   1.938 -1.3097  1.6771  2.4212
  129MPD2     N 1975   1.210   1.312   1.630 -0.3100 -0.0508 -0.5799
  129MPD2    H5 1976   1.132   1.374   1.614  0.3285  0.9533  0.2416
  129MPD2    N1 1977   0.959   1.137   1.988  0.0909  0.1590  0.8123
  129MPD2    H7 1978   0.889   1.202   1.951 -0.3641 -0.3075  0.8490
  130TCq2    C1 1979   0.949   1.108   2.124 -0.5506 -0.4286  0.2717
  130TCq2    O2 1980   1.035   1.079   2.202 -0.6403  0.6693 -0.3984
  130TCq2    C2 1981   0.819   1.140   2.180  0.1810 -0.1959  0.1651
  130TCq2    C3 1982   0.815   1.196   2.302  0.1393  0.0145  0.2317
  130TCq2    C4 1983   0.694   1.208   2.360 -0.1711  0.1231 -0.2330
  130TCq2    C5 1984   0.577   1.180   2.292  0.1102 -0.4260 -0.8125
  130TCq2    C6 1985   0.590   1.120   2.166  0.1100  0.2794 -0.4221
  130TCq2    C7 1986   0.710   1.091   2.111  0.0209  0.1506 -0.2145
  130TCq2    C8 1987   0.468   1.075   2.100 -0.6607 -0.3991  0.4720
  130TCq2    O4 1988   0.483   0.971   2.044  0.0645 -0.9837  0.2507
  130TCq2    C9 1989   0.696   1.266   2.488 -0.4339 -0.7102  0.3145
  130TCq2    O5 1990   0.806   1.305   2.538 -0.3141  0.4790  0.0904
  130TCq2    O6 1991   0.584   1.268   2.542  0.1661  0.3941 -0.1102
  130TCq2    H2 1992   0.906   1.230   2.350  0.5013  1.5365 -1.5279
  130TCq2    H3 1993   0.481   1.206   2.336  0.3075  0.5728 -0.9734
  130TCq2    H4 1994   0.724   1.037   2.019  0.8000 -2.1663  1.2671
  131MPD2     C 1995   3.523   4.529   8.600  0.8584 -0.2151 -0.1101
  131MPD2    C1 1996   3.647   4.558   8.659 -0.3071  0.0724  0.9133
  131MPD2    C2 1997   3.682   4.482   8.765 -0.3202 -0.0522  0.6871
  131MPD2    C3 1998   3.610   4.373   8.812  0.1759 -0.4216 -0.5747
  131MPD2    C4 1999   3.496   4.331   8.747 -0.0454  0.0178 -0.2887
  131MPD2    C5 2000   3.447   4.423   8.652  0.1442 -0.5287 -0.0699
  131MPD2     H 2001   3.775   4.510   8.812  1.0687  0.9670 -2.6801
  131MPD2    H1 2002   3.419   4.268   8.789  0.6561 -0.4330  0.3418
  131MPD2    H2 2003   3.489   4.596   8.522 -1.0825  1.3225  2.0581
  131MPD2    H3 2004   3.354   4.398   8.602  0.1864 -1.5943  0.3901
  131MPD2     N 2005   3.655   4.309   8.930 -0.1943 -0.3261 -1.0249
  131MPD2    H5 2006   3.738   4.349   8.973  0.3088 -0.4840 -1.8570
  131MPD2    N1 2007   3.703   4.687   8.628  0.1188  0.3805  0.4401
  131MPD2    H7 2008   3.655   0.034   8.573 -0.1170 -1.1011 -1.2286
  132TCq2    C1 2009   4.107   0.397   8.562  0.1923 -0.0005 -0.4819
  132TCq2    O2 2010   4.155   0.338   8.466 -0.4480 -0.0943 -0.4147
  132TCq2    C2 2011   3.986   0.344   8.624  0.1176 -0.3686 -0.5628
  132TCq2    C3 2012   3.871   0.427   8.609 -0.1247  0.4946 -0.7510
  132TCq2    C4 2013   3.747   0.367   8.605 -0.3277 -0.7062  0.2244
  132TCq2    C5 2014   3.727   0.233   8.619  0.0982 -0.4543 -0.3682
  132TCq2    C6 2015   3.839   0.152   8.635  0.5928  0.1836 -0.6323
  132TCq2    C7 2016   3.965   0.209   8.632  1.0291  0.3771  0.0881
  132TCq2    C8 2017   3.830   0.008   8.655  0.8582  0.4344 -0.1595
  132TCq2    O4 2018   3.926   4.665   8.693 -0.4067 -0.0216  0.7036
  132TCq2    C9 2019   3.626   0.444   8.584 -0.7505  0.1024 -0.7128
  132TCq2    O5 2020   3.637   0.570   8.574  0.4529 -0.1021 -0.0050
  132TCq2    O6 2021   3.516   0.378   8.582 -0.4103 -1.0289 -0.5338
  132TCq2    H2 2022   3.879   0.535   8.601 -2.0040  0.7195  0.4829
  132TCq2    H3 2023   3.631   0.189   8.640  0.1021  1.3692  3.4129
  132TCq2    H4 2024   4.057   0.152   8.644  0.7129  0.2542  1.9013
  133MPD2     C 2025   2.798   4.687   8.500  0.0560  0.0991  0.1713
  133MPD2    C1 2026   2.904   0.048   8.498 -0.2593  0.0263 -0.3539
  133MPD2    C2 2027   3.009   0.018   8.583  0.0657 -0.4149  0.0565
  133MPD2    C3 2028   3.007   4.638   8.675 -0.3900  0.2415 -0.3028
  133MPD2    C4 2029   2.900   4.555   8.667  0.3880 -0.5075 -0.9156
  133MPD2    C5 2030   2.794   4.581   8.586 -0.3535 -0.3910 -0.5967
  133MPD2     H 2031   3.091   0.088   8.587 -1.1722  1.0752 -0.7792
  133MPD2    H1 2032   2.883   4.480   8.744  2.9699  1.1016  1.1945
  133MPD2    H2 2033   2.703   4.709   8.454 -0.3817  1.7889  1.8696
  133MPD2    H3 2034   2.698   4.534   8.605 -0.2339 -0.7050 -0.7546
  133MPD2     N 2035   3.106   4.622   8.780 -0.3520  0.0146  0.7453
  133MPD2    H5 2036   3.094   4.542   8.842  1.1713  0.3499  1.4713
  133MPD2    N1 2037   2.902   0.168   8.421 -0.8856  0.4241 -0.2620
  133MPD2    H7 2038   2.831   0.166   8.349 -0.9407 -0.0640 -0.1911
  134TCq2    C1 2039   2.988   0.275   8.430 -0.1345 -0.2761 -0.1262
  134TCq2    O2 2040   3.079   0.307   8.505  0.6403  0.6228  0.5276
  134TCq2    C2 2041   2.963   0.379   8.337 -0.3053  0.4209 -0.2768
  134TCq2    C3 2042   2.942   0.343   8.202  0.1742  0.2532  0.2440
  134TCq2    C4 2043   2.924   0.447   8.120  0.2662  0.2844 -0.0249
  134TCq2    C5 2044   2.916   0.577   8.161  1.1835  0.7357  0.1105
  134TCq2    C6 2045   2.940   0.603   8.292 -0.3023  0.0931 -0.0171
  134TCq2    C7 2046   2.965   0.512   8.386 -0.6428  0.1609 -0.2592
  134TCq2    C8 2047   2.971   0.740   8.325  0.8314 -0.2353  0.5823
  134TCq2    O4 2048   3.027   0.759   8.428  0.0314 -0.8034  0.0272
  134TCq2    C9 2049   2.928   0.417   7.981 -0.3200  0.8582  0.1072
  134TCq2    O5 2050   2.982   0.308   7.944 -0.5325 -0.4102  0.0216
  134TCq2    O6 2051   2.923   0.517   7.904 -0.1019 -0.1656 -0.5213
  134TCq2    H2 2052   2.949   0.242   8.164 -0.0224  0.7002 -0.9823
  134TCq2    H3 2053   2.909   0.646   8.078 -2.3281  1.6793  1.1973
  134TCq2    H4 2054   2.993   0.545   8.486  0.5668 -0.2651 -0.4564
  135MPD2     C 2055   1.380   0.838   8.496  0.0259  0.4844  0.3964
  135MPD2    C1 2056   1.428   0.909   8.600  0.4896 -0.2810  0.0395
  135MPD2    C2 2057   1.568   0.930   8.609 -0.1269 -0.5552 -0.2152
  135MPD2    C3 2058   1.660   0.871   8.521 -0.0962  0.2704  0.0260
  135MPD2    C4 2059   1.604   0.796   8.413 -0.1934  0.8121  0.3409
  135MPD2    C5 2060   1.471   0.770   8.417  0.3104 -0.6236  0.0026
  135MPD2     H 2061   1.604   0.994   8.689 -0.8147  0.1296 -0.4459
  135MPD2    H1 2062   1.667   0.764   8.331 -0.0485  1.2740  0.2721
  135MPD2    H2 2063   1.278   0.803   8.483 -0.3348  1.7970 -0.2960
  135MPD2    H3 2064   1.432   0.700   8.344  2.1520 -0.6161 -0.9916
  135MPD2     N 2065   1.799   0.898   8.516 -0.1175 -0.3787 -0.2119
  135MPD2    H5 2066   1.848   0.879   8.429  1.2454 -0.1380  0.5148
  135MPD2    N1 2067   1.349   0.982   8.693 -0.5107 -0.1455 -0.0595
  135MPD2    H7 2068   1.400   1.048   8.750 -0.9176 -0.3979  0.6085
  136TCq2    C1 2069   1.214   1.003   8.675 -0.7999  0.4144 -0.1243
  136TCq2    O2 2070   1.147   0.964   8.582 -0.3319  0.2137 -0.3131
  136TCq2    C2 2071   1.149   1.091   8.769 -0.4344 -0.1128  0.2416
  136TCq2    C3 2072   1.029   1.137   8.727 -0.8966 -0.1691 -0.0161
  136TCq2    C4 2073   0.950   1.180   8.823  0.0991 -0.2912 -0.4746
  136TCq2    C5 2074   0.987   1.186   8.960  0.0157 -0.2514  0.3864
  136TCq2    C6 2075   1.103   1.131   8.995  0.2724  0.6907 -0.3424
  136TCq2    C7 2076   1.197   1.091   8.899  0.4540 -0.4280 -0.1703
  136TCq2    C8 2077   1.144   1.129   9.131 -0.1692  0.1285  0.3629
  136TCq2    O4 2078   1.259   1.094   9.153  0.1242  0.3129  0.1604
  136TCq2    C9 2079   0.813   1.225   8.792  0.0519 -0.0966 -0.0690
  136TCq2    O5 2080   0.742   1.272   8.886 -0.0899  0.5078  0.0711
  136TCq2    O6 2081   0.795   1.261   8.671  0.1223 -0.8521 -0.0252
  136TCq2    H2 2082   0.997   1.138   8.623 -0.5247 -0.6206 -0.1308
  136TCq2    H3 2083   0.920   1.242   9.024  0.4746 -0.0625  0.7019
  136TCq2    H4 2084   1.280   1.032   8.934  0.9734 -0.5309 -1.5917
  137MPD2     C 2085   0.650   0.593   9.350 -0.3763  0.1770  0.5402
  137MPD2    C1 2086   0.756   0.501   9.352  0.4051 -0.3137  0.2643
  137MPD2    C2 2087   0.806   0.450   9.476 -0.1685  0.1211 -0.5450
  137MPD2    C3 2088   0.739   0.480   9.590  0.0840  0.0501  0.4191
  137MPD2    C4 2089   0.630   0.563   9.588  0.0039 -0.1577  0.8574
  137MPD2    C5 2090   0.591   0.621   9.472  0.1075  0.5630 -0.1027
  137MPD2     H 2091   0.894   0.387   9.484  1.3631  2.4302  0.7795
  137MPD2    H1 2092   0.564   0.580   9.673  1.0490  1.5013  1.3389
  137MPD2    H2 2093   0.613   0.642   9.260 -0.3681 -0.0697  0.4022
  137MPD2    H3 2094   0.506   0.689   9.477 -1.8663 -1.9803  0.7997
  137MPD2     N 2095   0.767   0.411   9.714 -0.2704 -0.1809  0.0290
  137MPD2    H5 2096   0.844   0.347   9.701  0.3267  0.6480 -0.5245
  137MPD2    N1 2097   0.813   0.460   9.229 -0.9048  0.0838  0.0920
  137MPD2    H7 2098   0.785   0.518   9.150  0.6908  0.7357  0.0146
  138TCq2    C1 2099   0.926   0.382   9.205 -0.2280 -0.6021 -0.1218
  138TCq2    O2 2100   0.979   0.310   9.287 -0.5186 -0.5436 -0.0325
  138TCq2    C2 2101   0.962   0.381   9.064  0.5777  0.0984 -0.3807
  138TCq2    C3 2102   1.046   0.278   9.029 -1.2169 -0.0901 -0.6693
  138TCq2    C4 2103   1.061   0.251   8.894 -0.1846  0.5953 -0.6481
  138TCq2    C5 2104   0.992   0.321   8.800  0.3476  0.1011  0.7690
  138TCq2    C6 2105   0.910   0.425   8.840  0.0408  0.8053 -0.9719
  138TCq2    C7 2106   0.891   0.448   8.972 -0.1499  0.2222 -0.8076
  138TCq2    C8 2107   0.837   0.488   8.731 -0.3580  0.1735 -0.4894
  138TCq2    O4 2108   0.882   0.470   8.618 -0.5014 -0.0102 -1.1689
  138TCq2    C9 2109   1.130   0.133   8.851 -0.3257 -0.6349  0.1237
  138TCq2    O5 2110   1.151   0.113   8.726  0.4267 -0.2275  0.2825
  138TCq2    O6 2111   1.149   0.041   8.935 -0.0500 -0.2501 -0.5741
  138TCq2    H2 2112   1.095   0.202   9.089 -1.3397 -0.5122 -1.1049
  138TCq2    H3 2113   1.014   0.292   8.698 -0.8521  3.1715 -0.3663
  138TCq2    H4 2114   0.836   0.539   8.995  0.6506  0.4857  0.0505
  139TMC2    C1 2115   2.315   3.743  13.122 -0.1997 -0.1559 -0.4008
  139TMC2    C2 2116   2.344   3.797  12.995  0.0693 -0.0445  0.3534
  139TMC2    C3 2117   2.291   3.927  12.979 -0.8613 -0.4465  0.2345
  139TMC2    C4 2118   2.248   3.816  13.214  0.0836  0.1715 -0.0393
  139TMC2    C5 2119   2.207   3.948  13.189 -0.3474  0.0507  0.2061
  139TMC2    C6 2120   2.223   4.006  13.070  0.1571 -0.3898 -0.1486
  139TMC2     C 2121   2.352   3.603  13.135  0.2117 -0.6408 -0.1097
  139TMC2     O 2122   2.433   3.558  13.053 -0.5178 -0.1031  0.0173
  139TMC2     H 2123   2.410   3.751  12.923  1.1822  0.5587  0.9881
  139TMC2    H1 2124   2.223   3.771  13.310  2.4287  0.8495  0.8666
  139TMC2    H2 2125   2.169   4.093  13.035 -1.2182 -0.5203  1.6318
  139TMC2    C7 2126   2.140   4.027  13.289  0.1694 -0.4663 -0.1672
  139TMC2    C8 2127   2.349   3.997  12.864 -0.3118  1.2123 -0.7476
  139TMC2    O1 2128   2.090   4.135  13.251  0.1783 -0.5982 -0.0399
  139TMC2    O2 2129   2.347   4.117  12.837  0.1064 -0.1542 -0.0134
  139TMC2    O5 2130   2.350   3.902  12.767  0.7500  0.0881  0.2502
  139TMC2    H5 2131   2.317   3.811  12.786  1.5957 -0.2788 -0.0131
  140MPD2     C 2132   2.144   3.337  13.283  0.7667  0.1597  0.1855
  140MPD2    C1 2133   2.242   3.389  13.214  0.5559 -0.1960 -0.5056
  140MPD2    C2 2134   2.329   3.299  13.145 -0.1085 -0.0872 -0.1156
  140MPD2    C3 2135   2.295   3.164  13.127 -0.3255  0.0092 -0.2105
  140MPD2    C4 2136   2.183   3.112  13.193 -0.5846 -0.3002 -0.5510
  140MPD2    C5 2137   2.111   3.201  13.265  0.8419 -0.2409  0.2700
  140MPD2     H 2138   2.409   3.336  13.082  2.1295 -3.5379  0.6948
  140MPD2    H1 2139   2.150   3.009  13.206 -0.2521 -0.1498  1.5269
  140MPD2    H2 2140   2.086   3.407  13.342 -1.4074 -0.6706 -0.9833
  140MPD2    H3 2141   2.033   3.164  13.329  0.1220 -2.1180 -1.6990
  140MPD2     N 2142   2.379   3.087  13.036 -0.3259  0.8801 -0.0602
  140MPD2    H5 2143   2.456   3.134  12.990 -0.8902  2.0294  0.1875
  140MPD2    N1 2144   2.260   3.533  13.208 -0.1751  0.6604 -0.2274
  140MPD2    H7 2145   2.186   3.583  13.256  0.4531  1.8273 -0.4944
  141TCq2    C1 2146   2.913   4.392  14.128  0.1474 -0.3431 -0.2208
  141TCq2    O2 2147   2.891   4.497  14.070  0.0472  0.4142 -0.4952
  141TCq2    C2 2148   2.934   4.394  14.276  0.3996 -0.8358  0.7948
  141TCq2    C3 2149   2.937   4.276  14.348 -0.1371  0.1783  0.1221
  141TCq2    C4 2150   2.927   4.284  14.486 -0.0523  0.1473 -0.3509
  141TCq2    C5 2151   2.910   4.401  14.541  0.4192 -0.2236  0.5830
  141TCq2    C6 2152   2.913   4.520  14.472 -0.3441  0.3526  0.2052
  141TCq2    C7 2153   2.930   4.519  14.336 -0.3174  0.4772  0.3344
  141TCq2    C8 2154   2.849   4.635  14.527 -0.4593  0.3118  0.9711
  141TCq2    O4 2155   2.747   4.615  14.589  0.3506  0.6066  0.6372
  141TCq2    C9 2156   2.921   4.165  14.568  0.9426 -0.3779 -0.3428
  141TCq2    O5 2157   2.963   4.057  14.527 -0.2299 -0.4215 -0.6533
  141TCq2    O6 2158   2.860   4.172  14.672  0.6376 -0.2249 -0.0788
  141TCq2    H2 2159   2.935   4.177  14.303 -1.2744  0.3824 -0.2855
  141TCq2    H3 2160   2.887   4.394  14.647  2.4522  1.9464  1.1855
  141TCq2    H4 2161   2.901   4.603  14.275  1.1128  0.6751 -0.0781
  142MPD2     C 2162   4.671   2.936  10.099  0.6525 -0.1221 -0.2439
  142MPD2    C1 2163   4.626   3.013   9.993  0.6478 -0.6948  0.0239
  142MPD2    C2 2164   4.680   3.144   9.970  0.1841  0.5557 -0.4225
  142MPD2    C3 2165   0.052   3.199  10.061  0.1843  0.2803  0.0028
  142MPD2    C4 2166   0.088   3.117  10.173  0.0336 -0.1526 -0.3189
  142MPD2    C5 2167   0.034   2.989  10.193 -0.1147  0.8218 -0.4904
  142MPD2     H 2168   4.661   3.190   9.874  0.3375 -2.6185 -1.9825
  142MPD2    H1 2169   0.151   3.170  10.243 -1.7885 -0.5696  1.6417
  142MPD2    H2 2170   4.633   2.834  10.106  1.7984 -0.5132  0.1913
  142MPD2    H3 2171   0.056   2.929  10.280  4.3844  1.6510 -1.0540
  142MPD2     N 2172   0.103   3.329  10.049  0.4673  0.2174 -0.1551
  142MPD2    H5 2173   0.159   3.368  10.124  0.6154 -2.9957  1.4243
  142MPD2    N1 2174   4.541   2.940   9.902  0.2391 -0.2346 -0.8413
  142MPD2    H7 2175   4.507   2.848   9.928  0.3116  0.3132  1.1915
  143TCq2    C1 2176   0.063   3.423   9.954 -0.0641  0.0264 -0.3300
  143TCq2    O2 2177   4.691   3.419   9.874  0.3262  0.1922 -0.0221
  143TCq2    C2 2178   0.125   3.551   9.962  0.6128  0.0565  0.7999
  143TCq2    C3 2179   0.229   3.571  10.050 -0.1890  0.6047 -0.6182
  143TCq2    C4 2180   0.272   3.692  10.078 -0.2325  1.1441  0.0485
  143TCq2    C5 2181   0.202   3.801  10.042 -0.1386  0.7019  0.0743
  143TCq2    C6 2182   0.093   3.781   9.958  0.0647  0.0088  0.0145
  143TCq2    C7 2183   0.052   3.656   9.912  0.3423  0.2591 -0.6398
  143TCq2    C8 2184   0.006   3.895   9.948  0.9613  0.0217  0.0312
  143TCq2    O4 2185   0.037   3.993  10.010 -0.7703  0.4059 -0.5703
  143TCq2    C9 2186   0.388   3.711  10.162  0.3563 -0.2726  0.1603
  143TCq2    O5 2187   0.435   3.605  10.214  0.6067  0.6457 -0.2819
  143TCq2    O6 2188   0.421   3.828  10.199 -0.0796  0.5981  0.0097
  143TCq2    H2 2189   0.285   3.484  10.082 -1.2633 -0.3435 -1.3167
  143TCq2    H3 2190   0.229   3.899  10.082  0.6502  1.2752 -1.8615
  143TCq2    H4 2191   4.682   3.639   9.860  0.2035 -0.9336  0.0002
  144MPD2     C 2192   3.414   3.079   0.685  0.3453 -0.2326  0.3384
  144MPD2    C1 2193   3.474   2.956   0.682  0.3748  0.9427  0.1728
  144MPD2    C2 2194   3.605   2.937   0.720 -0.1372  0.3319  0.5593
  144MPD2    C3 2195   3.683   3.036   0.764  0.4770 -0.0659 -0.2105
  144MPD2    C4 2196   3.626   3.160   0.760  0.1176  0.0222 -1.1865
  144MPD2    C5 2197   3.493   3.185   0.732  0.3965 -0.5579 -0.2614
  144MPD2     H 2198   3.639   2.834   0.718 -1.4077 -0.0934  0.9208
  144MPD2    H1 2199   3.688   3.248   0.773 -0.9154  0.1713  2.7337
  144MPD2    H2 2200   3.312   3.101   0.656  0.5797  1.2214  0.6264
  144MPD2    H3 2201   3.453   3.285   0.720  1.5538  0.0405  0.9315
  144MPD2     N 2202   3.821   3.023   0.803 -0.0854 -0.7196 -0.0766
  144MPD2    H5 2203   3.864   3.109   0.833 -1.7295 -0.7612  2.3914
  144MPD2    N1 2204   3.414   2.838   0.620 -0.1423  0.0241 -0.1640
  144MPD2    H7 2205   3.481   2.771   0.584  0.2877 -0.8763  2.3122
  145TCq2    C1 2206   3.886   2.904   0.804  0.3027 -0.3529  0.0801
  145TCq2    O2 2207   3.863   2.797   0.746  0.2627  0.0672 -0.5377
  145TCq2    C2 2208   4.022   2.924   0.852  0.8254 -1.3042  0.1156
  145TCq2    C3 2209   4.116   2.839   0.805  0.3070 -0.1334  0.1652
  145TCq2    C4 2210   4.249   2.845   0.849  0.0300  0.7290  0.4700
  145TCq2    C5 2211   4.283   2.943   0.937  0.2212 -0.4830  0.2550
  145TCq2    C6 2212   4.184   3.027   0.987 -0.6421 -0.2226  0.1410
  145TCq2    C7 2213   4.051   3.017   0.949 -0.1888  0.3775  0.2635
  145TCq2    C8 2214   4.226   3.128   1.085  0.3218  0.5603 -0.1034
  145TCq2    O4 2215   4.343   3.122   1.126 -0.1395 -0.4967  0.3294
  145TCq2    C9 2216   4.339   2.750   0.788  0.2914 -0.0450 -0.2916
  145TCq2    O5 2217   4.453   2.743   0.842 -0.1338 -0.1443 -0.2422
  145TCq2    O6 2218   4.303   2.684   0.689  0.2116 -0.2822 -0.4840
  145TCq2    H2 2219   4.088   2.769   0.727 -1.3500  0.4928  0.2004
  145TCq2    H3 2220   4.380   2.940   0.985 -1.2362 -3.7036  3.0030
  145TCq2    H4 2221   3.973   3.083   0.988 -0.1754  0.5133  0.0595
  146TMC2    C1 2222   4.206   1.375  12.694  0.5497  0.1651 -0.5279
  146TMC2    C2 2223   4.197   1.501  12.635 -0.1189 -0.2398  0.0159
  146TMC2    C3 2224   4.250   1.515  12.509 -0.2484 -0.3339 -1.0568
  146TMC2    C4 2225   4.258   1.265  12.628 -0.0314  0.3464 -0.8939
  146TMC2    C5 2226   4.309   1.281  12.500  0.3491  0.0886  0.5316
  146TMC2    C6 2227   4.305   1.408  12.447  0.0780 -0.2449 -0.5183
  146TMC2     C 2228   4.175   1.363  12.838 -0.3972  0.3844 -0.8289
  146TMC2     O 2229   4.116   1.458  12.884  0.0654  0.1651 -0.8156
  146TMC2     H 2230   4.158   1.584  12.692 -2.5654  1.3230 -3.9342
  146TMC2    H1 2231   4.257   1.163  12.665 -0.0837  1.0662  1.0399
  146TMC2    H2 2232   4.341   1.424  12.346  0.3255 -1.6659 -0.6452
  146TMC2    C7 2233   4.360   1.178  12.419 -0.2415  0.2923 -0.3217
  146TMC2    C8 2234   4.245   1.638  12.428 -0.6529  0.4721  0.7612
  146TMC2    O1 2235   4.348   1.200  12.298 -0.5561  0.2231  0.0399
  146TMC2    O2 2236   4.277   1.662  12.311  0.6081  0.1820 -0.3399
  146TMC2    O5 2237   4.149   1.710  12.480 -0.1682 -0.0708 -0.1571
  146TMC2    H5 2238   4.107   1.669  12.559  2.4429  0.1610  1.3382
  147MPD2     C 2239   4.671   0.790  12.351  0.5049 -0.7556  0.3513
  147MPD2    C1 2240   4.610   0.769  12.474 -0.0211 -1.0709 -0.6807
  147MPD2    C2 2241   4.510   0.855  12.507  0.0719  0.3786 -0.1261
  147MPD2    C3 2242   4.476   0.960  12.427 -0.2243  0.1887  0.3954
  147MPD2    C4 2243   4.532   0.975  12.301  0.2597 -0.1661  0.0552
  147MPD2    C5 2244   4.625   0.884  12.260  0.1810 -0.2994  0.6969
  147MPD2     H 2245   4.468   0.852  12.607  0.0313  0.5525 -0.1391
  147MPD2    H1 2246   4.516   1.063  12.240 -1.5611 -0.2244  0.4504
  147MPD2    H2 2247   0.024   0.721  12.318 -0.1319 -0.7872 -1.0359
  147MPD2    H3 2248   4.679   0.892  12.167 -0.5890 -0.2573  0.2554
  147MPD2     N 2249   4.408   1.066  12.486  0.0376  0.2877  0.0700
  147MPD2    H5 2250   4.389   1.062  12.586  0.5325 -1.0576  0.1170
  147MPD2    N1 2251   4.660   0.675  12.569 -0.0062  0.2538 -0.2699
  147MPD2    H7 2252   0.026   0.629  12.554 -0.0663  0.0956 -0.1352
  148MPD2     C 2253   4.362   4.542  10.212 -0.0275  0.4324 -0.2523
  148MPD2    C1 2254   4.382   4.408  10.204 -1.1680  0.2520  0.5154
  148MPD2    C2 2255   4.274   4.330  10.174 -0.2517  0.3192 -0.3808
  148MPD2    C3 2256   4.154   4.381  10.124 -0.7588 -0.4220 -0.2462
  148MPD2    C4 2257   4.145   4.517  10.119  0.3919  0.2579 -0.2164
  148MPD2    C5 2258   4.248   4.595  10.160  0.4026  0.6791 -0.1470
  148MPD2     H 2259   4.287   4.224  10.190 -0.3034  0.1691 -1.3159
  148MPD2    H1 2260   4.053   4.562  10.083  0.1156  0.3240  0.5544
  148MPD2    H2 2261   4.442   4.607  10.246 -2.0564  0.6353  4.0818
  148MPD2    H3 2262   4.261   4.702  10.154  2.1322  0.4876 -0.0576
  148MPD2     N 2263   4.047   4.294  10.095 -0.0523 -0.3979  0.5412
  148MPD2    H5 2264   3.960   4.340  10.069  0.5691  0.2986 -0.3125
  148MPD2    N1 2265   4.501   4.344  10.234 -0.1681 -0.2194 -0.0543
  148MPD2    H7 2266   4.497   4.243  10.248  0.4866 -0.3846 -1.0720
  149TCq2    C1 2267   4.617   4.403  10.276  0.2000 -0.6852  0.1100
  149TCq2    O2 2268   4.649   4.520  10.280 -0.4470 -0.7689 -0.0838
  149TCq2    C2 2269   4.689   4.303  10.347  0.0071 -0.0506 -0.3901
  149TCq2    C3 2270   0.100   4.306  10.322  0.2132 -0.2598 -0.2351
  149TCq2    C4 2271   0.176   4.193  10.321 -0.5966  0.2290 -0.1524
  149TCq2    C5 2272   0.105   4.077  10.325  0.5826  0.5891  0.7784
  149TCq2    C6 2273   4.694   4.076  10.356  0.2789  0.7922  0.3124
  149TCq2    C7 2274   4.625   4.191  10.385 -0.0107 -0.2990  0.4285
  149TCq2    C8 2275   4.609   3.970  10.316  0.0092  0.3821 -0.5684
  149TCq2    O4 2276   4.499   4.004  10.267  0.2770  0.1438 -0.8147
  149TCq2    C9 2277   0.305   4.189  10.265 -0.5246  0.0922 -0.6956
  149TCq2    O5 2278   0.353   4.307  10.233  0.3558  0.8289  0.1946
  149TCq2    O6 2279   0.365   4.083  10.270  0.3094  0.3766 -0.1491
  149TCq2    H2 2280   0.157   4.396  10.307  1.0135 -0.8309 -0.6293
  149TCq2    H3 2281   0.147   3.983  10.291  0.9153  1.0334 -0.0379
  149TCq2    H4 2282   4.527   4.181  10.430 -0.3886  0.6107 -0.1744
  150MPD2     C 2283   1.651   3.710  11.631 -0.3742  0.0804 -0.2347
  150MPD2    C1 2284   1.659   3.812  11.544 -0.2818  0.0919 -0.4155
  150MPD2    C2 2285   1.783   3.871  11.517  0.0683  0.3528 -0.7758
  150MPD2    C3 2286   1.893   3.824  11.585  0.3100  0.0131 -0.6209
  150MPD2    C4 2287   1.883   3.714  11.674  0.2450 -0.0369  0.9592
  150MPD2    C5 2288   1.761   3.659  11.692 -0.9110 -0.5714 -0.0906
  150MPD2     H 2289   1.789   3.948  11.440  0.5558  2.5217  1.4295
  150MPD2    H1 2290   1.969   3.668  11.722  1.1378 -0.7085 -1.2842
  150MPD2    H2 2291   1.555   3.662  11.646 -0.9841  0.9837 -1.2851
  150MPD2    H3 2292   1.758   3.579  11.765 -0.9490  0.0546  0.5972
  150MPD2     N 2293   2.018   3.886  11.554 -0.4844 -0.3550  0.1028
  150MPD2    H5 2294   2.029   3.952  11.477  0.3433  0.2154  0.7079
  150MPD2    N1 2295   1.539   3.851  11.475  0.3070 -0.3858  0.1408
  150MPD2    H7 2296   1.455   3.800  11.499 -0.2205  0.5838  0.3476
  151TCq2    C1 2297   2.129   3.866  11.632  0.7825  0.3587 -0.1413
  151TCq2    O2 2298   2.145   3.810  11.739  0.7234  0.6149  0.3604
  151TCq2    C2 2299   2.250   3.927  11.579 -0.2860 -0.6457  0.6056
  151TCq2    C3 2300   2.254   3.960  11.447  0.2280  0.1445  0.5293
  151TCq2    C4 2301   2.358   4.040  11.405  0.2862 -0.6960 -0.7064
  151TCq2    C5 2302   2.469   4.069  11.487  0.4898  0.4783 -0.1346
  151TCq2    C6 2303   2.456   4.022  11.615  0.3361  0.1160  0.4504
  151TCq2    C7 2304   2.345   3.969  11.671  0.4766 -0.2235 -0.2507
  151TCq2    C8 2305   2.554   4.068  11.708  0.4729 -0.5800  0.0262
  151TCq2    O4 2306   2.630   4.156  11.667  0.0993 -0.6365  0.2346
  151TCq2    C9 2307   2.354   4.097  11.273  0.6158  0.1404 -0.3736
  151TCq2    O5 2308   2.268   4.047  11.193  0.3180  0.0286 -0.3083
  151TCq2    O6 2309   2.389   4.215  11.267  0.0184 -0.0322 -0.0093
  151TCq2    H2 2310   2.172   3.954  11.376  1.4575  0.8495 -0.9619
  151TCq2    H3 2311   2.557   4.117  11.447  0.4299  2.5308  2.2303
  151TCq2    H4 2312   2.327   3.953  11.777  1.6104  0.2134  0.0012
  152MPD2     C 2313   1.652   3.530  12.399  0.1119 -0.5241 -0.3568
  152MPD2    C1 2314   1.659   3.658  12.352 -0.2385 -0.0242  0.6404
  152MPD2    C2 2315   1.545   3.722  12.308 -0.0049 -0.2572  0.0074
  152MPD2    C3 2316   1.424   3.659  12.313  0.5140 -0.0144 -0.3048
  152MPD2    C4 2317   1.422   3.533  12.366  0.0753 -0.8262  0.2746
  152MPD2    C5 2318   1.533   3.465  12.401 -0.1189  0.0982  0.6260
  152MPD2     H 2319   1.556   3.824  12.273  0.0574 -0.2474  0.0546
  152MPD2    H1 2320   1.332   3.475  12.380 -0.4554  0.0584  0.5106
  152MPD2    H2 2321   1.742   3.480  12.434  0.5454 -0.8284 -1.9102
  152MPD2    H3 2322   1.528   3.361  12.432  1.1968  0.1459  1.0090
  152MPD2     N 2323   1.308   3.726  12.256 -0.3158  0.1276  0.2825
  152MPD2    H5 2324   1.328   3.813  12.208  0.3622 -0.3222 -0.2568
  152MPD2    N1 2325   1.783   3.725  12.369 -0.2254 -0.1086  0.1663
  152MPD2    H7 2326   1.863   3.664  12.384 -0.4333 -0.6646 -0.9694
  153TCq2    C1 2327   1.818   3.852  12.349  0.3010 -0.7494 -0.3095
  153TCq2    O2 2328   1.756   3.948  12.299  0.5048  0.0760  0.8850
  153TCq2    C2 2329   1.950   3.870  12.404  0.3651  0.0110 -0.2672
  153TCq2    C3 2330   1.975   3.785  12.507  0.4162  0.1200 -0.6018
  153TCq2    C4 2331   2.111   3.757  12.540  0.1150 -0.1261  0.1438
  153TCq2    C5 2332   2.212   3.811  12.474 -0.4276 -0.3426 -0.1220
  153TCq2    C6 2333   2.179   3.907  12.384  0.5643  0.6031 -0.0974
  153TCq2    C7 2334   2.050   3.943  12.349  0.4025 -0.0713 -0.3491
  153TCq2    C8 2335   2.291   3.998  12.353  0.3236  0.2335 -0.0399
  153TCq2    O4 2336   2.280   4.062  12.249  0.0139 -0.6302  0.1338
  153TCq2    C9 2337   2.135   3.662  12.646 -0.0654  0.7849 -0.5083
  153TCq2    O5 2338   2.047   3.571  12.657 -0.2810  0.2743  0.2784
  153TCq2    O6 2339   2.232   3.687  12.715  0.0672  0.0426  0.1948
  153TCq2    H2 2340   1.904   3.730  12.567  1.1831 -2.0792 -1.6652
  153TCq2    H3 2341   2.314   3.775  12.478  0.0358  0.8679 -0.8219
  153TCq2    H4 2342   2.040   4.019  12.272  0.8140  0.3810  0.0428
  154MPD2     C 2343   3.243   4.329  17.570  0.3183 -0.3308  0.4207
  154MPD2    C1 2344   3.242   4.332   0.012 -0.0408 -0.2167  1.4232
  154MPD2    C2 2345   3.139   4.280   0.086  0.0899 -0.3890  0.1656
  154MPD2    C3 2346   3.023   4.237   0.021 -0.3873 -0.0688  0.2584
  154MPD2    C4 2347   3.014   4.243  17.576  1.0629  0.8286  0.1928
  154MPD2    C5 2348   3.133   4.279  17.505 -0.2331 -0.3297 -0.4675
  154MPD2     H 2349   3.143   4.288   0.194  0.8644 -0.2300  0.1249
  154MPD2    H1 2350   2.937   4.189  17.522  1.4615  1.6958 -1.2555
  154MPD2    H2 2351   3.325   4.354  17.503  0.1831  0.2821  0.4772
  154MPD2    H3 2352   3.132   4.265  17.397 -0.6108  1.6431 -0.7236
  154MPD2     N 2353   2.921   4.187   0.103 -0.2433  0.7823  0.4142
  154MPD2    H5 2354   2.937   4.180   0.203  0.3580  0.7727  0.3167
  154MPD2    N1 2355   3.362   4.376   0.075 -0.2902  0.2850 -0.0336
  154MPD2    H7 2356   3.438   4.398   0.011  1.5798  0.2776  2.1699
  155TCq2    C1 2357   3.382   4.409   0.206 -0.0376  0.5718 -0.7776
  155TCq2    O2 2358   3.287   4.419   0.288  0.4945  0.2023  0.2530
  155TCq2    C2 2359   3.509   4.476   0.215 -0.4946  0.4918 -0.1088
  155TCq2    C3 2360   3.514   4.580   0.302  0.5017 -0.6838 -0.5729
  155TCq2    C4 2361   3.638   4.627   0.338  0.1262 -0.6032 -0.2894
  155TCq2    C5 2362   3.749   4.573   0.285 -0.6007  0.3007 -0.0180
  155TCq2    C6 2363   3.734   4.469   0.198  0.1557  0.4390  0.0895
  155TCq2    C7 2364   3.613   4.412   0.160  0.1322 -0.0417  0.4418
  155TCq2    C8 2365   3.851   4.416   0.134 -0.5442 -0.3408 -0.0468
  155TCq2    O4 2366   3.946   4.494   0.121 -0.0574 -0.4738 -0.2789
  155TCq2    C9 2367   3.654   0.010   0.432 -0.6773 -0.1157 -0.1023
  155TCq2    O5 2368   3.744   4.723   0.517 -0.6207 -0.5364 -0.6776
  155TCq2    O6 2369   3.546   0.072   0.457  0.2964  0.0045 -0.5695
  155TCq2    H2 2370   3.424   4.627   0.339  0.2671 -0.9710 -0.7876
  155TCq2    H3 2371   3.848   4.615   0.301 -0.0993 -0.8627 -0.1027
  155TCq2    H4 2372   3.604   4.332   0.087 -0.6388  3.3919 -3.2341
  156MPD2     C 2373   2.644   1.162  12.139 -0.8655  0.2715 -0.7524
  156MPD2    C1 2374   2.586   1.216  12.022 -0.1292  0.1062 -0.1588
  156MPD2    C2 2375   2.476   1.304  12.039 -0.0875 -0.1016  0.1670
  156MPD2    C3 2376   2.423   1.334  12.168 -0.1850 -0.2409  0.3585
  156MPD2    C4 2377   2.483   1.278  12.278 -0.2426  0.2496 -0.5565
  156MPD2    C5 2378   2.598   1.200  12.265  0.0641 -0.2586 -0.8933
  156MPD2     H 2379   2.411   1.326  11.956 -0.3566 -2.0825 -0.1431
  156MPD2    H1 2380   2.457   1.309  12.378  1.8274  1.1829 -0.3037
  156MPD2    H2 2381   2.733   1.102  12.137 -0.3705  0.9490  1.0545
  156MPD2    H3 2382   2.651   1.162  12.351  2.4793  3.3807 -0.7775
  156MPD2     N 2383   2.308   1.412  12.176  0.5058  0.0572  0.2065
  156MPD2    H5 2384   2.264   1.442  12.090  2.8648 -1.8128 -1.6266
  156MPD2    N1 2385   2.634   1.172  11.903  0.8766  0.2126 -0.6005
  156MPD2    H7 2386   2.697   1.092  11.896 -1.2778 -1.7904  2.7644
  157TCq2    C1 2387   2.612   1.228  11.781 -1.2004  0.6851 -0.3490
  157TCq2    O2 2388   2.539   1.324  11.755  0.0884 -0.3346 -0.4336
  157TCq2    C2 2389   2.605   1.128  11.672  0.2242  0.1629  0.0736
  157TCq2    C3 2390   2.656   1.001  11.697  0.2682 -0.1082 -0.3253
  157TCq2    C4 2391   2.596   0.887  11.648 -0.1280 -0.4508 -0.3804
  157TCq2    C5 2392   2.477   0.899  11.583  0.0324  0.2627 -0.3306
  157TCq2    C6 2393   2.430   1.023  11.546 -0.2578  0.2090  0.7921
  157TCq2    C7 2394   2.493   1.138  11.597  0.1488  0.9431 -0.4972
  157TCq2    C8 2395   2.303   1.041  11.491 -0.1389  0.3998 -0.1199
  157TCq2    O4 2396   2.257   1.158  11.501  0.3406  0.1662 -1.1441
  157TCq2    C9 2397   2.663   0.763  11.663  0.2339 -0.2859  0.0202
  157TCq2    O5 2398   2.736   0.745  11.764  0.0141 -0.3061 -0.2708
  157TCq2    O6 2399   2.617   0.669  11.587  0.1064  0.6169 -0.2486
  157TCq2    H2 2400   2.744   0.995  11.761  0.7014 -0.3229 -0.9493
  157TCq2    H3 2401   2.417   0.819  11.540 -1.4107  0.7689  0.7081
  157TCq2    H4 2402   2.457   1.234  11.560 -2.4549 -0.4185 -1.4777
  158TMC2    C1 2403   2.519   0.169  12.961  0.5534  0.2212 -0.5256
  158TMC2    C2 2404   2.559   0.184  12.832  0.8431 -0.1712 -0.7336
  158TMC2    C3 2405   2.468   0.237  12.741  0.4594 -0.1351 -0.1991
  158TMC2    C4 2406   2.400   0.205  13.007  0.1882 -0.4344  1.0673
  158TMC2    C5 2407   2.308   0.241  12.911  0.1423 -0.2319  0.5175
  158TMC2    C6 2408   2.339   0.254  12.775 -0.0741 -0.4861  0.3579
  158TMC2     C 2409   2.625   0.200  13.054  0.0069  0.1439  0.5755
  158TMC2     O 2410   2.727   0.236  13.003  0.0261  0.3012  0.0142
  158TMC2     H 2411   2.661   0.166  12.800  1.5367  2.3921  0.0649
  158TMC2    H1 2412   2.374   0.224  13.111  2.0186 -0.6439  1.5627
  158TMC2    H2 2413   2.267   0.291  12.703  1.2563  2.1939  0.3756
  158TMC2    C7 2414   2.168   0.266  12.939 -0.0447  0.1772 -0.3073
  158TMC2    C8 2415   2.510   0.265  12.611  0.5095  0.1543 -0.1356
  158TMC2    O1 2416   2.112   0.353  12.872  0.1486 -0.5415 -0.0097
  158TMC2    O2 2417   2.433   0.293  12.521 -0.0729  0.3708 -0.2271
  158TMC2    O5 2418   2.629   0.321  12.618  0.5036 -0.4275 -0.2879
  158TMC2    H5 2419   2.684   0.308  12.698 -1.9752 -2.2245  1.1328
  159MPD2     C 2420   2.759   0.312  13.531 -0.1426  0.3788  0.2239
  159MPD2    C1 2421   2.646   0.238  13.539 -0.0282 -0.2763 -0.1987
  159MPD2    C2 2422   2.594   0.195  13.416 -0.5375 -0.0646  0.7088
  159MPD2    C3 2423   2.656   0.221  13.298  0.3469 -0.7204  1.0351
  159MPD2    C4 2424   2.764   0.307  13.287  0.2218  0.2559  0.2089
  159MPD2    C5 2425   2.817   0.344  13.407  0.2173  0.2717  0.3908
  159MPD2     H 2426   2.509   0.127  13.412  0.0965 -0.8347  0.3609
  159MPD2    H1 2427   2.800   0.355  13.197 -0.1658  1.5303  0.7260
  159MPD2    H2 2428   2.812   0.357  13.614  1.4988 -0.6724 -0.2653
  159MPD2    H3 2429   2.902   0.412  13.411 -0.7154  1.4207  0.5702
  159MPD2     N 2430   2.589   0.170  13.184  0.1906 -0.2509 -0.0245
  159MPD2    H5 2431   2.508   0.110  13.197  0.1532 -0.0741  0.5744
  159MPD2    N1 2432   2.580   0.217  13.657 -0.5444 -0.0020  0.5759
  159MPD2    H7 2433   2.623   0.269  13.733 -1.6357 -0.4802  1.5164
  160TMC2    C1 2434   2.212   2.551   1.413 -0.8775 -0.7880  0.1691
  160TMC2    C2 2435   2.234   2.425   1.463 -0.1529 -0.1598 -0.6269
  160TMC2    C3 2436   2.294   2.324   1.392 -0.2152  1.0392 -0.2357
  160TMC2    C4 2437   2.245   2.575   1.283  0.3702 -0.1828  0.4022
  160TMC2    C5 2438   2.298   2.471   1.213 -0.4347 -0.5402 -0.8932
  160TMC2    C6 2439   2.325   2.346   1.261  0.4194  0.2836 -0.1682
  160TMC2     C 2440   2.097   2.610   1.477 -0.4125 -0.5274  0.3885
  160TMC2     O 2441   2.032   2.553   1.566  0.6137 -0.3355  0.6243
  160TMC2     H 2442   2.233   2.417   1.571 -0.6096 -0.1151 -0.6243
  160TMC2    H1 2443   2.215   2.668   1.237  1.6147 -0.7362 -1.5313
  160TMC2    H2 2444   2.351   2.258   1.203  1.0436 -0.6180  1.5046
  160TMC2    C7 2445   2.313   2.487   1.073 -0.1874  0.4173 -0.2536
  160TMC2    C8 2446   2.376   2.232   1.475  0.4610 -0.2824  0.5988
  160TMC2    O1 2447   2.308   2.390   0.996 -0.1556  0.2248 -0.1235
  160TMC2    O2 2448   2.495   2.204   1.462  0.0118  0.2296  0.3479
  160TMC2    O5 2449   2.291   2.196   1.573 -0.2598 -0.6889 -0.0747
  160TMC2    H5 2450   2.203   2.234   1.554  0.1425  0.6584  0.7768
  161MPD2     C 2451   1.846   2.786   1.540 -0.2223  0.2211  0.0789
  161MPD2    C1 2452   1.943   2.810   1.441  0.1242  0.3429 -0.6882
  161MPD2    C2 2453   1.918   2.918   1.358  0.1252  0.1610  0.3706
  161MPD2    C3 2454   1.815   3.006   1.377 -0.1890 -0.4234 -0.3638
  161MPD2    C4 2455   1.724   2.978   1.476  0.0114  0.8656 -0.5605
  161MPD2    C5 2456   1.741   2.871   1.556 -0.5005 -0.4049 -1.0933
  161MPD2     H 2457   1.989   2.921   1.276  3.0261  0.0159  2.8707
  161MPD2    H1 2458   1.640   3.046   1.487  0.7495  1.2396  2.7105
  161MPD2    H2 2459   1.861   2.717   1.622  2.8657 -0.1869 -0.8296
  161MPD2    H3 2460   1.668   2.850   1.633  0.8985 -1.1740  0.0080
  161MPD2     N 2461   1.781   3.109   1.288 -0.8198  0.0749 -0.5985
  161MPD2    H5 2462   1.713   3.170   1.329 -1.5164 -0.2256 -1.3030
  161MPD2    N1 2463   2.056   2.731   1.419 -0.0693  0.1111 -0.3248
  161MPD2    H7 2464   2.127   2.767   1.356  1.2757 -3.2039 -0.7405
  162TMC2    C1 2465   0.613   4.553   1.446  0.2346 -0.2999 -0.1297
  162TMC2    C2 2466   0.670   4.430   1.485  0.2488 -0.1728 -0.5774
  162TMC2    C3 2467   0.710   4.415   1.614  0.6667 -0.0040 -0.5135
  162TMC2    C4 2468   0.591   4.654   1.530 -0.7091 -0.0904 -1.0499
  162TMC2    C5 2469   0.624   4.626   1.662  0.0593 -0.1194  0.5094
  162TMC2    C6 2470   0.686   4.514   1.703 -0.7724  0.2233 -0.1127
  162TMC2     C 2471   0.600   4.591   1.300 -0.5771 -0.3613 -0.0320
  162TMC2     O 2472   0.618   4.501   1.217  0.1392  0.6325 -0.1499
  162TMC2     H 2473   0.691   4.353   1.411 -1.4786 -0.4016 -0.8307
  162TMC2    H1 2474   0.546   0.026   1.504 -0.9484  0.7906  2.5642
  162TMC2    H2 2475   0.723   4.504   1.804 -0.0656 -1.0858 -0.5079
  162TMC2    C7 2476   0.612   0.005   1.771  0.0756  0.2202  0.1683
  162TMC2    C8 2477   0.773   4.290   1.662 -0.5968 -0.2289 -0.1043
  162TMC2    O1 2478   0.704   0.020   1.846 -0.0368 -0.0469  0.1045
  162TMC2    O2 2479   0.883   4.254   1.624 -1.0341 -0.3628 -0.5555
  162TMC2    O5 2480   0.716   4.263   1.780  0.0105 -0.4808 -0.1834
  162TMC2    H5 2481   0.630   4.311   1.786 -0.4284 -1.3720  0.5876
  163MPD2     C 2482   0.550   0.178   0.884 -0.4354  0.3665  0.0094
  163MPD2    C1 2483   0.578   0.041   0.887 -0.2934 -0.3485  0.6060
  163MPD2    C2 2484   0.586   4.704   1.016  0.3603 -0.4284 -0.4021
  163MPD2    C3 2485   0.565   0.052   1.137 -0.5436 -1.2791 -0.8670
  163MPD2    C4 2486   0.525   0.178   1.132 -0.2195 -0.3536  0.3051
  163MPD2    C5 2487   0.524   0.240   1.004  0.4241  0.3871 -0.4652
  163MPD2     H 2488   0.623   4.602   1.022  0.6835 -0.2792  0.0884
  163MPD2    H1 2489   0.510   0.238   1.221 -1.0607  0.5015 -0.4120
  163MPD2    H2 2490   0.550   0.230   0.789  0.5170 -0.4086 -0.4194
  163MPD2    H3 2491   0.511   0.347   1.013  0.1797  0.3471 -0.3216
  163MPD2     N 2492   0.576   0.001   1.274  0.0733 -0.5663  0.0205
  163MPD2    H5 2493   0.554   0.062   1.352  2.0507 -0.1207  0.2303
  163MPD2    N1 2494   0.596   4.698   0.760  0.5608 -0.3366  0.5418
  163MPD2    H7 2495   0.610   0.035   0.680  0.7644 -0.2047  0.6762
  164TCq2    C1 2496   0.362   4.592  10.917  0.1444 -0.0386 -0.0734
  164TCq2    O2 2497   0.352   4.648  11.027 -0.5287  0.5886 -0.1417
  164TCq2    C2 2498   0.329   4.686  10.808  0.2518 -0.2016  0.1873
  164TCq2    C3 2499   0.330   4.646  10.681  0.4240  0.1640 -0.3582
  164TCq2    C4 2500   0.251   4.713  10.589  1.0565 -0.2057  0.0445
  164TCq2    C5 2501   0.169   0.099  10.628  0.0037  0.1590  0.3446
  164TCq2    C6 2502   0.189   0.136  10.753 -1.0171  0.1252  0.2102
  164TCq2    C7 2503   0.267   0.080  10.844  0.8691 -0.0623 -0.4027
  164TCq2    C8 2504   0.110   0.245  10.799 -0.6652  0.2640 -0.3152
  164TCq2    O4 2505   4.720   0.257  10.755  0.9475  0.5266  0.7717
  164TCq2    C9 2506   0.236   4.663  10.462  0.3326  0.5394 -0.6304
  164TCq2    O5 2507   0.308   4.569  10.431  0.1876 -0.0733 -0.5981
  164TCq2    O6 2508   0.170   0.002  10.378  0.3657  0.1008  0.5437
  164TCq2    H2 2509   0.384   4.560  10.643 -0.1330  0.2412 -1.3019
  164TCq2    H3 2510   0.111   0.159  10.559 -2.7798 -1.5771  1.1640
  164TCq2    H4 2511   0.284   0.127  10.940  0.1169 -1.0184  0.2006
  165MPD2     C 2512   1.419   2.785   2.230  0.1319  0.5067 -0.1591
  165MPD2    C1 2513   1.467   2.701   2.133  0.0401 -0.4383  0.0137
  165MPD2    C2 2514   1.587   2.730   2.070  1.1010 -0.2071  0.1119
  165MPD2    C3 2515   1.652   2.842   2.105  0.4237 -0.5925 -0.1898
  165MPD2    C4 2516   1.601   2.931   2.205  0.0632 -0.5155  0.6520
  165MPD2    C5 2517   1.483   2.898   2.262  0.5770 -0.6504 -0.4344
  165MPD2     H 2518   1.623   2.670   1.988  1.4286  0.3401 -0.1459
  165MPD2    H1 2519   1.645   3.026   2.235  1.4321 -1.1813  0.7678
  165MPD2    H2 2520   1.325   2.778   2.283  1.2882 -2.2743  1.5298
  165MPD2    H3 2521   1.432   2.953   2.340 -1.6777  0.5357 -2.7234
  165MPD2     N 2522   1.763   2.893   2.036 -0.1772  0.2657 -0.2139
  165MPD2    H5 2523   1.801   2.978   2.076  0.1715  0.1114 -0.2122
  165MPD2    N1 2524   1.382   2.600   2.088 -0.3524  0.0440 -0.0728
  165MPD2    H7 2525   1.294   2.585   2.136  0.3629  0.4039  1.3669
  166TCq2    C1 2526   1.825   2.835   1.927 -0.7121  0.6305 -0.3916
  166TCq2    O2 2527   1.808   2.723   1.879 -0.2134  0.5073  0.4846
  166TCq2    C2 2528   1.930   2.916   1.872  0.0208  0.5064 -0.4492
  166TCq2    C3 2529   1.906   3.054   1.858 -0.5435 -0.3131 -0.0454
  166TCq2    C4 2530   1.995   3.128   1.782  0.6654  0.8713  0.0601
  166TCq2    C5 2531   2.107   3.063   1.727 -0.0479  0.6461  0.4047
  166TCq2    C6 2532   2.125   2.937   1.751  0.2773  0.0470  0.1354
  166TCq2    C7 2533   2.034   2.858   1.813 -0.2256  0.4371  0.0975
  166TCq2    C8 2534   2.229   2.870   1.689 -0.4680 -0.3734  0.1684
  166TCq2    O4 2535   2.269   2.931   1.587  0.3654 -0.0103 -0.6603
  166TCq2    C9 2536   1.977   3.267   1.749 -0.0911  0.7107 -0.2435
  166TCq2    O5 2537   2.050   3.319   1.664  0.1036 -0.2012 -0.3328
  166TCq2    O6 2538   1.861   3.314   1.770 -0.0948 -0.7398 -0.0762
  166TCq2    H2 2539   1.818   3.105   1.895  0.2757  1.8783 -1.0645
  166TCq2    H3 2540   2.165   3.122   1.657 -0.1564  0.2771  0.0040
  166TCq2    H4 2541   2.042   2.750   1.813  1.4029  0.5567 -2.2474
  167TMC2    C1 2542   3.882   0.543  12.176  0.1736 -0.6404 -0.4869
  167TMC2    C2 2543   3.819   0.636  12.249  0.0352  0.1501 -0.2916
  167TMC2    C3 2544   3.817   0.614  12.387  0.5395  0.5853 -0.3214
  167TMC2    C4 2545   3.918   0.421  12.227 -0.0682 -0.0917 -0.0060
  167TMC2    C5 2546   3.907   0.398  12.361 -0.6748  0.5007 -0.6044
  167TMC2    C6 2547   3.864   0.497  12.446  0.3556  0.6959  0.1291
  167TMC2     C 2548   3.878   0.562  12.028  0.0047  0.0636  0.7584
  167TMC2     O 2549   3.804   0.656  11.985  0.3215 -0.0051 -0.1911
  167TMC2     H 2550   3.774   0.722  12.201 -0.8190 -0.8824 -1.3399
  167TMC2    H1 2551   3.933   0.337  12.160 -1.0520 -0.3148  0.0498
  167TMC2    H2 2552   3.865   0.474  12.552  0.1945 -0.1442 -0.0531
  167TMC2    C7 2553   3.966   0.285  12.432  0.0471  1.0489  0.0521
  167TMC2    C8 2554   3.753   0.725  12.455  0.7151 -0.2258 -0.1229
  167TMC2    O1 2555   3.940   0.268  12.551  0.3607 -0.1360 -0.0379
  167TMC2    O2 2556   3.674   0.805  12.407 -0.0435  0.0471 -0.0574
  167TMC2    O5 2557   3.817   0.738  12.571  0.1274 -0.6298 -0.0204
  167TMC2    H5 2558   3.895   0.680  12.577  0.7614  0.4127  1.9841
  168MPD2     C 2559   3.907   0.568  11.739 -0.2674 -0.2226  0.4812
  168MPD2    C1 2560   3.975   0.474  11.824  0.2854  0.0347 -0.5901
  168MPD2    C2 2561   4.059   0.375  11.772 -0.1108 -0.0070  0.3635
  168MPD2    C3 2562   4.081   0.377  11.637  0.0072  0.5517 -0.6905
  168MPD2    C4 2563   4.022   0.470  11.557  0.5366 -0.1623 -0.6456
  168MPD2    C5 2564   3.938   0.562  11.609  0.3173 -0.6143 -0.4646
  168MPD2     H 2565   4.112   0.305  11.836  1.0693  0.7909  0.2562
  168MPD2    H1 2566   4.023   0.458  11.449  0.8988 -1.1134 -0.5371
  168MPD2    H2 2567   3.844   0.650  11.771  0.6861  0.5623  0.3649
  168MPD2    H3 2568   3.901   0.635  11.538  0.5221  0.4261  0.5019
  168MPD2     N 2569   4.165   0.285  11.567 -0.3644 -0.0136 -0.0451
  168MPD2    H5 2570   4.172   0.290  11.466 -1.7790 -2.0296 -0.2538
  168MPD2    N1 2571   3.957   0.472  11.958 -0.0778  0.2220 -0.5861
  168MPD2    H7 2572   3.997   0.405  12.022 -3.5593 -0.7528  0.5884
  169MPD1     C 2573   0.296   0.155   9.911 -0.2162 -0.1032 -0.2517
  169MPD1    C1 2574   0.326   0.136  10.043  0.5832  0.2320 -0.2249
  169MPD1    C2 2575   0.455   0.099  10.075  0.3070  0.1614  0.7717
  169MPD1    C3 2576   0.547   0.072   9.977 -0.4072 -0.4191  0.8699
  169MPD1    C4 2577   0.510   0.090   9.848 -0.2571 -0.4893  0.6843
  169MPD1    C5 2578   0.387   0.128   9.816 -0.3800  0.2657  0.1498
  169MPD1     H 2579   0.480   0.076  10.178 -1.0211 -0.5161  0.9399
  169MPD1    H1 2580   0.584   0.070   9.771  0.3392 -0.0232  1.1288
  169MPD1    H2 2581   0.197   0.188   9.882 -0.7433 -0.4217  1.1556
  169MPD1    H3 2582   0.356   0.122   9.712  3.7390  2.1917 -1.1975
  169MPD1     N 2583   0.678   0.031  10.020 -0.2242  0.6846  0.2094
  169MPD1    H5 2584   0.703   0.047  10.117  1.6601  0.5842 -0.2605
  169MPD1    N1 2585   0.234   0.161  10.140  0.2569  0.3328  0.1348
  169MPD1    H6 2586   0.138   0.145  10.111  0.4822  2.5677 -1.8423
  169MPD1    H7 2587   0.247   0.104  10.224 -0.6697  0.0994  0.1163
  170MPD1     C 2588   1.483   1.963  12.806 -0.1912 -0.1021 -0.8480
  170MPD1    C1 2589   1.368   1.892  12.792  0.5829 -0.1022  0.4240
  170MPD1    C2 2590   1.262   1.917  12.875  0.1523 -0.3503 -0.0474
  170MPD1    C3 2591   1.274   2.007  12.980  0.3012  0.4901  0.1027
  170MPD1    C4 2592   1.393   2.079  12.992  0.3101  0.5919 -0.1560
  170MPD1    C5 2593   1.495   2.062  12.904 -0.3339 -0.1277  0.0689
  170MPD1     H 2594   1.174   1.854  12.870  0.2336 -0.3803 -1.1675
  170MPD1    H1 2595   1.398   2.161  13.062  0.8785  1.3768 -1.1278
  170MPD1    H2 2596   1.566   1.941  12.740  0.2653 -1.0776  0.0486
  170MPD1    H3 2597   1.594   2.106  12.911 -0.2253 -0.3152 -0.3219
  170MPD1     N 2598   1.169   2.029  13.071  0.5040  0.4431 -0.3733
  170MPD1    H5 2599   1.182   2.108  13.132  0.3866  0.9615 -1.0198
  170MPD1    N1 2600   1.367   1.790  12.689 -0.6353  0.5142 -0.1560
  170MPD1    H6 2601   1.463   1.759  12.677 -0.9427 -0.3073 -0.4445
  170MPD1    H7 2602   1.298   1.717  12.704 -0.2327  0.4466  1.2831
  171MPD1     C 2603   4.268   3.305  15.460 -0.7167  0.4887  0.5361
  171MPD1    C1 2604   4.247   3.213  15.367  0.6208  0.6470  0.7417
  171MPD1    C2 2605   4.326   3.098  15.370  0.0719  1.1282 -0.7789
  171MPD1    C3 2606   4.433   3.073  15.459  0.5913  0.2501 -0.5198
  171MPD1    C4 2607   4.448   3.169  15.560 -0.1080  0.5950  0.3735
  171MPD1    C5 2608   4.370   3.283  15.548  0.1833 -0.1129 -0.0771
  171MPD1     H 2609   4.304   3.028  15.290 -1.2635  0.2753  0.3392
  171MPD1    H1 2610   4.514   3.157  15.645  1.6309  0.9818 -0.9316
  171MPD1    H2 2611   4.218   3.402  15.455 -1.1495  0.2458  0.1103
  171MPD1    H3 2612   4.380   3.350  15.633 -2.8448  2.0355 -1.4108
  171MPD1     N 2613   4.502   2.948  15.463  0.7023  0.6913  0.1925
  171MPD1    H5 2614   4.581   2.947  15.528  1.9981 -1.0399 -1.4085
  171MPD1    N1 2615   4.152   3.225  15.266 -0.2624  0.4331 -0.1664
  171MPD1    H6 2616   4.199   3.223  15.175  0.9931 -0.2286  0.5034
  171MPD1    H7 2617   4.115   3.320  15.267 -4.3813 -1.1462 -1.8511
  172MPD1     C 2618   3.677   2.018   0.972  0.0543 -0.3177 -0.1362
  172MPD1    C1 2619   3.679   1.961   0.844 -0.0013  0.5666 -0.2150
  172MPD1    C2 2620   3.676   2.033   0.730  0.6959  0.7930 -0.0129
  172MPD1    C3 2621   3.658   2.173   0.738 -0.2889  0.5516  0.9604
  172MPD1    C4 2622   3.665   2.230   0.866  0.0131  0.4369 -0.2458
  172MPD1    C5 2623   3.672   2.154   0.980  0.6657 -0.9577  0.1727
  172MPD1     H 2624   3.701   1.987   0.635  3.6035 -0.6623  1.4883
  172MPD1    H1 2625   3.660   2.338   0.873  1.6161  0.5002 -0.0971
  172MPD1    H2 2626   3.678   1.956   1.061  0.4590  2.2210  1.6585
  172MPD1    H3 2627   3.650   2.205   1.072  0.5528 -0.7055  0.0067
  172MPD1     N 2628   3.636   2.258   0.627  0.0430  0.6124  0.5613
  172MPD1    H5 2629   3.618   2.354   0.653  0.7625  1.4627 -2.1488
  172MPD1    N1 2630   3.694   1.818   0.842 -0.2206  0.0963  0.6270
  172MPD1    H6 2631   3.674   1.767   0.928  2.1947 -1.3840  0.2952
  172MPD1    H7 2632   3.665   1.782   0.751  2.1380  1.5196 -0.6990
  173MPD1     C 2633   0.388   1.937  13.410  0.5021 -0.3005 -0.7457
  173MPD1    C1 2634   0.279   2.005  13.462  0.7055 -0.3414  0.1963
  173MPD1    C2 2635   0.240   1.971  13.589  0.3833  0.1656  0.0501
  173MPD1    C3 2636   0.318   1.881  13.665 -0.0244 -0.2294 -0.2558
  173MPD1    C4 2637   0.433   1.822  13.614  0.0124 -0.3238  0.4055
  173MPD1    C5 2638   0.465   1.849  13.481 -0.1423 -0.4281  0.7652
  173MPD1     H 2639   0.151   2.012  13.635 -0.0398 -0.7994  0.0783
  173MPD1    H1 2640   0.488   1.750  13.673 -1.8394 -0.7262  1.6152
  173MPD1    H2 2641   0.416   1.952  13.307 -0.4930  1.9552 -0.6702
  173MPD1    H3 2642   0.553   1.806  13.434  0.1300 -1.2138  2.0137
  173MPD1     N 2643   0.276   1.845  13.797  0.2769  0.6888 -0.7105
  173MPD1    H5 2644   0.334   1.774  13.842 -2.3506 -2.7406 -2.7336
  173MPD1    N1 2645   0.216   2.103  13.385 -0.2682  0.5997  0.3099
  173MPD1    H6 2646   0.221   2.086  13.285 -1.4258 -0.8353  0.4985
  173MPD1    H7 2647   0.118   2.102  13.411 -0.5464  1.6047 -0.6836
  174MPD1     C 2648   0.759   1.614  14.632 -0.5050 -0.0755  0.8318
  174MPD1    C1 2649   0.777   1.638  14.498  0.9499  0.4659 -0.3845
  174MPD1    C2 2650   0.667   1.637  14.410 -0.1917 -0.5800 -0.1155
  174MPD1    C3 2651   0.534   1.635  14.459  0.6379 -0.3028 -0.2766
  174MPD1    C4 2652   0.524   1.605  14.597  0.2823 -0.2117  0.2439
  174MPD1    C5 2653   0.633   1.595  14.673  0.1886 -0.6155  0.2742
  174MPD1     H 2654   0.679   1.631  14.302 -2.4411  1.7578 -0.5110
  174MPD1    H1 2655   0.421   1.605  14.632 -0.9985 -2.3804 -3.4230
  174MPD1    H2 2656   0.840   1.605  14.703  1.1363 -0.0154 -1.0340
  174MPD1    H3 2657   0.610   1.580  14.778  0.1751 -2.2811  0.0311
  174MPD1     N 2658   0.415   1.659  14.378 -0.1979  0.2165 -0.7461
  174MPD1    H5 2659   0.324   1.639  14.420  1.2204  0.0706  2.2326
  174MPD1    N1 2660   0.910   1.635  14.449 -0.7206  0.0950  0.3012
  174MPD1    H6 2661   0.918   1.696  14.368 -3.9594  1.6073  1.1512
  174MPD1    H7 2662   0.979   1.662  14.520  0.1194 -0.3871 -0.3259
  175MPD1     C 2663   2.814   2.027  16.590  0.2012 -1.1336  0.2569
  175MPD1    C1 2664   2.914   2.020  16.680 -0.8995  0.2312 -0.1302
  175MPD1    C2 2665   3.004   2.125  16.686  0.6853 -0.3547  0.1177
  175MPD1    C3 2666   2.995   2.217  16.585  0.4040 -0.4295 -0.0807
  175MPD1    C4 2667   2.888   2.234  16.504  0.9657  0.4314  0.1820
  175MPD1    C5 2668   2.793   2.135  16.508  0.3512  0.1330 -0.2967
  175MPD1     H 2669   3.084   2.124  16.759  0.8026 -0.0836 -0.0070
  175MPD1    H1 2670   2.881   2.312  16.430 -0.8354 -0.0521 -0.1607
  175MPD1    H2 2671   2.747   1.942  16.579 -0.9748 -0.1150 -0.4227
  175MPD1    H3 2672   2.705   2.140  16.445 -0.5005  5.4176  1.2433
  175MPD1     N 2673   3.088   2.324  16.579 -0.0519  0.1869  0.6189
  175MPD1    H5 2674   3.068   2.401  16.516  0.5869  0.3264  0.5830
  175MPD1    N1 2675   2.917   1.929  16.786 -0.9402 -0.1005  0.5497
  175MPD1    H6 2676   2.870   1.840  16.774  0.1678 -0.2827 -2.5471
  175MPD1    H7 2677   3.010   1.912  16.824 -0.3970 -0.2400 -0.8547
  176MPD1     C 2678   0.580   0.181  15.881  0.2931 -0.4762  0.0471
  176MPD1    C1 2679   0.461   0.248  15.919 -0.1659 -0.3376  0.0362
  176MPD1    C2 2680   0.417   0.250  16.049 -0.1855  0.9855 -0.7106
  176MPD1    C3 2681   0.486   0.181  16.147  0.2989 -0.0800  0.3649
  176MPD1    C4 2682   0.588   0.098  16.108  0.3732  0.0994  0.9189
  176MPD1    C5 2683   0.633   0.102  15.974  0.2136  0.2316 -0.3331
  176MPD1     H 2684   0.334   0.313  16.080 -0.5445 -1.0943  2.4794
  176MPD1    H1 2685   0.633   0.032  16.181  1.6651  1.7581  1.6046
  176MPD1    H2 2686   0.633   0.194  15.787  1.2061 -0.8937  0.5125
  176MPD1    H3 2687   0.712   0.030  15.952  0.1493  1.2007 -3.7191
  176MPD1     N 2688   0.452   0.196  16.282  0.6206 -0.1235  0.1107
  176MPD1    H5 2689   0.381   0.264  16.309 -0.2548  0.6478 -4.1792
  176MPD1    N1 2690   0.403   0.320  15.815 -0.5034 -0.2502  0.2349
  176MPD1    H6 2691   0.396   0.259  15.734 -1.4178 -0.6085  0.5887
  176MPD1    H7 2692   0.306   0.333  15.843 -0.3946 -2.3882  1.5923
  177MPD1     C 2693   2.845   0.245  10.052 -0.1087 -0.1870 -0.6753
  177MPD1    C1 2694   2.716   0.228  10.104 -0.0496 -0.5194 -0.1709
  177MPD1    C2 2695   2.614   0.218  10.010  0.0570  0.0262  0.3741
  177MPD1    C3 2696   2.631   0.239   9.878  0.3326 -0.6791  0.0179
  177MPD1    C4 2697   2.754   0.261   9.830 -0.1346 -0.0226 -0.5553
  177MPD1    C5 2698   2.861   0.266   9.919  0.1652  0.0627  0.5187
  177MPD1     H 2699   2.516   0.201  10.054 -0.4236 -0.1900 -0.7680
  177MPD1    H1 2700   2.781   0.286   9.728  0.4104 -0.1395 -0.4417
  177MPD1    H2 2701   2.933   0.249  10.115 -0.9050  0.4874  0.3946
  177MPD1    H3 2702   2.960   0.281   9.879 -0.5674  0.1228 -1.2785
  177MPD1     N 2703   2.522   0.234   9.792 -0.0265  0.5576 -0.0801
  177MPD1    H5 2704   2.438   0.190   9.829  0.4500 -0.5124 -0.2809
  177MPD1    N1 2705   2.688   0.195  10.244 -0.2777  0.4292 -0.0789
  177MPD1    H6 2706   2.754   0.238  10.309 -0.1090  1.1499 -0.7160
  177MPD1    H7 2707   2.595   0.226  10.271 -0.6215  0.4127 -1.2417
  178MPD1     C 2708   0.647   0.921   0.504  0.1237  0.0022  0.1982
  178MPD1    C1 2709   0.713   0.831   0.425  0.7074  0.5308 -0.0477
  178MPD1    C2 2710   0.727   0.863   0.287  0.6052 -0.0437  0.0274
  178MPD1    C3 2711   0.717   0.995   0.246 -1.1228 -0.0435 -0.5496
  178MPD1    C4 2712   0.650   1.081   0.332  0.3618 -0.4937 -0.2707
  178MPD1    C5 2713   0.618   1.044   0.455  0.7144 -0.0469 -0.1055
  178MPD1     H 2714   0.770   0.795   0.215  0.6488  3.7235 -3.4994
  178MPD1    H1 2715   0.626   1.182   0.304 -1.9053 -0.8588  0.3796
  178MPD1    H2 2716   0.634   0.902   0.610 -1.7633  1.3241  0.1909
  178MPD1    H3 2717   0.568   1.119   0.515 -1.9210 -0.3482 -1.9645
  178MPD1     N 2718   0.766   1.032   0.123  0.0240  0.2339 -0.0830
  178MPD1    H5 2719   0.810   0.962   0.065 -0.2638 -0.4130  0.4794
  178MPD1    N1 2720   0.739   0.699   0.471  0.5605  0.4094 -0.0412
  178MPD1    H6 2721   0.815   0.645   0.431  0.7879 -0.0650  1.0391
  178MPD1    H7 2722   0.757   0.685   0.570 -1.2251 -0.8137  0.0997
  179MPD1     C 2723   0.406   4.514  16.005 -0.0126 -0.4539 -0.3504
  179MPD1    C1 2724   0.460   4.449  15.899 -0.1998  0.2556 -0.1208
  179MPD1    C2 2725   0.460   4.310  15.907 -0.3938  0.2271 -0.2531
  179MPD1    C3 2726   0.421   4.237  16.017 -0.6459 -0.2825 -0.3632
  179MPD1    C4 2727   0.389   4.308  16.129  0.3988  0.1759  0.0809
  179MPD1    C5 2728   0.374   4.441  16.116  0.3231 -0.5430  0.4257
  179MPD1     H 2729   0.499   4.251  15.825 -1.3260  2.5549 -2.3998
  179MPD1    H1 2730   0.353   4.261  16.220 -3.5312 -0.4696 -1.8003
  179MPD1    H2 2731   0.401   4.622  16.022 -0.1334 -0.3147 -1.2878
  179MPD1    H3 2732   0.335   4.496  16.200 -0.2202 -2.3348  1.3317
  179MPD1     N 2733   0.412   4.099  16.024  0.1056 -0.1886 -0.3324
  179MPD1    H5 2734   0.403   4.062  16.118 -2.5603  1.7140  0.1599
  179MPD1    N1 2735   0.487   4.522  15.779 -0.0624  0.1058 -0.7344
  179MPD1    H6 2736   0.551   4.472  15.718 -0.2844 -1.1707  0.0726
  179MPD1    H7 2737   0.528   4.614  15.794 -0.6293  0.3250 -0.5233
  180MPD1     C 2738   4.695   4.704  15.428 -0.3135  0.2526 -0.3815
  180MPD1    C1 2739   4.608   0.058  15.349  0.0269  0.4601 -0.3130
  180MPD1    C2 2740   4.633   0.067  15.214 -0.2923  0.6482 -0.6302
  180MPD1    C3 2741   0.022   4.722  15.158  0.6586 -0.2596 -0.5731
  180MPD1    C4 2742   0.109   4.653  15.243 -0.1374  0.1945 -0.2960
  180MPD1    C5 2743   0.090   4.653  15.375 -0.0257 -0.2459  0.0114
  180MPD1     H 2744   4.566   0.124  15.152 -0.9941  0.5073 -0.0069
  180MPD1    H1 2745   0.190   4.591  15.204  0.1447 -0.4301  1.2714
  180MPD1    H2 2746   4.679   4.681  15.533 -0.3885  0.4406 -0.3531
  180MPD1    H3 2747   0.160   4.608  15.444 -0.1614  0.9579  0.9359
  180MPD1     N 2748   0.034   4.710  15.015  0.4641  0.5463  0.1561
  180MPD1    H5 2749   4.694   0.046  14.962 -0.7944  0.0955  1.1454
  180MPD1    N1 2750   4.508   0.136  15.407 -0.3402 -0.2707  0.0175
  180MPD1    H6 2751   4.467   0.086  15.486  1.5791 -1.4255  0.2873
  180MPD1    H7 2752   4.434   0.155  15.339 -3.3256 -1.3863  2.9436
  181MPD1     C 2753   0.778   2.269   9.287 -0.4127 -0.5837 -0.2208
  181MPD1    C1 2754   0.802   2.389   9.350 -0.1942 -0.0462  0.7618
  181MPD1    C2 2755   0.914   2.407   9.424 -0.4156  0.8503  0.4938
  181MPD1    C3 2756   1.015   2.315   9.423 -0.1246  0.7104 -0.1850
  181MPD1    C4 2757   0.994   2.199   9.367  0.5571  0.3838 -0.1527
  181MPD1    C5 2758   0.876   2.171   9.298  0.6293  0.7707 -0.1545
  181MPD1     H 2759   0.932   2.498   9.481  0.4569  1.1534 -0.2454
  181MPD1    H1 2760   1.071   2.123   9.361  0.8304  0.6733 -0.3379
  181MPD1    H2 2761   0.682   2.256   9.238 -0.1478 -0.7298 -0.6960
  181MPD1    H3 2762   0.866   2.077   9.244  0.9455  1.3065 -1.1409
  181MPD1     N 2763   1.126   2.332   9.508  0.4985  0.7845  0.3863
  181MPD1    H5 2764   1.196   2.258   9.508  0.4679  0.7606 -0.2285
  181MPD1    N1 2765   0.688   2.474   9.374  0.3695 -0.2104 -0.1977
  181MPD1    H6 2766   0.601   2.463   9.323  0.7347  0.4084 -0.9577
  181MPD1    H7 2767   0.704   2.574   9.385  1.5367 -0.6238  1.8507
  182MPD1     C 2768   3.993   1.972   1.407 -0.6226  0.2074  0.1121
  182MPD1    C1 2769   3.958   1.845   1.359 -0.3370  0.0845  0.7616
  182MPD1    C2 2770   3.830   1.815   1.325 -0.5150  0.1842 -0.6122
  182MPD1    C3 2771   3.728   1.903   1.343  0.0274  0.4934  0.3217
  182MPD1    C4 2772   3.756   2.016   1.410 -0.1768 -0.4035 -0.5535
  182MPD1    C5 2773   3.887   2.052   1.438 -0.2942  0.4920 -0.0866
  182MPD1     H 2774   3.820   1.714   1.287  0.0080  0.0639 -0.4223
  182MPD1    H1 2775   3.675   2.086   1.428  1.5330  1.9568 -1.9439
  182MPD1    H2 2776   4.099   1.992   1.416 -0.7506  0.7396  0.4063
  182MPD1    H3 2777   3.898   2.148   1.486  0.0832  0.0842  0.6268
  182MPD1     N 2778   3.593   1.868   1.302  0.7405 -0.5556  0.2008
  182MPD1    H5 2779   3.517   1.928   1.332  0.8501 -1.1037  1.5769
  182MPD1    N1 2780   4.058   1.748   1.342 -0.6216  0.1235  0.8501
  182MPD1    H6 2781   4.027   1.653   1.359 -0.6504  0.0010  0.1220
  182MPD1    H7 2782   4.143   1.757   1.396  0.0087  0.1749 -0.1453
  183MPD1     C 2783   2.171   1.433   8.788  0.0145  0.5143  0.0494
  183MPD1    C1 2784   2.113   1.554   8.814  0.1886 -0.3291  0.1823
  183MPD1    C2 2785   2.176   1.652   8.879 -0.0062  0.4526  0.0800
  183MPD1    C3 2786   2.293   1.630   8.945  0.9102 -0.1845  0.5337
  183MPD1    C4 2787   2.358   1.515   8.924  0.0248 -0.5192  0.1949
  183MPD1    C5 2788   2.298   1.417   8.837  0.0002  0.0319  0.4712
  183MPD1     H 2789   2.131   1.749   8.894  0.8931  0.6755  1.3098
  183MPD1    H1 2790   2.448   1.485   8.976  0.7155  0.8400 -0.2054
  183MPD1    H2 2791   2.119   1.349   8.744 -1.8933  1.3112  0.7564
  183MPD1    H3 2792   2.340   1.318   8.829 -0.1667 -0.0523  0.6612
  183MPD1     N 2793   2.353   1.734   9.014  0.2118 -0.1396 -0.2461
  183MPD1    H5 2794   2.303   1.821   9.003 -1.0963 -0.6817  1.4060
  183MPD1    N1 2795   1.986   1.584   8.757 -0.2430  0.7961 -0.3420
  183MPD1    H6 2796   1.930   1.639   8.822 -0.3388  0.3060 -0.0072
  183MPD1    H7 2797   1.930   1.502   8.734  0.7243 -0.2706  1.1368
  184MPD1     C 2798   2.184   0.422  10.227 -0.1212 -0.3419 -0.4261
  184MPD1    C1 2799   2.100   0.437  10.121  0.2736 -0.2460  0.4161
  184MPD1    C2 2800   2.149   0.492  10.003 -0.4162  0.2042  0.2605
  184MPD1    C3 2801   2.285   0.515   9.990 -0.2974 -0.0126 -0.4894
  184MPD1    C4 2802   2.371   0.495  10.097 -0.0712  0.1682  0.5628
  184MPD1    C5 2803   2.319   0.440  10.210 -0.7673  0.1081  0.7429
  184MPD1     H 2804   2.083   0.519   9.921  0.3983  1.2240 -0.0626
  184MPD1    H1 2805   2.477   0.513  10.084 -0.7889  3.2297 -0.9656
  184MPD1    H2 2806   2.154   0.384  10.324  0.9547  0.9579  0.4130
  184MPD1    H3 2807   2.391   0.415  10.287  0.2752 -0.8437 -0.5286
  184MPD1     N 2808   2.346   0.582   9.873 -0.0100 -0.5772 -0.2747
  184MPD1    H5 2809   2.445   0.606   9.877 -0.0602 -0.2830 -0.7829
  184MPD1    N1 2810   1.959   0.430  10.139 -0.1547 -0.0244  0.5851
  184MPD1    H6 2811   1.931   0.361  10.209 -1.8901 -0.4856 -0.5413
  184MPD1    H7 2812   1.899   0.424  10.056  0.4941 -0.7567  0.1733
  185MPD1     C 2813   2.238   1.185   9.098  0.8750 -0.0804  0.6241
  185MPD1    C1 2814   2.183   1.067   9.079  0.6743  0.1724  0.2719
  185MPD1    C2 2815   2.251   0.957   9.137  0.3426 -0.3732 -0.3147
  185MPD1    C3 2816   2.358   0.970   9.222 -0.0560 -0.4645  0.0388
  185MPD1    C4 2817   2.413   1.094   9.244  0.2721 -0.0306 -0.3214
  185MPD1    C5 2818   2.350   1.205   9.183  0.9177  0.3593  0.3830
  185MPD1     H 2819   2.210   0.861   9.109 -1.6337  0.5089 -0.4953
  185MPD1    H1 2820   2.482   1.112   9.326 -0.2869 -2.4138  0.6613
  185MPD1    H2 2821   2.196   1.273   9.050  0.7422 -0.6782 -0.3693
  185MPD1    H3 2822   2.384   1.307   9.195  1.9210  0.0848 -0.1524
  185MPD1     N 2823   2.411   0.862   9.291  0.1697  0.0588  0.5206
  185MPD1    H5 2824   2.490   0.873   9.354  0.7380 -0.4647 -0.0937
  185MPD1    N1 2825   2.066   1.059   9.005  0.3486 -0.0841  0.2366
  185MPD1    H6 2826   1.998   1.135   9.007  0.5615  0.0506  2.5510
  185MPD1    H7 2827   2.029   0.971   9.039  0.1266 -0.5599 -1.2690
  186MPD1     C 2828   0.804   3.730  15.792 -0.3940  0.2645  0.0284
  186MPD1    C1 2829   0.819   3.841  15.722 -0.2369 -0.0045  0.7247
  186MPD1    C2 2830   0.821   3.964  15.789 -0.4466  0.3888 -0.5378
  186MPD1    C3 2831   0.799   3.977  15.930  0.1545  0.0984  0.2532
  186MPD1    C4 2832   0.788   3.862  15.996 -0.1261 -0.0455 -0.7604
  186MPD1    C5 2833   0.788   3.741  15.928 -1.4359  0.0171  0.5206
  186MPD1     H 2834   0.844   4.051  15.729  0.0058  1.0513  0.5870
  186MPD1    H1 2835   0.772   3.867  16.103 -0.2469 -0.9307 -0.7317
  186MPD1    H2 2836   0.791   3.630  15.754 -0.9503  1.4918 -3.0477
  186MPD1    H3 2837   0.780   3.646  15.979  1.8827 -1.2806 -1.3653
  186MPD1     N 2838   0.785   4.105  15.996 -0.8970  0.8286  0.1209
  186MPD1    H5 2839   0.767   4.103  16.096 -0.2619 -1.7885  0.1796
  186MPD1    N1 2840   0.859   3.822  15.588  0.1048 -0.5325 -0.2489
  186MPD1    H6 2841   0.809   3.750  15.535 -1.1996  0.9935 -1.0744
  186MPD1    H7 2842   0.853   3.906  15.531 -0.2555 -0.2526  0.2035
  187MPD1     C 2843   0.333   1.027   0.730 -0.0985 -0.2294  0.4140
  187MPD1    C1 2844   0.330   0.954   0.610 -0.3019 -0.0265 -0.1206
  187MPD1    C2 2845   0.286   1.016   0.493 -0.6992 -0.4208  0.0020
  187MPD1    C3 2846   0.270   1.153   0.487 -0.3813 -0.4021 -0.2120
  187MPD1    C4 2847   0.290   1.230   0.601  0.7213  0.0701  0.2237
  187MPD1    C5 2848   0.321   1.166   0.719  0.3462 -0.3276 -0.7660
  187MPD1     H 2849   0.272   0.950   0.408 -0.2608 -2.6767  1.6870
  187MPD1    H1 2850   0.297   1.338   0.604 -1.0722  0.1354  2.7489
  187MPD1    H2 2851   0.347   0.978   0.825  0.8579 -2.6744 -0.9829
  187MPD1    H3 2852   0.334   1.222   0.811  1.5393  0.3775 -1.3773
  187MPD1     N 2853   0.245   1.225   0.369  0.1834  0.8676 -0.0963
  187MPD1    H5 2854   0.235   1.326   0.377 -1.1847  0.6622  0.6060
  187MPD1    N1 2855   0.318   0.815   0.620 -0.0087  0.1901  0.2861
  187MPD1    H6 2856   0.375   0.786   0.699  1.1453  1.9351  0.1044
  187MPD1    H7 2857   0.351   0.759   0.541 -0.6518  0.8229 -0.4244
  188MPD1     C 2858   3.957   1.569  10.069  0.1399  0.0201  0.0226
  188MPD1    C1 2859   3.887   1.559   9.951 -0.4151  0.4891  0.1000
  188MPD1    C2 2860   3.863   1.434   9.895 -0.5253  0.2137 -0.3140
  188MPD1    C3 2861   3.925   1.318   9.939 -0.4282 -0.1850  0.3129
  188MPD1    C4 2862   4.024   1.335  10.034 -0.2686 -1.2997 -0.2772
  188MPD1    C5 2863   4.027   1.456  10.103 -0.4147  0.3772 -0.7253
  188MPD1     H 2864   3.797   1.428   9.809  0.7068  0.6362 -1.2822
  188MPD1    H1 2865   4.085   1.248  10.054  1.0413 -0.1773  0.5389
  188MPD1    H2 2866   3.982   1.656  10.129  2.7825 -0.9798  0.3507
  188MPD1    H3 2867   4.097   1.458  10.185 -1.6716 -0.1421  0.3509
  188MPD1     N 2868   3.914   1.191   9.873  0.3517 -0.0372 -0.5046
  188MPD1    H5 2869   3.965   1.121   9.927  1.0518  1.7817  1.2139
  188MPD1    N1 2870   3.820   1.674   9.905  0.8597 -0.1258  0.7376
  188MPD1    H6 2871   3.775   1.676   9.813  0.8177  0.6629  0.7740
  188MPD1    H7 2872   3.852   1.760   9.947  1.4257  0.0055  0.0361
  189MPD1     C 2873   2.391   2.073  17.420  0.0912  0.5487 -0.3306
  189MPD1    C1 2874   2.304   2.182  17.439  0.4369 -0.9485  0.0433
  189MPD1    C2 2875   2.173   2.159  17.470  0.4103 -0.1194 -0.2351
  189MPD1    C3 2876   2.128   2.026  17.477 -0.1321  0.4198 -0.1484
  189MPD1    C4 2877   2.218   1.919  17.473  0.4611 -0.0015  0.5139
  189MPD1    C5 2878   2.346   1.944  17.437  0.2881 -0.6843 -0.5538
  189MPD1     H 2879   2.110   2.246  17.489  0.8658 -0.5560  3.3374
  189MPD1    H1 2880   2.182   1.817  17.469 -0.5878  0.2482  3.2656
  189MPD1    H2 2881   2.495   2.083  17.392  0.6915 -0.1148  1.6775
  189MPD1    H3 2882   2.422   1.869  17.418  1.2651 -0.5951  2.8976
  189MPD1     N 2883   1.989   2.010  17.516 -0.2418 -0.5337 -0.0081
  189MPD1    H5 2884   1.945   2.095  17.548 -0.6698 -0.5922 -0.4333
  189MPD1    N1 2885   2.342   2.308  17.393 -0.5801  0.6300 -0.3165
  189MPD1    H6 2886   2.284   2.381  17.434 -0.9292 -0.3425  0.9258
  189MPD1    H7 2887   2.442   2.323  17.401 -0.8134  0.6769  2.7269
  190MPD1     C 2888   4.576   0.311  15.699 -0.3051  0.4193 -0.8170
  190MPD1    C1 2889   4.551   0.435  15.762 -0.9306  0.4160  0.4497
  190MPD1    C2 2890   4.644   0.539  15.743  0.2072  0.0305 -0.8649
  190MPD1    C3 2891   0.043   0.518  15.688  0.2249 -0.5268 -0.0570
  190MPD1    C4 2892   0.077   0.393  15.643 -0.5075  0.3543  0.3487
  190MPD1    C5 2893   4.701   0.292  15.646 -0.3427 -0.2479 -0.4833
  190MPD1     H 2894   4.608   0.635  15.778  3.1449 -0.2175  2.8662
  190MPD1    H1 2895   0.164   0.363  15.586  1.7443  3.2809  2.2400
  190MPD1    H2 2896   4.501   0.232  15.690  1.1322 -1.0708  0.3164
  190MPD1    H3 2897   4.720   0.191  15.612 -0.2478  0.1044 -1.4609
  190MPD1     N 2898   0.127   0.631  15.677 -0.0603 -0.2941  0.3883
  190MPD1    H5 2899   0.097   0.706  15.739 -2.2888  1.7662 -3.1610
  190MPD1    N1 2900   4.426   0.460  15.815 -0.0299  0.0941  0.2741
  190MPD1    H6 2901   4.411   0.547  15.865  2.4990  0.2100  0.8242
  190MPD1    H7 2902   4.393   0.383  15.873  2.3302  0.1942  1.7444
  191MPD1     C 2903   0.058   2.084  12.808 -0.1462 -0.2526 -0.2846
  191MPD1    C1 2904   0.135   2.188  12.754  0.1896  0.5584 -0.4678
  191MPD1    C2 2905   0.071   2.288  12.681  0.0502  0.4704  0.0911
  191MPD1    C3 2906   4.663   2.278  12.640  0.1019  0.4655 -0.6191
  191MPD1    C4 2907   4.588   2.177  12.698 -0.1617  0.5122 -0.2906
  191MPD1    C5 2908   4.652   2.095  12.786 -0.2270  0.1063 -0.5311
  191MPD1     H 2909   0.125   2.377  12.650  1.3979 -0.1662  0.6163
  191MPD1    H1 2910   4.482   2.170  12.675  0.5600  2.1284 -4.1330
  191MPD1    H2 2911   0.089   2.007  12.877  0.1714 -0.0324 -0.1809
  191MPD1    H3 2912   4.593   2.024  12.842  1.7309  0.3722  1.8658
  191MPD1     N 2913   4.599   2.385  12.575  0.7552 -0.0182 -0.6668
  191MPD1    H5 2914   4.665   2.444  12.526  0.6429  1.0908  0.5349
  191MPD1    N1 2915   0.272   2.188  12.774  0.6428 -0.1564 -0.2376
  191MPD1    H6 2916   0.323   2.101  12.765 -1.3643 -1.2475 -1.0234
  191MPD1    H7 2917   0.317   2.255  12.712 -1.8948  0.1567 -1.7158
  192MPD1     C 2918   3.865   3.147  12.312 -0.5522  1.0816 -0.0598
  192MPD1    C1 2919   3.841   3.015  12.316  0.9853 -0.0118  0.5294
  192MPD1    C2 2920   3.953   2.934  12.341  0.1972 -0.3162 -0.7341
  192MPD1    C3 2921   4.079   2.974  12.360  0.3632  0.2427 -0.5628
  192MPD1    C4 2922   4.099   3.110  12.336  0.0724 -0.6211 -0.1377
  192MPD1    C5 2923   3.990   3.192  12.319  0.4991 -0.6281 -0.3142
  192MPD1     H 2924   3.933   2.828  12.350  0.4592 -0.2781  0.3083
  192MPD1    H1 2925   4.192   3.165  12.350  0.8094 -1.1430 -2.8057
  192MPD1    H2 2926   3.783   3.219  12.307 -0.2154  1.3652 -1.5327
  192MPD1    H3 2927   4.011   3.298  12.307 -0.0344 -0.5591 -0.6254
  192MPD1     N 2928   4.186   2.888  12.385 -0.1004  0.0775 -0.4978
  192MPD1    H5 2929   4.278   2.932  12.385  0.1294 -0.3958 -1.5731
  192MPD1    N1 2930   3.712   2.958  12.333  0.1570  0.2972 -0.0695
  192MPD1    H6 2931   3.638   3.018  12.298  0.4672 -0.8491 -2.6684
  192MPD1    H7 2932   3.706   2.867  12.289  1.2423  0.5236 -0.6879
  193MPD1     C 2933   4.343   2.389  15.872 -0.1916 -0.7785 -0.1782
  193MPD1    C1 2934   4.374   2.523  15.898 -0.5890  0.3146  0.5610
  193MPD1    C2 2935   4.457   2.558  15.999  0.0283 -0.5413 -0.0620
  193MPD1    C3 2936   4.525   2.462  16.078  0.2416 -0.2267  0.5147
  193MPD1    C4 2937   4.477   2.331  16.065 -0.1240  0.8280  0.4171
  193MPD1    C5 2938   4.402   2.296  15.954  0.4510 -0.1643 -0.7453
  193MPD1     H 2939   4.467   2.665  16.015  0.6265 -0.5004 -0.7194
  193MPD1    H1 2940   4.510   2.252  16.131  0.3420  0.4030 -0.3187
  193MPD1    H2 2941   4.265   2.369  15.798 -0.8986  2.4758 -0.3137
  193MPD1    H3 2942   4.372   2.192  15.951 -2.5538  0.7322 -1.3063
  193MPD1     N 2943   4.605   2.486  16.198 -0.8485  0.2194  0.1945
  193MPD1    H5 2944   4.649   2.401  16.233  0.7944  0.9195 -0.1536
  193MPD1    N1 2945   4.293   2.616  15.832 -0.4161 -0.1672  0.2598
  193MPD1    H6 2946   4.257   2.574  15.746 -0.6153 -1.0894  0.7932
  193MPD1    H7 2947   4.336   2.707  15.816 -2.0393  0.4926 -0.3478
  194MPD1     C 2948   1.828   0.251  16.619 -0.1406 -0.3927 -0.2451
  194MPD1    C1 2949   1.827   0.165  16.516 -0.4903 -0.2424 -0.0617
  194MPD1    C2 2950   1.816   0.026  16.545 -0.3248 -0.4496 -0.5261
  194MPD1    C3 2951   1.814   4.703  16.678  0.2233  0.2571  0.8532
  194MPD1    C4 2952   1.828   0.076  16.777 -0.1679 -0.0223 -0.3597
  194MPD1    C5 2953   1.832   0.209  16.744  0.1554 -0.8259  0.5855
  194MPD1     H 2954   1.812   4.682  16.460 -2.7078 -3.0334  1.6080
  194MPD1    H1 2955   1.819   0.045  16.881 -0.1832 -3.0696 -1.2751
  194MPD1    H2 2956   1.806   0.355  16.598 -1.4691 -0.3874  1.1562
  194MPD1    H3 2957   1.840   0.291  16.815  0.1996 -1.0768  0.8744
  194MPD1     N 2958   1.803   4.567  16.716  0.1507  0.7122  0.0151
  194MPD1    H5 2959   1.804   4.540  16.814  2.9940  2.0357  0.3576
  194MPD1    N1 2960   1.830   0.214  16.384  0.6520 -0.2158 -0.1189
  194MPD1    H6 2961   1.734   0.220  16.352  0.3638 -1.6415  0.5020
  194MPD1    H7 2962   1.865   0.135  16.331  3.2596  0.4602  0.5795
  195MPD1     C 2963   0.441   1.122  17.585 -0.2202 -0.0321 -0.8661
  195MPD1    C1 2964   0.398   1.050  17.479 -0.9802  0.2327 -0.4074
  195MPD1    C2 2965   0.339   0.928  17.504  0.0551 -0.0586  0.0277
  195MPD1    C3 2966   0.332   0.870  17.628 -0.3238  0.0950 -0.3257
  195MPD1    C4 2967   0.362   0.949   0.041 -0.4440 -0.2144  0.0828
  195MPD1    C5 2968   0.428   1.069   0.017  0.4151  0.0030 -0.0856
  195MPD1     H 2969   0.303   0.878  17.415  2.0105 -2.2885  0.5117
  195MPD1    H1 2970   0.360   0.907   0.141 -0.8941  0.3750  0.3260
  195MPD1    H2 2971   0.470   1.225  17.573 -1.9033  0.7118  1.4732
  195MPD1    H3 2972   0.451   1.122   0.109 -1.5153  0.2490  0.2633
  195MPD1     N 2973   0.276   0.744  17.654  0.0298 -0.3256  0.3824
  195MPD1    H5 2974   0.254   0.725   0.058 -1.2504 -0.9190 -0.0159
  195MPD1    N1 2975   0.375   1.114  17.355 -0.0603  0.3880  0.5557
  195MPD1    H6 2976   0.441   1.189  17.334 -1.2737  0.5516 -2.6936
  195MPD1    H7 2977   0.386   1.055  17.273  1.1199 -0.1605  1.1155
  196MPD1     C 2978   4.252   2.177  17.541 -0.0011 -0.1153  0.2150
  196MPD1    C1 2979   4.281   2.286  17.620 -0.6878 -0.5297  0.4378
  196MPD1    C2 2980   4.302   2.267   0.061 -0.2341 -0.6377  0.9536
  196MPD1    C3 2981   4.277   2.142   0.115 -0.0098  0.1160  0.4176
  196MPD1    C4 2982   4.227   2.033   0.040  1.4175 -0.1691 -0.1534
  196MPD1    C5 2983   4.209   2.059  17.601  0.3806  0.5007  0.8720
  196MPD1     H 2984   4.322   2.351   0.126  0.8477  0.9861 -1.5180
  196MPD1    H1 2985   4.197   1.938   0.083  0.7205  0.0045 -0.2511
  196MPD1    H2 2986   4.230   2.190  17.435 -1.0435  0.6965  0.5295
  196MPD1    H3 2987   4.170   1.980  17.539  0.0932  0.9820  0.4451
  196MPD1     N 2988   4.282   2.122   0.256 -0.2500  0.0945 -0.0010
  196MPD1    H5 2989   4.270   2.025   0.283  2.1264 -0.3101 -0.3810
  196MPD1    N1 2990   4.297   2.412  17.554  0.1587  0.4075 -0.3198
  196MPD1    H6 2991   4.312   2.490  17.619  1.8939 -1.4169  1.4848
  196MPD1    H7 2992   4.219   2.437  17.494 -0.3639 -2.7840 -0.9590
  197MPD1     C 2993   3.847   3.577   0.348  0.2712 -0.8211 -0.3619
  197MPD1    C1 2994   3.849   3.707   0.290  0.0757 -0.4890  0.3269
  197MPD1    C2 2995   3.778   3.724   0.171  0.4731  0.2232  0.3380
  197MPD1    C3 2996   3.715   3.619   0.111 -0.5399  0.2002  0.6115
  197MPD1    C4 2997   3.714   3.494   0.174  0.4591  0.3765 -0.6314
  197MPD1    C5 2998   3.775   3.474   0.301  0.5545  0.1500  0.0108
  197MPD1     H 2999   3.795   3.821   0.124  0.3680  1.0403  1.9782
  197MPD1    H1 3000   3.656   3.412   0.133  0.0803  1.6128 -2.5905
  197MPD1    H2 3001   3.898   3.568   0.443 -1.9028 -0.2383  0.8724
  197MPD1    H3 3002   3.761   3.383   0.358 -0.9232  0.6231  0.3949
  197MPD1     N 3003   3.636   3.627  17.693 -0.3240 -0.3173  0.3658
  197MPD1    H5 3004   3.599   3.544  17.647 -0.7017  0.4494 -0.7237
  197MPD1    N1 3005   3.939   3.793   0.344 -0.4016 -0.1852 -0.4807
  197MPD1    H6 3006   3.951   3.784   0.444 -0.8582 -2.9890 -0.6826
  197MPD1    H7 3007   3.924   3.890   0.316  0.1940  0.6496  2.0763
  198MPD1     C 3008   0.228   1.193  14.815  0.2470 -0.0848 -0.2328
  198MPD1    C1 3009   0.340   1.276  14.794  0.4111  0.0979  0.6387
  198MPD1    C2 3010   0.389   1.348  14.909  0.3676 -0.4441 -0.0403
  198MPD1    C3 3011   0.331   1.329  15.030  0.6090 -0.7601  0.7191
  198MPD1    C4 3012   0.227   1.237  15.053 -0.3857 -0.0986  0.1946
  198MPD1    C5 3013   0.182   1.172  14.941 -0.5648 -0.3286 -0.9008
  198MPD1     H 3014   0.477   1.411  14.900 -0.3500  0.3857 -1.3003
  198MPD1    H1 3015   0.180   1.217  15.148  0.9172 -1.3883  0.5604
  198MPD1    H2 3016   0.168   1.165  14.729  1.3622  0.6167 -1.2392
  198MPD1    H3 3017   0.106   1.098  14.958 -1.1178  0.5489  0.4045
  198MPD1     N 3018   0.393   1.391  15.139  0.1748 -0.6964 -0.2299
  198MPD1    H5 3019   0.472   1.447  15.108  0.1877 -1.8685 -2.2944
  198MPD1    N1 3020   0.380   1.304  14.659  0.0997 -0.7111 -0.3545
  198MPD1    H6 3021   0.477   1.336  14.652 -1.2565  2.9625 -2.3261
  198MPD1    H7 3022   0.372   1.219  14.604 -3.0427  1.6721 -3.5246
  199MPD1     C 3023   1.101   3.708   9.342  0.2354 -0.5247  0.8627
  199MPD1    C1 3024   1.125   3.581   9.387  0.2667  0.0621 -0.6738
  199MPD1    C2 3025   1.153   3.564   9.518  0.1710 -0.3996  0.3689
  199MPD1    C3 3026   1.139   3.668   9.609 -0.0267 -0.1355 -0.4191
  199MPD1    C4 3027   1.104   3.794   9.567  0.3520 -0.6143  0.0695
  199MPD1    C5 3028   1.085   3.808   9.427  0.0858  0.4970  0.3241
  199MPD1     H 3029   1.184   3.466   9.554 -1.9610 -1.0234  0.5149
  199MPD1    H1 3030   1.103   3.877   9.636  1.1467  0.9903 -1.8449
  199MPD1    H2 3031   1.093   3.723   9.235  0.7943 -1.3346  0.7041
  199MPD1    H3 3032   1.051   3.901   9.383  1.2726 -0.1476 -1.9333
  199MPD1     N 3033   1.165   3.657   9.754 -0.8778  0.2059 -0.3559
  199MPD1    H5 3034   1.146   3.736   9.816  0.2641 -1.1868  1.7406
  199MPD1    N1 3035   1.159   3.484   9.295  0.0383 -0.2786 -0.6701
  199MPD1    H6 3036   1.109   3.488   9.207 -1.1904 -0.9676 -0.0097
  199MPD1    H7 3037   1.136   3.391   9.329 -3.4761  0.9598  0.3132
  200MPD1     C 3038   1.572   3.150  14.008  0.1661 -0.1741 -0.1632
  200MPD1    C1 3039   1.627   3.238  13.914 -0.7869  0.3986 -0.2010
  200MPD1    C2 3040   1.705   3.334  13.963  0.1471 -0.3931  0.0861
  200MPD1    C3 3041   1.721   3.365  14.097  0.6543 -0.0789 -0.8876
  200MPD1    C4 3042   1.659   3.283  14.184  0.2050  0.6401 -0.7467
  200MPD1    C5 3043   1.586   3.174  14.139 -0.0476 -0.5471 -0.0608
  200MPD1     H 3044   1.762   3.392  13.891  1.0438 -1.4220 -0.0274
  200MPD1    H1 3045   1.658   3.299  14.292 -2.7677  1.2349 -0.8577
  200MPD1    H2 3046   1.513   3.065  13.974 -1.9882  1.4080 -0.3800
  200MPD1    H3 3047   1.548   3.098  14.206  2.3681 -1.6075  0.0843
  200MPD1     N 3048   1.807   3.472  14.138 -0.7310 -0.1108 -0.3508
  200MPD1    H5 3049   1.872   3.515  14.073 -0.7287 -1.3097 -1.1398
  200MPD1    N1 3050   1.644   3.199  13.780 -0.1006 -0.4348  0.6778
  200MPD1    H6 3051   1.666   3.279  13.721  0.3001 -1.2254 -0.2434
  200MPD1    H7 3052   1.557   3.161  13.742 -0.2931  1.5312 -0.8714
  201MPD1     C 3053   3.094   2.161  13.048  0.0442 -0.4091 -0.0970
  201MPD1    C1 3054   3.084   2.066  12.948  0.3992 -0.2513 -0.3505
  201MPD1    C2 3055   3.156   1.950  12.972  0.0779 -0.2149 -0.3340
  201MPD1    C3 3056   3.236   1.927  13.087  0.2061 -0.2484  0.3633
  201MPD1    C4 3057   3.257   2.035  13.175  0.0558  0.0908  0.0277
  201MPD1    C5 3058   3.179   2.145  13.155  0.0032  0.0424  0.1036
  201MPD1     H 3059   3.145   1.870  12.899  1.8046 -0.9708  0.2339
  201MPD1    H1 3060   3.311   2.026  13.268 -1.3511  0.9247  0.9189
  201MPD1    H2 3061   3.013   2.233  13.058  0.2173 -0.1681 -0.4586
  201MPD1    H3 3062   3.184   2.220  13.233 -0.6189 -0.0395  0.2215
  201MPD1     N 3063   3.301   1.808  13.097  0.4819  0.4869 -0.4517
  201MPD1    H5 3064   3.277   1.735  13.031  1.1503 -0.3821  0.2577
  201MPD1    N1 3065   2.984   2.074  12.853 -0.3387 -0.0859 -0.2425
  201MPD1    H6 3066   2.965   2.173  12.835 -3.0101 -0.2505  1.5833
  201MPD1    H7 3067   3.012   2.022  12.770 -1.7311  1.0212 -1.4067
  202MPD1     C 3068   3.508   0.963   8.983  1.1527 -0.1975  0.5270
  202MPD1    C1 3069   3.487   1.095   8.974 -0.2573  1.0759  0.1500
  202MPD1    C2 3070   3.465   1.152   9.096  1.2502  0.2272 -0.6240
  202MPD1    C3 3071   3.410   1.087   9.211  0.2556 -0.0730 -0.4810
  202MPD1    C4 3072   3.410   0.949   9.202  0.1442  0.5778 -0.2975
  202MPD1    C5 3073   3.460   0.892   9.085  0.0559 -0.0412 -0.3308
  202MPD1     H 3074   3.471   1.261   9.095  0.6111  0.2728  0.2352
  202MPD1    H1 3075   3.380   0.888   9.287  3.6468  0.7119  1.0192
  202MPD1    H2 3076   3.548   0.907   8.899  1.9042  2.8857 -1.1921
  202MPD1    H3 3077   3.469   0.784   9.077 -1.3837 -0.1471 -0.4998
  202MPD1     N 3078   3.374   1.143   9.336 -0.0616  0.1458 -0.2696
  202MPD1    H5 3079   3.348   1.086   9.416  1.7558  1.7699  1.4668
  202MPD1    N1 3080   3.558   1.166   8.877 -0.5570  0.7979  0.3475
  202MPD1    H6 3081   3.544   1.120   8.787  2.2072  0.5610  0.0324
  202MPD1    H7 3082   3.523   1.261   8.867 -4.7512 -0.8355 -0.3111
  203MPD1     C 3083   2.031   2.692  12.778  0.0302  0.8388  1.4886
  203MPD1    C1 3084   1.982   2.574  12.837 -0.2126  0.6163 -0.0250
  203MPD1    C2 3085   2.029   2.454  12.804  0.7382 -0.0824 -0.1043
  203MPD1    C3 3086   2.111   2.434  12.692  0.1044 -0.4023  0.7651
  203MPD1    C4 3087   2.150   2.547  12.623 -0.2591 -0.3794 -0.2976
  203MPD1    C5 3088   2.117   2.674  12.670  0.8497 -0.2810  0.2483
  203MPD1     H 3089   1.993   2.363  12.853 -1.0226  1.5176  1.5842
  203MPD1    H1 3090   2.221   2.540  12.541 -0.9647 -0.5914 -0.8812
  203MPD1    H2 3091   2.005   2.793  12.809 -3.0666  1.0737 -1.8430
  203MPD1    H3 3092   2.172   2.752  12.617 -1.2709  0.3350 -1.0160
  203MPD1     N 3093   2.150   2.304  12.657 -0.5176  0.2914 -0.4712
  203MPD1    H5 3094   2.124   2.229  12.720 -1.2249  1.4581  0.6234
  203MPD1    N1 3095   1.908   2.580  12.960  0.1481 -0.5467 -0.1050
  203MPD1    H6 3096   1.853   2.664  12.977  0.6548 -0.4919  1.3153
  203MPD1    H7 3097   1.842   2.503  12.966  0.2870 -0.5622  1.2923
  204MPD1     C 3098   1.356   1.822  17.218 -1.2648  0.0691 -0.5154
  204MPD1    C1 3099   1.447   1.744  17.144 -0.5321 -0.1083  0.2535
  204MPD1    C2 3100   1.572   1.789  17.126 -0.7352  0.2962  0.8734
  204MPD1    C3 3101   1.623   1.892  17.196  0.7146 -0.4032  0.1296
  204MPD1    C4 3102   1.537   1.954  17.285 -0.4079 -0.1307  0.1801
  204MPD1    C5 3103   1.408   1.925  17.294 -0.2259 -0.3877  0.6176
  204MPD1     H 3104   1.623   1.749  17.039 -0.5600  0.1550  1.0427
  204MPD1    H1 3105   1.560   2.046  17.338  0.9649 -0.5347  0.2799
  204MPD1    H2 3106   1.249   1.809  17.222 -1.1845 -0.4400  0.1076
  204MPD1    H3 3107   1.342   1.995  17.344 -0.4831 -0.8174  0.8813
  204MPD1     N 3108   1.753   1.936  17.157 -0.2828  0.1497  0.5897
  204MPD1    H5 3109   1.814   1.882  17.095 -3.7172 -2.0410 -0.8787
  204MPD1    N1 3110   1.396   1.648  17.055 -0.1660  0.3853 -0.4945
  204MPD1    H6 3111   1.320   1.592  17.093  0.8762 -0.0093  1.0504
  204MPD1    H7 3112   1.354   1.695  16.975  1.8992 -0.5671 -2.1533
  205MPD1     C 3113   2.435   0.928  16.197  0.0720 -0.5650  0.1617
  205MPD1    C1 3114   2.560   0.979  16.233 -0.0133  0.4969  0.2525
  205MPD1    C2 3115   2.590   1.009  16.366  0.5926 -0.3238  0.0927
  205MPD1    C3 3116   2.492   1.005  16.465  0.3362  1.2084 -0.0203
  205MPD1    C4 3117   2.372   0.950  16.427 -0.5194 -0.1309  0.0779
  205MPD1    C5 3118   2.343   0.913  16.295 -0.9705 -0.1780  0.2324
  205MPD1     H 3119   2.690   1.045  16.391  0.6652 -0.1396 -0.4732
  205MPD1    H1 3120   2.294   0.939  16.501  0.1148 -0.3696  0.7181
  205MPD1    H2 3121   2.423   0.887  16.097 -0.9595  2.3307 -0.8985
  205MPD1    H3 3122   2.242   0.891  16.264 -1.0839 -1.6241  1.6347
  205MPD1     N 3123   2.513   1.049  16.590  0.1141  0.4259  0.6967
  205MPD1    H5 3124   2.430   1.073  16.643 -1.1396 -0.3883 -0.9067
  205MPD1    N1 3125   2.660   0.978  16.133 -0.4320 -0.3116 -0.2282
  205MPD1    H6 3126   2.732   1.047  16.154  0.3065 -1.4741  0.9826
  205MPD1    H7 3127   2.615   1.007  16.046 -1.0200 -0.3570  0.0647
  206MPD1     C 3128   2.387   0.330  16.698 -0.3786  0.2394 -0.0693
  206MPD1    C1 3129   2.456   0.294  16.584  0.3246  0.1664  0.4201
  206MPD1    C2 3130   2.383   0.271  16.465  0.2688 -0.1993  0.4145
  206MPD1    C3 3131   2.254   0.319  16.456 -0.3524  0.7595 -0.0544
  206MPD1    C4 3132   2.186   0.365  16.574  0.2675  0.7620 -0.9077
  206MPD1    C5 3133   2.260   0.373  16.687 -0.5449 -0.4468 -0.2153
  206MPD1     H 3134   2.429   0.223  16.379  3.7121  1.8937  1.0960
  206MPD1    H1 3135   2.082   0.397  16.572 -0.1250 -0.4649 -0.2942
  206MPD1    H2 3136   2.433   0.337  16.796 -1.2000  0.6879  0.2845
  206MPD1    H3 3137   2.225   0.413  16.782  0.1021 -1.3435  0.3968
  206MPD1     N 3138   2.182   0.309  16.339  0.4602  0.2467  0.9115
  206MPD1    H5 3139   2.091   0.353  16.342 -0.0844 -0.9087  0.9703
  206MPD1    N1 3140   2.580   0.229  16.592 -0.2881 -0.1730  0.1694
  206MPD1    H6 3141   2.632   0.236  16.504 -2.2410 -0.6525 -1.0358
  206MPD1    H7 3142   2.638   0.264  16.668 -0.4766  0.1856  0.1501
  207MPD1     C 3143   3.939   2.804   9.007  0.6134 -0.0932 -0.2952
  207MPD1    C1 3144   4.017   2.915   9.022  0.0688  0.2746  0.2149
  207MPD1    C2 3145   4.113   2.911   9.132  0.5675 -0.0814  0.2262
  207MPD1    C3 3146   4.108   2.802   9.227  0.0680  0.2650 -0.1551
  207MPD1    C4 3147   4.007   2.708   9.217 -0.6259 -0.2822 -0.3540
  207MPD1    C5 3148   3.927   2.709   9.106 -0.5124 -0.8701  0.2199
  207MPD1     H 3149   4.181   2.994   9.146  0.7064 -0.4430  1.6767
  207MPD1    H1 3150   4.003   2.620   9.280 -0.9727  0.4884  0.7146
  207MPD1    H2 3151   3.877   2.800   8.919  2.6681 -1.6559 -1.6664
  207MPD1    H3 3152   3.869   2.619   9.088 -0.4634 -0.5777 -1.4240
  207MPD1     N 3153   4.198   2.783   9.332 -0.0454  0.3556 -0.8967
  207MPD1    H5 3154   4.176   2.706   9.394  2.8566 -0.7474 -1.2438
  207MPD1    N1 3155   4.023   3.017   8.926 -0.1605 -0.5878  0.5290
  207MPD1    H6 3156   3.940   3.017   8.867  0.0315 -0.7104  0.2655
  207MPD1    H7 3157   4.033   3.108   8.972 -1.0348 -0.7746  1.0962
  208MPD1     C 3158   3.800   1.902   0.057  1.1005 -0.2683  0.4739
  208MPD1    C1 3159   3.740   1.911   0.178 -0.4161 -0.3620  0.3273
  208MPD1    C2 3160   3.635   1.822   0.203 -0.5409 -0.2382 -0.3562
  208MPD1    C3 3161   3.568   1.762   0.101 -0.3483  0.7061  0.3020
  208MPD1    C4 3162   3.618   1.767  17.666  0.4025  0.1152 -0.2915
  208MPD1    C5 3163   3.740   1.824  17.650  0.4820 -0.2766  0.5005
  208MPD1     H 3164   3.600   1.785   0.299 -1.3200 -3.5682 -1.9288
  208MPD1    H1 3165   3.591   1.693  17.590 -2.1152 -1.5563  2.2225
  208MPD1    H2 3166   3.894   1.948   0.030 -0.3054  2.7325  0.6997
  208MPD1    H3 3167   3.787   1.815  17.553  0.1283 -1.6634  0.4636
  208MPD1     N 3168   3.449   1.695   0.133  0.1484  0.6160  0.6823
  208MPD1    H5 3169   3.418   1.710   0.229 -1.3080  0.2211  0.2666
  208MPD1    N1 3170   3.801   1.968   0.290  0.5367 -0.0738  0.2419
  208MPD1    H6 3171   3.731   1.993   0.360  2.9681  0.7128  2.3734
  208MPD1    H7 3172   3.859   2.047   0.261  0.3048  0.8616  2.3315
  209MPD1     C 3173   4.411   1.227  10.343 -0.0157 -0.0619 -0.1033
  209MPD1    C1 3174   4.485   1.293  10.438 -0.5591  0.5959  0.3760
  209MPD1    C2 3175   4.567   1.400  10.403 -0.6788  0.2746 -0.1985
  209MPD1    C3 3176   4.552   1.447  10.268 -0.5948 -0.1511  0.3810
  209MPD1    C4 3177   4.483   1.378  10.177 -0.1488 -0.0271 -0.1998
  209MPD1    C5 3178   4.415   1.270  10.217  0.4311  0.0816  0.3169
  209MPD1     H 3179   4.633   1.436  10.482 -0.2259  1.3951 -1.0909
  209MPD1    H1 3180   4.475   1.405  10.072 -0.8840 -0.2563 -0.1984
  209MPD1    H2 3181   4.357   1.134  10.354  1.9969 -1.3674 -1.2309
  209MPD1    H3 3182   4.354   1.217  10.145 -1.7392  0.6901  1.7040
  209MPD1     N 3183   4.620   1.567  10.230 -0.2331  0.4606 -1.0369
  209MPD1    H5 3184   4.685   1.594  10.302  0.4596 -1.7331 -0.8339
  209MPD1    N1 3185   4.495   1.237  10.561  0.9953  0.8226  0.2434
  209MPD1    H6 3186   4.501   1.311  10.631  0.4388 -0.0197  1.1841
  209MPD1    H7 3187   4.415   1.177  10.578  0.2297  1.3999 -1.3528
  210MPD1     C 3188   4.534   2.385  10.671 -0.1690  0.8976 -1.0382
  210MPD1    C1 3189   4.621   2.281  10.686  0.6406 -0.2861 -0.1283
  210MPD1    C2 3190   4.668   2.204  10.576  0.8027  0.7827 -0.0750
  210MPD1    C3 3191   4.622   2.229  10.453  1.0427  0.2651  0.1935
  210MPD1    C4 3192   4.534   2.336  10.440 -0.0500 -0.2616 -0.4251
  210MPD1    C5 3193   4.486   2.408  10.549  0.1315 -0.1057  0.0236
  210MPD1     H 3194   0.006   2.120  10.603 -1.4375 -1.0471 -0.6844
  210MPD1    H1 3195   4.497   2.357  10.340  0.5900 -1.3849 -0.8959
  210MPD1    H2 3196   4.504   2.454  10.750 -0.2870 -4.5239  3.6103
  210MPD1    H3 3197   4.412   2.486  10.536  1.5651  0.8229 -2.7249
  210MPD1     N 3198   4.652   2.150  10.339 -0.2357 -0.1807  0.1826
  210MPD1    H5 3199   4.620   2.169  10.245  0.3398  0.2508  0.0715
  210MPD1    N1 3200   4.663   2.255  10.818  0.0195 -0.5284  0.3075
  210MPD1    H6 3201   4.646   2.330  10.884  0.7746 -0.7871  0.7950
  210MPD1    H7 3202   0.034   2.215  10.820 -0.4325 -1.7053 -1.7202
  211MPD1     C 3203   2.928   1.442  16.792  0.2895  0.3532 -0.4477
  211MPD1    C1 3204   2.885   1.568  16.835 -0.4225  0.1019 -0.6372
  211MPD1    C2 3205   2.771   1.624  16.780  0.0811  0.6705  0.2734
  211MPD1    C3 3206   2.706   1.563  16.678  0.5662 -0.9958  0.2416
  211MPD1    C4 3207   2.749   1.443  16.634 -0.1499 -0.5357 -0.1313
  211MPD1    C5 3208   2.858   1.380  16.690 -0.4211 -0.1706  0.1931
  211MPD1     H 3209   2.735   1.718  16.820  1.8776  1.8113 -0.8183
  211MPD1    H1 3210   2.699   1.397  16.550  0.4413  0.0302 -0.7944
  211MPD1    H2 3211   3.021   1.393  16.817  0.2359  0.7554  0.5347
  211MPD1    H3 3212   2.902   1.290  16.649 -0.4141 -0.0304 -0.1047
  211MPD1     N 3213   2.588   1.630  16.632 -0.4275  0.5456  0.8967
  211MPD1    H5 3214   2.558   1.713  16.683 -1.8994 -1.1078  2.7297
  211MPD1    N1 3215   2.976   1.643  16.907  0.0568  0.0049 -0.7761
  211MPD1    H6 3216   3.061   1.606  16.949 -0.2920  1.1307  0.9638
  211MPD1    H7 3217   2.938   1.725  16.954 -0.6337 -1.6668  1.5809
  212MPD1     C 3218   1.668   0.761  16.523 -0.1073 -0.1843 -0.2755
  212MPD1    C1 3219   1.667   0.671  16.421  0.0404  0.5377 -0.0242
  212MPD1    C2 3220   1.602   0.548  16.442  0.3114 -0.1489 -0.5117
  212MPD1    C3 3221   1.546   0.520  16.566  0.8881  0.7268  0.0201
  212MPD1    C4 3222   1.556   0.617  16.667 -0.5989 -0.8972 -0.2906
  212MPD1    C5 3223   1.622   0.732  16.647 -0.6931  0.4879  0.5864
  212MPD1     H 3224   1.609   0.467  16.370  2.8172 -1.6349  1.3658
  212MPD1    H1 3225   1.526   0.600  16.770 -0.1733  0.3697  0.0535
  212MPD1    H2 3226   1.714   0.858  16.507  0.9679 -0.8072 -1.0354
  212MPD1    H3 3227   1.641   0.801  16.728  0.3208  2.8791 -1.7103
  212MPD1     N 3228   1.487   0.401  16.602 -0.4873  0.0861 -0.2586
  212MPD1    H5 3229   1.444   0.398  16.694 -0.1633  1.3269 -0.0623
  212MPD1    N1 3230   1.743   0.698  16.305 -0.1479 -1.0963  0.7052
  212MPD1    H6 3231   1.722   0.633  16.229 -0.1556 -0.7319  0.4008
  212MPD1    H7 3232   1.739   0.794  16.273  1.5054 -1.3874 -0.3464
  213MPD1     C 3233   4.261   1.012  15.669 -0.8188  0.4892  0.1700
  213MPD1    C1 3234   4.145   0.962  15.621  0.2115 -0.5195 -0.2287
  213MPD1    C2 3235   4.152   0.942  15.483 -0.2681  0.3335  0.0502
  213MPD1    C3 3236   4.237   1.008  15.398 -0.0048  0.3295 -1.1445
  213MPD1    C4 3237   4.323   1.097  15.458 -0.7945 -0.5087  0.2035
  213MPD1    C5 3238   4.340   1.085  15.589  0.6848  0.6551 -0.6059
  213MPD1     H 3239   4.078   0.881  15.433 -0.7988  1.1957 -0.2329
  213MPD1    H1 3240   4.387   1.167  15.405 -0.6261 -1.1316 -0.4188
  213MPD1    H2 3241   4.278   1.034  15.774  1.8685  0.3363 -0.2413
  213MPD1    H3 3242   4.416   1.142  15.642  1.9539 -0.5342 -1.1540
  213MPD1     N 3243   4.211   0.999  15.262  0.1327  0.5341 -0.3195
  213MPD1    H5 3244   4.147   0.923  15.242  0.4426 -0.1403  1.3134
  213MPD1    N1 3245   4.082   0.877  15.712 -0.1511 -0.0683  0.1121
  213MPD1    H6 3246   4.076   0.925  15.802  0.3404 -1.3976  0.8664
  213MPD1    H7 3247   3.986   0.862  15.681  0.0765 -1.7915  0.2486
  214MPD1     C 3248   3.850   0.426  14.554 -0.2590  0.2529 -0.6758
  214MPD1    C1 3249   3.774   0.476  14.660  0.6261  0.0728  0.5419
  214MPD1    C2 3250   3.844   0.567  14.738  0.1816  0.2058 -0.5475
  214MPD1    C3 3251   3.966   0.628  14.691  0.2246 -0.1788  0.1202
  214MPD1    C4 3252   4.021   0.589  14.573  0.6198 -0.3328 -0.0331
  214MPD1    C5 3253   3.968   0.486  14.513  0.4256  0.3501  0.7332
  214MPD1     H 3254   3.790   0.597  14.827  0.3517  0.7462 -0.6277
  214MPD1    H1 3255   4.114   0.633  14.539  0.3570  1.4072  1.4720
  214MPD1    H2 3256   3.804   0.343  14.501  1.3651 -0.9777 -0.1444
  214MPD1    H3 3257   4.028   0.445  14.432 -0.9467 -0.0524 -0.0842
  214MPD1     N 3258   4.035   0.728  14.763 -0.6899 -0.4779 -0.3615
  214MPD1    H5 3259   4.123   0.742  14.714  0.0760 -0.6780  0.9519
  214MPD1    N1 3260   3.662   0.409  14.717  0.1347 -0.5975  0.3509
  214MPD1    H6 3261   3.594   0.461  14.772  1.3755 -0.9897  2.2702
  214MPD1    H7 3262   3.605   0.356  14.651 -1.0448 -0.1716  1.0317
  215MPD1     C 3263   0.427   1.983  10.317  0.2196 -0.5828 -0.1881
  215MPD1    C1 3264   0.373   1.998  10.450 -0.8869 -0.4093  0.0693
  215MPD1    C2 3265   0.312   2.113  10.482  0.9172  0.6121 -0.0108
  215MPD1    C3 3266   0.295   2.213  10.382  0.7408  0.2796  0.0044
  215MPD1    C4 3267   0.349   2.194  10.252  0.0714 -0.0232 -0.2401
  215MPD1    C5 3268   0.408   2.068  10.217 -0.2477  0.8101  0.2112
  215MPD1     H 3269   0.277   2.145  10.580  1.8877  0.9872  0.2185
  215MPD1    H1 3270   0.351   2.267  10.172 -0.9477 -0.7034 -0.8970
  215MPD1    H2 3271   0.486   1.899  10.283  0.2864  0.3780 -2.4237
  215MPD1    H3 3272   0.452   2.060  10.119 -1.7425 -0.8982 -0.3197
  215MPD1     N 3273   0.238   2.337  10.421  0.2355  0.2047  0.3135
  215MPD1    H5 3274   0.234   2.365  10.519  1.5010 -0.4181  0.5483
  215MPD1    N1 3275   0.407   1.899  10.542 -0.2698  0.0216 -0.5500
  215MPD1    H6 3276   0.439   1.816  10.491  1.1966 -0.1754  0.6822
  215MPD1    H7 3277   0.321   1.889  10.594  0.8883  0.4632  1.4606
  216MPD1     C 3278   2.444   3.067  16.021  0.6556  0.0917 -0.3809
  216MPD1    C1 3279   2.343   3.156  16.004  0.1556 -1.2256 -0.5025
  216MPD1    C2 3280   2.303   3.223  16.117 -0.0083 -0.0848  0.2362
  216MPD1    C3 3281   2.365   3.206  16.240  0.3841  0.0958  0.3272
  216MPD1    C4 3282   2.474   3.122  16.254 -0.0365  0.2973 -0.2659
  216MPD1    C5 3283   2.512   3.048  16.146 -0.3482 -0.0219  0.9185
  216MPD1     H 3284   2.214   3.285  16.113  0.0184  0.0721  2.1287
  216MPD1    H1 3285   2.531   3.109  16.345  1.6488 -0.7564 -1.4811
  216MPD1    H2 3286   2.479   3.016  15.931  2.7144 -0.3842  0.6868
  216MPD1    H3 3287   2.589   2.972  16.156  1.3316  1.5412 -0.1110
  216MPD1     N 3288   2.304   3.266  16.354  0.2286 -0.5597  1.0085
  216MPD1    H5 3289   2.224   3.327  16.340 -0.4439 -1.6959 -0.1266
  216MPD1    N1 3290   2.288   3.180  15.875 -0.2831  0.2850 -0.2521
  216MPD1    H6 3291   2.192   3.213  15.869 -0.3612 -0.3075 -2.2124
  216MPD1    H7 3292   2.301   3.103  15.810  0.6503 -1.6094  2.1312
  217MPD1     C 3293   2.353   1.582   8.045  0.1755  0.0275 -0.0535
  217MPD1    C1 3294   2.253   1.609   8.138  0.5652  0.4020  0.2404
  217MPD1    C2 3295   2.224   1.492   8.217  1.0120 -0.0276  0.1257
  217MPD1    C3 3296   2.295   1.377   8.218  0.4722  0.6007  0.1531
  217MPD1    C4 3297   2.406   1.368   8.137 -0.4289  0.1777 -0.7481
  217MPD1    C5 3298   2.426   1.468   8.046 -0.1344 -1.8119  0.0437
  217MPD1     H 3299   2.144   1.504   8.289  1.2271  1.5389  0.0854
  217MPD1    H1 3300   2.486   1.295   8.142 -0.7078 -0.0220  0.8233
  217MPD1    H2 3301   2.365   1.647   7.959  2.4071 -1.3757 -0.7794
  217MPD1    H3 3302   2.514   1.461   7.984 -0.9295 -0.9882 -1.1835
  217MPD1     N 3303   2.271   1.276   8.316  0.0282  0.0992 -0.0603
  217MPD1    H5 3304   2.344   1.207   8.329 -0.8205 -0.6783  0.5892
  217MPD1    N1 3305   2.157   1.709   8.119  0.4756  0.2562  0.2019
  217MPD1    H6 3306   2.187   1.797   8.077  0.8920 -0.6997 -1.4791
  217MPD1    H7 3307   2.118   1.729   8.212  1.9502 -0.0131  0.8706
  218MPD1     C 3308   4.004   2.541  12.185 -0.4751 -0.6530 -0.1900
  218MPD1    C1 3309   3.974   2.414  12.225 -0.5248  0.1994  0.5323
  218MPD1    C2 3310   4.079   2.322  12.242  0.4218  0.3839  0.3362
  218MPD1    C3 3311   4.202   2.352  12.191 -0.7436  0.1959 -0.9586
  218MPD1    C4 3312   4.235   2.474  12.137 -0.0870  0.1882  0.1405
  218MPD1    C5 3313   4.134   2.567  12.138  0.6545 -0.2500  0.1775
  218MPD1     H 3314   4.062   2.220  12.274 -0.0884 -0.0346 -1.3058
  218MPD1    H1 3315   4.337   2.508  12.122  0.4731 -0.3640  2.7760
  218MPD1    H2 3316   3.940   2.628  12.174 -1.8646 -1.5602  0.7105
  218MPD1    H3 3317   4.154   2.670  12.110  0.9981 -0.8113 -1.6585
  218MPD1     N 3318   4.299   2.251  12.206  0.2965 -0.2916 -0.5577
  218MPD1    H5 3319   4.269   2.163  12.246 -0.6606  0.9805  1.5067
  218MPD1    N1 3320   3.851   2.389  12.284 -0.2607 -0.4194  0.2978
  218MPD1    H6 3321   3.821   2.292  12.294 -2.7236  0.4122  0.8738
  218MPD1    H7 3322   3.782   2.443  12.233 -0.7507  1.2876  2.8443
  219MPD1     C 3323   0.124   1.510  11.710 -0.3324 -0.4754 -0.2935
  219MPD1    C1 3324   0.176   1.639  11.719  0.0958 -0.6277  0.3240
  219MPD1    C2 3325   0.131   1.724  11.821  0.4763  0.1600 -0.3338
  219MPD1    C3 3326   0.031   1.684  11.908 -0.3018  0.6963  0.1966
  219MPD1    C4 3327   4.705   1.557  11.905 -0.0474 -0.0259 -0.4486
  219MPD1    C5 3328   0.041   1.472  11.813  0.1708  0.0491 -0.0770
  219MPD1     H 3329   0.171   1.824  11.826 -0.1356  0.4736 -1.7507
  219MPD1    H1 3330   4.615   1.528  11.959 -0.5341 -1.7032 -2.1128
  219MPD1    H2 3331   0.149   1.442  11.630  0.6753  0.1980 -0.5441
  219MPD1    H3 3332   4.705   1.383  11.798  0.7606 -0.2570 -0.5730
  219MPD1     N 3333   4.693   1.772  11.995 -0.4165 -0.4295 -0.2915
  219MPD1    H5 3334   4.627   1.733  12.062 -0.3051 -0.1122  0.0030
  219MPD1    N1 3335   0.282   1.671  11.629 -0.4888  0.0470  0.2413
  219MPD1    H6 3336   0.261   1.615  11.547  0.6991  0.5679 -0.4091
  219MPD1    H7 3337   0.282   1.771  11.609 -1.2719  0.1734  0.8511
  220MPD1     C 3338   4.344   1.798  10.333 -0.0526  0.2713 -0.2069
  220MPD1    C1 3339   4.337   1.939  10.351  0.5745 -0.8593  0.2745
  220MPD1    C2 3340   4.257   2.013  10.264  0.7623 -1.0236  0.2603
  220MPD1    C3 3341   4.212   1.956  10.143  0.3296 -0.3928 -0.1381
  220MPD1    C4 3342   4.239   1.825  10.119 -0.8261 -0.6231  0.3050
  220MPD1    C5 3343   4.306   1.744  10.214 -0.6584 -0.3282  0.3334
  220MPD1     H 3344   4.233   2.116  10.288  3.5920 -0.1691 -0.5588
  220MPD1    H1 3345   4.202   1.786  10.025 -3.5670  0.5790  0.9060
  220MPD1    H2 3346   4.384   1.734  10.410 -0.9932 -0.0523  0.0135
  220MPD1    H3 3347   4.309   1.637  10.203 -0.2665 -0.2453 -0.3428
  220MPD1     N 3348   4.138   2.039  10.050  0.2766 -0.7597  0.1560
  220MPD1    H5 3349   4.136   2.137  10.074  2.4325 -1.0514  1.4980
  220MPD1    N1 3350   4.365   1.986  10.480  0.6687  0.0962 -0.9028
  220MPD1    H6 3351   4.377   2.087  10.482 -1.0207  0.2857 -0.4829
  220MPD1    H7 3352   4.437   1.932  10.528 -0.4222 -0.8724 -0.3582
  221MPD1     C 3353   1.950   1.489  16.971  1.8341  0.3577  0.1536
  221MPD1    C1 3354   2.083   1.446  16.950 -0.5232  0.2494 -0.2825
  221MPD1    C2 3355   2.118   1.361  16.842 -0.2847  0.1921 -0.0204
  221MPD1    C3 3356   2.027   1.348  16.735 -0.0122  0.7667  0.3439
  221MPD1    C4 3357   1.900   1.394  16.755 -1.0256  0.4839  0.1286
  221MPD1    C5 3358   1.862   1.457  16.870  0.2418 -0.1332 -0.9241
  221MPD1     H 3359   2.215   1.314  16.853 -0.1717  0.7468  1.3463
  221MPD1    H1 3360   1.828   1.388  16.674 -1.4590 -0.3268  0.5722
  221MPD1    H2 3361   1.913   1.542  17.057 -0.6850 -0.3470 -0.5047
  221MPD1    H3 3362   1.758   1.489  16.873  1.2063  2.6191  2.7719
  221MPD1     N 3363   2.062   1.289  16.612  0.9995  0.2914 -0.5014
  221MPD1    H5 3364   1.992   1.302  16.540 -2.0869 -2.3956  2.0190
  221MPD1    N1 3365   2.182   1.472  17.045  0.2656  0.1351  0.4801
  221MPD1    H6 3366   2.272   1.457  17.000 -0.2825 -0.6325 -0.3774
  221MPD1    H7 3367   2.176   1.568  17.077 -1.0103 -0.1329  1.0860
  222MPD1     C 3368   0.852   1.144  16.620  0.2413  0.6466  0.6462
  222MPD1    C1 3369   0.947   1.075  16.554 -0.0689  0.7059  0.4699
  222MPD1    C2 3370   1.044   1.013  16.631 -0.7110  1.1483  0.0144
  222MPD1    C3 3371   1.055   1.043  16.766 -0.5451 -0.4336 -0.6492
  222MPD1    C4 3372   0.958   1.123  16.829 -0.1353  0.1699  0.7445
  222MPD1    C5 3373   0.853   1.164  16.757  0.2822  0.6958  0.9679
  222MPD1     H 3374   1.120   0.951  16.584  0.3615  1.1321  1.7465
  222MPD1    H1 3375   0.969   1.137  16.936 -1.6079 -1.8486  1.1701
  222MPD1    H2 3376   0.769   1.197  16.575 -0.2950  1.1225  2.1943
  222MPD1    H3 3377   0.774   1.220  16.805 -1.0415  1.0192 -1.5797
  222MPD1     N 3378   1.159   0.993  16.848  0.0987  0.4098  0.0821
  222MPD1    H5 3379   1.164   1.014  16.948  1.2486 -1.0688  0.3449
  222MPD1    N1 3380   0.948   1.082  16.415 -0.2221 -0.5169 -0.1281
  222MPD1    H6 3381   0.854   1.091  16.377 -0.1740  0.6092  0.0349
  222MPD1    H7 3382   0.988   0.997  16.376  0.7028  0.8731 -2.2248
  223MPD1     C 3383   1.658   0.083  17.203  0.5777 -0.0539  0.3029
  223MPD1    C1 3384   1.662   0.175  17.301  1.0141 -0.1166 -0.2742
  223MPD1    C2 3385   1.601   0.295  17.279 -0.0295  0.0243 -0.5213
  223MPD1    C3 3386   1.542   0.332  17.158  0.0469  0.1775 -0.6142
  223MPD1    C4 3387   1.554   0.238  17.052  0.0786 -0.5182 -0.1181
  223MPD1    C5 3388   1.607   0.112  17.084 -0.1481  0.3206  0.5596
  223MPD1     H 3389   1.606   0.367  17.360 -0.7375  0.7130 -1.0798
  223MPD1    H1 3390   1.502   0.248  16.958 -1.4491 -1.1900  0.6350
  223MPD1    H2 3391   1.711   4.711  17.214 -1.2517 -1.2832 -1.5694
  223MPD1    H3 3392   1.613   0.036  17.007 -1.4317  0.0412  0.7260
  223MPD1     N 3393   1.479   0.457  17.144 -0.7746 -0.7724 -0.1548
  223MPD1    H5 3394   1.485   0.515  17.227  0.7589  0.2290 -0.9679
  223MPD1    N1 3395   1.687   0.131  17.430 -0.2440 -0.2349  0.2426
  223MPD1    H6 3396   1.689   0.205  17.501 -0.4633  1.9519 -2.0316
  223MPD1    H7 3397   1.762   0.067  17.453  1.5193  2.5031  2.1962
  224MPD1     C 3398   1.430   1.757   8.861 -0.3002  0.3633  0.1740
  224MPD1    C1 3399   1.488   1.637   8.906  0.0672  1.2071 -0.1565
  224MPD1    C2 3400   1.613   1.642   8.959 -0.3412  0.6064  0.5045
  224MPD1    C3 3401   1.672   1.768   8.986 -0.4779 -0.4579  0.5239
  224MPD1    C4 3402   1.608   1.887   8.954 -0.2156 -0.6779  0.2233
  224MPD1    C5 3403   1.493   1.873   8.887  0.4286  0.4141  0.4868
  224MPD1     H 3404   1.668   1.553   8.988 -2.6488 -1.6729 -2.0979
  224MPD1    H1 3405   1.645   1.985   8.982 -1.6899 -0.2675  0.7397
  224MPD1    H2 3406   1.330   1.768   8.821 -0.4352 -0.0514  0.4044
  224MPD1    H3 3407   1.450   1.963   8.843 -1.5414 -0.6438  0.2330
  224MPD1     N 3408   1.800   1.789   9.042 -0.1847 -0.3723  0.3789
  224MPD1    H5 3409   1.834   1.882   9.060  0.5169 -0.9300  1.9300
  224MPD1    N1 3410   1.422   1.515   8.886 -0.7397  0.6065  0.9392
  224MPD1    H6 3411   1.437   1.443   8.956 -1.8590  0.4762  1.0494
  224MPD1    H7 3412   1.326   1.532   8.856 -0.9994 -1.0294  0.8161
  225MPD1     C 3413   4.253   2.841  11.902 -0.7175 -0.2690  0.5358
  225MPD1    C1 3414   4.170   2.742  11.852 -0.5252  0.3277 -1.1385
  225MPD1    C2 3415   4.035   2.773  11.862 -0.5923  0.1197 -0.2128
  225MPD1    C3 3416   3.987   2.876  11.944 -0.1054  0.8838  0.4061
  225MPD1    C4 3417   4.077   2.962  12.016 -0.2596 -0.5773  0.1395
  225MPD1    C5 3418   4.207   2.943  11.988 -0.0171  0.6244 -0.1983
  225MPD1     H 3419   3.967   2.697  11.825 -0.9834 -0.5374  1.8695
  225MPD1    H1 3420   4.041   3.048  12.072 -0.7784  0.3571 -1.6263
  225MPD1    H2 3421   4.360   2.830  11.914 -0.7617 -1.0270  0.1776
  225MPD1    H3 3422   4.273   3.005  12.048 -0.4141 -0.7598  1.6900
  225MPD1     N 3423   3.857   2.902  11.975 -0.0958  0.3555 -0.6280
  225MPD1    H5 3424   3.847   2.978  12.042  2.7476 -0.6869  0.9580
  225MPD1    N1 3425   4.205   2.633  11.771 -0.0313 -0.1524  0.4261
  225MPD1    H6 3426   4.286   2.589  11.813 -0.0910 -0.5838  0.0906
  225MPD1    H7 3427   4.136   2.558  11.778 -1.0089  0.5879 -1.2914
  226MPD1     C 3428   1.583   1.538   9.444  0.8137  0.8073  0.5515
  226MPD1    C1 3429   1.663   1.626   9.514 -0.0547  0.0486 -0.4775
  226MPD1    C2 3430   1.635   1.759   9.498  0.1671  0.1266  0.0599
  226MPD1    C3 3431   1.548   1.808   9.397  0.3999 -0.0596  0.6778
  226MPD1    C4 3432   1.498   1.711   9.307 -0.4343  0.1045  0.7329
  226MPD1    C5 3433   1.508   1.576   9.334 -0.1606 -0.5897  0.2107
  226MPD1     H 3434   1.689   1.828   9.561  1.0775 -2.8104  2.4822
  226MPD1    H1 3435   1.449   1.744   9.216 -0.4595 -3.3513 -0.5150
  226MPD1    H2 3436   1.591   1.431   9.460  0.6307  0.4799 -1.4945
  226MPD1    H3 3437   1.456   1.507   9.268 -0.0289 -1.2595  0.8194
  226MPD1     N 3438   1.544   1.948   9.373 -0.1781  0.4076  0.4510
  226MPD1    H5 3439   1.583   2.011   9.442  0.8587 -0.6097  0.7820
  226MPD1    N1 3440   1.736   1.592   9.631  0.6564 -0.4493  0.1035
  226MPD1    H6 3441   1.784   1.503   9.619 -3.0375 -2.4940  0.4542
  226MPD1    H7 3442   1.809   1.661   9.645 -0.6993  1.1215 -0.5232
  227MPD1     C 3443   0.839   2.531   8.991  0.6471  0.2738 -0.3026
  227MPD1    C1 3444   0.881   2.404   8.950  0.3021 -0.5861  0.5896
  227MPD1    C2 3445   1.005   2.359   8.994  0.1620  0.5939 -0.3412
  227MPD1    C3 3446   1.086   2.442   9.070 -0.3349  0.4541 -0.0255
  227MPD1    C4 3447   1.037   2.559   9.119 -0.2512  0.2040  0.6210
  227MPD1    C5 3448   0.915   2.596   9.077  0.6536  0.2839  0.3434
  227MPD1     H 3449   1.037   2.260   8.963 -0.5868  0.2265  0.0641
  227MPD1    H1 3450   1.085   2.633   9.181 -0.6630 -0.2733  1.5109
  227MPD1    H2 3451   0.742   2.574   8.967  0.6787  1.2471  1.2914
  227MPD1    H3 3452   0.885   2.694   9.113  1.3185 -0.2884  2.4658
  227MPD1     N 3453   1.203   2.386   9.108  0.6710  0.4418  0.3331
  227MPD1    H5 3454   1.236   2.298   9.069  0.1732  0.3174  0.1903
  227MPD1    N1 3455   0.816   2.332   8.851  0.4995 -0.1847 -0.4710
  227MPD1    H6 3456   0.855   2.237   8.848 -0.1879 -0.4747 -0.2017
  227MPD1    H7 3457   0.715   2.328   8.847  0.4806 -1.3462  1.0848
  228MPD1     C 3458   0.639   0.700  13.267 -0.8472  0.0844 -0.6679
  228MPD1    C1 3459   0.605   0.563  13.263  0.0964  0.0172 -0.7021
  228MPD1    C2 3460   0.501   0.513  13.180 -0.8010 -0.0439 -0.2150
  228MPD1    C3 3461   0.443   0.593  13.085 -0.3406 -0.6763  0.1108
  228MPD1    C4 3462   0.484   0.730  13.086 -0.1717  0.1138  0.2560
  228MPD1    C5 3463   0.570   0.779  13.176 -0.7300 -0.6391  0.0021
  228MPD1     H 3464   0.468   0.410  13.183 -1.0477  0.0388 -0.0256
  228MPD1    H1 3465   0.452   0.796  13.006 -2.2220  0.2325  1.1678
  228MPD1    H2 3466   0.719   0.739  13.328 -1.1536 -0.2047 -0.0783
  228MPD1    H3 3467   0.592   0.885  13.173  2.5754 -1.3589 -0.7772
  228MPD1     N 3468   0.345   0.537  12.998 -0.3073  0.6482  0.5505
  228MPD1    H5 3469   0.312   0.443  13.018  0.9442  0.5397  2.1026
  228MPD1    N1 3470   0.654   0.483  13.367 -0.4596  0.0892 -0.0867
  228MPD1    H6 3471   0.727   0.531  13.418  0.9099 -0.7713 -1.2442
  228MPD1    H7 3472   0.686   0.392  13.336 -0.5690 -0.7649  2.3461
  229MPD1     C 3473   0.161   4.223  14.678  0.3850  0.3140  0.6742
  229MPD1    C1 3474   0.251   4.243  14.579  0.1485 -0.3793 -0.0822
  229MPD1    C2 3475   0.378   4.178  14.598  0.1139  0.1183 -0.1760
  229MPD1    C3 3476   0.414   4.120  14.724  0.2943 -0.5026 -0.5405
  229MPD1    C4 3477   0.327   4.115  14.826  0.8925 -0.5149 -0.0440
  229MPD1    C5 3478   0.200   4.164  14.801 -0.0388  0.4155 -0.5510
  229MPD1     H 3479   0.447   4.170  14.515 -0.0772 -0.1391 -0.3074
  229MPD1    H1 3480   0.340   4.045  14.908 -3.9989  1.2384  2.2938
  229MPD1    H2 3481   0.055   4.244  14.667  0.7091  1.5353 -0.0348
  229MPD1    H3 3482   0.122   4.137  14.871 -0.1387  0.6164 -0.5835
  229MPD1     N 3483   0.539   4.045  14.740 -0.0233 -0.6050  0.2261
  229MPD1    H5 3484   0.551   3.992  14.825 -1.5304 -0.2051  0.6960
  229MPD1    N1 3485   0.202   4.282  14.449 -0.5856 -0.7108 -0.5336
  229MPD1    H6 3486   0.125   4.347  14.459  1.0082  0.9938  0.8551
  229MPD1    H7 3487   0.272   4.327  14.390  0.9014 -1.1041  0.9184
  230MPD1     C 3488   0.929   3.307  15.225  0.4925 -0.3548  0.4812
  230MPD1    C1 3489   1.039   3.351  15.160  0.4231 -0.0983  0.0603
  230MPD1    C2 3490   1.025   3.444  15.056 -0.3928 -0.6637  0.1357
  230MPD1    C3 3491   0.903   3.517  15.048  0.6045 -0.4236  0.6154
  230MPD1    C4 3492   0.796   3.481  15.132 -0.7758 -0.4665  0.6210
  230MPD1    C5 3493   0.810   3.371  15.215 -0.3099 -0.3257 -0.1255
  230MPD1     H 3494   1.101   3.460  14.980  0.4376 -2.4831  0.5993
  230MPD1    H1 3495   0.703   3.536  15.138 -0.2841  0.4215  0.2334
  230MPD1    H2 3496   0.926   3.219  15.287 -3.3190  0.6446  1.7252
  230MPD1    H3 3497   0.717   3.355  15.267 -1.7236  1.8150 -2.0299
  230MPD1     N 3498   0.902   3.613  14.950 -0.2065  0.2520 -0.2175
  230MPD1    H5 3499   0.986   3.615  14.894  0.0363 -3.6783  0.0100
  230MPD1    N1 3500   1.153   3.272  15.156  0.0863  0.0700 -0.6981
  230MPD1    H6 3501   1.181   3.238  15.247 -0.2964  0.7870 -0.3122
  230MPD1    H7 3502   1.236   3.328  15.138  1.9385 -2.7725 -0.9843
  231MPD1     C 3503   3.547   1.322  15.433  0.2343  0.4944  0.2406
  231MPD1    C1 3504   3.516   1.307  15.302 -0.5218  0.3961  0.4040
  231MPD1    C2 3505   3.619   1.322  15.210 -0.4611 -0.1791 -0.4693
  231MPD1    C3 3506   3.750   1.344  15.248  0.4296  0.3545  0.3045
  231MPD1    C4 3507   3.780   1.363  15.383 -0.9385 -0.0163  0.8048
  231MPD1    C5 3508   3.673   1.349  15.474 -0.3146 -0.4775  0.5432
  231MPD1     H 3509   3.600   1.307  15.104 -2.7747 -2.7577  0.3334
  231MPD1    H1 3510   3.880   1.378  15.422 -1.0948  2.5550  0.1935
  231MPD1    H2 3511   3.471   1.294  15.506 -0.1435 -2.7122 -1.3817
  231MPD1    H3 3512   3.692   1.344  15.581  0.8419  1.2617  0.4291
  231MPD1     N 3513   3.847   1.368  15.144 -0.2470 -0.4149 -0.6119
  231MPD1    H5 3514   3.811   1.360  15.049  2.5409 -1.3107 -1.5768
  231MPD1    N1 3515   3.381   1.279  15.266  0.0032  0.5109 -0.0608
  231MPD1    H6 3516   3.353   1.196  15.319 -1.8858 -0.7488 -3.0068
  231MPD1    H7 3517   3.379   1.260  15.166 -0.4520 -0.0761  0.0583
  232MPD1     C 3518   1.536   3.349  17.564 -0.1795 -0.2046 -0.3632
  232MPD1    C1 3519   1.513   3.226  17.634  0.1508 -0.1932  0.0985
  232MPD1    C2 3520   1.390   3.190  17.678  0.2764  0.3872 -0.1367
  232MPD1    C3 3521   1.288   3.284  17.658  0.2552  1.3270 -0.0031
  232MPD1    C4 3522   1.311   3.415  17.619  0.3648  0.0892 -0.5445
  232MPD1    C5 3523   1.436   3.444  17.563  0.7937 -0.9301 -0.1039
  232MPD1     H 3524   1.366   3.087   0.011  0.7193  0.5526  0.9259
  232MPD1    H1 3525   1.242   3.499  17.617 -1.1744 -1.1893 -0.6669
  232MPD1    H2 3526   1.631   3.382  17.523 -0.2198  0.1498 -0.1700
  232MPD1    H3 3527   1.464   3.541  17.524  1.3234 -1.6388 -1.5048
  232MPD1     N 3528   1.154   3.248  17.690 -0.1742  0.7697 -0.2083
  232MPD1    H5 3529   1.135   3.160   0.045 -0.1954 -0.6447 -2.8088
  232MPD1    N1 3530   1.612   3.124  17.631  0.1425  0.1546  0.0046
  232MPD1    H6 3531   1.699   3.170  17.657 -0.2915  0.4909  0.8552
  232MPD1    H7 3532   1.597   3.048   0.003 -2.7849 -1.4511 -2.4974
  233MPD1     C 3533   2.647   2.902   1.993  0.5628  0.8385 -1.0891
  233MPD1    C1 3534   2.779   2.942   2.012 -0.0059 -0.2832 -0.0921
  233MPD1    C2 3535   2.878   2.871   1.947 -0.1823  0.1308 -0.2408
  233MPD1    C3 3536   2.849   2.734   1.915  0.1940  0.2853  0.6516
  233MPD1    C4 3537   2.722   2.691   1.912  0.7174  0.6486 -0.2617
  233MPD1    C5 3538   2.622   2.779   1.946  0.4723 -0.1788  0.1792
  233MPD1     H 3539   2.976   2.916   1.937  0.2071 -0.3263  1.5087
  233MPD1    H1 3540   2.692   2.593   1.879  1.6119 -0.2784  1.6637
  233MPD1    H2 3541   2.558   2.959   2.020  0.1558  0.6813 -2.1141
  233MPD1    H3 3542   2.519   2.748   1.936  0.1208  1.7035 -2.0866
  233MPD1     N 3543   2.949   2.641   1.876 -0.1729 -0.6031  0.0545
  233MPD1    H5 3544   2.922   2.554   1.832  0.8718 -0.9167  0.0460
  233MPD1    N1 3545   2.803   3.074   2.053 -0.0260 -0.0395 -0.1868
  233MPD1    H6 3546   2.724   3.100   2.112 -0.4715  0.8176 -1.1559
  233MPD1    H7 3547   2.893   3.092   2.096 -1.3631 -0.3525  2.7604
  234MPD1     C 3548   3.330   0.473   9.509  0.4152  0.5416  0.3969
  234MPD1    C1 3549   3.233   0.444   9.417  0.8701  0.0380  0.0079
  234MPD1    C2 3550   3.157   0.553   9.376  0.5763  0.4366  0.1845
  234MPD1    C3 3551   3.168   0.679   9.436 -0.1041  0.0919  0.0155
  234MPD1    C4 3552   3.255   0.699   9.538  0.5708  0.3478 -0.5220
  234MPD1    C5 3553   3.331   0.595   9.573  0.1311 -0.5732  0.0072
  234MPD1     H 3554   3.083   0.550   9.297  0.2193  2.1238  0.4683
  234MPD1    H1 3555   3.262   0.794   9.589 -0.9932  1.5237 -2.4707
  234MPD1    H2 3556   3.394   0.391   9.537 -2.9828 -2.2197  0.1649
  234MPD1    H3 3557   3.396   0.610   9.659 -0.0210  0.9015 -0.1285
  234MPD1     N 3558   3.092   0.791   9.388 -0.0618  0.1661 -0.5905
  234MPD1    H5 3559   3.017   0.766   9.324 -2.3790  2.4205  1.2518
  234MPD1    N1 3560   3.247   0.327   9.345  0.4187  0.1963  0.1997
  234MPD1    H6 3561   3.297   0.256   9.399 -0.8180 -1.2845 -0.5978
  234MPD1    H7 3562   3.155   0.293   9.316  0.2514 -0.1369  1.1087
  235MPD1     C 3563   3.535   3.420   9.414  0.3463  0.4881 -0.8359
  235MPD1    C1 3564   3.464   3.473   9.310  0.6465  0.0642 -0.7884
  235MPD1    C2 3565   3.477   3.611   9.282 -0.8422  0.0594  0.5482
  235MPD1    C3 3566   3.566   3.680   9.357  0.2887  0.3573 -0.4462
  235MPD1    C4 3567   3.634   3.634   9.464 -0.0906 -0.2012 -0.0043
  235MPD1    C5 3568   3.617   3.502   9.496 -0.6299  0.4763  0.0689
  235MPD1     H 3569   3.425   3.659   9.199  2.9945  0.2468 -1.7346
  235MPD1    H1 3570   3.691   3.694   9.534 -1.0152 -0.0231  0.5939
  235MPD1    H2 3571   3.529   3.314   9.434  2.2067  0.3249 -1.1378
  235MPD1    H3 3572   3.680   3.463   9.575  1.7345 -3.2523 -3.6213
  235MPD1     N 3573   3.599   3.811   9.312  0.3849  0.2462  0.1462
  235MPD1    H5 3574   3.536   3.846   9.240 -0.8399 -0.3172  0.9361
  235MPD1    N1 3575   3.380   3.401   9.221 -0.4543 -0.1381  0.1121
  235MPD1    H6 3576   3.313   3.464   9.177 -0.8291 -0.2526  0.5119
  235MPD1    H7 3577   3.336   3.317   9.258 -1.6401 -0.0732 -1.1063
  236MPD1     C 3578   3.317   4.570   9.824  0.1267 -0.5537  0.3017
  236MPD1    C1 3579   3.270   4.445   9.843 -0.3716  0.0417  0.1203
  236MPD1    C2 3580   3.355   4.352   9.889  0.4438  0.5808 -0.4152
  236MPD1    C3 3581   3.488   4.381   9.919 -0.4697  0.3523  0.1711
  236MPD1    C4 3582   3.532   4.508   9.901 -0.1920  0.1000 -0.8311
  236MPD1    C5 3583   3.442   4.605   9.861  0.0950  0.1326  0.4157
  236MPD1     H 3584   3.317   4.256   9.920 -1.0767  0.4095 -2.8530
  236MPD1    H1 3585   3.626   4.540   9.944 -0.9250 -0.1766  0.9832
  236MPD1    H2 3586   3.248   4.648   9.794  1.2451  0.0613 -0.6808
  236MPD1    H3 3587   3.468   4.710   9.854 -1.2376  0.5114  1.1956
  236MPD1     N 3588   3.583   4.294   9.990  0.3292  0.2615  0.2769
  236MPD1    H5 3589   3.680   4.324   9.998 -0.2967  1.8220  1.9314
  236MPD1    N1 3590   3.129   4.426   9.828 -0.2559 -0.1118 -0.1565
  236MPD1    H6 3591   3.096   4.479   9.748 -2.5224 -0.0364  0.8166
  236MPD1    H7 3592   3.105   4.327   9.820 -1.1562  0.0706  0.2925
  237MPD1     C 3593   4.260   2.038  15.072 -0.4206 -0.4532  0.6914
  237MPD1    C1 3594   4.215   1.968  15.178 -0.3225  0.4145 -0.6200
  237MPD1    C2 3595   4.142   2.034  15.276 -0.0408 -0.5615  0.0679
  237MPD1    C3 3596   4.088   2.159  15.252  0.4475  0.7462  0.3432
  237MPD1    C4 3597   4.109   2.223  15.129  0.2797  0.6481  0.2627
  237MPD1    C5 3598   4.195   2.159  15.043 -0.1607  0.4784  0.2363
  237MPD1     H 3599   4.139   1.979  15.369 -1.2738  0.2132  0.4751
  237MPD1    H1 3600   4.055   2.310  15.094  0.0453 -0.0203 -1.0642
  237MPD1    H2 3601   4.310   1.989  14.990  1.2050  0.3224  1.2337
  237MPD1    H3 3602   4.210   2.196  14.942 -1.8691  2.1991  0.6146
  237MPD1     N 3603   3.991   2.217  15.330 -0.0172 -0.2893  0.3160
  237MPD1    H5 3604   3.950   2.308  15.311  0.2785 -0.8289 -2.8152
  237MPD1    N1 3605   4.267   1.833  15.196 -0.6851  0.2922  0.5589
  237MPD1    H6 3606   4.364   1.852  15.220 -1.2301  2.3013  1.1317
  237MPD1    H7 3607   4.273   1.775  15.113  0.4431  0.2212  0.6850
  238MPD1     C 3608   0.899   1.329  15.378 -0.0376 -0.2982  0.0713
  238MPD1    C1 3609   0.918   1.309  15.240  0.4080  0.4476  0.6102
  238MPD1    C2 3610   0.818   1.257  15.162  0.7411  0.5321 -0.4467
  238MPD1    C3 3611   0.699   1.210  15.209  0.0563  0.0560  0.7241
  238MPD1    C4 3612   0.681   1.240  15.346  0.5832 -0.1757 -0.1152
  238MPD1    C5 3613   0.776   1.303  15.426 -0.2127  0.3112 -0.7148
  238MPD1     H 3614   0.857   1.234  15.063  2.4739  1.0632  0.1238
  238MPD1    H1 3615   0.588   1.220  15.398 -0.1891  1.9439 -0.6795
  238MPD1    H2 3616   0.970   1.377  15.445 -0.6240 -0.6994  0.9719
  238MPD1    H3 3617   0.745   1.334  15.525  0.9140  2.6640 -1.1008
  238MPD1     N 3618   0.604   1.132  15.144  0.7781  0.9230 -0.4005
  238MPD1    H5 3619   0.526   1.096  15.200 -0.1859  2.9508 -0.4512
  238MPD1    N1 3620   1.030   1.365  15.175  0.4706 -0.0645 -0.5046
  238MPD1    H6 3621   1.065   1.323  15.089 -2.3316  0.1893 -1.7790
  238MPD1    H7 3622   1.108   1.370  15.240 -0.2747 -0.4632  0.4083
  239MPD1     C 3623   0.910   1.910  14.842 -0.6763 -0.3046 -1.1496
  239MPD1    C1 3624   1.033   1.908  14.775  0.3213  0.3557 -0.1393
  239MPD1    C2 3625   1.034   1.932  14.637 -0.5418  0.0141  0.2831
  239MPD1    C3 3626   0.919   1.971  14.571  0.1764 -0.3056  0.0195
  239MPD1    C4 3627   0.802   1.976  14.641  0.2429  0.1097  0.2422
  239MPD1    C5 3628   0.796   1.941  14.775  0.6053 -0.8093  0.3791
  239MPD1     H 3629   1.127   1.925  14.581 -1.0839 -0.7760 -0.5171
  239MPD1    H1 3630   0.710   2.017  14.599  0.4883 -0.4702 -0.8538
  239MPD1    H2 3631   0.915   1.891  14.948  0.9593  0.9591 -1.0040
  239MPD1    H3 3632   0.701   1.924  14.825  0.1424 -1.1242 -0.6174
  239MPD1     N 3633   0.924   2.005  14.434 -0.3526  0.0882 -0.2211
  239MPD1    H5 3634   0.834   2.011  14.386  0.3434  0.6134 -1.4487
  239MPD1    N1 3635   1.153   1.868  14.834  0.0727 -0.1417  0.5220
  239MPD1    H6 3636   1.238   1.907  14.793 -1.1116  0.5663 -1.2775
  239MPD1    H7 3637   1.157   1.884  14.934  0.0663 -1.2403  0.6979
  240MPD1     C 3638   0.243   0.704  13.413 -0.0573  0.0726 -0.0211
  240MPD1    C1 3639   0.152   0.784  13.358 -0.4853  0.2849  0.0264
  240MPD1    C2 3640   0.166   0.917  13.377  0.2821 -0.2428 -0.4184
  240MPD1    C3 3641   0.266   0.974  13.456  0.2986  0.5849  0.7807
  240MPD1    C4 3642   0.363   0.891  13.500 -0.3011 -0.0865  0.0335
  240MPD1    C5 3643   0.347   0.757  13.480  0.6503  0.1314  0.5014
  240MPD1     H 3644   0.104   0.982  13.317  1.1142 -0.7838 -1.8447
  240MPD1    H1 3645   0.460   0.919  13.537 -0.5187 -0.9732  1.2879
  240MPD1    H2 3646   0.231   0.598  13.391 -0.5241  0.2059 -0.4143
  240MPD1    H3 3647   0.432   0.691  13.489  2.1564  2.0579  0.3603
  240MPD1     N 3648   0.271   1.116  13.463  0.1744  0.2930 -0.0483
  240MPD1    H5 3649   0.198   1.158  13.407 -0.1900 -0.1593  0.0833
  240MPD1    N1 3650   0.067   0.738  13.256  0.2490  0.3932  0.7833
  240MPD1    H6 3651   4.697   0.777  13.243  0.1503 -0.2329 -0.3984
  240MPD1    H7 3652   0.056   0.637  13.266 -0.7837  0.4669  0.3118
  241MPD1     C 3653   0.163   1.516  12.722 -0.6335  0.2359  0.1959
  241MPD1    C1 3654   0.125   1.616  12.809  0.6930 -0.3921  0.7538
  241MPD1    C2 3655   0.157   1.602  12.939  0.6872 -0.0094 -0.2038
  241MPD1    C3 3656   0.209   1.483  12.988  0.5523  0.1422  0.3893
  241MPD1    C4 3657   0.247   1.384  12.894 -0.6993 -0.1788  0.1479
  241MPD1    C5 3658   0.228   1.401  12.763  0.1812 -0.7647 -0.2362
  241MPD1     H 3659   0.139   1.684  13.008 -0.1702  1.9880 -2.7676
  241MPD1    H1 3660   0.295   1.295  12.932  2.2371  0.8460 -1.2094
  241MPD1    H2 3661   0.136   1.525  12.617 -0.4200  0.0897  0.1254
  241MPD1    H3 3662   0.256   1.323  12.693  2.4933 -0.0561 -0.0877
  241MPD1     N 3663   0.241   1.458  13.129  0.0460 -0.1218 -0.2925
  241MPD1    H5 3664   0.268   1.362  13.148 -0.6521 -0.1737  0.4571
  241MPD1    N1 3665   0.085   1.741  12.758  0.2293  0.2794  0.3228
  241MPD1    H6 3666   0.028   1.734  12.674  2.1471 -1.4088 -0.8454
  241MPD1    H7 3667   0.033   1.795  12.827 -1.6239 -1.7229  0.5085
  242MPD1     C 3668   4.511   4.329  16.034  0.0784  0.4258 -0.6534
  242MPD1    C1 3669   4.425   4.395  15.957  0.5573  0.3848  0.7825
  242MPD1    C2 3670   4.459   4.392  15.817 -0.0582 -0.3312  0.5365
  242MPD1    C3 3671   4.567   4.326  15.768 -0.2025 -0.6558  0.3470
  242MPD1    C4 3672   4.638   4.235  15.850 -0.3441 -0.3013  0.0698
  242MPD1    C5 3673   4.604   4.249  15.986 -0.5059 -0.1102 -0.1489
  242MPD1     H 3674   4.402   4.463  15.758 -2.1643 -2.3529  0.1421
  242MPD1    H1 3675   0.005   4.179  15.828 -0.6772 -0.3856 -1.0315
  242MPD1    H2 3676   4.495   4.320  16.141  3.4278 -0.1142 -0.1943
  242MPD1    H3 3677   4.669   4.203  16.060 -2.6447  0.0398  1.8190
  242MPD1     N 3678   4.603   4.316  15.629 -0.4438 -0.2841  0.2695
  242MPD1    H5 3679   4.662   4.240  15.596  0.5459  0.1420  1.0490
  242MPD1    N1 3680   4.324   4.487  16.003 -0.9985 -0.5595 -0.3567
  242MPD1    H6 3681   4.247   4.496  15.937 -1.3018  1.3926  0.2594
  242MPD1    H7 3682   4.292   4.461  16.096 -2.1275 -0.5130 -0.7350
  243MPD1     C 3683   1.414   2.890  17.380 -0.0616  0.5643 -0.2712
  243MPD1    C1 3684   1.495   2.980  17.313  0.3590  0.5538  0.6823
  243MPD1    C2 3685   1.566   2.942  17.206 -0.6843 -0.0977 -0.7232
  243MPD1    C3 3686   1.570   2.806  17.169  0.2898  0.4114  0.3093
  243MPD1    C4 3687   1.491   2.719  17.237  0.4423 -0.2639  0.3494
  243MPD1    C5 3688   1.414   2.762  17.340 -0.6171  0.1106 -0.1714
  243MPD1     H 3689   1.645   3.003  17.165 -0.9768  2.3272  2.3403
  243MPD1    H1 3690   1.485   2.615  17.210  0.9864 -0.1579 -0.1661
  243MPD1    H2 3691   1.356   2.929  17.463 -1.8660  0.7040 -1.5993
  243MPD1    H3 3692   1.351   2.694  17.395  1.4039 -1.6002  0.0284
  243MPD1     N 3693   1.664   2.768  17.071  0.9572 -0.2223 -0.0088
  243MPD1    H5 3694   1.721   2.845  17.039  0.0361 -0.5487 -2.4088
  243MPD1    N1 3695   1.491   3.115  17.345  0.0191  0.4698 -0.2132
  243MPD1    H6 3696   1.574   3.160  17.307 -1.0357  1.5280 -1.2693
  243MPD1    H7 3697   1.477   3.139  17.442  2.8039  0.5660  0.1567
  244MPD1     C 3698   2.072   1.882  16.820  0.5781  0.1708 -0.6916
  244MPD1    C1 3699   1.934   1.903  16.838  1.1562 -0.1246  0.3775
  244MPD1    C2 3700   1.880   2.028  16.821  0.2427 -0.5630 -0.2557
  244MPD1    C3 3701   1.970   2.123  16.800 -0.2019 -0.1543  0.3023
  244MPD1    C4 3702   2.107   2.106  16.791 -0.2247 -0.3983 -0.2226
  244MPD1    C5 3703   2.158   1.984  16.789 -0.2921 -0.1255  0.2682
  244MPD1     H 3704   1.774   2.052  16.827  1.1655  3.5900 -0.5010
  244MPD1    H1 3705   2.181   2.185  16.779 -2.8626  1.9477 -1.1132
  244MPD1    H2 3706   2.113   1.781  16.824  0.6426  0.2090 -0.3570
  244MPD1    H3 3707   2.261   1.957  16.767 -0.4045 -0.2156 -0.1548
  244MPD1     N 3708   1.916   2.253  16.797 -0.3729 -0.0564  0.1410
  244MPD1    H5 3709   1.816   2.261  16.813 -0.3102  1.1127 -0.0831
  244MPD1    N1 3710   1.864   1.795  16.898  0.5651  0.9463 -0.0081
  244MPD1    H6 3711   1.772   1.791  16.854  0.4694 -1.8127  0.4952
  244MPD1    H7 3712   1.896   1.703  16.870 -2.5299 -0.6046  1.5295
  245MPD1     C 3713   3.574   4.031  13.032  0.5150 -0.2301  0.5276
  245MPD1    C1 3714   3.518   4.039  13.156 -0.3442 -0.3409 -0.3404
  245MPD1    C2 3715   3.514   4.169  13.209  0.6680  0.7564  0.0954
  245MPD1    C3 3716   3.563   4.281  13.148  0.3859  0.2291  0.3673
  245MPD1    C4 3717   3.632   4.264  13.032  0.1044 -0.5896  0.2246
  245MPD1    C5 3718   3.630   4.140  12.975 -0.1770  0.1374  0.7785
  245MPD1     H 3719   3.459   4.181  13.301  2.6352  0.7683  1.2673
  245MPD1    H1 3720   3.676   4.345  12.975 -0.8059 -1.0271 -1.1005
  245MPD1    H2 3721   3.579   3.940  12.974  0.0869  0.4078 -0.5240
  245MPD1    H3 3722   3.686   4.133  12.883 -1.0343  2.1587  0.1008
  245MPD1     N 3723   3.592   4.393  13.230 -0.6640 -0.0347  0.2267
  245MPD1    H5 3724   3.580   4.392  13.331  0.5124  3.3022  0.3904
  245MPD1    N1 3725   3.444   3.934  13.208 -0.8277 -0.5754  0.9221
  245MPD1    H6 3726   3.447   3.937  13.309 -1.2421  1.6891  0.8724
  245MPD1    H7 3727   3.487   3.846  13.181  0.1842  0.2741 -0.2446
  246MPD1     C 3728   2.930   1.243   8.230  0.1583  0.4473  0.4136
  246MPD1    C1 3729   2.839   1.179   8.152 -0.6904 -0.0009  0.3019
  246MPD1    C2 3730   2.836   1.040   8.164 -0.3570 -0.0819  0.4905
  246MPD1    C3 3731   2.927   0.965   8.238 -0.2085  0.1549 -0.4682
  246MPD1    C4 3732   3.017   1.035   8.313 -0.2434  0.5094  0.8000
  246MPD1    C5 3733   3.013   1.167   8.310  0.1321 -0.3518 -0.0683
  246MPD1     H 3734   2.761   0.979   8.115  0.2785 -1.4533  1.2235
  246MPD1    H1 3735   3.085   0.984   8.380 -0.0870 -1.9657 -1.2186
  246MPD1    H2 3736   2.930   1.351   8.238  1.8568  0.3267  2.0655
  246MPD1    H3 3737   3.092   1.221   8.361  0.0719 -0.9206  0.6240
  246MPD1     N 3738   2.912   0.828   8.243  0.7367  0.1536  0.1619
  246MPD1    H5 3739   2.848   0.793   8.172  1.4211 -0.9905  0.1043
  246MPD1    N1 3740   2.724   1.243   8.115 -0.2641  0.4471  0.0488
  246MPD1    H6 3741   2.678   1.204   8.033  1.3425  0.8898 -1.0741
  246MPD1    H7 3742   2.751   1.339   8.094 -1.2049  1.0653  1.6786
  247MPD1     C 3743   3.250   3.214  16.851 -0.3876  0.2670 -0.6425
  247MPD1    C1 3744   3.177   3.322  16.811 -0.3271  0.3541  0.2525
  247MPD1    C2 3745   3.146   3.333  16.679 -0.3485 -0.5514 -0.5163
  247MPD1    C3 3746   3.190   3.232  16.587 -0.1724  0.4123  0.1342
  247MPD1    C4 3747   3.261   3.127  16.632 -0.1474 -0.6127  0.0974
  247MPD1    C5 3748   3.286   3.117  16.769  0.4269 -0.0118 -0.2208
  247MPD1     H 3749   3.090   3.418  16.643  1.3863  1.2126  1.0092
  247MPD1    H1 3750   3.299   3.052  16.563 -0.5825  1.0312 -1.9247
  247MPD1    H2 3751   3.276   3.208  16.956 -1.3954  1.8702 -0.3108
  247MPD1    H3 3752   3.347   3.035  16.805  1.8830  1.0428 -0.2762
  247MPD1     N 3753   3.168   3.240  16.452  0.5059 -0.3697 -0.3048
  247MPD1    H5 3754   3.192   3.159  16.395 -2.2046 -0.3851 -1.4229
  247MPD1    N1 3755   3.143   3.422  16.904 -0.1773  0.1611  0.2070
  247MPD1    H6 3756   3.132   3.375  16.993 -0.2724  0.4199  0.3306
  247MPD1    H7 3757   3.054   3.464  16.881  0.1304  1.1446  0.8400
  248MPD1     C 3758   4.105   4.043  17.591 -0.4736  0.3240 -0.1823
  248MPD1    C1 3759   3.990   3.989  17.635  0.9722  0.1454  0.0194
  248MPD1    C2 3760   3.896   4.064   0.017  0.2668  0.9886 -0.1464
  248MPD1    C3 3761   3.931   4.199   0.040  0.2291  0.1149  0.2608
  248MPD1    C4 3762   4.047   4.249  17.685 -0.6999  0.6056  1.0377
  248MPD1    C5 3763   4.134   4.173  17.614 -0.0033 -0.0490  0.1415
  248MPD1     H 3764   3.812   4.013   0.064  2.9549 -0.8863  2.6496
  248MPD1    H1 3765   4.068   4.355  17.691  0.4356  0.3983  0.7393
  248MPD1    H2 3766   4.182   3.981  17.547 -0.4372  0.3263 -0.1219
  248MPD1    H3 3767   4.232   4.211  17.589 -0.3040  0.4666 -0.2750
  248MPD1     N 3768   3.839   4.281   0.104  0.5610 -0.1567 -0.0218
  248MPD1    H5 3769   3.754   4.237   0.136  1.6687  0.0303  3.1354
  248MPD1    N1 3770   3.979   3.851  17.627 -0.6125 -0.0799 -0.2614
  248MPD1    H6 3771   4.022   3.825  17.539 -0.9662 -1.8337  0.0755
  248MPD1    H7 3772   3.885   3.811  17.635 -1.6963  2.4002 -0.7896
  249MPD1     C 3773   0.578   2.057   9.841  0.1358 -0.9795  0.3479
  249MPD1    C1 3774   0.495   2.161   9.858 -0.0781  0.3977  0.4587
  249MPD1    C2 3775   0.367   2.168   9.801 -0.0982 -0.0567 -0.0560
  249MPD1    C3 3776   0.330   2.074   9.709 -0.5322 -0.0739 -0.6882
  249MPD1    C4 3777   0.417   1.972   9.679 -0.0522 -0.1608 -0.2592
  249MPD1    C5 3778   0.532   1.954   9.754  0.7914 -0.0779  0.2153
  249MPD1     H 3779   0.297   2.244   9.834  1.6378  1.3462  0.3494
  249MPD1    H1 3780   0.396   1.907   9.594  0.9505  1.1393 -1.4919
  249MPD1    H2 3781   0.673   2.061   9.894 -1.0883 -1.5082  2.5616
  249MPD1    H3 3782   0.594   1.869   9.726 -0.1911  0.2395 -2.9145
  249MPD1     N 3783   0.205   2.105   9.651  0.1730  0.1075 -0.4063
  249MPD1    H5 3784   0.165   2.194   9.679  0.6628 -1.1827  4.4078
  249MPD1    N1 3785   0.544   2.277   9.926 -0.0825  0.1559  0.0810
  249MPD1    H6 3786   0.462   2.322   9.965 -1.3450 -1.1789 -1.0571
  249MPD1    H7 3787   0.609   2.256  10.001  0.1655  0.1320 -0.1405
  250MPD2     C 3788   1.743   2.840  13.099  0.2171 -0.3116  0.4134
  250MPD2    C1 3789   1.738   2.898  12.974 -0.3840  0.1054 -0.1558
  250MPD2    C2 3790   1.658   2.839  12.874  0.0992  0.0336 -0.2310
  250MPD2    C3 3791   1.593   2.722  12.903 -0.2541  0.0572 -0.6430
  250MPD2    C4 3792   1.598   2.667  13.032  0.2201  0.4414 -0.2111
  250MPD2    C5 3793   1.681   2.725  13.125 -0.2249 -0.3819 -0.0867
  250MPD2     H 3794   1.655   2.877  12.773  0.8487  0.3937 -0.1218
  250MPD2    H1 3795   1.551   2.577  13.071  0.8764 -0.1593 -0.7908
  250MPD2    H2 3796   1.811   2.883  13.171 -0.6833  0.4584  0.8105
  250MPD2    H3 3797   1.700   2.678  13.221 -0.2067 -2.2258 -0.9878
  250MPD2     N 3798   1.513   2.652  12.810 -0.4356  0.0130  0.2058
  250MPD2    H5 3799   1.491   2.556  12.835 -0.6971  0.2873  1.0109
  250MPD2    N1 3800   1.826   3.009  12.947 -0.4522 -0.8965 -1.0826
  250MPD2    H7 3801   1.886   3.047  13.020 -1.0951  1.3505 -1.7130
  251TMC3    C1 3802   1.940   3.170  12.829 -0.1732  0.7438  0.2434
  251TMC3    C2 3803   1.918   3.259  12.928  0.3102 -0.0612  0.3343
  251TMC3    C3 3804   1.994   3.367  12.921 -0.3300 -0.4410 -0.4667
  251TMC3    C4 3805   2.051   3.174  12.744  0.1464  0.0824  0.4020
  251TMC3    C5 3806   2.127   3.284  12.752 -0.0468 -0.2437 -0.1561
  251TMC3    C6 3807   2.107   3.378  12.849 -0.7001  0.4929  0.0392
  251TMC3     C 3808   1.848   3.061  12.824 -0.6140  0.1093 -0.0779
  251TMC3     O 3809   1.804   3.037  12.714  0.1421  0.0643  0.2227
  251TMC3     H 3810   1.829   3.256  12.991 -0.5961  0.8074 -0.9116
  251TMC3    H1 3811   2.071   3.092  12.675 -1.6848 -0.3141  0.3332
  251TMC3    H2 3812   2.171   3.463  12.874 -0.1988  0.3070 -0.6038
  251TMC3    C7 3813   2.253   3.263  12.695 -0.1256 -0.1217 -0.4157
  251TMC3    C8 3814   1.959   3.479  13.003 -0.3643 -0.7000 -0.4844
  251TMC3    O1 3815   2.282   3.148  12.662 -0.0942  0.2056  0.6474
  251TMC3    O2 3816   1.907   3.455  13.112  0.2039  0.0421 -0.2580
  252TMC3    C1 3817   0.904   4.699  10.007  0.4036 -0.0210 -0.2978
  252TMC3    C2 3818   1.016   4.719   9.935 -0.5504  0.1067 -0.0641
  252TMC3    C3 3819   1.120   4.633   9.957  0.3635 -0.0694  0.3204
  252TMC3    C4 3820   0.893   4.610  10.104  0.0748 -0.3288 -0.6692
  252TMC3    C5 3821   1.006   4.543  10.135 -0.2989  0.1253  0.1466
  252TMC3    C6 3822   1.123   4.542  10.056 -0.0729 -0.0022 -0.2131
  252TMC3     C 3823   0.781   0.000   9.932  0.0318 -0.8110  0.3258
  252TMC3     O 3824   0.778   4.700   9.810  0.1065  0.1467  0.3581
  252TMC3     H 3825   1.021   0.077   9.864  1.9927 -1.1661 -1.3397
  252TMC3    H1 3826   0.807   4.594  10.167 -0.7885  3.3691 -0.8676
  252TMC3    H2 3827   1.210   4.486  10.088  0.2693  0.2130 -0.7820
  252TMC3    C7 3828   0.986   4.431  10.229 -0.4724  0.1781 -0.7900
  252TMC3    C8 3829   1.234   4.646   9.870  0.1994 -0.8093 -0.1739
  252TMC3    O1 3830   0.899   4.440  10.315  0.0530  0.1832 -0.3073
  252TMC3    O2 3831   1.200   4.702   9.765 -0.3157 -0.3414 -0.0001
  253MPD2     C 3832   3.120   2.288  15.351 -0.4874 -0.0371 -0.0700
  253MPD2    C1 3833   2.985   2.318  15.329  0.1069 -0.0795  0.6748
  253MPD2    C2 3834   2.903   2.340  15.438 -0.5310  0.0741  0.0742
  253MPD2    C3 3835   2.963   2.349  15.570 -0.6096  0.1555 -0.3560
  253MPD2    C4 3836   3.104   2.333  15.586 -0.2169  0.4429  0.5908
  253MPD2    C5 3837   3.174   2.302  15.477  0.5486 -0.6818  0.4699
  253MPD2     H 3838   2.798   2.350  15.409 -0.8288  1.2122  1.5911
  253MPD2    H1 3839   3.163   2.341  15.676  1.5436  0.6175 -0.5776
  253MPD2    H2 3840   3.184   2.285  15.263  1.1117  0.7729  1.0667
  253MPD2    H3 3841   3.280   2.287  15.491  0.8299  1.6067  0.7420
  253MPD2     N 3842   2.888   2.352  15.689  0.2299 -0.6036 -0.2581
  253MPD2    H5 3843   2.945   2.356  15.772 -0.6171  2.6056  0.1697
  253MPD2    N1 3844   2.925   2.325  15.202 -0.5784  0.4939 -0.4454
  253MPD2    H7 3845   2.824   2.326  15.192 -0.5152 -0.4987 -1.3261
  254TMC3    C1 3846   2.692   2.326  15.818  0.0435  0.0495 -0.5923
  254TMC3    C2 3847   2.579   2.393  15.861 -0.5589 -0.9600  0.2277
  254TMC3    C3 3848   2.535   2.355  15.984 -0.4377  0.7656 -0.3616
  254TMC3    C4 3849   2.757   2.226  15.888 -0.5412 -0.5474  0.0617
  254TMC3    C5 3850   2.696   2.187  16.002  0.1170  0.1477  0.3354
  254TMC3    C6 3851   2.596   2.257  16.058  0.5433 -0.2133 -0.0333
  254TMC3     C 3852   2.753   2.365  15.691  0.1086 -0.1838  0.5799
  254TMC3     O 3853   2.679   2.391  15.594  0.1959 -0.5062  0.4538
  254TMC3     H 3854   2.525   2.463  15.798  0.8489 -1.2541 -1.3006
  254TMC3    H1 3855   2.848   2.179  15.851  0.4672  0.5668  1.1402
  254TMC3    H2 3856   2.563   2.217  16.154  1.6331 -0.3894  0.2635
  254TMC3    C7 3857   2.781   2.126  16.095  0.2944 -0.0655 -0.1142
  254TMC3    C8 3858   2.471   2.447  16.076  0.3160  0.7742 -0.2008
  254TMC3    O1 3859   2.896   2.149  16.085 -1.0763  0.5559  0.6281
  254TMC3    O2 3860   2.497   2.428  16.194 -0.0223 -0.6462  0.3989
  255MPD2     C 3861   0.423   0.936  10.294 -0.3512 -0.3268 -0.3044
  255MPD2    C1 3862   0.502   0.936  10.179  0.0807  0.1457 -0.1266
  255MPD2    C2 3863   0.542   0.813  10.133  0.2074 -0.8476  0.1339
  255MPD2    C3 3864   0.538   0.699  10.219 -0.2986 -0.0211  0.6537
  255MPD2    C4 3865   0.473   0.701  10.336 -0.1612  0.2792  0.2454
  255MPD2    C5 3866   0.420   0.823  10.371 -0.2549  0.1782 -0.7185
  255MPD2     H 3867   0.577   0.801  10.031 -0.8553 -0.2393 -0.3079
  255MPD2    H1 3868   0.460   0.623  10.411 -0.3000 -0.4805 -0.5762
  255MPD2    H2 3869   0.371   1.025  10.326  1.1752  0.1556  0.8323
  255MPD2    H3 3870   0.369   0.824  10.466  2.3893  0.5003  0.6918
  255MPD2     N 3871   0.615   0.590  10.173  0.1657  0.0126  0.3583
  255MPD2    H5 3872   0.662   0.590  10.083 -1.6317  0.8741 -0.5784
  255MPD2    N1 3873   0.510   1.035  10.076  0.7338  0.5226 -0.2542
  255MPD2    H7 3874   0.562   1.005   9.994  0.2299  0.3715 -0.5187
  256TMC3    C1 3875   0.480   1.230   9.950 -0.2157  0.3412 -0.5970
  256TMC3    C2 3876   0.608   1.227   9.909 -0.7828  0.8205 -0.1963
  256TMC3    C3 3877   0.640   1.269   9.784 -0.0084  0.3341 -0.1486
  256TMC3    C4 3878   0.377   1.244   9.860 -0.0926  0.5850  0.5360
  256TMC3    C5 3879   0.414   1.273   9.731 -0.6763 -0.3714  0.1387
  256TMC3    C6 3880   0.538   1.289   9.690 -0.0465 -0.0929 -0.2913
  256TMC3     C 3881   0.446   1.156  10.071 -0.8859 -0.3378 -0.4270
  256TMC3     O 3882   0.347   1.185  10.134 -0.5280  0.3556  0.1256
  256TMC3     H 3883   0.684   1.194   9.979 -0.8685 -0.6997 -0.8097
  256TMC3    H1 3884   0.279   1.227   9.903  0.7667 -2.3225  1.3355
  256TMC3    H2 3885   0.566   1.315   9.589  0.4298  0.8756  0.0936
  256TMC3    C7 3886   0.322   1.234   9.625  0.3922  0.6541  0.1455
  256TMC3    C8 3887   0.778   1.243   9.745  0.5012 -0.1039 -0.3734
  256TMC3    O1 3888   0.352   1.240   9.508  0.2436  0.6570  0.6849
  256TMC3    O2 3889   0.857   1.250   9.838  0.4058 -0.0299 -0.0099
  257MPD2     C 3890   0.834   2.801  13.111 -0.2012 -0.7252 -0.2765
  257MPD2    C1 3891   0.825   2.711  13.010  0.6276  0.1406 -0.9192
  257MPD2    C2 3892   0.829   2.576  13.036  0.3674 -0.4770  0.0242
  257MPD2    C3 3893   0.832   2.531  13.164 -0.2856 -0.8413 -0.5671
  257MPD2    C4 3894   0.835   2.617  13.272  0.1787  0.2964  0.4403
  257MPD2    C5 3895   0.849   2.749  13.243 -0.4729 -0.9182 -0.3995
  257MPD2     H 3896   0.807   2.501  12.961 -0.0161 -1.5341  1.1914
  257MPD2    H1 3897   0.845   2.588  13.376 -0.8515 -0.6900  0.2605
  257MPD2    H2 3898   0.833   2.908  13.096  0.0591 -0.6509  0.2305
  257MPD2    H3 3899   0.890   2.812  13.321 -1.1063 -0.5901 -0.3319
  257MPD2     N 3900   0.841   2.388  13.180 -0.0028 -0.4344  0.4162
  257MPD2    H5 3901   0.841   2.326  13.099 -1.6014 -1.5239  1.2317
  257MPD2    N1 3902   0.802   2.764  12.882  0.2450 -0.2205  0.0320
  257MPD2    H7 3903   0.789   2.864  12.874  0.5975 -0.2902 -1.4471
  258TMC3    C1 3904   0.866   2.177  13.285 -0.5523  0.3763 -0.3890
  258TMC3    C2 3905   0.934   2.125  13.176  0.3722 -0.3454  0.2771
  258TMC3    C3 3906   0.968   1.993  13.184  0.2846 -0.3512  0.2776
  258TMC3    C4 3907   0.843   2.105  13.394  0.4340 -0.2546  0.8463
  258TMC3    C5 3908   0.844   1.972  13.388  0.0146 -0.3317  0.2667
  258TMC3    C6 3909   0.915   1.916  13.279  0.0116  0.2114  0.3107
  258TMC3     C 3910   0.836   2.319  13.299 -0.4207 -0.3544 -0.2462
  258TMC3     O 3911   0.797   2.370  13.404 -0.4346 -0.4879  0.1491
  258TMC3     H 3912   0.967   2.179  13.088  0.0209  3.1416  2.2849
  258TMC3    H1 3913   0.807   2.149  13.486 -2.4251 -0.9873  0.0994
  258TMC3    H2 3914   0.944   1.812  13.287 -0.3736 -0.1666 -3.1151
  258TMC3    C7 3915   0.866   1.904  13.515  0.4549  0.4385  0.2404
  258TMC3    C8 3916   1.072   1.932  13.100  1.0306  0.3499  0.5971
  258TMC3    O1 3917   0.951   1.818  13.513 -0.1409 -0.2715  0.2639
  258TMC3    O2 3918   1.072   1.809  13.083 -0.1508 -0.0427  0.0598
  259MPD2     C 3919   4.554   4.576   0.754 -0.7781  0.2418 -0.0561
  259MPD2    C1 3920   4.527   4.460   0.818 -0.4867  0.7482  0.0159
  259MPD2    C2 3921   4.603   4.347   0.788  0.0621 -0.0672 -0.7135
  259MPD2    C3 3922   4.709   4.358   0.700 -0.0645  0.0170  0.4116
  259MPD2    C4 3923   0.014   4.479   0.642  0.1473  0.5762 -0.3172
  259MPD2    C5 3924   4.664   4.584   0.667  0.2640  0.0386  0.2582
  259MPD2     H 3925   4.569   4.249   0.821  0.4846  0.6829  1.9001
  259MPD2    H1 3926   0.075   4.494   0.553  1.9104 -1.2356  0.5737
  259MPD2    H2 3927   4.501   4.666   0.783  1.0870  0.1841  3.4841
  259MPD2    H3 3928   4.678   4.675   0.610 -0.5232 -0.5437 -0.8616
  259MPD2     N 3929   0.049   4.234   0.665 -0.2238 -0.1607  0.2308
  259MPD2    H5 3930   0.001   4.154   0.706  1.3947  0.0672  2.5314
  259MPD2    N1 3931   4.426   4.465   0.921  0.0117  0.3724 -0.4985
  259MPD2    H7 3932   4.370   4.549   0.932  2.2071  2.1017 -2.5785
  260TMC3    C1 3933   0.207   4.098   0.536  0.6686  0.1454 -1.3662
  260TMC3    C2 3934   0.311   4.099   0.453 -0.8664 -0.5189 -0.0467
  260TMC3    C3 3935   0.378   3.983   0.432  0.3216  0.4892 -0.0584
  260TMC3    C4 3936   0.136   3.977   0.565  0.1759 -0.5166 -0.1554
  260TMC3    C5 3937   0.210   3.861   0.553  0.0180 -0.2949  0.1959
  260TMC3    C6 3938   0.330   3.865   0.480 -0.3636  0.2906 -0.2257
  260TMC3     C 3939   0.153   4.229   0.573  0.7336 -0.3669  0.3048
  260TMC3     O 3940   0.219   4.324   0.526  0.2773 -0.1467  0.5800
  260TMC3     H 3941   0.353   4.190   0.410  0.2404 -0.3317  1.4309
  260TMC3    H1 3942   0.047   3.977   0.627  1.2139 -1.5089  1.3386
  260TMC3    H2 3943   0.382   3.772   0.464 -1.3034 -0.2597 -0.0698
  260TMC3    C7 3944   0.131   3.746   0.515 -0.2081 -0.1234  0.3370
  260TMC3    C8 3945   0.468   3.978   0.323 -0.3138 -0.0593  0.0743
  260TMC3    O1 3946   0.202   3.648   0.495 -0.0576  0.3017  0.6679
  260TMC3    O2 3947   0.498   4.087   0.278  0.7358  0.2304  0.1517
  261MPD2     C 3948   1.069   2.446  12.091  0.0130  0.1390  0.8102
  261MPD2    C1 3949   1.139   2.552  12.142 -0.0584 -0.0315 -0.3647
  261MPD2    C2 3950   1.119   2.673  12.080 -0.1804 -0.8868 -0.4183
  261MPD2    C3 3951   1.034   2.692  11.972 -0.6930 -0.4949 -1.1632
  261MPD2    C4 3952   0.973   2.585  11.919 -0.0719  0.3542  0.0844
  261MPD2    C5 3953   0.990   2.461  11.979 -0.3378 -0.3596 -0.2065
  261MPD2     H 3954   1.180   2.755  12.115  0.1305 -0.2667 -2.4043
  261MPD2    H1 3955   0.904   2.593  11.836  0.0608  0.5340 -0.0088
  261MPD2    H2 3956   1.075   2.349  12.138 -0.2477 -1.1880 -1.9393
  261MPD2    H3 3957   0.945   2.376  11.929  0.6473  0.7701 -3.0441
  261MPD2     N 3958   1.010   2.819  11.909 -0.2877  0.1828 -0.4334
  261MPD2    H5 3959   0.943   2.821  11.834  0.7130  0.1443 -1.3293
  261MPD2    N1 3960   1.230   2.541  12.259 -0.6318 -0.4475 -0.1353
  261MPD2    H7 3961   1.267   2.631  12.285 -1.6680  0.7339 -2.7053
  262TMC3    C1 3962   0.955   3.032  11.919  0.1778  0.1083 -0.2647
  262TMC3    C2 3963   0.992   3.153  11.859  0.6091  0.8087  0.0012
  262TMC3    C3 3964   0.896   3.247  11.836 -0.2336 -0.4093 -0.0510
  262TMC3    C4 3965   0.819   3.006  11.941  0.8543 -0.4230 -0.1607
  262TMC3    C5 3966   0.732   3.106  11.926  0.1699 -0.2452  0.8019
  262TMC3    C6 3967   0.764   3.230  11.874  1.4779  0.5977  0.4019
  262TMC3     C 3968   1.044   2.935  11.966  0.3481 -0.3573  0.2744
  262TMC3     O 3969   1.115   2.960  12.063 -0.1441 -0.1924 -0.3658
  262TMC3     H 3970   1.098   3.177  11.856  0.7186  0.4264  0.7140
  262TMC3    H1 3971   0.792   2.915  11.994 -1.4366  0.5115  0.2966
  262TMC3    H2 3972   0.685   3.300  11.852  2.3137  0.5625 -2.7470
  262TMC3    C7 3973   0.622   3.108  12.014 -0.1431  0.0275 -1.3225
  262TMC3    C8 3974   0.939   3.371  11.776  0.1164  0.1725 -0.5344
  262TMC3    O1 3975   0.629   3.027  12.111  0.6198 -0.0760 -0.0028
  262TMC3    O2 3976   1.052   3.367  11.736  0.0934 -0.3384  0.5570
  263MPD2     C 3977   2.140   1.596  11.117  0.5990  0.1707 -0.1308
  263MPD2    C1 3978   2.174   1.728  11.143  0.5578 -0.2803 -0.2576
  263MPD2    C2 3979   2.150   1.822  11.044 -0.0089  0.1643  0.4472
  263MPD2    C3 3980   2.096   1.791  10.919  0.8699 -0.2200 -0.3795
  263MPD2    C4 3981   2.064   1.660  10.897 -0.0797 -1.0323 -0.1076
  263MPD2    C5 3982   2.087   1.565  10.995 -1.0187 -0.3777 -0.5057
  263MPD2     H 3983   2.171   1.926  11.067 -2.5451  0.8096 -0.1554
  263MPD2    H1 3984   2.023   1.628  10.802 -0.1217  0.3253 -0.5379
  263MPD2    H2 3985   2.140   1.532  11.204  1.4264 -1.0151 -1.0199
  263MPD2    H3 3986   2.047   1.466  10.975 -1.6521 -0.4598  1.1516
  263MPD2     N 3987   2.076   1.884  10.821  0.0679  0.2514 -0.0746
  263MPD2    H5 3988   2.090   1.982  10.843  1.0296  0.4186 -1.3911
  263MPD2    N1 3989   2.242   1.762  11.262  0.1394 -0.2328 -0.3018
  263MPD2    H7 3990   2.297   1.847  11.254  0.4855 -0.1679  2.6216
  264TMC3    C1 3991   2.019   1.972  10.623 -0.5308  0.2593 -0.0351
  264TMC3    C2 3992   1.924   2.051  10.683 -0.3200  0.1130 -0.1936
  264TMC3    C3 3993   1.862   2.148  10.603  0.7990 -0.0013  0.3649
  264TMC3    C4 3994   2.055   1.976  10.489  0.2517  0.3410  0.4074
  264TMC3    C5 3995   1.989   2.073  10.421  0.2607  0.0457 -0.2548
  264TMC3    C6 3996   1.889   2.152  10.473 -0.0361  0.5179 -0.1941
  264TMC3     C 3997   2.059   1.854  10.693 -0.3552 -0.6292 -0.5267
  264TMC3     O 3998   2.106   1.760  10.631 -0.1448 -0.1887  0.3587
  264TMC3     H 3999   1.901   2.042  10.789  2.2249  1.5044  0.4776
  264TMC3    H1 4000   2.123   1.902  10.447 -0.6114 -0.1511 -0.1088
  264TMC3    H2 4001   1.845   2.229  10.410  0.8574  0.4819 -0.8724
  264TMC3    C7 4002   2.034   2.121  10.292 -0.4648  0.4066 -0.2097
  264TMC3    C8 4003   1.789   2.262  10.660 -0.0333  0.2998 -0.4193
  264TMC3    O1 4004   1.959   2.186  10.216 -0.0617  0.0657  0.4168
  264TMC3    O2 4005   1.727   2.343  10.587  0.0312 -0.1647 -0.0405
  265MPD2     C 4006   4.543   2.001  15.390 -0.9423  0.1674 -0.0985
  265MPD2    C1 4007   4.564   2.108  15.300  0.1758 -0.1666  0.4838
  265MPD2    C2 4008   4.603   2.093  15.171  0.7498 -0.2638 -0.3565
  265MPD2    C3 4009   4.612   1.964  15.122 -0.1644  0.1748 -0.2532
  265MPD2    C4 4010   4.596   1.854  15.209 -0.6943 -0.2460 -0.0306
  265MPD2    C5 4011   4.552   1.873  15.337  0.2233 -0.3108 -0.0147
  265MPD2     H 4012   4.626   2.176  15.105 -0.1763  1.6487  1.7170
  265MPD2    H1 4013   4.601   1.751  15.176 -0.4314 -0.3540  0.3491
  265MPD2    H2 4014   4.507   2.006  15.492 -0.5531  0.4523  0.0249
  265MPD2    H3 4015   4.548   1.788  15.404 -0.6379 -1.7504 -1.8858
  265MPD2     N 4016   4.647   1.936  14.992  0.1484 -0.1029 -0.1609
  265MPD2    H5 4017   4.661   1.838  14.973 -3.5587 -0.8815  1.1590
  265MPD2    N1 4018   4.547   2.243  15.349 -0.8491  0.6428 -0.5914
  265MPD2    H7 4019   4.520   2.242  15.447 -1.7056 -1.2968 -0.8504
  266TMC3    C1 4020   4.536   2.476  15.375  0.0017  0.2906  0.3599
  266TMC3    C2 4021   4.563   2.454  15.509  0.0828 -0.2233  0.8440
  266TMC3    C3 4022   4.591   2.562  15.594 -0.2539  0.1320 -0.2328
  266TMC3    C4 4023   4.528   2.609  15.331 -0.1793  0.2460 -0.5097
  266TMC3    C5 4024   4.545   2.710  15.417 -0.4111 -0.6990 -0.1789
  266TMC3    C6 4025   4.572   2.691  15.551  0.4140 -0.4932  0.4523
  266TMC3     C 4026   4.561   2.368  15.282 -0.3683 -0.0815  0.0917
  266TMC3     O 4027   4.569   2.396  15.165 -0.0103  0.4985 -0.8191
  266TMC3     H 4028   4.569   2.354  15.551  0.3060  0.2804  2.0149
  266TMC3    H1 4029   4.524   2.638  15.226  0.3974  1.5928 -0.1664
  266TMC3    H2 4030   4.611   2.779  15.602 -1.8856  0.9225 -0.2208
  266TMC3    C7 4031   4.478   2.835  15.381 -0.3653  0.3940  0.2164
  266TMC3    C8 4032   4.671   2.534  15.708  0.5345  0.1832 -0.4622
  266TMC3    O1 4033   4.394   2.829  15.291  0.4515  0.0133  0.1658
  266TMC3    O2 4034   4.715   2.422  15.723 -0.4791 -0.0373  0.6796
  267MPD2     C 4035   2.695   3.407  17.273  0.6117  0.0193 -0.0669
  267MPD2    C1 4036   2.601   3.503  17.256 -0.2743  0.4902  0.3622
  267MPD2    C2 4037   2.520   3.487  17.143  0.5474 -0.6125 -0.2128
  267MPD2    C3 4038   2.527   3.376  17.063 -0.2960  0.7537  0.6791
  267MPD2    C4 4039   2.636   3.287  17.075  0.4154  0.0248  0.3646
  267MPD2    C5 4040   2.712   3.299  17.191 -0.6319  0.0298 -0.6792
  267MPD2     H 4041   2.447   3.564  17.120  1.8800  0.2217 -1.7357
  267MPD2    H1 4042   2.647   3.203  17.006  0.3906 -0.4816  0.9800
  267MPD2    H2 4043   2.757   3.431  17.359 -0.7343  0.6157  0.7392
  267MPD2    H3 4044   2.795   3.230  17.203 -0.4059  0.4391  0.0812
  267MPD2     N 4045   2.428   3.354  16.962 -0.1073  0.3293  0.2527
  267MPD2    H5 4046   2.450   3.274  16.903 -0.1685 -0.1204  0.8295
  267MPD2    N1 4047   2.600   3.615  17.348 -0.4946 -0.2327  0.3180
  267MPD2    H7 4048   2.643   3.607  17.440 -0.0355  2.5560  0.3492
  268TMC3    C1 4049   2.506   3.802  17.454  0.4132 -0.0625 -0.1496
  268TMC3    C2 4050   2.388   3.878  17.445 -0.0124 -0.6498 -0.2054
  268TMC3    C3 4051   2.327   3.908  17.565  0.1750  0.0149 -0.0250
  268TMC3    C4 4052   2.560   3.759  17.572 -0.3347  0.6737  1.1041
  268TMC3    C5 4053   2.507   3.810  17.685 -0.2388 -0.4480 -1.1210
  268TMC3    C6 4054   2.388   3.879  17.684 -0.3232  0.8391 -0.0681
  268TMC3     C 4055   2.526   3.732  17.332  0.0753  0.6312 -0.1733
  268TMC3     O 4056   2.447   3.757  17.246 -0.0669  0.7622 -0.0449
  268TMC3     H 4057   2.346   3.912  17.351 -0.9706  1.2242  0.9011
  268TMC3    H1 4058   2.646   3.693  17.571  0.5655  1.8484 -0.0557
  268TMC3    H2 4059   2.332   3.912   0.077  0.0781 -0.4473  0.6693
  268TMC3    C7 4060   2.551   3.743   0.112  0.3288  0.2868 -0.2162
  268TMC3    C8 4061   2.194   3.962  17.572 -0.5425 -0.7606 -0.5533
  268TMC3    O1 4062   2.467   3.727   0.201  0.6481 -0.1112  0.3588
  268TMC3    O2 4063   2.127   3.949  17.672  0.3642 -0.3286 -0.3175
  269MPD2     C 4064   2.226   3.046  15.300  0.7260  0.7635  0.1002
  269MPD2    C1 4065   2.149   3.071  15.413 -0.1723 -0.2249  0.5851
  269MPD2    C2 4066   2.110   3.201  15.437  0.7090 -1.0188  0.5567
  269MPD2    C3 4067   2.145   3.305  15.352 -0.0210  0.0507  0.1548
  269MPD2    C4 4068   2.211   3.277  15.230 -0.0867  0.1968  0.1767
  269MPD2    C5 4069   2.249   3.149  15.205 -0.4992 -0.1495  0.4545
  269MPD2     H 4070   2.053   3.230  15.525  0.7943 -3.3178  1.3644
  269MPD2    H1 4071   2.227   3.354  15.156 -0.8240  1.2821  1.1402
  269MPD2    H2 4072   2.259   2.945  15.280  0.7608  0.6348  0.8140
  269MPD2    H3 4073   2.300   3.124  15.113  0.4814  0.5034  0.8177
  269MPD2     N 4074   2.095   3.434  15.380  0.0257 -0.1371  0.6904
  269MPD2    H5 4075   2.039   3.443  15.464 -2.3206  1.0610 -1.0084
  269MPD2    N1 4076   2.115   2.951  15.489 -0.2709  0.3292 -0.9732
  269MPD2    H7 4077   2.148   2.861  15.456  0.8961  0.9333 -1.4630
  270TMC3    C1 4078   2.013   2.829  15.655 -0.7551 -0.2157  0.3797
  270TMC3    C2 4079   1.885   2.781  15.641 -0.0787 -0.1282  0.0497
  270TMC3    C3 4080   1.854   2.650  15.649  0.0846 -0.1826  0.4790
  270TMC3    C4 4081   2.113   2.736  15.661 -0.2721  0.2875  0.1394
  270TMC3    C5 4082   2.080   2.603  15.674 -0.2564  0.4674  0.0647
  270TMC3    C6 4083   1.954   2.555  15.659  0.3956  0.1604  0.5559
  270TMC3     C 4084   2.036   2.955  15.600  0.4711  0.2611  0.3763
  270TMC3     O 4085   1.993   3.048  15.666  0.1928  0.2167 -0.4066
  270TMC3     H 4086   1.800   2.847  15.630 -0.4068 -0.3329  1.3364
  270TMC3    H1 4087   2.217   2.769  15.666 -0.1430 -0.0824 -0.1236
  270TMC3    H2 4088   1.928   2.450  15.657 -1.6294  0.6708  0.3217
  270TMC3    C7 4089   2.179   2.510  15.728  0.1877 -0.0341  0.0294
  270TMC3    C8 4090   1.754   2.612  15.549 -0.0060 -0.7164 -0.1186
  270TMC3    O1 4091   2.300   2.519  15.716 -0.3116  0.1952 -0.3550
  270TMC3    O2 4092   1.646   2.667  15.565 -0.1270  0.1215 -0.6855
  271MPD2     C 4093   1.319   2.619  13.736 -0.7607  0.4204  0.4332
  271MPD2    C1 4094   1.231   2.555  13.815  0.1371 -0.7780 -0.0892
  271MPD2    C2 4095   1.095   2.591  13.799 -0.3226  0.1315 -0.7770
  271MPD2    C3 4096   1.051   2.678  13.704  0.9414  0.2721  0.2185
  271MPD2    C4 4097   1.144   2.734  13.619 -0.6143  0.2304 -0.0946
  271MPD2    C5 4098   1.273   2.696  13.633 -0.4763 -0.3759  0.2601
  271MPD2     H 4099   1.032   2.540  13.871  0.5897 -0.1181 -0.1535
  271MPD2    H1 4100   1.119   2.801  13.537  0.5476  1.5459  0.6327
  271MPD2    H2 4101   1.426   2.606  13.745 -1.1837 -1.4876  2.6306
  271MPD2    H3 4102   1.341   2.734  13.557 -1.5697  1.2314  0.0810
  271MPD2     N 4103   0.913   2.710  13.678  0.2063  0.1936 -0.5739
  271MPD2    H5 4104   0.883   2.775  13.607 -0.4640  0.7736  0.2399
  271MPD2    N1 4105   1.255   2.460  13.911  0.9060  0.1127  0.1464
  271MPD2    H7 4106   1.177   2.438  13.973 -0.3386  1.1065 -1.0576
  272TMC3    C1 4107   1.379   2.322  14.072 -0.7851  0.0424  0.0237
  272TMC3    C2 4108   1.494   2.247  14.073  0.4318 -0.0379 -0.6605
  272TMC3    C3 4109   1.545   2.215  14.197  0.2643 -0.8645  0.2440
  272TMC3    C4 4110   1.311   2.362  14.184 -0.2147  0.1723 -0.4083
  272TMC3    C5 4111   1.371   2.337  14.309 -0.5781 -0.6159  0.1889
  272TMC3    C6 4112   1.487   2.262  14.312  0.0177 -0.3912  0.4374
  272TMC3     C 4113   1.382   2.414  13.951 -0.8982 -0.9856  0.4283
  272TMC3     O 4114   1.485   2.420  13.885  0.3448 -0.6737  0.2545
  272TMC3     H 4115   1.540   2.201  13.985  2.1250 -1.0267  0.7361
  272TMC3    H1 4116   1.231   2.435  14.175 -0.0670  0.4071  0.1868
  272TMC3    H2 4117   1.539   2.235  14.403 -1.1014  0.8774  1.4557
  272TMC3    C7 4118   1.321   2.415  14.428 -0.6075 -0.2478 -0.3889
  272TMC3    C8 4119   1.685   2.185  14.200 -0.3956  0.2674  0.6673
  272TMC3    O1 4120   1.206   2.453  14.418  0.1505 -0.1257 -0.2961
  272TMC3    O2 4121   1.739   2.235  14.100  0.0058  0.1622 -0.3194
  273MPD2     C 4122   3.149   0.509  11.560  0.4538  0.2997 -0.4322
  273MPD2    C1 4123   3.219   0.620  11.599 -0.4285  0.3801 -0.3763
  273MPD2    C2 4124   3.234   0.728  11.514  0.0456  0.0220 -0.1094
  273MPD2    C3 4125   3.178   0.733  11.392  0.9269  0.8042 -0.6126
  273MPD2    C4 4126   3.109   0.620  11.349 -0.2056 -0.2798  0.5978
  273MPD2    C5 4127   3.103   0.508  11.432 -0.0534  0.3043 -0.1663
  273MPD2     H 4128   3.288   0.811  11.558 -1.6812  1.6103 -0.9989
  273MPD2    H1 4129   3.061   0.613  11.252 -0.5360 -0.0900  0.7465
  273MPD2    H2 4130   3.126   0.431  11.631 -1.3472 -0.0172 -1.3545
  273MPD2    H3 4131   3.063   0.416  11.391  1.0869 -0.3797  0.2619
  273MPD2     N 4132   3.169   0.852  11.322 -0.0876 -0.0536 -0.2870
  273MPD2    H5 4133   3.121   0.849  11.233  1.5314  0.7866 -1.2009
  273MPD2    N1 4134   3.270   0.619  11.728  0.6111 -0.4485 -0.2150
  273MPD2    H7 4135   3.251   0.530  11.774 -1.9108 -0.7200 -1.8221
  274TMC3    C1 4136   3.194   1.082  11.267  0.4583  0.0209 -1.1163
  274TMC3    C2 4137   3.186   1.055  11.133  0.1071 -0.5168 -0.0264
  274TMC3    C3 4138   3.199   1.168  11.056 -0.4396 -0.1304  0.1295
  274TMC3    C4 4139   3.219   1.205  11.319  0.3446  0.1287 -0.4983
  274TMC3    C5 4140   3.219   1.314  11.239  0.1778 -0.5652 -0.1668
  274TMC3    C6 4141   3.209   1.297  11.109  0.3285  0.1463  0.5382
  274TMC3     C 4142   3.211   0.976  11.360  0.1564 -0.5037  0.6066
  274TMC3     O 4143   3.255   1.007  11.472  0.2023  0.1707 -0.4810
  274TMC3     H 4144   3.173   0.958  11.087 -0.7416 -1.2394  1.7711
  274TMC3    H1 4145   3.221   1.215  11.427 -0.5924  0.6119 -0.5281
  274TMC3    H2 4146   3.190   1.390  11.057  0.9538 -0.5208 -0.8773
  274TMC3    C7 4147   3.162   1.426  11.306  0.0134  0.1575 -0.8363
  274TMC3    C8 4148   3.138   1.164  10.920 -0.1532  0.0805  0.2871
  274TMC3    O1 4149   3.107   1.405  11.416  0.4496 -0.2668  1.0025
  274TMC3    O2 4150   3.046   1.084  10.912  0.2866  0.0117  0.2211
  275MPD2     C 4151   2.759   3.528  14.345  0.1703  0.5101 -0.1606
  275MPD2    C1 4152   2.728   3.408  14.413  0.1197  0.4074  0.6703
  275MPD2    C2 4153   2.637   3.319  14.361  0.1396  0.6590 -0.0030
  275MPD2    C3 4154   2.560   3.361  14.251  0.6258 -0.3178  0.6544
  275MPD2    C4 4155   2.588   3.479  14.187 -0.0650  0.0254  0.1660
  275MPD2    C5 4156   2.685   3.565  14.241  0.2635  0.1661 -0.1921
  275MPD2     H 4157   2.612   3.232  14.421 -1.2245 -0.1843 -1.7876
  275MPD2    H1 4158   2.533   3.515  14.101  0.1949 -2.5376 -1.0841
  275MPD2    H2 4159   2.832   3.599  14.383 -0.4924  0.9579  0.2792
  275MPD2    H3 4160   2.705   3.663  14.198 -0.1601  1.6216  2.9103
  275MPD2     N 4161   2.452   3.288  14.210  0.5540 -0.3307 -0.4051
  275MPD2    H5 4162   2.386   3.331  14.146 -1.9073  1.0545  3.0730
  275MPD2    N1 4163   2.801   3.369  14.527  0.7562  0.3482 -0.0349
  275MPD2    H7 4164   2.770   3.283  14.572 -2.6678  2.1496  1.0148
  276TMC3    C1 4165   2.942   3.379  14.720 -0.2281 -0.5337  1.3307
  276TMC3    C2 4166   2.842   3.315  14.787 -0.7373 -1.1281 -0.1977
  276TMC3    C3 4167   2.858   3.314  14.925 -0.1151  0.4209 -0.1023
  276TMC3    C4 4168   3.039   3.459  14.784  0.4530 -0.0874  0.0669
  276TMC3    C5 4169   3.048   3.456  14.922 -0.4214 -0.4567 -0.7733
  276TMC3    C6 4170   2.962   3.379  14.995  0.5481 -0.3697  0.2346
  276TMC3     C 4171   2.903   3.438  14.589  0.1276 -0.6085 -0.4045
  276TMC3     O 4172   2.964   3.535  14.545  0.3147  0.4443 -0.7271
  276TMC3     H 4173   2.761   3.264  14.736 -1.4921 -0.6417  0.5253
  276TMC3    H1 4174   3.104   3.522  14.724 -1.8704  1.9290 -0.3477
  276TMC3    H2 4175   2.965   3.356  15.100 -0.1298  0.7718  0.5080
  276TMC3    C7 4176   3.121   3.558  14.993 -0.0452 -0.1665 -0.1953
  276TMC3    C8 4177   2.757   3.234  15.000  0.4261  0.1643  0.0966
  276TMC3    O1 4178   3.123   3.555  15.117 -0.3001 -0.2230 -0.6195
  276TMC3    O2 4179   2.742   3.270  15.117  0.0801 -0.3128  0.4256
  277MPD2     C 4180   4.589   2.478  13.230 -0.0242  0.0528  0.0920
  277MPD2    C1 4181   4.455   2.497  13.227 -0.4991 -0.0998 -0.7018
  277MPD2    C2 4182   4.381   2.443  13.331 -0.0743 -1.0503  0.0742
  277MPD2    C3 4183   4.452   2.371  13.428  0.4532  0.2706  0.0703
  277MPD2    C4 4184   4.587   2.370  13.440  0.6656 -0.2657  0.1026
  277MPD2    C5 4185   4.655   2.419  13.331  0.2351  0.2470 -0.4588
  277MPD2     H 4186   4.274   2.452  13.340 -0.0400  0.3586 -0.9892
  277MPD2    H1 4187   4.644   2.346  13.529  2.2839 -2.4857 -1.5223
  277MPD2    H2 4188   4.648   2.509  13.143  0.9951 -0.6354  0.5323
  277MPD2    H3 4189   0.041   2.422  13.333  0.2688  0.4027 -2.4430
  277MPD2     N 4190   4.370   2.308  13.528 -0.4065  0.4689  0.2565
  277MPD2    H5 4191   4.270   2.325  13.523 -0.1250  2.3604  1.0822
  277MPD2    N1 4192   4.398   2.571  13.117 -0.0241  0.2682 -0.2147
  277MPD2    H7 4193   4.461   2.598  13.042  0.5912 -0.3295  0.0803
  278TMC3    C1 4194   4.304   2.183  13.718  0.2214 -0.1288 -1.2977
  278TMC3    C2 4195   4.298   2.054  13.754  0.0274  0.2537  0.1806
  278TMC3    C3 4196   4.175   2.001  13.786  0.2840  0.2132 -0.1088
  278TMC3    C4 4197   4.194   2.268  13.725  0.3876  0.6708  0.5955
  278TMC3    C5 4198   4.079   2.215  13.754 -0.6813  0.1061  0.2112
  278TMC3    C6 4199   4.065   2.080  13.769  0.5337  0.6427 -0.9165
  278TMC3     C 4200   4.415   2.229  13.635 -0.4189 -0.3723  0.5989
  278TMC3     O 4201   4.523   2.173  13.649 -0.4656 -0.1704 -0.0069
  278TMC3     H 4202   4.382   1.987  13.744  0.2315  0.4079  0.9240
  278TMC3    H1 4203   4.204   2.373  13.701 -1.3906  1.1236  1.8820
  278TMC3    H2 4204   3.968   2.044  13.803  0.7972 -0.9365 -1.8702
  278TMC3    C7 4205   3.973   2.303  13.795 -1.2666 -0.6474  0.0361
  278TMC3    C8 4206   4.161   1.863  13.760 -0.4975 -0.3329  0.2407
  278TMC3    O1 4207   4.000   2.418  13.821  0.0860 -0.0181  0.1991
  278TMC3    O2 4208   4.246   1.787  13.804 -0.3368 -0.5812  0.5143
  279MPD2     C 4209   3.685   2.114  17.481  0.3552 -0.9282  0.2953
  279MPD2    C1 4210   3.751   2.222  17.537  0.2217  0.0935  0.2512
  279MPD2    C2 4211   3.855   2.278  17.462 -0.8831 -0.6621 -1.1195
  279MPD2    C3 4212   3.849   2.257  17.323  0.2191 -0.2976 -0.1447
  279MPD2    C4 4213   3.764   2.169  17.265  0.0495 -0.5519  0.5273
  279MPD2    C5 4214   3.698   2.084  17.349  0.1049  0.1261 -0.5844
  279MPD2     H 4215   3.935   2.340  17.501 -1.7328 -0.9558  1.1431
  279MPD2    H1 4216   3.759   2.158  17.157 -0.5517  1.9546  0.3158
  279MPD2    H2 4217   3.617   2.057  17.544  0.3463 -1.6125 -0.3257
  279MPD2    H3 4218   3.640   2.005  17.304  2.2627 -0.3540 -2.5072
  279MPD2     N 4219   3.930   2.333  17.236  0.6399 -0.1319 -0.2473
  279MPD2    H5 4220   3.920   2.312  17.137 -0.1100  3.1440 -0.8481
  279MPD2    N1 4221   3.715   2.263  17.669  0.5347  0.0102 -0.2028
  279MPD2    H7 4222   3.651   2.202   0.025 -0.2435 -0.6150 -1.9945
  280TMC3    C1 4223   3.726   2.399   0.180  0.3661 -0.4919 -0.4609
  280TMC3    C2 4224   3.680   2.302   0.258  0.9671 -0.3194  0.1859
  280TMC3    C3 4225   3.657   2.337   0.396  0.0006  0.0782  0.3702
  280TMC3    C4 4226   3.740   2.529   0.222 -0.2245 -0.1542  0.5636
  280TMC3    C5 4227   3.704   2.557   0.350  0.9659 -0.4817 -0.6937
  280TMC3    C6 4228   3.667   2.464   0.446 -0.2605 -0.2233  0.4034
  280TMC3     C 4229   3.764   2.378   0.039 -0.8356 -0.4361 -0.4377
  280TMC3     O 4230   3.817   2.477  17.677  0.3260 -0.4938  0.0841
  280TMC3     H 4231   3.673   2.200   0.222 -0.8405 -0.9340  2.2518
  280TMC3    H1 4232   3.773   2.612   0.161 -0.1335 -0.5525  0.0744
  280TMC3    H2 4233   3.644   2.490   0.549 -0.6394 -1.7314  0.6993
  280TMC3    C7 4234   3.674   2.691   0.389 -0.0359 -0.2877  0.7426
  280TMC3    C8 4235   3.636   2.223   0.492  0.6411  0.8365  0.2012
  280TMC3    O1 4236   3.651   2.704   0.507  0.0691  0.2968  0.0710
  280TMC3    O2 4237   3.633   2.111   0.442  0.2251 -0.3136 -0.0102
  281TMC3    C1 4238   2.439   2.913  12.891 -0.5758 -0.5027  0.0064
  281TMC3    C2 4239   2.545   2.988  12.849  0.3029  0.1626  0.2156
  281TMC3    C3 4240   2.601   2.954  12.725  0.1981 -0.1835  0.7148
  281TMC3    C4 4241   2.412   2.792  12.837  0.4437  0.9052 -0.7821
  281TMC3    C5 4242   2.469   2.756  12.721 -0.2644 -0.0313 -0.0775
  281TMC3    C6 4243   2.558   2.840  12.656  0.1059  0.4523 -0.0753
  281TMC3     C 4244   2.354   2.956  13.000 -0.1595  0.0698 -0.3257
  281TMC3     O 4245   2.260   2.886  13.039  0.7224 -0.4831  0.1947
  281TMC3     H 4246   2.586   3.069  12.907  2.4837 -1.8179  1.4610
  281TMC3    H1 4247   2.328   2.732  12.870 -0.7041  2.0219 -1.7063
  281TMC3    H2 4248   2.620   2.805  12.574 -2.0368 -0.6073 -1.2249
  281TMC3    C7 4249   2.521   2.621  12.723 -0.1467  0.6990  0.6562
  281TMC3    C8 4250   2.733   2.993  12.678 -0.2671  0.1783 -0.2792
  281TMC3    O1 4251   2.616   2.600  12.650 -0.2445  0.4409 -0.4171
  281TMC3    O2 4252   2.815   2.911  12.647  0.1322  0.1352  0.4374
  282MPD2     C 4253   4.438   4.044  15.273 -0.0374  0.1370 -0.3561
  282MPD2    C1 4254   4.321   4.108  15.299 -0.3402  0.1091  0.3169
  282MPD2    C2 4255   4.244   4.158  15.199  0.6353  0.0227  0.3323
  282MPD2    C3 4256   4.278   4.134  15.069  0.0954 -0.2962  0.0191
  282MPD2    C4 4257   4.410   4.089  15.042  0.3811 -0.0289 -0.0279
  282MPD2    C5 4258   4.487   4.049  15.148  0.4223  0.0201 -0.1447
  282MPD2     H 4259   4.152   4.211  15.222  0.3705  0.2980 -1.3735
  282MPD2    H1 4260   4.458   4.092  14.945 -1.1745  1.3682 -0.7537
  282MPD2    H2 4261   4.503   3.994  15.345  0.1379  1.0656  0.1310
  282MPD2    H3 4262   4.590   4.026  15.122  0.2661 -0.6720 -0.1395
  282MPD2     N 4263   4.181   4.176  14.973  0.1127  0.5741  0.5983
  282MPD2    H5 4264   4.098   4.222  15.010 -2.0291 -0.2062 -3.2492
  282MPD2    N1 4265   4.274   4.125  15.428 -0.5275  0.1244 -0.3818
  282MPD2    H7 4266   4.176   4.152  15.437 -0.7204 -0.6184 -0.2199
  283TMC3    C1 4267   4.252   4.109  15.664  0.1355 -0.2110 -0.1299
  283TMC3    C2 4268   4.190   4.229  15.677  0.2718 -0.1246  0.8929
  283TMC3    C3 4269   4.084   4.244  15.761 -0.0554  0.0860  0.0621
  283TMC3    C4 4270   4.190   3.993  15.718  0.1846 -0.4307 -0.4546
  283TMC3    C5 4271   4.070   4.003  15.794  0.0931 -0.0329 -0.5507
  283TMC3    C6 4272   4.017   4.129  15.815  0.5596 -0.5879  0.1505
  283TMC3     C 4273   4.333   4.080  15.548  0.1938 -0.0837  0.1076
  283TMC3     O 4274   4.445   4.037  15.563  0.3335  0.6927  0.4536
  283TMC3     H 4275   4.229   4.318  15.630 -0.7399 -0.2252 -0.1311
  283TMC3    H1 4276   4.243   3.900  15.699 -2.2767 -1.7336 -0.8173
  283TMC3    H2 4277   3.931   4.143  15.878  2.1436 -0.9435  2.3821
  283TMC3    C7 4278   3.995   3.883  15.841 -0.0453 -0.5068 -0.4349
  283TMC3    C8 4279   4.046   4.368  15.826 -0.0029  0.6049  0.3033
  283TMC3    O1 4280   3.880   3.908  15.874 -0.0251  0.0838 -0.1696
  283TMC3    O2 4281   4.004   4.364  15.944  0.3141 -0.2673 -0.0480
  284MPD2     C 4282   2.222   3.092  11.967 -0.9136  0.1473  0.6296
  284MPD2    C1 4283   2.115   3.143  11.903 -0.3293 -0.5963 -0.1224
  284MPD2    C2 4284   1.997   3.075  11.895  0.1955 -0.1207  0.0969
  284MPD2    C3 4285   1.994   2.942  11.925 -1.1302 -0.0854  0.1424
  284MPD2    C4 4286   2.107   2.887  11.982  0.1098 -0.0727 -0.2130
  284MPD2    C5 4287   2.212   2.961  12.010  0.3778 -0.2438 -0.1442
  284MPD2     H 4288   1.912   3.132  11.860  0.4252 -0.3210 -0.7823
  284MPD2    H1 4289   2.110   2.779  11.998 -1.2696 -0.3560 -1.7963
  284MPD2    H2 4290   2.312   3.150  11.982  0.0593 -0.8998 -1.2591
  284MPD2    H3 4291   2.304   2.916  12.046  0.4094 -0.4310 -0.4508
  284MPD2     N 4292   1.885   2.867  11.884  0.2392  0.2494 -0.1882
  284MPD2    H5 4293   1.887   2.770  11.912 -0.5053  0.2756 -0.0553
  284MPD2    N1 4294   2.114   3.270  11.836 -0.2138 -0.5101 -0.0508
  284MPD2    H7 4295   2.027   3.304  11.797  0.4014  0.3955 -0.6151
  285TMC3    C1 4296   2.201   3.465  11.732 -0.4148 -0.0348 -0.2778
  285TMC3    C2 4297   2.097   3.448  11.642 -0.0289 -0.5727  0.0933
  285TMC3    C3 4298   2.115   3.487  11.508 -0.5933 -0.0886 -0.4489
  285TMC3    C4 4299   2.314   3.530  11.694  0.5233  0.3137  0.0551
  285TMC3    C5 4300   2.329   3.573  11.567 -0.1452 -0.0676  0.5842
  285TMC3    C6 4301   2.226   3.547  11.468  0.2195 -1.0768  0.1701
  285TMC3     C 4302   2.222   3.354  11.824 -0.6578 -0.4882  0.0890
  285TMC3     O 4303   2.336   3.339  11.861 -0.1782  0.0049  0.3945
  285TMC3     H 4304   1.999   3.417  11.676 -1.0381 -0.2862 -2.5924
  285TMC3    H1 4305   2.400   3.522  11.759  0.8569  1.6044 -0.2253
  285TMC3    H2 4306   2.246   3.574  11.365  0.4793  0.2875  0.5790
  285TMC3    C7 4307   2.448   3.633  11.517 -0.2568  0.4335  0.7943
  285TMC3    C8 4308   2.005   3.482  11.409 -0.0665 -0.1090  0.0521
  285TMC3    O1 4309   2.451   3.664  11.399 -0.0052  0.4955 -0.1032
  285TMC3    O2 4310   2.043   3.481  11.295  0.3952  0.0125  0.0534
  286MPD2     C 4311   3.535   2.781   1.585  0.1485 -0.1894  0.3904
  286MPD2    C1 4312   3.506   2.710   1.468  0.2197  0.8984 -0.3655
  286MPD2    C2 4313   3.612   2.643   1.405 -0.8552 -0.6259  0.3082
  286MPD2    C3 4314   3.739   2.643   1.454 -0.0475  0.0174 -0.1153
  286MPD2    C4 4315   3.765   2.724   1.565  0.2056  0.0037 -0.2808
  286MPD2    C5 4316   3.666   2.794   1.624 -0.3194 -0.5085 -0.3795
  286MPD2     H 4317   3.592   2.585   1.316  0.4312  1.8053 -1.5581
  286MPD2    H1 4318   3.867   2.745   1.596 -0.0521  0.7171  0.0941
  286MPD2    H2 4319   3.462   2.836   1.642  0.8394 -0.5832  1.6772
  286MPD2    H3 4320   3.684   2.876   1.692 -0.2748 -0.3526 -0.5800
  286MPD2     N 4321   3.848   2.570   1.394  0.5835  0.2723  0.3698
  286MPD2    H5 4322   3.940   2.586   1.434  0.6322 -0.0668  0.3930
  286MPD2    N1 4323   3.374   2.713   1.415  0.0430 -0.1249  0.7958
  286MPD2    H7 4324   3.354   2.665   1.328 -0.1492  1.1698  0.1166
  287TMC3    C1 4325   3.965   2.389   1.287  0.6744  0.4992  0.2860
  287TMC3    C2 4326   3.988   2.322   1.170  0.4285  0.4479  0.2690
  287TMC3    C3 4327   4.097   2.244   1.151 -0.5727 -0.2203 -0.2806
  287TMC3    C4 4328   4.051   2.373   1.391  0.1606 -0.5754  0.1548
  287TMC3    C5 4329   4.160   2.288   1.367 -0.2924 -0.1328  0.3344
  287TMC3    C6 4330   4.179   2.215   1.253 -0.0498 -0.0605  0.3916
  287TMC3     C 4331   3.837   2.463   1.309 -0.6125 -0.6251  0.3320
  287TMC3     O 4332   3.745   2.435   1.233 -1.1236 -0.6690  0.6671
  287TMC3     H 4333   3.911   2.339   1.095 -0.1598 -2.9153  0.0860
  287TMC3    H1 4334   4.036   2.409   1.492  0.6178  1.5564 -0.5484
  287TMC3    H2 4335   4.267   2.153   1.240  0.1487  0.3380 -0.1528
  287TMC3    C7 4336   4.245   2.261   1.482  0.3107  0.1712 -0.4769
  287TMC3    C8 4337   4.099   2.146   1.042 -0.0325 -0.0080  1.1308
  287TMC3    O1 4338   4.214   2.309   1.587 -0.2043 -0.6216 -0.1591
  287TMC3    O2 4339   4.128   2.035   1.085 -0.1696 -0.1879 -0.1792
  288TMC3    C1 4340   0.291   1.747  14.194  0.2566  0.3882  0.1318
  288TMC3    C2 4341   0.174   1.745  14.261  0.4103  0.0058 -0.3219
  288TMC3    C3 4342   0.063   1.794  14.199  0.0907  0.4332  0.3642
  288TMC3    C4 4343   0.297   1.781  14.055  0.4452 -0.0789  0.2215
  288TMC3    C5 4344   0.177   1.835  14.004 -0.7147  0.1997 -0.0784
  288TMC3    C6 4345   0.066   1.856  14.077 -0.5691  0.5540 -0.6601
  288TMC3     C 4346   0.419   1.727  14.260  0.1075  0.2740  0.3124
  288TMC3     O 4347   0.521   1.756  14.200 -0.1991  0.3445 -0.4727
  288TMC3     H 4348   0.168   1.702  14.360 -0.5501  2.0658  0.5142
  288TMC3    H1 4349   0.389   1.778  13.999  0.5694 -0.4586  0.4455
  288TMC3    H2 4350   4.691   1.882  14.039 -0.9032 -1.2383 -0.9822
  288TMC3    C7 4351   0.176   1.902  13.874  0.1701  0.0451  0.3129
  288TMC3    C8 4352   4.685   1.843  14.292 -0.7605  0.1759 -0.4657
  288TMC3    O1 4353   0.094   1.989  13.853 -0.3143 -0.5612  0.1786
  288TMC3    O2 4354   4.621   1.937  14.251 -0.2691 -0.3928  0.5517
  289MPD2     C 4355   0.179   1.454  14.068  0.0026  0.3404  0.1178
  289MPD2    C1 4356   0.119   1.504  13.947 -0.3754 -0.3052 -0.0731
  289MPD2    C2 4357   4.704   1.540  13.957 -0.1166 -0.0994  1.3940
  289MPD2    C3 4358   4.646   1.519  14.083  0.0263  0.0780  0.0236
  289MPD2    C4 4359   4.706   1.463  14.196 -0.0403  0.0896 -0.1986
  289MPD2    C5 4360   0.109   1.434  14.188  0.0322 -0.1380  0.0412
  289MPD2     H 4361   4.644   1.578  13.875  1.2251 -0.7586  0.1186
  289MPD2    H1 4362   4.655   1.452  14.292  0.1263 -1.5813 -0.2920
  289MPD2    H2 4363   0.280   1.417  14.064  0.4433  1.5047  0.5667
  289MPD2    H3 4364   0.155   1.383  14.273  2.0117 -0.3797 -1.1811
  289MPD2     N 4365   4.512   1.556  14.091 -0.1195  0.2855  0.2635
  289MPD2    H5 4366   4.488   1.614  14.011  2.7605  1.9426  0.5788
  289MPD2    N1 4367   0.194   1.500  13.833 -0.0079 -0.6090  0.1663
  289MPD2    H7 4368   0.283   1.454  13.845  0.6585  0.4371 -0.8326
  290TMC3    C1 4369   4.286   1.534  14.120 -0.1175 -0.0911  0.2870
  290TMC3    C2 4370   4.239   1.659  14.098  0.7566 -0.9477  1.3103
  290TMC3    C3 4371   4.106   1.671  14.066 -0.5911  0.3620 -0.3122
  290TMC3    C4 4372   4.213   1.420  14.123  0.1032  0.4551 -0.2260
  290TMC3    C5 4373   4.089   1.436  14.072  0.2560  0.4609  0.3998
  290TMC3    C6 4374   4.033   1.558  14.053 -0.0777 -0.0403 -0.1798
  290TMC3     C 4375   4.417   1.521  14.177  0.5599  0.0553 -0.8657
  290TMC3     O 4376   4.427   1.445  14.272 -0.0739  0.0888 -0.5608
  290TMC3     H 4377   4.303   1.746  14.090  0.1364 -0.6909 -0.8636
  290TMC3    H1 4378   4.269   1.328  14.129 -0.3870  0.1018 -0.9557
  290TMC3    H2 4379   3.937   1.572  14.005 -0.2114  0.6413  0.2911
  290TMC3    C7 4380   4.021   1.323  14.015 -0.2377  0.3280 -0.7395
  290TMC3    C8 4381   4.029   1.800  14.075  0.5839  0.4807  0.0713
  290TMC3    O1 4382   3.933   1.347  13.933  0.6454 -0.7656  0.4299
  290TMC3    O2 4383   3.913   1.780  14.055  0.3938  0.6591 -0.0819
  291MPD2     C 4384   4.307   0.778   0.398  0.1927 -0.5430  0.3708
  291MPD2    C1 4385   4.275   0.658   0.330 -0.0881  0.2336 -0.1230
  291MPD2    C2 4386   4.380   0.596   0.267  0.3468 -0.2988  0.0989
  291MPD2    C3 4387   4.504   0.652   0.266 -0.1120  0.0116  0.0348
  291MPD2    C4 4388   4.531   0.768   0.332  0.1672  0.3115  0.3335
  291MPD2    C5 4389   4.428   0.832   0.391 -0.1344 -0.1094  0.4392
  291MPD2     H 4390   4.359   0.510   0.205 -1.6138  0.0750  0.2612
  291MPD2    H1 4391   4.629   0.813   0.332  0.9905 -1.4525 -2.8832
  291MPD2    H2 4392   4.235   0.836   0.454 -1.0079 -1.7845  0.1175
  291MPD2    H3 4393   4.434   0.924   0.447 -1.4870 -0.8790  1.8364
  291MPD2     N 4394   4.619   0.600   0.199  0.1490  0.3616  0.8853
  291MPD2    H5 4395   4.689   0.671   0.179 -0.1477 -0.1901 -2.1709
  291MPD2    N1 4396   4.140   0.611   0.318 -0.6222  0.3144  0.3963
  291MPD2    H7 4397   4.126   0.514   0.290  0.0683 -0.1887  1.7796
  292TMC3    C1 4398   3.908   0.611   0.353  0.6906 -0.5061 -0.0734
  292TMC3    C2 4399   3.795   0.668   0.413  0.8678  0.3203  0.1859
  292TMC3    C3 4400   3.677   0.625   0.367 -0.1376 -0.4549 -0.2171
  292TMC3    C4 4401   3.903   0.501   0.263  0.4728  0.4163 -0.0745
  292TMC3    C5 4402   3.777   0.448   0.243 -0.6535 -0.2816  0.1046
  292TMC3    C6 4403   3.671   0.513   0.287  0.4557  0.3195 -0.0779
  292TMC3     C 4404   4.033   0.680   0.366  0.4853  0.1700  1.0018
  292TMC3     O 4405   4.026   0.796   0.409 -0.6231  0.6725 -0.2898
  292TMC3     H 4406   3.793   0.754   0.479  2.7997 -1.1762  2.1693
  292TMC3    H1 4407   3.985   0.467   0.200 -0.3323  0.3628 -1.0939
  292TMC3    H2 4408   3.572   0.503   0.243  0.4740  2.4839 -0.6422
  292TMC3    C7 4409   3.764   0.328   0.155  0.3560  0.6657 -0.3981
  292TMC3    C8 4410   3.559   0.692   0.405  0.0414  0.0007 -0.0136
  292TMC3    O1 4411   3.854   0.314   0.075 -0.0897 -0.3612 -0.0526
  292TMC3    O2 4412   3.559   0.814   0.410  0.0554 -0.2573 -0.4703
  293MPD2     C 4413   1.023   2.783  12.406  0.9250 -0.0898 -1.2959
  293MPD2    C1 4414   0.988   2.664  12.453  0.1663 -0.4361  0.3135
  293MPD2    C2 4415   1.044   2.623  12.573  0.0675  0.6233 -0.2060
  293MPD2    C3 4416   1.117   2.711  12.654 -0.1538 -0.0795  0.5430
  293MPD2    C4 4417   1.137   2.840  12.603  0.7741  0.5746 -0.8911
  293MPD2    C5 4418   1.095   2.868  12.482  0.1134 -0.5315 -0.0645
  293MPD2     H 4419   1.033   2.524  12.615 -2.4234  1.5657  1.3145
  293MPD2    H1 4420   1.186   2.919  12.659 -1.4379  1.5287 -0.2793
  293MPD2    H2 4421   0.987   2.816  12.310  0.5555  1.1622 -0.7223
  293MPD2    H3 4422   1.114   2.969  12.446  1.6937 -0.3687  1.2003
  293MPD2     N 4423   1.147   2.666  12.785 -0.3919 -0.6249  0.8076
  293MPD2    H5 4424   1.133   2.569  12.812 -0.5620 -0.8332 -0.0125
  293MPD2    N1 4425   0.890   2.584  12.380 -0.6581 -0.0656  0.4372
  293MPD2    H7 4426   0.854   2.615  12.290  3.2997 -2.1817 -1.9108
  294TMC3    C1 4427   0.734   2.422  12.343  0.1913 -0.1645 -0.0076
  294TMC3    C2 4428   0.640   2.350  12.404 -0.1968  0.0109 -0.5921
  294TMC3    C3 4429   0.522   2.336  12.331  0.0684  0.0746 -0.0760
  294TMC3    C4 4430   0.721   2.469  12.215  0.0747  1.7067  0.1655
  294TMC3    C5 4431   0.606   2.449  12.141 -0.1527  0.7550  0.5678
  294TMC3    C6 4432   0.506   2.371  12.197  0.7258 -0.0408  0.0600
  294TMC3     C 4433   0.849   2.461  12.421 -0.4095 -0.1771 -0.0571
  294TMC3     O 4434   0.886   2.383  12.508 -0.0117 -0.0200  0.1549
  294TMC3     H 4435   0.653   2.307  12.502  0.2134 -4.2137 -2.5030
  294TMC3    H1 4436   0.798   2.519  12.158  0.9122 -2.1397 -2.1430
  294TMC3    H2 4437   0.416   2.345  12.143 -0.4529  0.0625  2.0001
  294TMC3    C7 4438   0.619   2.480  11.996 -0.5258  0.1357 -0.5822
  294TMC3    C8 4439   0.421   2.247  12.388  0.4434  0.5794  0.2737
  294TMC3    O1 4440   0.666   2.587  11.955  0.1735  0.0154  0.2365
  294TMC3    O2 4441   0.379   2.265  12.503  0.2063 -0.2347  0.1271
  295MPD2     C 4442   1.696   1.275   0.717  0.2084 -0.6465 -0.1275
  295MPD2    C1 4443   1.566   1.321   0.696  0.0180 -0.2646 -0.1454
  295MPD2    C2 4444   1.489   1.347   0.808 -0.0893  0.0799 -0.4544
  295MPD2    C3 4445   1.533   1.327   0.939 -0.0995  0.2215 -0.1090
  295MPD2    C4 4446   1.656   1.276   0.960 -0.8197  0.1555  0.6724
  295MPD2    C5 4447   1.744   1.259   0.847 -0.0404 -0.4123  1.2627
  295MPD2     H 4448   1.396   1.401   0.792 -1.1402 -1.1426  1.4192
  295MPD2    H1 4449   1.699   1.266   1.059  0.0915  1.5612  0.4244
  295MPD2    H2 4450   1.758   1.243   0.634 -1.0870 -1.7937 -0.6527
  295MPD2    H3 4451   1.843   1.223   0.872  1.1292  0.3482 -2.2849
  295MPD2     N 4452   1.442   1.345   1.053  0.7709 -0.4026  0.5469
  295MPD2    H5 4453   1.484   1.325   1.143  0.3040 -0.7857  0.6768
  295MPD2    N1 4454   1.506   1.328   0.570 -0.8429  0.3944 -0.2269
  295MPD2    H7 4455   1.408   1.353   0.572 -1.0610 -0.6582  1.9215
  296TMC3    C1 4456   1.271   1.429   1.187 -0.7964 -0.2887 -0.1974
  296TMC3    C2 4457   1.180   1.532   1.203  0.5161 -0.2900  0.0098
  296TMC3    C3 4458   1.144   1.571   1.329 -0.3485  0.4637 -0.4083
  296TMC3    C4 4459   1.324   1.359   1.295  0.0328 -1.1514 -0.2556
  296TMC3    C5 4460   1.275   1.399   1.419 -0.6596 -0.1693 -0.5827
  296TMC3    C6 4461   1.185   1.501   1.439 -0.0509 -0.0161  0.0977
  296TMC3     C 4462   1.318   1.403   1.048 -0.3620  0.8985 -0.1084
  296TMC3     O 4463   1.248   1.451   0.957 -0.3283 -0.2746 -0.0874
  296TMC3     H 4464   1.133   1.573   1.115 -0.6718 -1.1033  0.2603
  296TMC3    H1 4465   1.399   1.283   1.275  0.6301 -0.1048 -1.9325
  296TMC3    H2 4466   1.147   1.524   1.538  0.8118  0.0383  0.4182
  296TMC3    C7 4467   1.312   1.316   1.532  0.7175  0.0416  0.5043
  296TMC3    C8 4468   1.040   1.663   1.349 -0.7259 -1.0938  0.3462
  296TMC3    O1 4469   1.402   1.233   1.517 -0.0845 -0.1663  0.6100
  296TMC3    O2 4470   0.934   1.655   1.285 -0.1674  0.5751 -0.0119
  297MPD2     C 4471   3.755   2.831  16.883 -0.2431 -0.3346 -0.5144
  297MPD2    C1 4472   3.668   2.863  16.776  0.2534  1.1338 -0.6559
  297MPD2    C2 4473   3.697   2.961  16.688 -0.2666  0.2928 -0.0509
  297MPD2    C3 4474   3.821   3.022  16.700  0.1208 -0.3341  0.7003
  297MPD2    C4 4475   3.902   3.005  16.812 -0.0508 -0.5494  0.4144
  297MPD2    C5 4476   3.865   2.910  16.902  0.4069 -0.4226  0.1290
  297MPD2     H 4477   3.619   2.992  16.618 -0.2652 -1.5671 -0.8597
  297MPD2    H1 4478   3.984   3.072  16.836  0.3875 -1.0815  0.4204
  297MPD2    H2 4479   3.726   2.763  16.962  1.1371 -1.4159 -0.9412
  297MPD2    H3 4480   3.917   2.901  16.996 -0.9187 -0.5432  0.8435
  297MPD2     N 4481   3.862   3.121  16.602 -0.0542  0.5146  0.6952
  297MPD2    H5 4482   3.788   3.143  16.536 -1.0200  0.3536  1.7253
  297MPD2    N1 4483   3.538   2.793  16.763 -0.1262  0.6288  0.3701
  297MPD2    H7 4484   3.476   2.825  16.689  1.4141 -1.3236 -1.7736
  298TMC3    C1 4485   3.374   2.631  16.774 -0.2190 -0.6758 -0.1508
  298TMC3    C2 4486   3.342   2.501  16.745  0.3908  0.2868 -0.4597
  298TMC3    C3 4487   3.231   2.480  16.673 -0.1741 -0.1015  0.2143
  298TMC3    C4 4488   3.292   2.735  16.739  0.2808  0.8843 -1.0891
  298TMC3    C5 4489   3.170   2.705  16.691 -0.4602  0.4938  1.1126
  298TMC3    C6 4490   3.139   2.580  16.647 -0.2111  0.0469 -0.3137
  298TMC3     C 4491   3.513   2.665  16.812  0.4158  0.0117  0.6140
  298TMC3     O 4492   3.591   2.594  16.872 -0.1594  0.2594  0.5788
  298TMC3     H 4493   3.416   2.425  16.768  0.3947  0.3658 -0.2213
  298TMC3    H1 4494   3.309   2.830  16.790  3.1112  0.7291 -1.7177
  298TMC3    H2 4495   3.037   2.559  16.616 -0.4996  2.1921 -0.8113
  298TMC3    C7 4496   3.093   2.823  16.658  0.6197 -0.2160  0.4631
  298TMC3    C8 4497   3.183   2.343  16.669  0.2323  0.2585 -0.5616
  298TMC3    O1 4498   3.087   2.914  16.739  0.1838 -0.1141  0.6335
  298TMC3    O2 4499   3.255   2.256  16.727 -0.1237  0.1863 -0.0710
  299MPD2     C 4500   3.394   2.202  10.302 -0.1163  0.3978 -0.0803
  299MPD2    C1 4501   3.371   2.319  10.229  0.0986 -0.0249  0.5091
  299MPD2    C2 4502   3.243   2.371  10.247  0.6633  0.0026 -0.2023
  299MPD2    C3 4503   3.145   2.318  10.337  0.2818 -0.2831  0.6431
  299MPD2    C4 4504   3.170   2.200  10.404  0.5438  0.1782 -0.1541
  299MPD2    C5 4505   3.298   2.146  10.388 -0.6152 -0.9861  0.0729
  299MPD2     H 4506   3.212   2.458  10.190  2.8160 -0.2703 -1.7845
  299MPD2    H1 4507   3.094   2.144  10.458  1.9644 -1.2228  0.3935
  299MPD2    H2 4508   3.480   2.139  10.284 -2.0539 -1.7344 -1.7983
  299MPD2    H3 4509   3.315   2.046  10.427 -0.4224 -0.5353  1.1523
  299MPD2     N 4510   3.023   2.379  10.370  0.2402 -0.4805 -0.4324
  299MPD2    H5 4511   2.975   2.333  10.447 -0.4432  0.2830 -0.4039
  299MPD2    N1 4512   3.477   2.355  10.140 -0.0255 -0.6446 -0.3268
  299MPD2    H7 4513   3.565   2.305  10.136  1.2999  1.6167  0.2735
  300TMC3    C1 4514   2.879   2.565  10.427  0.2048  0.5892  0.5406
  300TMC3    C2 4515   2.883   2.703  10.448 -0.0112  0.3630 -0.3193
  300TMC3    C3 4516   2.820   2.749  10.560 -0.2462 -0.1224  0.2073
  300TMC3    C4 4517   2.792   2.482  10.500  0.7397  0.0551  0.5322
  300TMC3    C5 4518   2.711   2.542  10.594  0.5750  0.1323 -0.2767
  300TMC3    C6 4519   2.730   2.669  10.633 -0.2801  0.1771  0.2366
  300TMC3     C 4520   2.980   2.508  10.335 -0.3439 -1.1455 -0.5173
  300TMC3     O 4521   3.031   2.583  10.255 -0.2145  0.7609  0.7642
  300TMC3     H 4522   2.961   2.764  10.404  1.1253  0.2070  1.4772
  300TMC3    H1 4523   2.766   2.387  10.456 -1.6134 -0.2912  2.6814
  300TMC3    H2 4524   2.677   2.719  10.713  0.5750 -1.3148  1.7266
  300TMC3    C7 4525   2.582   2.488  10.612  0.1009 -0.8349  0.3341
  300TMC3    C8 4526   2.803   2.895  10.572  0.0296  0.1828  0.4556
  300TMC3    O1 4527   2.568   2.377  10.565 -0.0975  0.7977 -0.7374
  300TMC3    O2 4528   2.819   2.943  10.684  0.0949 -0.7059 -0.1175
  301MPD2     C 4529   1.407   3.806   1.577  0.3858 -0.6030  0.1412
  301MPD2    C1 4530   1.383   3.823   1.442 -0.1679  0.4550  0.1336
  301MPD2    C2 4531   1.455   3.745   1.357  0.1476 -0.6653  0.0091
  301MPD2    C3 4532   1.554   3.653   1.394  0.4554  0.8098 -0.0196
  301MPD2    C4 4533   1.578   3.649   1.525 -0.0881 -0.4357 -1.1564
  301MPD2    C5 4534   1.502   3.717   1.615 -0.3138 -0.1241  0.2669
  301MPD2     H 4535   1.428   3.761   1.253 -1.4098  0.7310  0.6187
  301MPD2    H1 4536   1.654   3.580   1.561  1.5602  0.8388 -2.1958
  301MPD2    H2 4537   1.334   3.854   1.640  0.5353  0.7574 -0.7158
  301MPD2    H3 4538   1.518   3.694   1.720  1.6226 -0.7146 -0.1635
  301MPD2     N 4539   1.618   3.559   1.309 -0.2316 -0.0533  0.6588
  301MPD2    H5 4540   1.694   3.506   1.351  0.7989  1.0166  0.1708
  301MPD2    N1 4541   1.285   3.909   1.392 -0.4350 -0.5275 -0.3329
  301MPD2    H7 4542   1.263   3.911   1.293  3.0254  0.5271 -1.0825
  302TMC3    C1 4543   1.694   3.462   1.102  0.2735  0.3867 -0.1871
  302TMC3    C2 4544   1.735   3.356   1.177  0.0996 -0.3711 -0.5051
  302TMC3    C3 4545   1.825   3.262   1.118  0.4896 -0.3787 -0.2659
  302TMC3    C4 4546   1.717   3.465   0.969 -0.6439 -0.6608  0.2830
  302TMC3    C5 4547   1.795   3.364   0.915  0.2383  0.4752 -0.2904
  302TMC3    C6 4548   1.862   3.272   0.989 -0.8318  0.3711  0.0570
  302TMC3     C 4549   1.621   3.569   1.175 -0.2854  0.5201  0.5586
  302TMC3     O 4550   1.573   3.653   1.101  0.0605  0.1450 -0.0309
  302TMC3     H 4551   1.719   3.347   1.284  0.2482 -1.2771 -0.5565
  302TMC3    H1 4552   1.685   3.552   0.912 -3.7113 -1.3587  0.8989
  302TMC3    H2 4553   1.924   3.197   0.939  3.2222  2.8247  1.3962
  302TMC3    C7 4554   1.799   3.346   0.772 -0.0716  0.2310  0.3046
  302TMC3    C8 4555   1.856   3.137   1.174  0.1093 -1.0931 -1.4215
  302TMC3    O1 4556   1.889   3.280   0.723 -0.1057 -0.3398  0.2154
  302TMC3    O2 4557   1.939   3.069   1.109  0.0442  0.1810  0.3080
  303MPD2     C 4558   1.338   2.129   9.982 -0.3649 -0.2560  0.2246
  303MPD2    C1 4559   1.244   2.108   9.887 -0.2545 -0.0244 -0.2490
  303MPD2    C2 4560   1.135   2.189   9.872  0.6229  0.1470 -0.1638
  303MPD2    C3 4561   1.125   2.300   9.945  0.0472 -0.4855 -0.4893
  303MPD2    C4 4562   1.232   2.332  10.028  0.4864 -0.3354  0.9383
  303MPD2    C5 4563   1.342   2.251  10.043 -0.0327  0.2690  0.1415
  303MPD2     H 4564   1.050   2.171   9.806  0.4037  4.1047 -0.9498
  303MPD2    H1 4565   1.237   2.422  10.087 -2.2248  0.0928  0.5254
  303MPD2    H2 4566   1.425   2.064   9.991 -0.0647  0.1105 -0.0373
  303MPD2    H3 4567   1.433   2.281  10.094 -1.6856  1.0119  2.6614
  303MPD2     N 4568   1.020   2.398   9.930 -0.1085  0.2560 -0.1837
  303MPD2    H5 4569   1.030   2.488   9.975 -0.1927  0.2996 -0.2519
  303MPD2    N1 4570   1.262   1.996   9.802 -0.1054 -0.5673  0.6440
  303MPD2    H7 4571   1.327   1.922   9.828  0.0042 -0.4096  0.8141
  304TMC3    C1 4572   1.213   1.844   9.640 -0.3368 -0.2022  0.6446
  304TMC3    C2 4573   1.177   1.747   9.724 -0.2896  0.1291 -0.1115
  304TMC3    C3 4574   1.122   1.632   9.670 -0.3931  0.2905 -0.4332
  304TMC3    C4 4575   1.199   1.832   9.504 -0.1156  0.3532  0.2444
  304TMC3    C5 4576   1.166   1.712   9.455 -0.2045  0.0108 -0.1990
  304TMC3    C6 4577   1.127   1.609   9.533 -0.5528  0.3972  0.5127
  304TMC3     C 4578   1.188   1.977   9.687  0.4979 -0.5075  0.2123
  304TMC3     O 4579   1.133   2.060   9.612  0.2378 -0.2889  0.1643
  304TMC3     H 4580   1.182   1.753   9.833  0.1835  3.3239 -0.3219
  304TMC3    H1 4581   1.213   1.914   9.435  1.5511  0.0179  0.1997
  304TMC3    H2 4582   1.088   1.520   9.485  0.0051 -0.4500  1.6362
  304TMC3    C7 4583   1.074   1.729   9.338 -0.2009  0.2511  0.4236
  304TMC3    C8 4584   0.995   1.602   9.734 -0.0336 -0.3152 -0.1050
  304TMC3    O1 4585   0.978   1.658   9.350 -0.2349  0.1103  0.2997
  304TMC3    O2 4586   0.983   1.627   9.853  0.2470  0.3149  1.1973
  305MPD2     C 4587   4.030   3.828  13.936 -0.2761  0.2670 -0.0701
  305MPD2    C1 4588   4.079   3.962  13.940 -0.5760  0.2412  0.6661
  305MPD2    C2 4589   4.044   4.048  13.840 -0.2942 -0.1223  0.1139
  305MPD2    C3 4590   3.976   4.002  13.733 -0.0932 -0.4269  0.3791
  305MPD2    C4 4591   3.934   3.869  13.728 -0.1395  0.2998  0.6973
  305MPD2    C5 4592   3.952   3.786  13.831 -0.1028 -0.5608  0.6232
  305MPD2     H 4593   4.077   4.151  13.852  0.0352 -0.6330  3.8610
  305MPD2    H1 4594   3.885   3.829  13.639  1.8281  1.8808 -1.1030
  305MPD2    H2 4595   4.060   3.758  14.013 -2.3067  0.7017  1.1028
  305MPD2    H3 4596   3.908   3.686  13.826 -0.5196 -0.3844  0.7311
  305MPD2     N 4597   3.946   4.089  13.624  0.6177  0.7441  0.7606
  305MPD2    H5 4598   3.883   4.044  13.559 -0.3729  0.3474  1.9925
  305MPD2    N1 4599   4.153   4.002  14.054 -0.1559  0.4374 -0.4676
  305MPD2    H7 4600   4.155   3.933  14.129 -1.1538  2.3666  1.3665
  306TMC3    C1 4601   4.255   4.154  14.205  0.7626 -0.3676 -0.5261
  306TMC3    C2 4602   4.322   4.055  14.271  0.1482  0.1230 -0.1378
  306TMC3    C3 4603   4.373   4.086  14.393 -0.0983  0.2249 -0.0142
  306TMC3    C4 4604   4.235   4.281  14.263 -0.0295  0.0530 -0.7007
  306TMC3    C5 4605   4.281   4.307  14.393 -0.1609  1.1957 -0.2077
  306TMC3    C6 4606   4.352   4.204  14.457 -0.6977 -0.0014 -0.2170
  306TMC3     C 4607   4.184   4.132  14.083  0.2102 -0.1256 -0.6922
  306TMC3     O 4608   4.162   4.235  14.025 -0.2872 -0.1691  0.1794
  306TMC3     H 4609   4.336   3.962  14.219  1.8960 -1.2325  2.7377
  306TMC3    H1 4610   4.179   4.361  14.216 -0.8552  1.3336  2.4468
  306TMC3    H2 4611   4.401   4.223  14.552  2.1397  1.4238 -1.9622
  306TMC3    C7 4612   4.226   4.420  14.473 -0.6552 -0.3188 -0.2362
  306TMC3    C8 4613   4.460   3.993  14.459 -0.2901 -0.1627 -0.4496
  306TMC3    O1 4614   4.131   4.487  14.427  0.3559  0.0767  0.3470
  306TMC3    O2 4615   4.525   3.920  14.386  0.0746 -0.2340 -0.1783
  307MPD2     C 4616   2.496   1.793   0.612  0.6622  0.6046 -0.1836
  307MPD2    C1 4617   2.438   1.913   0.587 -0.2352  0.3829 -0.7208
  307MPD2    C2 4618   2.330   1.958   0.649 -0.6998  0.4121  0.3399
  307MPD2    C3 4619   2.277   1.878   0.749  0.3159  0.2912  0.6402
  307MPD2    C4 4620   2.327   1.754   0.774 -0.2264 -0.1675  0.0537
  307MPD2    C5 4621   2.435   1.710   0.709  0.0589  0.5965  0.1212
  307MPD2     H 4622   2.286   2.054   0.626 -1.1778 -0.4272 -2.2410
  307MPD2    H1 4623   2.287   1.688   0.850  0.0748 -3.3325 -2.4952
  307MPD2    H2 4624   2.589   1.757   0.571 -1.0018 -1.0628 -2.5519
  307MPD2    H3 4625   2.470   1.611   0.734 -0.8978  0.4805  1.0062
  307MPD2     N 4626   2.184   1.945   0.831 -0.1569 -1.1600 -0.0248
  307MPD2    H5 4627   2.180   2.044   0.808  1.9126 -1.1485 -0.3310
  307MPD2    N1 4628   2.485   1.984   0.476 -0.0337 -0.2451  0.1820
  307MPD2    H7 4629   2.438   2.073   0.462  0.0297 -0.1207  0.7309
  308TMC3    C1 4630   1.793   2.057   0.838 -0.2409  0.5384  1.0982
  308TMC3    C2 4631   1.815   2.180   0.892 -0.7377  0.5241  0.1698
  308TMC3    C3 4632   1.918   2.193   0.977  0.3011  0.2601 -1.1055
  308TMC3    C4 4633   1.884   1.960   0.866 -0.5435 -0.0965  0.0428
  308TMC3    C5 4634   1.987   1.981   0.948  0.2859  0.2388  0.2266
  308TMC3    C6 4635   2.014   2.101   1.008  0.2713  0.1457  0.5291
  308TMC3     C 4636   1.714   2.034   0.721 -0.8892  0.0687  0.2408
  308TMC3     O 4637   1.727   1.928   0.666  0.4049  0.2550  0.2550
  308TMC3     H 4638   1.734   2.252   0.890  0.6557  2.0789  0.5262
  308TMC3    H1 4639   1.898   1.868   0.812  3.0533  0.1111  0.6747
  308TMC3    H2 4640   2.105   2.122   1.063  2.4987 -1.3785 -2.5465
  308TMC3    C7 4641   2.098   1.886   0.918 -0.4173  0.0094 -0.1479
  308TMC3    C8 4642   1.936   2.336   1.012  0.2311  0.8924  0.0392
  308TMC3    O1 4643   2.083   1.766   0.930 -0.4727 -0.2727 -0.0416
  308TMC3    O2 4644   1.993   2.352   1.120 -0.5314 -0.2799 -0.0723
  309MPD2     C 4645   1.311   2.534  16.979 -0.8466  0.2021 -0.3542
  309MPD2    C1 4646   1.280   2.618  16.871 -0.0119  0.3583 -0.2714
  309MPD2    C2 4647   1.190   2.723  16.887 -1.0699 -1.0261 -0.2923
  309MPD2    C3 4648   1.133   2.744  17.014  0.0168  0.6656 -0.1182
  309MPD2    C4 4649   1.152   2.650  17.114  0.6921  0.5011  0.0826
  309MPD2    C5 4650   1.246   2.548  17.103 -0.1266  0.0760  0.1127
  309MPD2     H 4651   1.173   2.789  16.803 -0.1990  2.5923  2.4078
  309MPD2    H1 4652   1.109   2.656  17.213  1.4833  0.3565  0.4294
  309MPD2    H2 4653   1.392   2.463  16.971 -0.1791  0.7508  1.5033
  309MPD2    H3 4654   1.262   2.475  17.182  1.0795  0.6902  0.4363
  309MPD2     N 4655   1.044   2.850  17.046 -0.0186  0.1387  0.1583
  309MPD2    H5 4656   0.999   2.841  17.137 -0.2319  1.9098  0.2282
  309MPD2    N1 4657   1.331   2.603  16.742 -0.0593  0.2424  0.1521
  309MPD2    H7 4658   1.294   2.678  16.684 -0.4914 -1.0712 -1.2497
  310TMC3    C1 4659   1.510   2.544  16.591  0.1686  0.1829 -0.4884
  310TMC3    C2 4660   1.499   2.677  16.538 -0.0035  0.0214 -0.0424
  310TMC3    C3 4661   1.572   2.699  16.426  0.2847 -0.1387  0.0097
  310TMC3    C4 4662   1.584   2.444  16.535 -0.6071 -0.7561 -0.3364
  310TMC3    C5 4663   1.642   2.474  16.420  0.1133  1.2435 -0.5145
  310TMC3    C6 4664   1.645   2.599  16.373 -0.0309 -0.2748  0.4423
  310TMC3     C 4665   1.417   2.505  16.697 -0.2403 -0.2076  0.0291
  310TMC3     O 4666   1.446   2.396  16.749 -0.2937  0.3790 -0.2768
  310TMC3     H 4667   1.445   2.755  16.590 -2.8297 -1.0013 -1.4929
  310TMC3    H1 4668   1.580   2.340  16.568  2.2550 -0.3959  1.1444
  310TMC3    H2 4669   1.682   2.612  16.272  1.2134 -3.9276  0.4362
  310TMC3    C7 4670   1.753   2.381  16.404  0.2771 -0.6575  0.7611
  310TMC3    C8 4671   1.547   2.819  16.348  0.3714 -0.2311  0.0407
  310TMC3    O1 4672   1.740   2.264  16.434 -0.1232 -0.1695 -0.4981
  310TMC3    O2 4673   1.446   2.883  16.373 -0.5843  0.2009  0.0649
  311MPD2     C 4674   3.662   3.830  12.517  1.0433 -0.0478  0.0889
  311MPD2    C1 4675   3.645   3.959  12.559  0.3205 -0.3498  0.4665
  311MPD2    C2 4676   3.546   3.989  12.646  0.2234  0.1661  0.3381
  311MPD2    C3 4677   3.463   3.894  12.710  0.6050 -0.4452 -0.8897
  311MPD2    C4 4678   3.490   3.762  12.685 -0.2754  0.3994  0.3551
  311MPD2    C5 4679   3.589   3.736  12.593 -0.6679  0.2488  0.2433
  311MPD2     H 4680   3.546   4.094  12.676 -3.1356  0.5629 -1.0921
  311MPD2    H1 4681   3.429   3.682  12.726 -1.1178  1.8014  1.8590
  311MPD2    H2 4682   3.732   3.786  12.447  1.3946 -1.5791  1.4029
  311MPD2    H3 4683   3.602   3.630  12.574  0.7042  0.4088  0.2771
  311MPD2     N 4684   3.352   3.942  12.778 -0.4273 -0.7778  0.2877
  311MPD2    H5 4685   3.353   4.043  12.792  0.3729 -0.5590 -1.3332
  311MPD2    N1 4686   3.731   4.061  12.505  0.1734  0.7013 -0.2981
  311MPD2    H7 4687   3.717   4.156  12.539 -1.2681  1.2838 -2.5295
  312TMC3    C1 4688   3.143   3.971  12.865  0.0173  0.4607  0.0160
  312TMC3    C2 4689   3.018   3.939  12.830  0.6555 -0.3551  0.2536
  312TMC3    C3 4690   2.923   4.032  12.841 -0.3492  0.3974 -0.3227
  312TMC3    C4 4691   3.176   4.092  12.933  0.1165  0.1118  0.3149
  312TMC3    C5 4692   3.067   4.176  12.951 -0.0947 -0.3968 -0.0561
  312TMC3    C6 4693   2.941   4.153  12.904 -0.2865 -0.5158  0.0080
  312TMC3     C 4694   3.243   3.879  12.819  0.5511 -0.3652 -0.7809
  312TMC3     O 4695   3.209   3.761  12.809  0.4974  0.1280 -0.0709
  312TMC3     H 4696   2.999   3.862  12.756 -1.5124 -0.1656  0.6118
  312TMC3    H1 4697   3.273   4.123  12.970  1.5664 -0.9709 -2.6508
  312TMC3    H2 4698   2.862   4.227  12.912  0.7753  0.5703  0.3660
  312TMC3    C7 4699   3.102   4.309  12.989  0.3286 -0.1730 -0.5367
  312TMC3    C8 4700   2.816   4.022  12.736  0.0847 -0.6780  0.9779
  312TMC3    O1 4701   3.032   4.392  12.932 -0.2602  0.0448 -0.3450
  312TMC3    O2 4702   2.776   3.910  12.704 -0.1561 -0.4886  0.1698
  313MPD2     C 4703   2.544   3.195  10.832 -0.7353  0.8337  0.2874
  313MPD2    C1 4704   2.523   3.289  10.737  0.7525  0.2047  0.3076
  313MPD2    C2 4705   2.482   3.239  10.609  0.5323 -0.1477  0.3484
  313MPD2    C3 4706   2.467   3.097  10.590  0.3388  0.4378 -0.2027
  313MPD2    C4 4707   2.492   3.006  10.696  0.3796 -0.1324  1.5668
  313MPD2    C5 4708   2.537   3.060  10.815  0.0463  0.4752 -0.3055
  313MPD2     H 4709   2.489   3.311  10.528  2.6667 -1.4833 -0.6529
  313MPD2    H1 4710   2.490   2.898  10.685  0.9435 -0.0127  0.3414
  313MPD2    H2 4711   2.575   3.219  10.933  1.9900 -0.9502 -0.1163
  313MPD2    H3 4712   2.563   2.998  10.901 -3.5629 -0.7161 -0.0637
  313MPD2     N 4713   2.442   3.065  10.461  0.1225  0.0557 -0.0295
  313MPD2    H5 4714   2.434   3.144  10.398 -1.4552  0.0392  0.1592
  313MPD2    N1 4715   2.543   3.431  10.755 -0.5461  0.1744 -0.0525
  313MPD2    H7 4716   2.539   3.488  10.671 -1.8800 -0.7118 -0.6024
  314TMC3    C1 4717   2.592   3.644  10.837 -0.4907 -0.3515 -0.7420
  314TMC3    C2 4718   2.699   3.707  10.886  0.9666 -0.4728 -0.9749
  314TMC3    C3 4719   2.725   3.831  10.851  0.4296 -0.0190 -0.2130
  314TMC3    C4 4720   2.501   3.701  10.748  0.5225 -0.4537  0.6059
  314TMC3    C5 4721   2.524   3.833  10.718  0.2054 -0.7140 -0.0503
  314TMC3    C6 4722   2.644   3.891  10.757  0.1260 -0.1396 -0.1887
  314TMC3     C 4723   2.590   3.497  10.867  0.5113 -0.2419  0.0791
  314TMC3     O 4724   2.630   3.456  10.974 -0.3979 -0.0810  0.3820
  314TMC3     H 4725   2.749   3.651  10.964  3.7916  3.2603 -0.1328
  314TMC3    H1 4726   2.427   3.645  10.691  2.0322 -1.1905 -0.6388
  314TMC3    H2 4727   2.659   3.995  10.732 -1.9245 -0.9162 -4.5420
  314TMC3    C7 4728   2.431   3.917  10.644 -0.4235  0.2502 -0.3254
  314TMC3    C8 4729   2.846   3.888  10.884 -0.0748  0.3806 -1.2695
  314TMC3    O1 4730   2.443   4.041  10.647 -0.2187  0.0336  0.1043
  314TMC3    O2 4731   2.900   3.971  10.810  0.4960  0.2443 -0.1468
  315MPD2     C 4732   2.819   2.688   0.146  0.0064  0.9243 -0.3080
  315MPD2    C1 4733   2.905   2.765   0.219  0.6321  0.3184  0.3443
  315MPD2    C2 4734   2.971   2.870   0.162 -0.6190 -0.2191 -0.3786
  315MPD2    C3 4735   2.951   2.897   0.026 -0.3655  0.6391 -0.3015
  315MPD2    C4 4736   2.855   2.828  17.648 -0.3055 -0.2153 -0.4205
  315MPD2    C5 4737   2.787   2.720   0.012  0.0464  0.3853 -0.3037
  315MPD2     H 4738   3.044   2.919   0.226 -0.8902 -1.3749  0.8081
  315MPD2    H1 4739   2.829   2.856  17.546 -1.8321 -1.8738 -0.4849
  315MPD2    H2 4740   2.770   2.603   0.191  2.4868 -0.1328  0.4273
  315MPD2    H3 4741   2.721   2.657  17.647 -0.3137 -0.0019  0.5136
  315MPD2     N 4742   3.039   2.993  17.663 -0.2317 -0.2383 -0.0405
  315MPD2    H5 4743   3.109   3.035   0.030 -0.4512  0.2422 -0.1157
  315MPD2    N1 4744   2.950   2.725   0.350  0.1756 -0.2181  1.1851
  315MPD2    H7 4745   3.033   2.778   0.374  0.1515  0.1326  0.4906
  316TMC3    C1 4746   3.137   3.139  17.501 -0.0555  0.5321  0.2698
  316TMC3    C2 4747   3.244   3.145  17.588 -0.2674  0.5309 -0.7131
  316TMC3    C3 4748   3.318   3.262  17.604 -0.3542 -0.3041  0.2296
  316TMC3    C4 4749   3.104   3.258  17.435  0.0388  0.1925 -0.1221
  316TMC3    C5 4750   3.169   3.376  17.461 -0.8058 -0.5793 -0.5814
  316TMC3    C6 4751   3.278   3.383  17.541 -0.6929  0.0954 -0.2769
  316TMC3     C 4752   3.028   3.045  17.531 -0.2203  0.1590  0.7465
  316TMC3     O 4753   2.945   3.032  17.442 -0.1984  0.1811  0.0293
  316TMC3     H 4754   3.274   3.057  17.643 -1.3992 -0.3941 -1.5666
  316TMC3    H1 4755   3.006   3.261  17.387  0.2698  3.4883 -0.3701
  316TMC3    H2 4756   3.329   3.475  17.566 -0.4591 -0.1308  0.0808
  316TMC3    C7 4757   3.109   3.502  17.425  0.4017  0.4383  0.5802
  316TMC3    C8 4758   3.417   3.259   0.019 -0.1390  0.0105 -0.3238
  316TMC3    O1 4759   3.146   3.599  17.488  0.1335  0.4682  0.0072
  316TMC3    O2 4760   3.424   3.364   0.087  0.2517 -0.1030  0.4369
  317MPD2     C 4761   4.137   1.313  13.121 -0.2518  0.1117  0.3382
  317MPD2    C1 4762   4.215   1.231  13.044 -0.1848  0.1534 -0.1937
  317MPD2    C2 4763   4.301   1.137  13.104  0.1278  0.2593  0.2634
  317MPD2    C3 4764   4.307   1.129  13.245  0.3243 -0.0642 -0.0977
  317MPD2    C4 4765   4.215   1.204  13.320 -0.0423  0.0080  0.5525
  317MPD2    C5 4766   4.128   1.290  13.255  0.3729 -0.4443  0.0526
  317MPD2     H 4767   4.360   1.070  13.042  0.4754 -0.0398  0.9139
  317MPD2    H1 4768   4.183   1.180  13.421 -1.9015  0.1659 -0.0028
  317MPD2    H2 4769   4.050   1.362  13.080 -2.4354 -0.6109  4.1257
  317MPD2    H3 4770   4.052   1.336  13.318  1.4983 -1.8758  2.4394
  317MPD2     N 4771   4.403   1.038  13.308  0.4209  0.7047  0.1281
  317MPD2    H5 4772   4.454   0.983  13.241  0.9487  0.7013  0.5274
  317MPD2    N1 4773   4.237   1.254  12.902 -0.7372 -0.0953 -0.1885
  317MPD2    H7 4774   4.300   1.194  12.850 -0.4098  0.9857 -1.0448
  318TMC3    C1 4775   4.489   0.896  13.483  0.2143  0.5490  0.1934
  318TMC3    C2 4776   4.470   0.786  13.408  0.4126  0.1683  0.2244
  318TMC3    C3 4777   4.520   0.663  13.454 -0.8966  0.5315 -0.2728
  318TMC3    C4 4778   4.561   0.890  13.592 -0.3143  0.6953  0.8990
  318TMC3    C5 4779   4.613   0.772  13.634  0.0481 -0.8374 -0.4096
  318TMC3    C6 4780   4.592   0.653  13.572  0.1451  0.0077 -1.0498
  318TMC3     C 4781   4.422   1.018  13.445  0.0213 -0.0660 -0.5148
  318TMC3     O 4782   4.377   1.087  13.538  0.4171  0.3808  0.3010
  318TMC3     H 4783   4.414   0.794  13.316  0.3313  1.0072  0.3450
  318TMC3    H1 4784   4.595   0.982  13.638  1.5287 -0.4495  1.8048
  318TMC3    H2 4785   4.633   0.562  13.613 -0.6107 -0.1092 -0.5607
  318TMC3    C7 4786   4.719   0.796  13.731 -0.1447 -0.1573 -0.0040
  318TMC3    C8 4787   4.458   0.538  13.401 -0.0467  0.4523  0.3480
  318TMC3    O1 4788   4.715   0.893  13.804 -0.4539 -0.2768 -0.1014
  318TMC3    O2 4789   4.521   0.433  13.428 -0.3510  0.5103  0.2048
  319MPD2     C 4790   1.125   2.293  16.263 -0.6118  0.0579 -0.4981
  319MPD2    C1 4791   1.018   2.230  16.322 -0.7453  0.0142  0.0558
  319MPD2    C2 4792   0.905   2.196  16.248 -0.1067 -0.4100 -0.5579
  319MPD2    C3 4793   0.901   2.226  16.113  0.7932  0.3460 -0.4519
  319MPD2    C4 4794   1.006   2.297  16.056  0.3075 -0.1374  0.3743
  319MPD2    C5 4795   1.120   2.329  16.128 -0.0206 -0.5597 -0.4310
  319MPD2     H 4796   0.814   2.161  16.296  0.3396 -0.0352  0.5505
  319MPD2    H1 4797   1.012   2.311  15.949  2.0404  0.4554  0.5414
  319MPD2    H2 4798   1.219   2.314  16.313 -1.9927 -0.5564  2.3016
  319MPD2    H3 4799   1.215   2.360  16.086  0.0667 -0.1169  0.1061
  319MPD2     N 4800   0.796   2.193  16.025 -0.5431  0.2183  0.1172
  319MPD2    H5 4801   0.805   2.231  15.931 -1.8262 -1.3121 -0.6224
  319MPD2    N1 4802   1.025   2.198  16.457 -0.4472  0.3116 -0.1428
  319MPD2    H7 4803   0.971   2.121  16.497 -0.8195  1.0514  0.7917
  320TMC3    C1 4804   0.605   2.097  15.942 -0.1130 -0.1244  1.2119
  320TMC3    C2 4805   0.584   2.209  15.865  0.4779  0.0575  0.3816
  320TMC3    C3 4806   0.483   2.212  15.773 -0.2886 -0.1793 -0.3479
  320TMC3    C4 4807   0.515   2.006  15.946  0.2036  0.3028  0.9647
  320TMC3    C5 4808   0.402   2.020  15.867  0.2521 -0.3241 -0.4667
  320TMC3    C6 4809   0.388   2.115  15.771 -0.3251 -0.2849 -0.1802
  320TMC3     C 4810   0.698   2.103  16.055  0.1363 -0.3284 -0.3885
  320TMC3     O 4811   0.680   2.032  16.151 -0.0125 -0.2544 -0.3047
  320TMC3     H 4812   0.647   2.297  15.863  1.0113 -0.3405 -0.0976
  320TMC3    H1 4813   0.514   1.916  16.006 -0.8129  0.7379  1.6140
  320TMC3    H2 4814   0.302   2.113  15.706 -1.4387  0.1572  1.2812
  320TMC3    C7 4815   0.293   1.936  15.902  1.0604 -0.5893 -0.4380
  320TMC3    C8 4816   0.464   2.343  15.706  0.6783 -0.0038 -0.0852
  320TMC3    O1 4817   0.226   1.903  15.808 -0.2676 -0.2661 -0.1424
  320TMC3    O2 4818   0.514   2.439  15.770 -0.1287 -0.5156  0.2421
  321TMC3    C1 4819   1.122   2.201  16.677  0.4054 -0.5064 -0.3085
  321TMC3    C2 4820   1.131   2.065  16.678  0.1890  0.0659 -0.5095
  321TMC3    C3 4821   1.195   2.021  16.794  0.0397 -0.5210  0.1930
  321TMC3    C4 4822   1.146   2.283  16.779 -0.5726  0.3659 -0.9689
  321TMC3    C5 4823   1.198   2.225  16.887  0.4766  0.2372 -0.2599
  321TMC3    C6 4824   1.234   2.094  16.894  0.1763 -0.1803 -0.2247
  321TMC3     C 4825   1.106   2.267  16.550 -0.3243  0.2745  0.1040
  321TMC3     O 4826   1.158   2.379  16.538 -0.8080  1.0198  0.0694
  321TMC3     H 4827   1.090   1.997  16.605  1.3322 -0.4689 -0.6424
  321TMC3    H1 4828   1.137   2.390  16.784  0.1799  0.4045 -0.3151
  321TMC3    H2 4829   1.299   2.048  16.968 -0.1612 -2.1539 -1.1652
  321TMC3    C7 4830   1.118   2.249  17.005  0.6960 -0.0571 -0.1913
  321TMC3    C8 4831   1.154   1.890  16.828 -0.0532 -0.8466  0.0346
  321TMC3    O1 4832   1.128   2.162  17.085  0.0551  0.3789  0.2528
  321TMC3    O2 4833   1.133   1.802  16.750 -0.4226 -0.5158  0.2992
  322MPD2     C 4834   4.197   3.725  13.211 -0.0470  0.5383 -0.3512
  322MPD2    C1 4835   4.240   3.679  13.335  0.2260  0.1667 -0.1065
  322MPD2    C2 4836   4.233   3.548  13.364 -0.2287  0.4917 -0.1072
  322MPD2    C3 4837   4.197   3.455  13.268  0.0927  0.2310  0.6034
  322MPD2    C4 4838   4.147   3.498  13.152  0.1729  0.5866  0.2909
  322MPD2    C5 4839   4.146   3.628  13.125  0.0417  0.4879  0.1555
  322MPD2     H 4840   4.267   3.517  13.462  1.5910  2.0656 -0.2388
  322MPD2    H1 4841   4.110   3.431  13.074  1.7846 -1.5801  1.3904
  322MPD2    H2 4842   4.197   3.832  13.191 -0.5733  0.7487  0.7804
  322MPD2    H3 4843   4.112   3.657  13.026 -0.1044  0.4212  0.1851
  322MPD2     N 4844   4.202   3.321  13.298  0.1517 -0.1697  0.0937
  322MPD2    H5 4845   4.233   3.299  13.392  1.2081 -2.1259 -0.7159
  322MPD2    N1 4846   4.287   3.778  13.423 -0.5308 -0.3184  0.5506
  322MPD2    H7 4847   4.297   3.870  13.381 -1.4906 -0.6603 -0.4405
  323TMC3    C1 4848   4.374   3.863  13.628 -0.0499 -0.0193  0.1956
  323TMC3    C2 4849   4.460   3.941  13.562 -0.2797  0.5114 -0.2212
  323TMC3    C3 4850   4.541   4.020  13.632  0.6669 -0.6372 -0.1380
  323TMC3    C4 4851   4.364   3.861  13.762 -0.2791  0.5221  0.0532
  323TMC3    C5 4852   4.445   3.950  13.830 -0.5487 -0.6367 -0.0230
  323TMC3    C6 4853   4.526   4.037  13.767 -0.0971  0.3332  0.3805
  323TMC3     C 4854   4.287   3.761  13.557 -0.3049 -0.3379  0.1350
  323TMC3     O 4855   4.237   3.668  13.623  0.0524 -0.8883 -0.4941
  323TMC3     H 4856   4.475   3.939  13.455  0.7947 -0.3992 -0.0623
  323TMC3    H1 4857   4.316   3.782  13.819  1.7115 -0.2123  0.7098
  323TMC3    H2 4858   4.578   4.105  13.833  1.1469 -0.4438  0.2120
  323TMC3    C7 4859   4.502   3.900  13.953  0.5442  0.5326 -0.3125
  323TMC3    C8 4860   4.684   4.020  13.596  0.2339 -0.2861 -0.9320
  323TMC3    O1 4861   4.437   3.854  14.045 -0.2627 -0.4103  0.0806
  323TMC3    O2 4862   0.022   4.051  13.699  0.4929  0.3325 -0.2011
  324MPD2     C 4863   1.280   0.068  14.126 -0.0326  0.1513  0.4341
  324MPD2    C1 4864   1.196   0.133  14.207  0.1258 -0.2801 -0.2369
  324MPD2    C2 4865   1.062   0.127  14.176 -0.0528  0.2409  0.2923
  324MPD2    C3 4866   1.008   0.038  14.090 -0.6495  0.1592 -0.1731
  324MPD2    C4 4867   1.094   4.695  14.004 -0.6120  0.6085 -0.1982
  324MPD2    C5 4868   1.225   4.722  14.018 -0.0566  0.0136  0.4313
  324MPD2     H 4869   0.999   0.175  14.250 -0.5571  0.1479 -0.0801
  324MPD2    H1 4870   1.057   4.638  13.920  0.2399  0.7968 -0.7054
  324MPD2    H2 4871   1.388   0.080  14.133  0.2030 -1.8835  0.3216
  324MPD2    H3 4872   1.294   4.680  13.946  1.9915  1.1265  1.7665
  324MPD2     N 4873   0.872   0.019  14.070  0.0422 -0.0779  0.7018
  324MPD2    H5 4874   0.851   4.667  14.005  1.2210 -0.2559  0.5372
  324MPD2    N1 4875   1.238   0.210  14.318 -0.2590  0.1740  0.3970
  324MPD2    H7 4876   1.171   0.270  14.366 -1.3989  0.5182 -1.6088
  325TMC3    C1 4877   0.642   0.081  14.065  0.4108  0.1146 -0.2493
  325TMC3    C2 4878   0.619   4.695  13.995 -0.3026  0.2866  0.5499
  325TMC3    C3 4879   0.500   4.689  13.928  0.1877 -0.5624  0.3461
  325TMC3    C4 4880   0.559   0.189  14.069  0.7861  0.7444 -0.3269
  325TMC3    C5 4881   0.442   0.180  14.000 -0.2265  0.4272 -0.3311
  325TMC3    C6 4882   0.411   0.069  13.932  0.7977 -0.2027 -0.2886
  325TMC3     C 4883   0.777   0.106  14.118 -0.1005 -0.2095 -0.5229
  325TMC3     O 4884   0.789   0.201  14.195 -0.3256  0.4909 -0.4369
  325TMC3     H 4885   0.691   4.614  13.990  0.5290  1.2033 -2.3128
  325TMC3    H1 4886   0.582   0.279  14.125 -1.7117  0.4189  1.2327
  325TMC3    H2 4887   0.322   0.056  13.872  0.4755  0.5314  0.0310
  325TMC3    C7 4888   0.328   0.272  14.023 -0.0694  0.7580  0.2369
  325TMC3    C8 4889   0.468   4.569  13.858 -0.2147  0.3637 -0.3806
  325TMC3    O1 4890   0.238   0.274  13.940 -0.3432 -0.4119 -0.1622
  325TMC3    O2 4891   0.564   4.512  13.806  0.3658 -0.2498 -0.5211
  326MPD2     C 4892   2.602   0.971  10.819 -0.1382  0.2677  1.1365
  326MPD2    C1 4893   2.573   1.096  10.761 -0.2088  0.1401 -0.3314
  326MPD2    C2 4894   2.641   1.208  10.801  0.3482  0.1512 -0.6535
  326MPD2    C3 4895   2.724   1.206  10.916 -0.8721 -0.2504 -0.1925
  326MPD2    C4 4896   2.762   1.080  10.964  0.2016 -0.1364 -0.1416
  326MPD2    C5 4897   2.696   0.968  10.919 -0.1259 -0.1247 -0.0066
  326MPD2     H 4898   2.639   1.298  10.741 -1.1541  0.2114 -0.5173
  326MPD2    H1 4899   2.808   1.066  11.061 -1.8300 -0.6316  0.7487
  326MPD2    H2 4900   2.554   0.878  10.791  0.2199  0.3122  0.3718
  326MPD2    H3 4901   2.727   0.873  10.960  0.8925  0.1143 -0.2348
  326MPD2     N 4902   2.776   1.323  10.974  0.3639  0.4754 -0.2098
  326MPD2    H5 4903   2.838   1.322  11.054 -1.9178 -1.7526  1.5559
  326MPD2    N1 4904   2.489   1.109  10.647 -0.0679  0.1173 -0.3202
  326MPD2    H7 4905   2.487   1.206  10.616 -0.7983 -0.7512 -3.0131
  327TMC3    C1 4906   2.478   1.029  10.443  0.4707  0.3188 -0.2426
  327TMC3    C2 4907   2.382   1.077  10.359  0.5544 -0.6793  0.0661
  327TMC3    C3 4908   2.420   1.172  10.270 -0.3451 -0.4075  0.3870
  327TMC3    C4 4909   2.605   1.082  10.455  0.5416 -0.9095  0.5523
  327TMC3    C5 4910   2.640   1.178  10.363 -0.1165  0.0543  0.1914
  327TMC3    C6 4911   2.547   1.228  10.270 -0.0084 -0.0015  0.2047
  327TMC3     C 4912   2.428   1.012  10.572 -0.1590 -0.0104  0.1421
  327TMC3     O 4913   2.398   0.899  10.609  0.2218  0.0017 -0.0236
  327TMC3     H 4914   2.279   1.049  10.379 -0.7813  3.5936 -0.8710
  327TMC3    H1 4915   2.683   1.038  10.516  2.1297  0.8539 -0.2115
  327TMC3    H2 4916   2.569   1.302  10.194  0.4534  2.0878  2.3746
  327TMC3    C7 4917   2.773   1.243  10.370  0.2192 -0.5126 -0.1524
  327TMC3    C8 4918   2.315   1.245  10.205  0.2099 -0.3957 -0.2915
  327TMC3    O1 4919   2.813   1.304  10.274  0.2561  0.3515 -0.3209
  327TMC3    O2 4920   2.316   1.366  10.207  0.2888 -0.1135  0.0750
  328MPD2     C 4921   0.563   0.775  16.498 -0.2117  0.6085 -0.1944
  328MPD2    C1 4922   0.468   0.727  16.584 -0.2075  0.2942  0.5255
  328MPD2    C2 4923   0.403   0.812  16.669 -0.6814 -0.0793  0.7144
  328MPD2    C3 4924   0.432   0.942  16.687 -0.3372 -0.1377 -0.0551
  328MPD2    C4 4925   0.542   0.984  16.612  0.1274 -0.0585 -0.0928
  328MPD2    C5 4926   0.602   0.900  16.518  0.5175 -0.1104  0.2172
  328MPD2     H 4927   0.325   0.762  16.725  1.2142 -1.5919  1.9448
  328MPD2    H1 4928   0.576   1.086  16.598  3.1036 -1.1793 -0.9761
  328MPD2    H2 4929   0.624   0.702  16.446 -1.6307 -1.0140  0.3932
  328MPD2    H3 4930   0.682   0.934  16.452 -1.2223  2.0857 -0.7890
  328MPD2     N 4931   0.372   1.024  16.780 -0.3364  0.3666  0.2043
  328MPD2    H5 4932   0.406   1.120  16.779  0.6593  0.0042 -0.8248
  328MPD2    N1 4933   0.446   0.583  16.570 -0.1570 -0.0281 -0.2564
  328MPD2    H7 4934   0.478   0.534  16.487  1.2393  0.9590 -0.3022
  329TMC3    C1 4935   0.381   0.359  16.626 -0.6430  0.0547 -0.8938
  329TMC3    C2 4936   0.346   0.282  16.730 -0.4828 -0.9255 -0.1107
  329TMC3    C3 4937   0.363   0.148  16.716  0.4967 -0.2581 -0.3092
  329TMC3    C4 4938   0.437   0.308  16.513 -0.2747  0.5889  0.1065
  329TMC3    C5 4939   0.460   0.174  16.509 -0.0544 -0.5947 -0.1605
  329TMC3    C6 4940   0.412   0.086  16.606 -0.6619  0.0018 -0.4519
  329TMC3     C 4941   0.373   0.504  16.651  1.0889 -0.2000 -0.2057
  329TMC3     O 4942   0.314   0.542  16.754  0.0940 -0.1259  0.5203
  329TMC3     H 4943   0.324   0.329  16.825 -1.0948  1.4235 -1.4242
  329TMC3    H1 4944   0.481   0.380  16.445  2.2762 -0.5533  0.5758
  329TMC3    H2 4945   0.438   4.704  16.598  1.5015  0.6921 -2.7042
  329TMC3    C7 4946   0.493   0.114  16.381  0.2883 -0.6766  0.0324
  329TMC3    C8 4947   0.338   0.063  16.829  0.0170 -0.5542  0.6811
  329TMC3    O1 4948   0.536   4.720  16.385  0.2311  0.1749 -0.3703
  329TMC3    O2 4949   0.411   4.687  16.837 -0.1799 -0.0574  0.4161
  330TMC3    C1 4950   2.271   0.301   9.393 -0.2305 -0.2609  0.3536
  330TMC3    C2 4951   2.150   0.298   9.461  0.4694 -0.3350  0.9941
  330TMC3    C3 4952   2.146   0.286   9.604 -0.4156 -0.9006  0.3895
  330TMC3    C4 4953   2.389   0.283   9.461  0.8044 -0.1710  0.0016
  330TMC3    C5 4954   2.378   0.283   9.598 -0.0172  0.1776 -0.6753
  330TMC3    C6 4955   2.263   0.271   9.673 -0.7350  0.4350 -0.2331
  330TMC3     C 4956   2.281   0.306   9.248  0.0402 -0.0595 -0.3241
  330TMC3     O 4957   2.390   0.315   9.199 -0.2672 -0.3016  0.8088
  330TMC3     H 4958   2.056   0.320   9.411  1.5802 -0.1796 -1.0070
  330TMC3    H1 4959   2.483   0.281   9.407 -0.9242 -2.2263 -2.9587
  330TMC3    H2 4960   2.270   0.276   9.781  2.1274  3.7243 -0.5825
  330TMC3    C7 4961   2.513   0.287   9.661 -0.2680  0.0823  0.2798
  330TMC3    C8 4962   2.023   0.252   9.672  0.9254  0.0075  0.2423
  330TMC3    O1 4963   2.596   0.348   9.593  0.1144  0.3829  0.2527
  330TMC3    O2 4964   1.912   0.280   9.621 -0.3796 -0.7786  0.2919
  331MPD2     C 4965   0.345   4.175  12.476 -0.8159 -0.4203  0.0606
  331MPD2    C1 4966   0.441   4.270  12.440  0.5137 -0.3339 -0.2627
  331MPD2    C2 4967   0.561   4.219  12.390  0.6810  0.6648  0.8814
  331MPD2    C3 4968   0.586   4.084  12.380 -0.4305  0.2150  0.3624
  331MPD2    C4 4969   0.492   3.993  12.420  0.3872  0.1855  0.1846
  331MPD2    C5 4970   0.371   4.040  12.462  0.4911  0.4576 -0.6013
  331MPD2     H 4971   0.630   4.295  12.355  2.0223 -0.7681  0.4142
  331MPD2    H1 4972   0.504   3.887  12.397 -2.6385 -0.2838  0.8419
  331MPD2    H2 4973   0.247   4.211  12.504 -1.6184 -0.5919 -2.4687
  331MPD2    H3 4974   0.297   3.963  12.479 -0.2334  0.8323 -2.0751
  331MPD2     N 4975   0.709   4.046  12.314  0.2460  0.0239  0.6299
  331MPD2    H5 4976   0.748   4.111  12.246  1.5953 -0.0189  1.3619
  331MPD2    N1 4977   0.422   4.411  12.445  0.0676 -0.1501 -0.0536
  331MPD2    H7 4978   0.511   4.459  12.446  0.3916 -0.7983  1.7090
  332TMC3    C1 4979   0.874   3.886  12.247 -0.1945  0.1636 -0.1547
  332TMC3    C2 4980   0.910   3.970  12.146 -0.0886  0.8788 -0.3093
  332TMC3    C3 4981   1.020   3.935  12.080 -0.0231  0.2152  0.6650
  332TMC3    C4 4982   0.953   3.781  12.287  0.2281  0.0408  0.2559
  332TMC3    C5 4983   1.078   3.759  12.227  0.4053 -0.2309  0.3857
  332TMC3    C6 4984   1.109   3.843  12.128  0.2139  0.2647  0.0580
  332TMC3     C 4985   0.760   3.917  12.338  0.6433  1.0119  0.1641
  332TMC3     O 4986   0.738   3.847  12.438  0.2800  0.1344 -0.2750
  332TMC3     H 4987   0.843   4.045  12.104  1.5704  3.0577  0.9336
  332TMC3    H1 4988   0.930   3.723  12.376  2.9261 -1.2329  0.0987
  332TMC3    H2 4989   1.198   3.827  12.068 -0.3423 -0.8056 -0.4784
  332TMC3    C7 4990   1.179   3.681  12.291  0.0599  0.2030 -0.0881
  332TMC3    C8 4991   1.068   4.003  11.958 -0.3851 -0.6304  0.6257
  332TMC3    O1 4992   1.139   3.601  12.374 -0.1979 -0.1860 -0.0782
  332TMC3    O2 4993   1.139   3.945  11.877  0.5075 -0.5867 -0.5110
  333MPD2     C 4994   0.832   4.584  11.381 -0.4994  0.0467  0.0408
  333MPD2    C1 4995   0.907   4.477  11.328 -0.1386 -0.1071  0.2245
  333MPD2    C2 4996   0.874   4.348  11.361 -0.6654  0.2574 -0.0686
  333MPD2    C3 4997   0.760   4.324  11.434 -0.5062 -0.6032 -0.3645
  333MPD2    C4 4998   0.670   4.428  11.466 -0.1759 -0.2486  0.3734
  333MPD2    C5 4999   0.712   4.553  11.443  0.5193 -0.4484  0.2181
  333MPD2     H 5000   0.942   4.275  11.321 -3.5077 -1.5493 -1.5704
  333MPD2    H1 5001   0.577   4.416  11.520 -0.4712  0.0200 -0.0784
  333MPD2    H2 5002   0.845   4.684  11.342  1.9172  0.2151  1.3135
  333MPD2    H3 5003   0.640   4.627  11.478 -1.7351 -1.5121 -2.1900
  333MPD2     N 5004   0.735   4.189  11.468 -0.3792  0.2614 -1.0164
  333MPD2    H5 5005   0.812   4.127  11.444  0.1202  0.2179  0.6872
  333MPD2    N1 5006   1.010   4.495  11.233 -0.2239 -1.2452  0.0858
  333MPD2    H7 5007   1.037   4.410  11.184  2.6709  0.1865 -0.7783
  334TMC3    C1 5008   1.137   4.600  11.076  0.0549  0.2421  0.1015
  334TMC3    C2 5009   1.254   4.549  11.121  0.0112  0.3712 -0.9123
  334TMC3    C3 5010   1.368   4.578  11.057 -0.8759  0.0183  0.3637
  334TMC3    C4 5011   1.130   4.694  10.979 -0.6616  0.3218 -0.4614
  334TMC3    C5 5012   1.249   0.016  10.927  0.6638  0.8147 -0.5249
  334TMC3    C6 5013   1.367   4.679  10.957 -1.0046  0.1891  0.1321
  334TMC3     C 5014   1.049   4.616  11.182 -0.7881  0.5321 -0.1277
  334TMC3     O 5015   1.027   0.010  11.218  0.6493  0.0019  0.1373
  334TMC3     H 5016   1.259   4.478  11.203 -1.8366  2.5032  1.0326
  334TMC3    H1 5017   1.034   0.013  10.952 -1.9912 -3.3949 -1.4159
  334TMC3    H2 5018   1.459   4.710  10.911  1.1093 -3.5615  1.8062
  334TMC3    C7 5019   1.253   0.105  10.812  0.2449 -0.5793 -0.3444
  334TMC3    C8 5020   1.496   4.534  11.123  0.1604  0.2760  0.1840
  334TMC3    O1 5021   1.345   0.097  10.730  0.2575  0.2446  0.5161
  334TMC3    O2 5022   1.487   4.472  11.227 -0.4272 -0.0550  0.4149
  335TMC3    C1 5023   0.799   1.161  17.620  0.6755 -0.6477  0.0311
  335TMC3    C2 5024   0.762   1.051  17.550  0.7784  0.1373  0.2320
  335TMC3    C3 5025   0.789   1.047  17.419  0.2968  0.4745  0.2357
  335TMC3    C4 5026   0.874   1.263  17.561 -0.0464 -0.5522  0.4547
  335TMC3    C5 5027   0.910   1.251  17.434  0.4464  0.2006 -0.1164
  335TMC3    C6 5028   0.864   1.143  17.359  0.1783 -0.1033 -0.5943
  335TMC3     C 5029   0.780   1.165   0.071 -0.0732 -0.1942 -0.1876
  335TMC3     O 5030   0.787   1.275   0.126  0.1756  0.2499 -0.4897
  335TMC3     H 5031   0.702   0.970  17.591  0.5595 -0.9952 -2.3448
  335TMC3    H1 5032   0.918   1.345  17.617  0.0649  0.3736 -0.9931
  335TMC3    H2 5033   0.874   1.133  17.252 -0.5328 -0.6357 -0.6090
  335TMC3    C7 5034   1.042   1.288  17.392  0.0689 -0.5158  0.1828
  335TMC3    C8 5035   0.741   0.931  17.348  0.0495 -0.4597 -0.4056
  335TMC3    O1 5036   1.099   1.202  17.324 -0.5095  0.1069  0.2578
  335TMC3    O2 5037   0.709   0.843  17.420 -0.1492 -0.4708 -0.1283
  336MPD2     C 5038   0.624   3.475  16.446  0.0440  0.4080 -0.1331
  336MPD2    C1 5039   0.630   3.446  16.309 -0.2180 -0.6491  0.0773
  336MPD2    C2 5040   0.685   3.330  16.265 -0.2430  0.6098  0.3592
  336MPD2    C3 5041   0.738   3.236  16.355 -0.6096  0.2671 -0.0337
  336MPD2    C4 5042   0.718   3.260  16.492 -0.1700 -0.4603 -0.5610
  336MPD2    C5 5043   0.672   3.383  16.537 -0.2693  0.4046  0.0994
  336MPD2     H 5044   0.685   3.311  16.158 -0.9055  4.1735 -0.2673
  336MPD2    H1 5045   0.745   3.183  16.564  1.1629  2.0661  1.6573
  336MPD2    H2 5046   0.580   3.568  16.479  1.0254  1.0622 -0.6406
  336MPD2    H3 5047   0.667   3.404  16.643 -0.8376 -1.9586  0.5420
  336MPD2     N 5048   0.790   3.110  16.319  0.5797  0.0064 -0.1487
  336MPD2    H5 5049   0.837   3.069  16.398  1.4374  1.8422  0.2991
  336MPD2    N1 5050   0.581   3.532  16.203  0.8543 -0.7405  0.5258
  336MPD2    H7 5051   0.574   3.492  16.111 -3.8697  0.6892  0.2861
  337TMC3    C1 5052   0.477   3.702  16.093 -0.1393  0.0412  0.3242
  337TMC3    C2 5053   0.423   3.604  16.010  0.2226  0.0248 -0.5973
  337TMC3    C3 5054   0.362   3.650  15.892  0.4447 -0.2730  0.4677
  337TMC3    C4 5055   0.461   3.842  16.078 -0.2830  0.2584 -0.3804
  337TMC3    C5 5056   0.393   3.874  15.962 -0.1194  0.2379 -0.0901
  337TMC3    C6 5057   0.358   3.787  15.862  0.2538  0.1045 -0.4932
  337TMC3     C 5058   0.532   3.656  16.222 -0.3689 -0.2534 -0.0383
  337TMC3     O 5059   0.556   3.734  16.316 -0.3306 -0.3906 -0.1998
  337TMC3     H 5060   0.420   3.498  16.032 -0.3108  0.2453  0.3776
  337TMC3    H1 5061   0.486   3.904  16.163 -2.1438  1.2116 -0.5281
  337TMC3    H2 5062   0.324   3.822  15.765  2.0662  0.4574 -1.0063
  337TMC3    C7 5063   0.391   4.012  15.915 -0.0913 -0.7005 -1.3054
  337TMC3    C8 5064   0.300   3.550  15.806  0.1210 -0.4740  0.2962
  337TMC3    O1 5065   0.390   4.044  15.795  0.2858 -0.2772  0.0704
  337TMC3    O2 5066   0.317   3.435  15.839  0.3193  0.1501  0.6397
  338MPD2     C 5067   1.548   3.014   0.706  0.1520  0.1387  0.4171
  338MPD2    C1 5068   1.435   3.040   0.640  0.5562 -0.5909 -0.5875
  338MPD2    C2 5069   1.350   3.131   0.696  0.2809 -0.8866  0.2144
  338MPD2    C3 5070   1.377   3.192   0.817  0.1370 -0.0802 -0.6351
  338MPD2    C4 5071   1.498   3.162   0.879  0.8136 -0.2627 -0.0789
  338MPD2    C5 5072   1.580   3.065   0.831  0.5811 -0.2766 -0.2173
  338MPD2     H 5073   1.255   3.149   0.647  0.1895 -1.5724  0.1438
  338MPD2    H1 5074   1.534   3.216   0.966 -0.3671 -0.4000  0.4843
  338MPD2    H2 5075   1.616   2.936   0.673  0.3302  1.2443 -1.7925
  338MPD2    H3 5076   1.674   3.050   0.883  0.4354 -0.2865  0.0405
  338MPD2     N 5077   1.277   3.274   0.878  0.0171  0.7699  0.3761
  338MPD2    H5 5078   1.191   3.301   0.832 -0.8377 -0.0641  1.4529
  338MPD2    N1 5079   1.389   2.982   0.524 -0.0359 -0.0202 -0.3142
  338MPD2    H7 5080   1.301   3.018   0.489 -0.5126  1.2842  2.2210
  339TMC3    C1 5081   1.152   3.361   1.052  0.6251 -0.8913 -0.6294
  339TMC3    C2 5082   1.101   3.296   1.166 -0.4543 -0.3018  0.1413
  339TMC3    C3 5083   0.971   3.277   1.179 -0.0508  0.1576 -0.4021
  339TMC3    C4 5084   1.064   3.392   0.952 -0.4622 -0.2565  0.1937
  339TMC3    C5 5085   0.932   3.372   0.971 -0.2224 -0.0825  0.3434
  339TMC3    C6 5086   0.886   3.294   1.078  0.2048  0.4374 -0.2055
  339TMC3     C 5087   1.282   3.310   1.012  0.2609 -0.0897 -0.2152
  339TMC3     O 5088   1.363   3.287   1.102  0.5376  0.3036 -0.5016
  339TMC3     H 5089   1.177   3.273   1.240  0.4599 -1.0014 -1.0392
  339TMC3    H1 5090   1.106   3.446   0.868 -1.0849  1.6356  1.0960
  339TMC3    H2 5091   0.779   3.278   1.084  0.4053 -1.0072 -0.5940
  339TMC3    C7 5092   0.874   3.332   0.852  0.3095  0.3735  0.3049
  339TMC3    C8 5093   0.916   3.239   1.314  0.3905 -0.2911  0.9657
  339TMC3    O1 5094   0.960   3.308   0.769 -0.4272  0.3189 -0.6938
  339TMC3    O2 5095   0.800   3.200   1.308 -0.3416  0.0104 -0.4599
  340MPD2     C 5096   4.610   0.984   9.499  0.0635 -0.6214 -0.1157
  340MPD2    C1 5097   4.696   1.058   9.418 -0.0440 -0.2031  0.3983
  340MPD2    C2 5098   0.080   1.124   9.478  0.3657 -0.3354 -0.1169
  340MPD2    C3 5099   0.102   1.113   9.615 -0.1145 -0.1812  0.6708
  340MPD2    C4 5100   0.012   1.043   9.694  0.1041  0.7108 -0.1387
  340MPD2    C5 5101   4.634   0.976   9.640  0.8701  0.0623 -0.0025
  340MPD2     H 5102   0.152   1.180   9.419 -1.6275  2.0776 -0.2452
  340MPD2    H1 5103   0.028   1.035   9.801 -0.6234 -0.1543 -0.0955
  340MPD2    H2 5104   4.519   0.939   9.460  0.1633 -0.9986  0.0805
  340MPD2    H3 5105   4.574   0.918   9.709 -0.5743  0.0246 -1.2874
  340MPD2     N 5106   0.211   1.171   9.681 -0.3367 -0.2715 -0.6579
  340MPD2    H5 5107   0.221   1.160   9.781 -1.3960  0.1804 -0.5032
  340MPD2    N1 5108   4.679   1.037   9.279  0.1160 -0.7333 -0.5638
  340MPD2    H7 5109   4.605   0.972   9.251  0.0663 -0.8631 -0.1320
  341TMC3    C1 5110   0.034   1.013   9.066  0.2849  0.2125  0.4390
  341TMC3    C2 5111   4.637   0.964   9.017 -0.2506 -0.1850  0.1212
  341TMC3    C3 5112   4.645   0.857   8.928  0.6086 -0.5592  0.3932
  341TMC3    C4 5113   0.154   0.969   9.016  0.5386 -1.3196 -0.2223
  341TMC3    C5 5114   0.155   0.867   8.924  0.0682  0.7217  0.4709
  341TMC3    C6 5115   0.043   0.802   8.883 -0.1468 -0.0346  0.5347
  341TMC3     C 5116   0.040   1.087   9.187  0.1197 -0.4652 -0.0937
  341TMC3     O 5117   0.146   1.149   9.203  0.2289  0.2263  0.2120
  341TMC3     H 5118   4.540   1.003   9.047 -0.1229  0.6675 -0.5735
  341TMC3    H1 5119   0.248   1.008   9.052 -0.8186  0.8137  1.0194
  341TMC3    H2 5120   0.047   0.705   8.835  1.1775  0.5854 -0.5930
  341TMC3    C7 5121   0.290   0.820   8.888  0.4166 -0.0715  0.5522
  341TMC3    C8 5122   4.527   0.818   8.852  0.3196  0.6615  0.0783
  341TMC3    O1 5123   0.374   0.833   8.969 -0.0526 -0.0473  0.1118
  341TMC3    O2 5124   4.417   0.818   8.909  0.2418  0.0184  0.7380
  342MPD2     C 5125   3.685   3.781  16.978  0.2958 -0.6438 -0.4709
  342MPD2    C1 5126   3.784   3.762  17.078  1.0486  0.2712 -0.3427
  342MPD2    C2 5127   3.802   3.858  17.175  0.1413 -0.2548 -0.5756
  342MPD2    C3 5128   3.726   3.972  17.169  0.1441  0.0277  0.4894
  342MPD2    C4 5129   3.638   3.990  17.063  0.5416  0.3429 -0.1223
  342MPD2    C5 5130   3.612   3.892  16.977  0.0314 -0.2969 -0.6936
  342MPD2     H 5131   3.861   3.833  17.263  1.4701  2.8138 -0.5976
  342MPD2    H1 5132   3.581   4.081  17.052  1.0990  0.5943 -0.9073
  342MPD2    H2 5133   3.657   3.706  16.905  0.0231 -0.3875 -0.6299
  342MPD2    H3 5134   3.532   3.901  16.903 -0.2240 -1.1178 -0.5263
  342MPD2     N 5135   3.759   4.084  17.248 -0.0507  0.5650 -0.1542
  342MPD2    H5 5136   3.679   4.147  17.250 -1.3143 -1.0561  0.2164
  342MPD2    N1 5137   3.852   3.632  17.095 -0.1411  0.0053  0.3129
  342MPD2    H7 5138   3.877   3.603  17.189  0.5443 -0.1456  0.0853
  343TMC3    C1 5139   3.963   3.441  17.019  0.5315 -0.6363 -0.1389
  343TMC3    C2 5140   4.070   3.408  16.938 -0.2972  0.0774  0.5052
  343TMC3    C3 5141   4.131   3.291  16.948 -0.8644  0.3812 -0.3320
  343TMC3    C4 5142   3.935   3.367  17.137  0.7519 -0.1695  0.1283
  343TMC3    C5 5143   4.009   3.253  17.141 -0.7599 -0.9172 -0.5725
  343TMC3    C6 5144   4.107   3.210  17.052 -0.2672 -0.0934  0.0684
  343TMC3     C 5145   3.884   3.560  16.991  0.0455 -0.2276 -0.0898
  343TMC3     O 5146   3.869   3.580  16.870  0.4623  0.0087 -0.1380
  343TMC3     H 5147   4.103   3.470  16.855 -0.5427  1.3201  1.3418
  343TMC3    H1 5148   3.849   3.381  17.201  1.3114  0.5484  0.7152
  343TMC3    H2 5149   4.134   3.105  17.059 -1.0356 -0.3366 -0.5651
  343TMC3    C7 5150   3.940   3.140  17.209  0.1406  0.0194 -0.1802
  343TMC3    C8 5151   4.262   3.287  16.892  0.5497 -0.4589 -0.4071
  343TMC3    O1 5152   3.817   3.140  17.205 -0.1440 -0.9587  0.3002
  343TMC3    O2 5153   4.320   3.392  16.923  0.7905 -0.0346 -0.4468
  344MPD2     C 5154   3.722   3.007   9.563  0.4037 -0.1567 -0.1415
  344MPD2    C1 5155   3.744   3.012   9.702  0.5187  0.4426 -0.2268
  344MPD2    C2 5156   3.799   3.136   9.739 -0.8588  0.2445 -0.7624
  344MPD2    C3 5157   3.823   3.246   9.647 -0.2523 -0.1530  0.2531
  344MPD2    C4 5158   3.786   3.228   9.511  0.0310 -0.5730  0.6141
  344MPD2    C5 5159   3.733   3.105   9.476 -0.5814 -0.3386  0.6173
  344MPD2     H 5160   3.829   3.156   9.842 -3.7229  0.9904 -0.0780
  344MPD2    H1 5161   3.811   3.310   9.444 -3.5299  0.3074  0.3148
  344MPD2    H2 5162   3.672   2.924   9.515  2.1158 -1.4272  0.2867
  344MPD2    H3 5163   3.693   3.088   9.376  2.0016  2.3468 -0.8672
  344MPD2     N 5164   3.877   3.369   9.691  0.3699  0.1918  0.3965
  344MPD2    H5 5165   3.877   3.446   9.624 -0.7882 -1.5612 -1.6059
  344MPD2    N1 5166   3.731   2.907   9.801 -1.2115 -0.4556  0.1541
  344MPD2    H7 5167   3.767   2.915   9.895  1.3815  0.6526 -0.9336
  345TMC3    C1 5168   4.000   3.527   9.825  0.0671 -0.2450  0.0112
  345TMC3    C2 5169   4.109   3.543   9.909  0.3632 -0.1257  0.0794
  345TMC3    C3 5170   4.137   3.669   9.953 -0.7550  0.1717  0.0122
  345TMC3    C4 5171   3.914   3.628   9.791  0.1307  1.3045 -0.6532
  345TMC3    C5 5172   3.952   3.753   9.836 -0.4259  0.0805  0.3297
  345TMC3    C6 5173   4.061   3.777   9.921 -0.5844  0.2151  0.5621
  345TMC3     C 5174   3.956   3.389   9.801  0.4694  0.3531 -0.7202
  345TMC3     O 5175   4.000   3.309   9.883 -0.1592  0.2439 -0.2567
  345TMC3     H 5176   4.183   3.464   9.922  0.2717 -0.7680 -3.2426
  345TMC3    H1 5177   3.828   3.614   9.727 -0.9525  0.8608  0.9194
  345TMC3    H2 5178   4.064   3.872   9.973  0.0866  0.0574  0.8172
  345TMC3    C7 5179   3.873   3.871   9.815 -0.0969  0.1517 -0.4068
  345TMC3    C8 5180   4.250   3.701  10.039 -0.1363 -0.4935  0.4647
  345TMC3    O1 5181   3.935   3.972   9.797 -0.1162 -0.5055  0.0107
  345TMC3    O2 5182   4.260   3.818  10.071  0.4031 -0.4480  0.0591
  346MPD2     C 5183   4.533   4.300  14.067 -0.0959  0.2849 -0.4694
  346MPD2    C1 5184   4.522   4.439  14.063 -0.2787  0.4079 -1.2072
  346MPD2    C2 5185   4.561   4.516  14.172 -0.3025  0.4268 -0.0503
  346MPD2    C3 5186   4.599   4.466  14.289  0.0863 -0.7854 -0.4678
  346MPD2    C4 5187   4.608   4.326  14.294 -0.2195 -0.2867 -1.0307
  346MPD2    C5 5188   4.580   4.250  14.188 -0.0731 -1.0363 -0.3229
  346MPD2     H 5189   4.536   4.621  14.168 -0.9720  0.2229 -1.1270
  346MPD2    H1 5190   4.646   4.277  14.383  0.3350 -1.5090 -1.9382
  346MPD2    H2 5191   4.507   4.241  13.980 -0.1322 -0.6622  0.1819
  346MPD2    H3 5192   4.593   4.145  14.210  0.2270 -0.5263  1.9154
  346MPD2     N 5193   4.629   4.553  14.397 -0.1848 -0.6686  0.1999
  346MPD2    H5 5194   4.634   4.653  14.376 -1.0332 -0.5592  0.5077
  346MPD2    N1 5195   4.455   4.494  13.950 -0.1313  0.0851  0.2755
  346MPD2    H7 5196   4.417   4.434  13.877 -0.9682  0.8466  0.0857
  347TMC3    C1 5197   4.700   4.610  14.621  0.0498  0.2893  0.0397
  347TMC3    C2 5198   4.680   0.022  14.594  0.1237 -0.3553  0.0377
  347TMC3    C3 5199   0.010   0.120  14.674 -0.1354  0.1076 -0.2266
  347TMC3    C4 5200   0.037   4.567  14.734 -0.2003 -0.1642  0.0678
  347TMC3    C5 5201   0.100   4.674  14.810  1.3687 -0.4507 -0.0275
  347TMC3    C6 5202   0.081   0.075  14.776  0.7972 -0.0078 -0.5479
  347TMC3     C 5203   4.661   4.509  14.523  0.2580 -0.3611  1.1886
  347TMC3     O 5204   4.646   4.400  14.568 -0.0069  0.4261  0.0508
  347TMC3     H 5205   4.617   0.046  14.509  0.8009 -1.5646 -0.7924
  347TMC3    H1 5206   0.030   4.462  14.758  1.2413 -0.5468 -1.2217
  347TMC3    H2 5207   0.122   0.154  14.839  1.1662 -0.1026 -0.6678
  347TMC3    C7 5208   0.126   4.640  14.947 -0.4814 -0.0120 -0.4011
  347TMC3    C8 5209   0.096   0.202  14.600 -0.2136 -0.0023 -0.9567
  347TMC3    O1 5210   0.177   4.530  14.974  0.1800 -0.4359 -0.3471
  347TMC3    O2 5211   0.211   0.172  14.598 -0.0462 -0.1060  0.6897
  348MPD2     C 5212   3.640   0.138  12.042 -0.7621  0.4471 -0.5636
  348MPD2    C1 5213   3.592   0.093  11.921 -0.4567 -0.4679  0.1332
  348MPD2    C2 5214   3.584   0.179  11.814  0.8440  0.3296  0.1299
  348MPD2    C3 5215   3.604   0.318  11.824  0.0715  0.4185 -0.3085
  348MPD2    C4 5216   3.627   0.370  11.948  0.4203 -0.2733 -0.0207
  348MPD2    C5 5217   3.646   0.277  12.053  0.0792  0.1447 -0.0131
  348MPD2     H 5218   3.545   0.146  11.719  0.8498 -1.5380  0.7672
  348MPD2    H1 5219   3.637   0.475  11.974 -0.7164 -0.2032  0.1224
  348MPD2    H2 5220   3.650   0.067  12.123 -0.0393  1.9695  0.6814
  348MPD2    H3 5221   3.651   0.311  12.156  1.7240 -0.2912  0.0506
  348MPD2     N 5222   3.577   0.412  11.716  0.8019  0.0615 -0.3165
  348MPD2    H5 5223   3.583   0.512  11.733 -1.2198  0.1104  0.1964
  348MPD2    N1 5224   3.556   4.682  11.897 -0.1078 -0.0223 -0.1950
  348MPD2    H7 5225   3.514   4.661  11.807 -0.7020  0.6933 -0.0855
  349TMC3    C1 5226   3.531   4.451  11.919 -0.5887 -0.0636 -0.0412
  349TMC3    C2 5227   3.577   4.343  11.982 -0.0114 -0.2987  0.3180
  349TMC3    C3 5228   3.544   4.222  11.922  0.1779 -0.3870 -0.3058
  349TMC3    C4 5229   3.468   4.454  11.794 -0.4550  0.8717 -0.2316
  349TMC3    C5 5230   3.445   4.327  11.741 -0.5830  0.0020  0.5837
  349TMC3    C6 5231   3.476   4.212  11.803 -0.1460  0.3187  0.2994
  349TMC3     C 5232   3.570   4.574  11.987 -0.1959 -0.6115 -0.0450
  349TMC3     O 5233   3.628   4.565  12.096 -0.2766  0.1941  0.1406
  349TMC3     H 5234   3.632   4.348  12.075  1.6014 -1.2557 -0.5758
  349TMC3    H1 5235   3.446   4.548  11.745 -1.1780  1.4670  1.2178
  349TMC3    H2 5236   3.464   4.121  11.745 -1.9944 -0.2906  1.6259
  349TMC3    C7 5237   3.394   4.319  11.610  0.3417  0.2925 -0.0729
  349TMC3    C8 5238   3.595   4.102  11.979  0.5800  0.2152 -0.2746
  349TMC3    O1 5239   3.332   4.214  11.580 -0.5072 -0.0869  0.4859
  349TMC3    O2 5240   3.690   4.105  12.063 -0.1374  0.0265 -0.1574
  350MPD2     C 5241   1.608   2.894   9.988  0.2936 -0.7627  0.2693
  350MPD2    C1 5242   1.685   2.790   9.936 -0.3544 -0.0243  0.9083
  350MPD2    C2 5243   1.829   2.800   9.952 -0.5209 -0.5413 -0.9346
  350MPD2    C3 5244   1.883   2.911  10.014  0.5675  0.5560  0.4329
  350MPD2    C4 5245   1.805   3.015  10.050 -0.0025 -0.1237 -0.0270
  350MPD2    C5 5246   1.669   3.004  10.034  0.5215  0.0198  0.2457
  350MPD2     H 5247   1.889   2.713   9.928  2.8509  1.8269 -1.1118
  350MPD2    H1 5248   1.837   3.099  10.111  1.9514 -1.2972  0.5687
  350MPD2    H2 5249   1.501   2.898   9.971  0.0105  0.7872  2.4693
  350MPD2    H3 5250   1.615   3.090  10.069  2.4430  1.7107 -0.9246
  350MPD2     N 5251   2.020   2.897  10.049 -0.0271  0.5338 -0.0047
  350MPD2    H5 5252   2.066   2.810  10.027 -2.1802 -1.2609  2.6206
  350MPD2    N1 5253   1.623   2.674   9.876  0.8483 -0.3881 -0.3508
  350MPD2    H7 5254   1.686   2.616   9.822  1.8031 -1.8223  2.3162
  351TMC3    C1 5255   1.443   2.523   9.802 -0.1298 -0.1501  0.1516
  351TMC3    C2 5256   1.528   2.418   9.784 -0.8900  0.3037  0.1214
  351TMC3    C3 5257   1.475   2.316   9.708  1.0654  0.7078  0.5038
  351TMC3    C4 5258   1.315   2.523   9.749  0.6767 -0.2016 -0.0676
  351TMC3    C5 5259   1.278   2.420   9.656  0.2624  0.0597 -0.0793
  351TMC3    C6 5260   1.360   2.314   9.638  0.0605 -0.0817 -0.5861
  351TMC3     C 5261   1.489   2.649   9.874  0.5740  0.6274 -0.2022
  351TMC3     O 5262   1.395   2.714   9.909  0.2919  0.1190  0.2718
  351TMC3     H 5263   1.631   2.422   9.819 -0.6657 -1.1416 -0.3455
  351TMC3    H1 5264   1.246   2.601   9.777 -3.0548 -3.4021 -0.1927
  351TMC3    H2 5265   1.340   2.235   9.566 -0.7649  1.7893 -2.4306
  351TMC3    C7 5266   1.149   2.425   9.599 -0.5820  0.3192 -0.1718
  351TMC3    C8 5267   1.546   2.191   9.704  0.5858 -0.8638  0.2961
  351TMC3    O1 5268   1.082   2.527   9.622 -0.3682  0.7925  0.5282
  351TMC3    O2 5269   1.523   2.114   9.612  0.7221 -0.1403  0.1355
  352MPD2     C 5270   0.918   0.114   1.567 -0.0999  0.6195  0.3517
  352MPD2    C1 5271   0.918   0.087   1.433  0.2829  0.6387 -0.0079
  352MPD2    C2 5272   0.950   4.684   1.383 -0.5726 -0.3727  0.3339
  352MPD2    C3 5273   0.986   4.587   1.470  0.0572 -0.1908 -0.1722
  352MPD2    C4 5274   0.998   4.618   1.600  0.1637  0.4953  0.1844
  352MPD2    C5 5275   0.976   0.020   1.650  0.0050  0.2112  0.3564
  352MPD2     H 5276   0.943   4.665   1.276  0.7294 -1.0624  0.3699
  352MPD2    H1 5277   1.048   4.545   1.663 -1.4320 -0.2217  0.6315
  352MPD2    H2 5278   0.892   0.210   1.611 -1.4614  0.4940 -0.1577
  352MPD2    H3 5279   0.988   0.028   1.758 -0.4795  0.9395  0.3588
  352MPD2     N 5280   1.005   4.451   1.433 -0.6000  0.3645  0.0915
  352MPD2    H5 5281   1.050   4.390   1.500 -1.5650 -0.4733 -0.0202
  352MPD2    N1 5282   0.887   0.204   1.358 -0.6601  0.4557 -0.2222
  352MPD2    H7 5283   0.885   0.285   1.420  0.1911  0.0718  0.3095
  353TMC3    C1 5284   1.001   4.251   1.307  0.1047  0.7922  0.1104
  353TMC3    C2 5285   1.095   4.202   1.394  0.1009 -0.1863  0.8528
  353TMC3    C3 5286   1.107   4.065   1.400 -1.0811  0.1855  1.0804
  353TMC3    C4 5287   0.925   4.176   1.220  0.2846  0.4613  0.7923
  353TMC3    C5 5288   0.946   4.037   1.223 -0.6323 -0.3797  0.1046
  353TMC3    C6 5289   1.048   3.984   1.302  0.8985 -0.4978  0.2643
  353TMC3     C 5290   0.969   4.394   1.311 -0.2259  0.1391 -0.4476
  353TMC3     O 5291   0.926   4.443   1.206  0.0619  0.3187 -0.9014
  353TMC3     H 5292   1.169   4.263   1.445  1.2431 -0.5386 -0.3941
  353TMC3    H1 5293   0.854   4.231   1.159  0.8142 -0.0027 -0.2216
  353TMC3    H2 5294   1.071   3.879   1.289  3.5632 -0.4126  4.2233
  353TMC3    C7 5295   0.924   3.969   1.099 -0.4956 -0.3272  0.5759
  353TMC3    C8 5296   1.221   4.003   1.465 -0.4358 -0.3278 -1.3127
  353TMC3    O1 5297   1.004   3.876   1.072  0.0154 -0.6474 -0.3566
  353TMC3    O2 5298   1.216   4.036   1.582  0.5760 -0.4183 -0.1721
  354TMC3    C1 5299   2.160   1.267  13.347 -0.3616 -0.3960 -0.4569
  354TMC3    C2 5300   2.188   1.405  13.361  0.8562 -0.0501  0.2885
  354TMC3    C3 5301   2.097   1.491  13.307  0.7073  0.1438 -0.2955
  354TMC3    C4 5302   2.042   1.222  13.283 -0.3129 -0.3870 -0.4600
  354TMC3    C5 5303   1.964   1.315  13.229  0.2412 -0.0940  0.2613
  354TMC3    C6 5304   1.979   1.449  13.248  0.5713  0.7876  0.5540
  354TMC3     C 5305   2.209   1.177  13.449  0.1442  0.3604 -0.5800
  354TMC3     O 5306   2.150   1.072  13.457 -0.6147  0.2331  0.4724
  354TMC3     H 5307   2.273   1.448  13.413  0.1785  1.8088 -0.1482
  354TMC3    H1 5308   2.036   1.118  13.252 -1.4320 -0.2919 -0.5762
  354TMC3    H2 5309   1.921   1.511  13.182 -0.0664  0.0111  0.3778
  354TMC3    C7 5310   1.921   1.293  13.090 -0.2564  0.4124  0.4717
  354TMC3    C8 5311   2.162   1.579  13.219  0.3817  0.9915 -0.6170
  354TMC3    O1 5312   1.812   1.337  13.049  0.0329  0.0611 -0.3337
  354TMC3    O2 5313   2.097   1.650  13.151 -0.1463  0.0854 -0.1451
  355MPD2     C 5314   2.063   2.040  11.400  0.4899 -0.0570 -0.1649
  355MPD2    C1 5315   2.117   2.118  11.297 -0.9230  0.0327  0.1056
  355MPD2    C2 5316   2.255   2.139  11.309  0.0502 -0.7783  0.3488
  355MPD2    C3 5317   2.320   2.141  11.433 -0.1341  0.8577  0.0111
  355MPD2    C4 5318   2.247   2.096  11.542  0.4106  0.0503  0.5828
  355MPD2    C5 5319   2.124   2.041  11.520 -0.3937 -0.4229  0.3591
  355MPD2     H 5320   2.308   2.163  11.218 -1.1342  0.3323 -0.0542
  355MPD2    H1 5321   2.300   2.099  11.636  0.4394  2.0707  0.4977
  355MPD2    H2 5322   1.973   1.982  11.384  0.0879  0.6741 -0.5519
  355MPD2    H3 5323   2.079   1.993  11.606 -2.2780  0.4450 -0.1417
  355MPD2     N 5324   2.450   2.184  11.455  0.1339 -0.1472  0.1838
  355MPD2    H5 5325   2.480   2.199  11.551  0.5816 -1.8209  0.3058
  355MPD2    N1 5326   2.053   2.116  11.171 -0.2290 -0.0016 -0.0115
  355MPD2    H7 5327   1.976   2.051  11.177 -0.4806  0.3008  0.0527
  356TMC3    C1 5328   2.686   2.239  11.404 -0.2638  0.2983  0.8504
  356TMC3    C2 5329   2.797   2.246  11.324  0.3787 -0.3028  0.3861
  356TMC3    C3 5330   2.916   2.300  11.365  0.6359  0.4223  0.3098
  356TMC3    C4 5331   2.695   2.303  11.525 -0.0641 -0.0238 -0.4243
  356TMC3    C5 5332   2.807   2.363  11.562 -0.1895 -0.3825  0.2020
  356TMC3    C6 5333   2.923   2.358  11.489 -0.2988 -0.0388  0.6416
  356TMC3     C 5334   2.553   2.193  11.356  0.7430 -0.4904  0.0704
  356TMC3     O 5335   2.546   2.169  11.236 -0.1868  1.0014  0.4746
  356TMC3     H 5336   2.792   2.200  11.227  2.2526 -0.4839  0.3598
  356TMC3    H1 5337   2.609   2.324  11.588 -1.6873 -0.8156 -2.3391
  356TMC3    H2 5338   3.021   2.386  11.526 -0.2376 -1.2640  1.4071
  356TMC3    C7 5339   2.814   2.415  11.697 -0.3372 -0.6090  0.1532
  356TMC3    C8 5340   3.027   2.302  11.277 -0.5303 -0.4424 -0.0429
  356TMC3    O1 5341   2.730   2.375  11.775  0.4531 -0.1611 -0.0755
  356TMC3    O2 5342   3.029   2.214  11.190  0.1821  0.2697 -0.2087
  357MPD2     C 5343   2.834   2.064   1.269  0.3710  0.0681 -0.0237
  357MPD2    C1 5344   2.956   2.017   1.313  0.0458  0.1014  0.5983
  357MPD2    C2 5345   3.022   2.105   1.399 -0.6727 -0.6556  0.0352
  357MPD2    C3 5346   2.973   2.228   1.435 -0.1742  1.2675  0.0285
  357MPD2    C4 5347   2.847   2.268   1.389 -0.3262 -0.1642 -0.1728
  357MPD2    C5 5348   2.780   2.178   1.312 -0.4498  0.7156 -0.0421
  357MPD2     H 5349   3.118   2.078   1.442 -0.1439 -1.2610 -1.5457
  357MPD2    H1 5350   2.804   2.367   1.404  4.1411  1.8119 -0.1618
  357MPD2    H2 5351   2.774   2.014   1.194  0.0067  0.0458  0.2794
  357MPD2    H3 5352   2.677   2.197   1.285 -0.5783  1.8418  1.2063
  357MPD2     N 5353   3.041   2.318   1.522 -0.0843 -0.0973  0.8684
  357MPD2    H5 5354   2.987   2.397   1.553 -0.6754 -0.2517  0.2277
  357MPD2    N1 5355   3.005   1.889   1.270 -0.0347  0.5037  0.1893
  357MPD2    H7 5356   2.978   1.857   1.178 -2.8661  0.0702  1.1988
  358TMC3    C1 5357   3.217   1.776   1.255  0.1475 -0.5563 -0.4457
  358TMC3    C2 5358   3.167   1.693   1.152  0.0101  0.2392  0.6222
  358TMC3    C3 5359   3.266   1.632   1.081 -0.5036 -0.7524  1.3270
  358TMC3    C4 5360   3.344   1.790   1.283  0.6018 -0.0325 -0.4244
  358TMC3    C5 5361   3.435   1.721   1.209  0.6019  1.4078 -0.1520
  358TMC3    C6 5362   3.399   1.661   1.091  0.3376 -0.0338 -0.3845
  358TMC3     C 5363   3.116   1.832   1.339 -0.0860 -0.1211  0.4583
  358TMC3     O 5364   3.128   1.842   1.457 -0.1854 -0.2241 -0.8822
  358TMC3     H 5365   3.060   1.676   1.144 -0.2143  1.1024  1.8213
  358TMC3    H1 5366   3.373   1.854   1.365 -0.8033 -1.1565  0.9551
  358TMC3    H2 5367   3.474   1.606   1.035  1.5627 -0.1746  1.3635
  358TMC3    C7 5368   3.575   1.760   1.217 -0.0747  0.6875 -0.8239
  358TMC3    C8 5369   3.219   1.589   0.955 -0.2773  0.6166  0.5297
  358TMC3    O1 5370   3.646   1.720   1.122 -0.0228  0.2116  0.2315
  358TMC3    O2 5371   3.303   1.560   0.873 -0.8100  0.7423 -0.0036
  359MPD2     C 5372   2.971   0.661  12.436 -0.9280  0.3990  0.1050
  359MPD2    C1 5373   2.959   0.661  12.298 -0.3458 -0.5945  0.3101
  359MPD2    C2 5374   2.853   0.602  12.235  0.3792  0.2453 -0.0413
  359MPD2    C3 5375   2.740   0.567  12.313  0.0115 -0.2095 -0.0364
  359MPD2    C4 5376   2.747   0.579  12.449  0.0423  0.9367  0.3852
  359MPD2    C5 5377   2.857   0.636  12.501  0.4236 -0.2504 -0.1179
  359MPD2     H 5378   2.854   0.585  12.128  0.0035 -0.5160  0.0785
  359MPD2    H1 5379   2.659   0.546  12.502 -0.4343  0.3338 -0.7719
  359MPD2    H2 5380   3.053   0.704  12.492  0.7959 -1.2992 -1.1090
  359MPD2    H3 5381   2.868   0.642  12.609  0.8249  0.9322 -0.2247
  359MPD2     N 5382   2.629   0.504  12.260  0.1742  0.4773  0.2864
  359MPD2    H5 5383   2.568   0.450  12.320  0.1430 -0.7832 -0.8774
  359MPD2    N1 5384   3.061   0.712  12.216 -0.0444  0.0340  0.2149
  359MPD2    H7 5385   3.050   0.693  12.117  1.1744  0.4209  0.0027
  360TMC3    C1 5386   3.287   0.756  12.140 -0.5868  0.2151 -0.1181
  360TMC3    C2 5387   3.410   0.811  12.176  0.5815  0.4544 -0.4121
  360TMC3    C3 5388   3.510   0.806  12.085 -0.9187  0.7115 -0.2451
  360TMC3    C4 5389   3.275   0.680  12.021  0.1729  0.0743  0.8879
  360TMC3    C5 5390   3.380   0.676  11.931  0.5551 -0.8881 -0.2106
  360TMC3    C6 5391   3.501   0.739  11.963 -0.2411 -0.3850 -0.2866
  360TMC3     C 5392   3.186   0.756  12.247  0.3372  0.0217  0.1591
  360TMC3     O 5393   3.229   0.789  12.357 -0.3883  1.1392  0.4756
  360TMC3     H 5394   3.419   0.872  12.265 -2.0493  0.3114 -0.0666
  360TMC3    H1 5395   3.177   0.652  11.985  0.7400 -0.5328 -0.1587
  360TMC3    H2 5396   3.574   0.735  11.884 -0.6442 -2.5442 -0.5584
  360TMC3    C7 5397   3.346   0.712  11.795 -0.2595  0.6747 -0.0280
  360TMC3    C8 5398   3.581   0.932  12.079  0.2658  0.0914 -0.8177
  360TMC3    O1 5399   3.407   0.804  11.744 -0.4788  0.5967  0.1806
  360TMC3    O2 5400   3.531   1.037  12.123  0.0970 -0.3943 -0.5216
  361MPD2     C 5401   0.085   4.693  16.477 -0.4790  0.4094  0.3707
  361MPD2    C1 5402   0.016   4.650  16.594  0.1021 -0.3908  0.7386
  361MPD2    C2 5403   0.083   4.559  16.673  0.2870 -0.3484  1.0891
  361MPD2    C3 5404   0.195   4.491  16.623  0.5047 -0.0084 -0.4006
  361MPD2    C4 5405   0.246   4.520  16.499  0.5865  0.4724  0.4477
  361MPD2    C5 5406   0.196   4.631  16.434  0.0319  0.0332 -0.0446
  361MPD2     H 5407   0.026   4.518  16.756 -0.2422 -1.5853  0.1157
  361MPD2    H1 5408   0.334   4.473  16.457  0.4184  0.5232  0.0417
  361MPD2    H2 5409   0.047   0.055  16.421 -1.1616  1.8911  3.0583
  361MPD2    H3 5410   0.242   4.663  16.341 -2.6804  1.1009 -0.9843
  361MPD2     N 5411   0.273   4.393  16.699  0.0242 -0.2383 -0.6861
  361MPD2    H5 5412   0.348   4.354  16.644 -0.5331 -1.4742 -0.5619
  361MPD2    N1 5413   4.610   4.697  16.628 -0.6953 -0.1406  0.1347
  361MPD2    H7 5414   4.580   0.063  16.590  0.6780  0.3331  0.1765
  362TMC3    C1 5415   4.400   4.684  16.748 -0.0690  0.7478  0.1113
  362TMC3    C2 5416   4.319   4.616  16.832  0.0664  0.3032 -0.0027
  362TMC3    C3 5417   4.213   4.682  16.882 -0.3818 -0.0579  0.5453
  362TMC3    C4 5418   4.376   0.093  16.716  0.1547 -1.4688 -0.1287
  362TMC3    C5 5419   4.265   0.152  16.770  0.0134 -0.3814  0.3015
  362TMC3    C6 5420   4.178   0.089  16.849 -0.0663 -0.3703  0.1092
  362TMC3     C 5421   4.512   4.620  16.694 -0.0750  0.3370 -0.8120
  362TMC3     O 5422   4.514   4.496  16.697 -0.2306  0.0363  0.2512
  362TMC3     H 5423   4.340   4.514  16.862  2.2204  0.2891 -1.5528
  362TMC3    H1 5424   4.447   0.148  16.655 -1.2137 -1.1842 -1.4608
  362TMC3    H2 5425   4.103   0.148  16.899 -0.5487 -0.3466 -0.6424
  362TMC3    C7 5426   4.230   0.275  16.697  0.1457 -1.4805  0.6895
  362TMC3    C8 5427   4.102   4.600  16.929  0.1481 -0.7481 -0.7695
  362TMC3    O1 5428   4.314   0.341  16.634 -0.6014 -0.5843  0.1171
  362TMC3    O2 5429   4.091   4.478  16.896 -0.1662  0.1918  0.2724
  363TMC3    C1 5430   2.478   1.863   9.164  0.0543 -1.0419 -0.3229
  363TMC3    C2 5431   2.568   1.866   9.269  0.4861 -0.3442 -0.2923
  363TMC3    C3 5432   2.571   1.973   9.352  0.6921  0.8503 -0.4288
  363TMC3    C4 5433   2.375   1.956   9.149  0.7643  0.8350 -0.6980
  363TMC3    C5 5434   2.387   2.062   9.230  0.4526  0.4077 -0.0403
  363TMC3    C6 5435   2.479   2.076   9.330  0.4783 -0.3848 -0.4290
  363TMC3     C 5436   2.467   1.737   9.092  0.0804  0.1106 -0.2148
  363TMC3     O 5437   2.545   1.644   9.121  0.7750  0.1592  0.2569
  363TMC3     H 5438   2.633   1.780   9.279 -0.9623 -1.3547  0.3669
  363TMC3    H1 5439   2.291   1.946   9.080  0.7265  1.5199 -0.7495
  363TMC3    H2 5440   2.472   2.155   9.404  0.5816 -1.2625  0.5177
  363TMC3    C7 5441   2.263   2.137   9.252  0.3456  0.1556  0.4784
  363TMC3    C8 5442   2.652   1.973   9.476 -0.5676 -0.3289  0.4395
  363TMC3    O1 5443   2.166   2.084   9.198 -0.1975 -0.1339 -0.3201
  363TMC3    O2 5444   2.629   2.067   9.556 -0.2660 -0.1367  0.0931
  364MPD2     C 5445   1.803   1.262  10.089 -0.5384  0.1388 -0.3041
  364MPD2    C1 5446   1.895   1.363  10.107 -1.1210  0.7395 -0.3112
  364MPD2    C2 5447   2.026   1.335  10.140  0.4384  0.8981 -0.2183
  364MPD2    C3 5448   2.073   1.203  10.134  0.5427 -0.3173  0.3092
  364MPD2    C4 5449   1.984   1.100  10.110  0.4343 -0.0672 -0.7252
  364MPD2    C5 5450   1.854   1.136  10.081  0.7170 -0.1492  0.3760
  364MPD2     H 5451   2.097   1.413  10.164 -0.5381  1.7002  0.0789
  364MPD2    H1 5452   2.015   0.997  10.102  1.5941  0.1323  1.0859
  364MPD2    H2 5453   1.699   1.262  10.059  0.2027 -0.3197 -2.8716
  364MPD2    H3 5454   1.788   1.057  10.046  0.5826 -0.1293  0.5849
  364MPD2     N 5455   2.203   1.170  10.174 -0.2810  0.0325  0.3554
  364MPD2    H5 5456   2.220   1.070  10.173 -3.6093 -0.5033 -1.3884
  364MPD2    N1 5457   1.840   1.491  10.088  0.1790  0.7258 -0.0449
  364MPD2    H7 5458   1.742   1.503  10.062  0.5725 -0.4092 -2.0509
  365TMC3    C1 5459   1.816   1.714  10.100 -0.4767 -0.6167  0.4727
  365TMC3    C2 5460   1.732   1.693   9.990  0.0228 -0.0911  0.0951
  365TMC3    C3 5461   1.622   1.770   9.982  0.7735 -0.4337 -0.5443
  365TMC3    C4 5462   1.777   1.787  10.209  0.1517 -0.0794 -0.6371
  365TMC3    C5 5463   1.671   1.878  10.195 -0.3676  0.4500 -0.1080
  365TMC3    C6 5464   1.589   1.855  10.082  0.0753 -0.1604 -0.2745
  365TMC3     C 5465   1.905   1.608  10.129  0.4167  0.8678  0.3754
  365TMC3     O 5466   1.996   1.627  10.208 -0.4324 -0.3430 -0.2378
  365TMC3     H 5467   1.761   1.635   9.903  0.5092 -1.0972  0.9294
  365TMC3    H1 5468   1.848   1.784  10.291 -1.7025  0.1060  0.9719
  365TMC3    H2 5469   1.493   1.905  10.083  0.1072 -0.1027  0.3400
  365TMC3    C7 5470   1.617   1.944  10.307  0.1910 -0.2035 -0.6880
  365TMC3    C8 5471   1.505   1.722   9.908 -0.6593 -1.1344 -0.0541
  365TMC3    O1 5472   1.548   2.044  10.290 -0.1566 -0.0086  0.4322
  365TMC3    O2 5473   1.398   1.780   9.928  0.1011  0.3972 -0.6664
  366MPD2     C 5474   0.376   2.556  14.837 -0.5127 -0.1235  0.1022
  366MPD2    C1 5475   0.426   2.595  14.957 -0.2931 -0.2826  0.1368
  366MPD2    C2 5476   0.565   2.591  14.964  0.3892  0.6659 -0.0180
  366MPD2    C3 5477   0.644   2.581  14.851  0.0760  0.0605 -0.1843
  366MPD2    C4 5478   0.588   2.537  14.731 -0.0515  0.6202 -0.2852
  366MPD2    C5 5479   0.459   2.526  14.733  0.6724  0.1201  0.4445
  366MPD2     H 5480   0.602   2.626  15.060 -1.2576 -0.6473  1.0775
  366MPD2    H1 5481   0.649   2.530  14.641  0.8237  0.3590  0.3321
  366MPD2    H2 5482   0.270   2.560  14.816 -0.4780  0.8906  0.1160
  366MPD2    H3 5483   0.405   2.497  14.643 -0.1628 -0.8570  1.2692
  366MPD2     N 5484   0.787   2.595  14.850  0.0366  0.3882 -0.2256
  366MPD2    H5 5485   0.836   2.546  14.776  1.8131 -0.8603  1.7557
  366MPD2    N1 5486   0.358   2.653  15.065  0.4010 -0.7360 -0.1553
  366MPD2    H7 5487   0.415   2.663  15.148 -0.7657 -0.4571  0.5961
  367TMC3    C1 5488   0.203   2.812  15.145 -0.7573 -0.1180  0.3429
  367TMC3    C2 5489   0.309   2.863  15.219  0.1087  0.1023 -0.4640
  367TMC3    C3 5490   0.293   2.988  15.270 -0.6009 -0.5945 -0.7632
  367TMC3    C4 5491   0.087   2.877  15.113  0.1958  0.6422  0.1400
  367TMC3    C5 5492   0.078   3.000  15.169  0.3454 -0.1469  0.0894
  367TMC3    C6 5493   0.178   3.056  15.243  0.3836 -0.5495 -0.0982
  367TMC3     C 5494   0.228   2.693  15.058 -0.3743  0.4389 -0.0218
  367TMC3     O 5495   0.140   2.672  14.974 -0.4145 -0.3956  0.2312
  367TMC3     H 5496   0.406   2.818  15.241 -0.7689 -1.5818 -0.0103
  367TMC3    H1 5497   0.016   2.836  15.041 -0.9909 -0.8746  2.1551
  367TMC3    H2 5498   0.154   3.148  15.296  0.7841  0.3744 -1.5030
  367TMC3    C7 5499   4.689   3.084  15.129  0.0709  0.1127  0.1930
  367TMC3    C8 5500   0.403   3.042  15.348  0.0837  0.4494  0.3464
  367TMC3    O1 5501   4.704   3.205  15.156  0.0738 -0.2229  0.2809
  367TMC3    O2 5502   0.479   2.956  15.388  0.2001 -0.1669  0.0411
  368MPD2     C 5503   1.239   0.856  13.147  0.6330 -0.1691  0.5491
  368MPD2    C1 5504   1.210   0.724  13.108  0.1987 -0.6755  0.6453
  368MPD2    C2 5505   1.315   0.651  13.056 -0.0871  0.6595 -0.0810
  368MPD2    C3 5506   1.439   0.707  13.045 -0.3749 -0.4820 -0.4851
  368MPD2    C4 5507   1.466   0.837  13.086  0.2945 -0.4350 -0.4301
  368MPD2    C5 5508   1.363   0.915  13.139  0.2938  0.2436 -0.2522
  368MPD2     H 5509   1.296   0.547  13.033 -0.1224  0.3724  1.2373
  368MPD2    H1 5510   1.570   0.868  13.097 -0.1391  0.2617  1.6631
  368MPD2    H2 5511   1.161   0.925  13.178  1.0570  0.3060  0.5521
  368MPD2    H3 5512   1.390   1.017  13.165  0.0662 -0.1302  1.4878
  368MPD2     N 5513   1.541   0.628  12.978  0.1559  0.0312  0.5387
  368MPD2    H5 5514   1.627   0.677  12.954 -0.7396  1.1786 -0.3256
  368MPD2    N1 5515   1.074   0.673  13.121 -0.2196 -0.0555  0.6244
  368MPD2    H7 5516   1.007   0.738  13.163 -1.9828 -0.8248 -0.9896
  369TMC3    C1 5517   0.895   0.559  13.039 -0.5819 -0.2534 -0.1707
  369TMC3    C2 5518   0.869   0.657  12.946  0.4267  0.2596  0.1274
  369TMC3    C3 5519   0.762   0.646  12.857  0.0443  0.1924 -0.4578
  369TMC3    C4 5520   0.829   0.438  13.029  0.1779 -0.3701  0.9669
  369TMC3    C5 5521   0.722   0.438  12.944  0.0584  0.3683 -0.0209
  369TMC3    C6 5522   0.680   0.537  12.865  0.3524 -0.1076 -0.4262
  369TMC3     C 5523   1.031   0.548  13.085 -0.1234  0.2065 -0.0443
  369TMC3     O 5524   1.096   0.449  13.058 -0.4940  0.5502 -0.5869
  369TMC3     H 5525   0.932   0.744  12.936 -0.1080  0.5469 -0.7030
  369TMC3    H1 5526   0.846   0.365  13.107  2.7437 -0.3702  0.3946
  369TMC3    H2 5527   0.582   0.540  12.820  0.6786  1.4374 -1.0418
  369TMC3    C7 5528   0.643   0.316  12.939  0.0700  0.1654  0.0407
  369TMC3    C8 5529   0.762   0.723  12.728 -0.0516  0.4440 -0.0999
  369TMC3    O1 5530   0.638   0.254  13.043 -0.6261  0.7013  0.5311
  369TMC3    O2 5531   0.651   0.734  12.683  0.0754  0.4172 -0.0651
  370TMC3    C1 5532   0.949   0.677  16.192  0.2751 -0.2608 -0.3535
  370TMC3    C2 5533   0.910   0.586  16.286 -0.8271  0.5102  0.0614
  370TMC3    C3 5534   0.823   0.491  16.237 -0.2786 -0.8787 -0.0751
  370TMC3    C4 5535   0.892   0.686  16.067  0.3705  0.2619  0.6986
  370TMC3    C5 5536   0.817   0.578  16.027 -0.3019  0.2239 -0.1831
  370TMC3    C6 5537   0.780   0.477  16.108  0.5750 -0.2519  0.2387
  370TMC3     C 5538   1.084   0.739  16.216  0.2687 -0.0266  1.1748
  370TMC3     O 5539   1.166   0.675  16.277 -0.4880  0.1118 -0.5026
  370TMC3     H 5540   0.959   0.578  16.382 -0.9733 -1.3690 -0.0100
  370TMC3    H1 5541   0.922   0.758  15.992 -0.5493  0.3870  0.4514
  370TMC3    H2 5542   0.715   0.396  16.074  0.7459 -0.5253  0.5675
  370TMC3    C7 5543   0.823   0.549  15.887 -0.4094  0.4130  0.0760
  370TMC3    C8 5544   0.796   0.381  16.330 -0.2784  0.5370 -0.7989
  370TMC3    O1 5545   0.821   0.644  15.806 -0.4479  0.3684  0.1108
  370TMC3    O2 5546   0.806   0.272  16.276  0.2370 -0.1634  0.5670
  371TMC3    C1 5547   2.066   3.676  15.353  0.6057 -0.1475 -0.2885
  371TMC3    C2 5548   1.928   3.667  15.349  1.1093 -0.2047 -0.0584
  371TMC3    C3 5549   1.867   3.785  15.315 -0.7317  0.2714 -0.2161
  371TMC3    C4 5550   2.127   3.794  15.319 -0.0657  0.0087  0.2713
  371TMC3    C5 5551   2.059   3.910  15.295  0.2814 -0.2985 -0.1251
  371TMC3    C6 5552   1.922   3.909  15.284  0.1514  0.2880 -0.2651
  371TMC3     C 5553   2.137   3.551  15.318  0.0678 -0.1438  0.3386
  371TMC3     O 5554   2.241   3.569  15.258 -0.1877  0.0425 -0.3546
  371TMC3     H 5555   1.866   3.580  15.371  2.5202 -1.5383 -1.3395
  371TMC3    H1 5556   2.234   3.789  15.336  0.4153  0.8085 -2.5079
  371TMC3    H2 5557   1.872   3.994  15.241  2.2744  0.7298 -1.8988
  371TMC3    C7 5558   2.134   4.029  15.257 -0.2281 -0.1026  0.9084
  371TMC3    C8 5559   1.727   3.772  15.298 -0.3471 -0.1491  0.0716
  371TMC3    O1 5560   2.076   4.118  15.201  0.4197 -0.1348 -0.3735
  371TMC3    O2 5561   1.675   3.660  15.274  0.6044  0.6320 -0.9108
  372MPD2     C 5562   1.930   0.336  13.092 -0.9372 -0.3658  0.6262
  372MPD2    C1 5563   2.016   0.234  13.126 -0.0942  0.1820  0.2181
  372MPD2    C2 5564   1.977   0.160  13.237  0.0957 -0.4770 -0.2787
  372MPD2    C3 5565   1.850   0.184  13.300  0.0429  0.0546  0.1260
  372MPD2    C4 5566   1.778   0.288  13.268  0.0438 -0.1384  0.3734
  372MPD2    C5 5567   1.816   0.360  13.165  0.4293  0.4325 -0.3479
  372MPD2     H 5568   2.041   0.077  13.265  0.3906 -0.1301  0.0532
  372MPD2    H1 5569   1.686   0.316  13.319 -1.5348  0.5917 -2.8427
  372MPD2    H2 5570   1.955   0.409  13.016  0.3493  0.6544  2.0547
  372MPD2    H3 5571   1.755   0.441  13.127 -1.2006 -0.4772  0.3419
  372MPD2     N 5572   1.815   0.102  13.407 -0.6898 -0.0791 -0.1799
  372MPD2    H5 5573   1.881   0.028  13.428  0.0342  0.4853 -0.4700
  372MPD2    N1 5574   2.137   0.212  13.057  0.1267  0.3861  0.4337
  372MPD2    H7 5575   2.190   0.134  13.094 -0.1276  0.7332  1.5542
  373TMC3    C1 5576   1.703   0.009  13.589  0.5072 -0.1856  0.2456
  373TMC3    C2 5577   1.615   0.042  13.694  0.0044  0.5143 -0.1767
  373TMC3    C3 5578   1.609   4.683  13.808 -0.1580 -0.2455  0.4382
  373TMC3    C4 5579   1.778   4.624  13.594 -0.3492  0.3062 -0.5544
  373TMC3    C5 5580   1.773   4.544  13.705  0.3444 -0.6085  0.2145
  373TMC3    C6 5581   1.688   4.576  13.816  0.1863  0.3908 -0.8485
  373TMC3     C 5582   1.702   0.110  13.482  0.3135  0.1647 -0.0203
  373TMC3     O 5583   1.610   0.194  13.481 -0.0442  0.4519 -0.7671
  373TMC3     H 5584   1.577   0.143  13.693 -1.3223  0.0064 -1.6258
  373TMC3    H1 5585   1.832   4.586  13.508  2.0987 -1.7716  1.8998
  373TMC3    H2 5586   1.678   4.512  13.903  0.2967  0.5361 -0.7260
  373TMC3    C7 5587   1.891   4.456  13.728 -0.1228 -0.6260  0.0803
  373TMC3    C8 5588   1.600   0.034  13.936 -0.5701  0.2141  0.4961
  373TMC3    O1 5589   1.933   4.456  13.842  0.1592 -0.3176  0.4669
  373TMC3    O2 5590   1.572   4.683  14.032 -1.1606  0.2699  0.4291
  374TMC3    C1 5591   2.362   0.671   9.648 -0.5145  0.4473  0.1055
  374TMC3    C2 5592   2.483   0.726   9.681  0.4547  0.4289 -0.4820
  374TMC3    C3 5593   2.570   0.737   9.584  0.8122 -0.7690  0.4808
  374TMC3    C4 5594   2.324   0.643   9.520  0.0598 -0.0397  0.1289
  374TMC3    C5 5595   2.411   0.672   9.422 -0.9839 -1.1150 -0.5969
  374TMC3    C6 5596   2.535   0.718   9.454  0.1723 -0.2129  0.3347
  374TMC3     C 5597   2.285   0.615   9.755  0.3104 -0.6268 -0.9173
  374TMC3     O 5598   2.178   0.571   9.718  0.4149  0.6481 -0.1701
  374TMC3     H 5599   2.505   0.747   9.786 -0.2024  0.6152 -0.3809
  374TMC3    H1 5600   2.225   0.607   9.496 -0.2364  1.6307 -1.1271
  374TMC3    H2 5601   2.618   0.715   9.385 -1.3389 -2.6371 -1.3933
  374TMC3    C7 5602   2.346   0.742   9.310  0.0784 -0.3330 -0.2430
  374TMC3    C8 5603   2.685   0.814   9.609 -0.4095 -0.1064 -0.4048
  374TMC3    O1 5604   2.233   0.704   9.280  0.9132  0.5824  0.5353
  374TMC3    O2 5605   2.721   0.892   9.521  1.3011 -0.4822  0.0062
  375MPD2     C 5606   2.348   1.029  17.134 -0.0241 -0.1013 -0.1775
  375MPD2    C1 5607   2.267   1.011  17.028  0.0251  0.3226 -0.5211
  375MPD2    C2 5608   2.293   0.933  16.916 -0.2457 -0.7204  0.4086
  375MPD2    C3 5609   2.413   0.858  16.920  0.5373  0.4067 -0.5362
  375MPD2    C4 5610   2.499   0.865  17.033  0.0748  0.2242  0.1057
  375MPD2    C5 5611   2.453   0.948  17.137  0.2324 -0.0660 -0.1690
  375MPD2     H 5612   2.220   0.939  16.836 -0.9659 -2.0717  0.9694
  375MPD2    H1 5613   2.586   0.805  17.056 -0.5895 -1.6273 -2.1846
  375MPD2    H2 5614   2.340   1.100  17.216  1.2850  0.3460 -0.4293
  375MPD2    H3 5615   2.522   0.949  17.221 -0.5417 -0.4427  0.4761
  375MPD2     N 5616   2.443   0.762  16.815 -0.0752  0.0988  0.2330
  375MPD2    H5 5617   2.532   0.716  16.828  0.2907  0.3854 -1.2428
  375MPD2    N1 5618   2.134   1.062  17.026 -0.6005 -0.0401 -0.3362
  375MPD2    H7 5619   2.090   1.066  16.934  1.2665  1.0723 -1.1821
  376TMC3    C1 5620   2.439   0.662  16.598  0.2492  0.6149 -0.5637
  376TMC3    C2 5621   2.573   0.688  16.584 -0.9511 -0.1056 -0.2436
  376TMC3    C3 5622   2.632   0.670  16.462 -0.3179  0.3049 -0.2539
  376TMC3    C4 5623   2.362   0.628  16.491  0.4730 -0.1804 -0.4236
  376TMC3    C5 5624   2.429   0.605  16.372 -0.6394 -0.3975 -0.0784
  376TMC3    C6 5625   2.562   0.633  16.348  0.1860 -0.4822 -0.1324
  376TMC3     C 5626   2.370   0.732  16.704  0.1044  0.5414  0.2798
  376TMC3     O 5627   2.249   0.744  16.680  0.5930  0.4469 -0.4944
  376TMC3     H 5628   2.620   0.761  16.648  0.0600 -1.4321  0.5327
  376TMC3    H1 5629   2.259   0.601  16.511 -0.4327  1.3273 -3.0379
  376TMC3    H2 5630   2.601   0.624  16.247 -0.5207  1.3129 -0.5772
  376TMC3    C7 5631   2.336   0.585  16.262 -0.9589  0.1686  0.1396
  376TMC3    C8 5632   2.771   0.696  16.437  0.0340  0.0795 -0.5402
  376TMC3    O1 5633   2.218   0.619  16.281  0.5975  0.3871 -1.3614
  376TMC3    O2 5634   2.801   0.738  16.329 -0.1575 -0.7786 -0.0134
  377MPD2     C 5635   4.691   0.571  11.966  0.2445 -0.5717 -0.4562
  377MPD2    C1 5636   0.035   0.515  12.075  0.0218 -0.0090  0.3997
  377MPD2    C2 5637   4.684   0.482  12.184 -0.2457  0.2778  0.4914
  377MPD2    C3 5638   4.546   0.501  12.188  0.1437  0.4149  0.3155
  377MPD2    C4 5639   4.488   0.576  12.093 -0.7326 -0.2070 -0.2551
  377MPD2    C5 5640   4.559   0.605  11.978  0.6460 -0.3626 -0.1879
  377MPD2     H 5641   0.006   0.425  12.264  1.1825  1.2652  0.4021
  377MPD2    H1 5642   4.381   0.593  12.098 -0.4554  0.6903  2.4674
  377MPD2    H2 5643   0.026   0.606  11.881  2.1937  2.5523  2.1826
  377MPD2    H3 5644   4.504   0.643  11.893 -1.5317 -1.5449  0.6747
  377MPD2     N 5645   4.466   0.452  12.292  0.1181 -0.3687  0.4597
  377MPD2    H5 5646   4.371   0.486  12.279  0.0438 -1.0999 -0.8628
  377MPD2    N1 5647   0.175   0.505  12.065 -0.5290  0.1438  0.2903
  377MPD2    H7 5648   0.212   0.539  11.977  2.3408  0.3274  1.5738
  378TMC3    C1 5649   0.571   0.469  11.960 -0.2019 -0.4518  0.3599
  378TMC3    C2 5650   0.437   0.489  11.994 -0.7686  0.1902 -0.2022
  378TMC3    C3 5651   0.401   0.497  12.125 -0.1651 -0.5741 -0.1789
  378TMC3    C4 5652   0.668   0.467  12.062  0.8551 -0.5078  0.6981
  378TMC3    C5 5653   0.627   0.474  12.193 -0.8361  0.3395 -0.4740
  378TMC3    C6 5654   0.496   0.502  12.228 -0.1139 -0.8485  0.5262
  378TMC3     C 5655   0.599   0.510  11.827  0.5456  0.2180  0.1363
  378TMC3     O 5656   0.513   0.552  11.752 -0.2033 -0.6641  0.5718
  378TMC3     H 5657   0.366   0.496  11.913 -1.2296  0.4943  0.2256
  378TMC3    H1 5658   0.768   0.436  12.035  0.7006 -2.5373  2.4706
  378TMC3    H2 5659   0.463   0.505  12.331  0.0985 -0.8058  0.5927
  378TMC3    C7 5660   0.723   0.456  12.303  0.3807 -0.5500 -0.5073
  378TMC3    C8 5661   0.261   0.479  12.160 -0.0591  1.4562  0.1532
  378TMC3    O1 5662   0.683   0.470  12.417  0.3428 -0.5604  0.2460
  378TMC3    O2 5663   0.235   0.451  12.276 -0.0761  0.5025 -0.2248
  379MPD2     C 5664   1.626   3.105  15.933 -0.0433 -0.0452  0.2923
  379MPD2    C1 5665   1.511   3.076  16.004  0.3381  0.1527 -0.6328
  379MPD2    C2 5666   1.517   3.004  16.121 -0.2781 -0.1977 -0.2190
  379MPD2    C3 5667   1.630   2.944  16.156  0.8410 -0.2413 -0.5612
  379MPD2    C4 5668   1.749   2.961  16.079  0.5651 -0.7828 -0.1859
  379MPD2    C5 5669   1.742   3.041  15.967  0.4692  0.2649  0.1158
  379MPD2     H 5670   1.424   2.963  16.160 -0.8932  1.6779  0.2606
  379MPD2    H1 5671   1.844   2.913  16.097  1.2560  0.8322  0.4393
  379MPD2    H2 5672   1.623   3.177  15.852 -1.7440 -0.1820  0.2486
  379MPD2    H3 5673   1.833   3.063  15.913  0.8445 -2.1805 -0.2811
  379MPD2     N 5674   1.647   2.850  16.256  0.4380 -0.2272 -0.0048
  379MPD2    H5 5675   1.740   2.809  16.264 -0.4325 -2.0961  0.4436
  379MPD2    N1 5676   1.390   3.128  15.947 -0.4684 -0.0078  0.3944
  379MPD2    H7 5677   1.411   3.196  15.876 -1.3380  0.4022  0.5298
  380TMC3    C1 5678   1.190   3.090  15.845 -0.5050 -0.0895  0.6275
  380TMC3    C2 5679   1.260   3.053  15.732 -0.6213 -0.3528 -0.0008
  380TMC3    C3 5680   1.213   3.096  15.609 -0.3815  0.5726 -0.4508
  380TMC3    C4 5681   1.067   3.152  15.842 -0.4282  0.9845 -0.8176
  380TMC3    C5 5682   1.018   3.173  15.713  0.2533  0.2096  0.6114
  380TMC3    C6 5683   1.089   3.154  15.599 -0.6065  0.0727 -0.1297
  380TMC3     C 5684   1.265   3.073  15.966  0.8832  0.2037 -0.7708
  380TMC3     O 5685   1.221   3.020  16.065 -0.2951  0.2231  0.1938
  380TMC3     H 5686   1.352   2.998  15.747  0.5135  1.2955 -0.9358
  380TMC3    H1 5687   1.008   3.160  15.932 -0.1060 -0.3873 -0.4798
  380TMC3    H2 5688   1.055   3.187  15.502 -4.4003 -0.2481  1.0698
  380TMC3    C7 5689   0.896   3.247  15.711  0.1911 -0.1258 -0.0207
  380TMC3    C8 5690   1.303   3.119  15.494  0.2467  0.0298  0.5958
  380TMC3    O1 5691   0.865   3.313  15.810  0.5091  0.3242 -0.6803
  380TMC3    O2 5692   1.268   3.204  15.408 -0.5789 -0.8202  0.2264
  381TMC3    C1 5693   0.777   4.336  16.025  0.0827  0.6337 -0.2218
  381TMC3    C2 5694   0.858   4.445  16.005 -0.0394  0.4069 -0.4470
  381TMC3    C3 5695   0.857   4.545  16.100  0.4496  0.4881 -0.4517
  381TMC3    C4 5696   0.718   4.319  16.139 -0.5079 -0.5294  0.3340
  381TMC3    C5 5697   0.711   4.421  16.229 -0.6336 -0.0114 -0.5330
  381TMC3    C6 5698   0.784   4.535  16.215 -0.1469  0.1847  0.4523
  381TMC3     C 5699   0.797   4.227  15.930  0.1467 -0.2863  0.2782
  381TMC3     O 5700   0.838   4.261  15.819  0.1345 -0.1308 -0.0380
  381TMC3     H 5701   0.924   4.458  15.920  0.0630  1.0548 -0.2663
  381TMC3    H1 5702   0.658   4.228  16.143  1.0437 -1.5672  0.0439
  381TMC3    H2 5703   0.784   4.613  16.290  3.1399  0.0438  0.5923
  381TMC3    C7 5704   0.684   4.375  16.364 -0.0091  0.9002  0.5848
  381TMC3    C8 5705   0.942   4.664  16.064 -0.2524 -0.0334  0.0425
  381TMC3    O1 5706   0.695   4.253  16.374 -0.0148  0.0364 -0.3559
  381TMC3    O2 5707   0.963   4.673  15.945 -0.1742  0.0357  0.2960
  382MPD2     C 5708   0.325   2.122   0.007 -0.4110  0.0461  0.3496
  382MPD2    C1 5709   0.338   2.048   0.125 -0.4386 -0.2378  0.0637
  382MPD2    C2 5710   0.303   1.913   0.130  0.5020 -0.6306  0.3531
  382MPD2    C3 5711   0.263   1.846   0.014  0.0954  0.4800  0.3339
  382MPD2    C4 5712   0.243   1.930  17.598  0.1753  0.4177 -0.1940
  382MPD2    C5 5713   0.271   2.061  17.598 -0.6221  0.7216  0.3752
  382MPD2     H 5714   0.299   1.866   0.227  2.4444  0.0247  0.7646
  382MPD2    H1 5715   0.211   1.882  17.507 -0.2196  0.3958 -0.0436
  382MPD2    H2 5716   0.340   2.229  17.691  0.7612 -0.1064  0.4877
  382MPD2    H3 5717   0.265   2.113  17.503  0.2484  0.3580  0.1253
  382MPD2     N 5718   0.237   1.706   0.004 -0.5500  0.4377 -0.2520
  382MPD2    H5 5719   0.216   1.663  17.608 -1.8961  0.6918 -0.0669
  382MPD2    N1 5720   0.381   2.120   0.237 -0.6377  0.3235 -0.3671
  382MPD2    H7 5721   0.399   2.218   0.219 -1.4135  0.9258  2.1603
  383TMC3    C1 5722   0.205   1.485   0.077  0.5038  0.4304  0.4920
  383TMC3    C2 5723   0.159   1.449  17.642  0.6538  0.5806 -0.3350
  383TMC3    C3 5724   0.124   1.316  17.624  0.3263 -0.2118 -0.7693
  383TMC3    C4 5725   0.223   1.387   0.175  0.0390  0.2536  0.2273
  383TMC3    C5 5726   0.189   1.260   0.152 -0.4339 -0.0509 -0.2601
  383TMC3    C6 5727   0.147   1.220   0.027  0.0295  0.8691 -0.3625
  383TMC3     C 5728   0.218   1.625   0.119  0.0762 -0.3270 -0.3784
  383TMC3     O 5729   0.198   1.662   0.235 -0.4846  0.0478 -0.1659
  383TMC3     H 5730   0.127   1.521  17.567 -0.4101 -0.2907 -0.7200
  383TMC3    H1 5731   0.258   1.428   0.269  1.4107 -1.2315  0.3722
  383TMC3    H2 5732   0.146   1.115   0.002 -1.2363  0.2213  2.3935
  383TMC3    C7 5733   0.186   1.168   0.260 -0.2659 -0.4260  0.0793
  383TMC3    C8 5734   0.053   1.283  17.503 -0.0249  0.4737 -0.1482
  383TMC3    O1 5735   0.143   1.055   0.246 -0.4332  0.4860  0.5315
  383TMC3    O2 5736   4.706   1.375  17.454  0.3448 -0.2488 -0.2125
  384MPD2     C 5737   1.297   2.880  11.650  0.4718  0.5696  1.0452
  384MPD2    C1 5738   1.370   2.872  11.762 -1.4184  0.2789  0.0159
  384MPD2    C2 5739   1.398   2.750  11.817  0.2769 -0.0016  0.7925
  384MPD2    C3 5740   1.353   2.636  11.759 -0.0654 -0.0082 -0.1919
  384MPD2    C4 5741   1.284   2.636  11.641 -0.1420 -0.2243  0.7739
  384MPD2    C5 5742   1.254   2.760  11.588  0.8433 -0.6045  0.0406
  384MPD2     H 5743   1.470   2.742  11.897  0.1230 -1.9133  0.7561
  384MPD2    H1 5744   1.250   2.541  11.601 -1.5058  0.6872 -0.2773
  384MPD2    H2 5745   1.262   2.969  11.600 -3.8341 -1.9003 -0.3528
  384MPD2    H3 5746   1.188   2.758  11.503  0.6572  1.7734  0.1240
  384MPD2     N 5747   1.397   2.520  11.825  0.0956 -0.4605  1.0676
  384MPD2    H5 5748   1.455   2.538  11.907 -0.1310 -1.0544  1.3622
  384MPD2    N1 5749   1.427   2.984  11.827 -0.2598  0.1195 -0.1512
  384MPD2    H7 5750   1.484   2.961  11.908  0.8986 -2.3568 -1.6772
  385TMC3    C1 5751   1.436   2.309  11.900  0.0802 -0.0083 -0.2778
  385TMC3    C2 5752   1.527   2.208  11.864  0.1313 -0.4595 -0.3552
  385TMC3    C3 5753   1.617   2.157  11.951 -0.1706  0.0738 -0.7756
  385TMC3    C4 5754   1.431   2.350  12.030  1.0909  0.5426 -0.5923
  385TMC3    C5 5755   1.543   2.327  12.101  0.3588  0.0721 -0.3283
  385TMC3    C6 5756   1.635   2.227  12.064  0.2716  0.9029 -0.4127
  385TMC3     C 5757   1.372   2.389  11.795 -0.4458 -0.3903 -0.7056
  385TMC3     O 5758   1.336   2.336  11.690  0.2027 -0.2378 -0.3059
  385TMC3     H 5759   1.508   2.168  11.765 -1.3676  1.2459 -0.7414
  385TMC3    H1 5760   1.374   2.437  12.058  0.8225  0.3964 -0.6907
  385TMC3    H2 5761   1.723   2.208  12.124  0.6977  1.1366 -0.9628
  385TMC3    C7 5762   1.598   2.460  12.134  0.0807 -0.8482  0.1771
  385TMC3    C8 5763   1.712   2.040  11.925  0.1558  0.5549 -0.4058
  385TMC3    O1 5764   1.574   2.551  12.058 -0.5963  0.3036  0.1298
  385TMC3    O2 5765   1.778   2.001  12.019  0.6652  0.3228  0.0149
  386TMC3    C1 5766   1.458   0.634  11.503  0.2926 -0.4858  0.0820
  386TMC3    C2 5767   1.465   0.583  11.377  0.2801  0.2333  0.2594
  386TMC3    C3 5768   1.369   0.611  11.286  0.0514 -0.2244 -0.1016
  386TMC3    C4 5769   1.355   0.718  11.536 -0.8119 -0.3107  0.1243
  386TMC3    C5 5770   1.273   0.762  11.438  0.0283  0.2204 -0.8479
  386TMC3    C6 5771   1.278   0.703  11.312 -0.6129 -0.4740  0.8281
  386TMC3     C 5772   1.542   0.582  11.612 -0.4903 -0.6158 -0.1760
  386TMC3     O 5773   1.541   0.656  11.714 -0.0982 -0.3599  0.5114
  386TMC3     H 5774   1.550   0.523  11.347 -0.6306  0.1114 -2.0545
  386TMC3    H1 5775   1.334   0.748  11.638  2.4526 -2.1390  1.3210
  386TMC3    H2 5776   1.198   0.726  11.242  0.2875  1.4184  0.4376
  386TMC3    C7 5777   1.161   0.846  11.468  0.1205 -0.5077  0.3729
  386TMC3    C8 5778   1.361   0.561  11.155 -0.0255 -0.5142 -0.0908
  386TMC3    O1 5779   1.126   0.839  11.587  0.1030  0.1923  0.3393
  386TMC3    O2 5780   1.298   0.627  11.070 -0.5052 -0.4498 -0.0131
  387MPD2     C 5781   3.675   0.615   9.259  0.6226 -0.5440 -0.4532
  387MPD2    C1 5782   3.787   0.584   9.333 -0.6425 -0.4256  0.0622
  387MPD2    C2 5783   3.816   0.455   9.363 -0.0434  0.0488  0.1241
  387MPD2    C3 5784   3.723   0.354   9.335  0.5048  0.1178 -0.2709
  387MPD2    C4 5785   3.608   0.388   9.270  0.5081  0.0162  1.0451
  387MPD2    C5 5786   3.580   0.521   9.231  0.1250 -0.2506  0.0772
  387MPD2     H 5787   3.895   0.432   9.434  1.6746  2.1013 -1.1241
  387MPD2    H1 5788   3.532   0.316   9.244  0.4417  0.6476 -0.4652
  387MPD2    H2 5789   3.655   0.716   9.225  2.7022  0.3904  1.1474
  387MPD2    H3 5790   3.483   0.551   9.194  1.3680  1.1726 -2.0155
  387MPD2     N 5791   3.747   0.234   9.392 -0.0098  0.1775 -0.4004
  387MPD2    H5 5792   3.832   0.222   9.446  0.9839 -2.1800 -2.4979
  387MPD2    N1 5793   3.852   0.677   9.417  0.6944 -0.1146  0.0305
  387MPD2    H7 5794   3.914   0.638   9.488  2.0321  0.3069 -0.9013
  388TMC3    C1 5795   3.858   0.861   9.556  0.3085 -0.8007  0.3513
  388TMC3    C2 5796   3.842   0.990   9.584 -0.6379 -0.7716 -0.0226
  388TMC3    C3 5797   3.837   1.025   9.718  0.0021  0.0716  0.5120
  388TMC3    C4 5798   3.892   0.767   9.647 -0.0206  0.5952 -0.4592
  388TMC3    C5 5799   3.893   0.809   9.777  0.7110  0.4322 -0.6052
  388TMC3    C6 5800   3.869   0.932   9.815  0.4614 -0.8398 -0.9256
  388TMC3     C 5801   3.821   0.808   9.422 -0.1251  0.7092  0.1834
  388TMC3     O 5802   3.763   0.879   9.340 -0.0568  0.5684 -0.6114
  388TMC3     H 5803   3.832   1.056   9.498 -2.4729 -3.9253 -2.2175
  388TMC3    H1 5804   3.923   0.664   9.629  0.0277  0.9241 -2.2501
  388TMC3    H2 5805   3.845   0.951   9.919  0.2535  1.6493 -1.4228
  388TMC3    C7 5806   3.897   0.708   9.878  0.1004  0.1051  0.6076
  388TMC3    C8 5807   3.853   1.168   9.755  0.6857 -0.0204 -0.2269
  388TMC3    O1 5808   3.912   0.739   9.993 -0.0093 -0.3595 -0.3406
  388TMC3    O2 5809   3.834   1.246   9.658 -0.0369 -0.1879 -0.0030
  389MPD2     C 5810   3.309   3.335  11.226 -0.0641 -0.4950 -0.0675
  389MPD2    C1 5811   3.183   3.383  11.194  0.5866 -0.5450  0.1923
  389MPD2    C2 5812   3.080   3.349  11.284  0.5467  0.3041  0.3326
  389MPD2    C3 5813   3.091   3.262  11.392  0.4902  0.7393  0.7029
  389MPD2    C4 5814   3.218   3.209  11.410 -0.2634 -0.9674  0.1899
  389MPD2    C5 5815   3.322   3.250  11.335  0.3281 -0.1602 -0.2951
  389MPD2     H 5816   2.983   3.391  11.260 -1.0066 -3.6143 -0.2218
  389MPD2    H1 5817   3.236   3.139  11.491 -1.2389 -1.3319  0.0988
  389MPD2    H2 5818   3.399   3.353  11.168 -1.2037 -0.8490 -1.9523
  389MPD2    H3 5819   3.422   3.223  11.365  0.2123 -0.3340 -0.0644
  389MPD2     N 5820   2.985   3.212  11.466  0.0361  0.0444  0.5190
  389MPD2    H5 5821   3.002   3.138  11.533  1.8232 -1.9089 -2.0856
  389MPD2    N1 5822   3.169   3.453  11.075  0.6604 -0.6453  0.1733
  389MPD2    H7 5823   3.256   3.473  11.027  0.5008 -0.6497 -0.1148
  390TMC3    C1 5824   2.777   3.199  11.562 -0.3506  0.4118  0.1456
  390TMC3    C2 5825   2.797   3.068  11.597 -0.9880  0.9417 -0.2352
  390TMC3    C3 5826   2.703   3.021  11.691  0.3961 -0.8055 -0.1021
  390TMC3    C4 5827   2.668   3.273  11.607  0.0062 -0.2109 -0.3785
  390TMC3    C5 5828   2.573   3.210  11.684  0.0378 -0.3992  0.2625
  390TMC3    C6 5829   2.602   3.099  11.751 -0.1912  0.7735 -0.1745
  390TMC3     C 5830   2.857   3.256  11.457 -0.1724 -0.4388 -0.0917
  390TMC3     O 5831   2.804   3.341  11.386 -0.0951  0.5275 -0.6001
  390TMC3     H 5832   2.856   2.998  11.539 -1.3454  0.7003 -0.3044
  390TMC3    H1 5833   2.652   3.374  11.571 -0.8753 -0.2062  0.0394
  390TMC3    H2 5834   2.534   3.053  11.822 -1.1821 -0.5497 -1.9753
  390TMC3    C7 5835   2.461   3.196  11.596  0.1676 -0.3181 -0.3571
  390TMC3    C8 5836   2.663   2.889  11.650  0.3401 -0.1395 -0.4281
  390TMC3    O1 5837   2.453   3.261  11.493  0.2858  0.6397  0.8467
  390TMC3    O2 5838   2.683   2.864  11.534  0.0589  0.2600 -0.1577
  391MPD2     C 5839   3.321   0.261  10.984  0.2847  0.5667 -0.2051
  391MPD2    C1 5840   3.329   0.395  11.000 -0.3905 -0.3870  0.0174
  391MPD2    C2 5841   3.283   0.472  10.892  0.0278 -0.1174  0.2119
  391MPD2    C3 5842   3.228   0.415  10.775  0.2509 -0.0747 -0.7620
  391MPD2    C4 5843   3.217   0.274  10.769 -0.0104  0.3953  0.7059
  391MPD2    C5 5844   3.271   0.202  10.873  0.7273 -0.1490 -0.0586
  391MPD2     H 5845   3.290   0.580  10.897 -1.4141  0.0256 -0.8935
  391MPD2    H1 5846   3.193   0.221  10.678  0.7049  2.1512 -0.5283
  391MPD2    H2 5847   3.350   0.190  11.061 -1.3414 -0.6627 -0.7242
  391MPD2    H3 5848   3.266   0.094  10.885  0.6728 -0.4158 -2.3655
  391MPD2     N 5849   3.192   0.500  10.673  0.0050 -0.2168 -0.1342
  391MPD2    H5 5850   3.210   0.599  10.683 -0.6951  0.0263 -1.2276
  391MPD2    N1 5851   3.381   0.443  11.122  0.5968 -0.3145  0.1050
  391MPD2    H7 5852   3.406   0.376  11.195  0.1733  0.6948  1.1876
  392TMC3    C1 5853   3.167   0.573  10.453  0.2816  0.4858  0.0573
  392TMC3    C2 5854   3.124   0.556  10.321 -0.9006 -0.0925  0.5946
  392TMC3    C3 5855   3.172   0.652  10.229 -0.1789  0.2110 -0.9630
  392TMC3    C4 5856   3.242   0.685  10.492 -0.2761 -0.6045  0.1183
  392TMC3    C5 5857   3.266   0.785  10.398  0.2160  0.3794 -0.0492
  392TMC3    C6 5858   3.234   0.770  10.267  0.7393 -0.2915  0.1661
  392TMC3     C 5859   3.139   0.467  10.550  0.0836  0.7440 -0.6958
  392TMC3     O 5860   3.096   0.352  10.522  0.1472  0.3455 -0.4609
  392TMC3     H 5861   3.074   0.463  10.296  1.1879 -1.0770  0.1203
  392TMC3    H1 5862   3.277   0.714  10.590  1.4607  2.0775 -1.2967
  392TMC3    H2 5863   3.266   0.843  10.193  0.6004 -0.9585 -0.5461
  392TMC3    C7 5864   3.358   0.898  10.439 -0.2659  0.4870 -0.4035
  392TMC3    C8 5865   3.093   0.655  10.108  0.2269  0.2110 -0.0630
  392TMC3    O1 5866   3.426   0.875  10.540  0.1256 -0.1216 -1.1809
  392TMC3    O2 5867   2.995   0.580  10.105 -0.4204  0.1639 -0.0292
  393TMC3    C1 5868   1.598   2.683  10.367 -0.3236 -0.3823 -0.1587
  393TMC3    C2 5869   1.508   2.605  10.437  0.3582 -0.2045  0.3802
  393TMC3    C3 5870   1.498   2.472  10.411 -0.1029  0.8546 -0.3637
  393TMC3    C4 5871   1.670   2.628  10.264  0.3361 -0.2606 -0.0965
  393TMC3    C5 5872   1.645   2.492  10.236 -0.1357  0.1020 -0.3968
  393TMC3    C6 5873   1.560   2.411  10.303  0.0017 -0.2007 -0.1151
  393TMC3     C 5874   1.602   2.826  10.377 -0.1857  0.7591  0.4731
  393TMC3     O 5875   1.502   2.890  10.400  0.1428 -0.1869  0.1212
  393TMC3     H 5876   1.469   2.655  10.526 -1.8149  0.9954 -1.2523
  393TMC3    H1 5877   1.733   2.689  10.201  1.1125 -1.5633 -0.5830
  393TMC3    H2 5878   1.547   2.307  10.275  1.2270 -0.5574  0.6601
  393TMC3    C7 5879   1.716   2.431  10.126  0.2530  0.6681  0.3360
  393TMC3    C8 5880   1.415   2.391  10.503  0.3769 -0.9254  0.4452
  393TMC3    O1 5881   1.662   2.355  10.050 -0.3511  0.4748 -0.2991
  393TMC3    O2 5882   1.369   2.289  10.453  0.4419 -0.0058  0.2876
  394TMC3    C1 5883   3.052   3.561  10.891  0.4082 -0.1499 -0.7063
  394TMC3    C2 5884   2.952   3.528  10.805  1.0384 -0.0053 -0.7481
  394TMC3    C3 5885   2.949   3.596  10.691  1.4178  0.3810  1.1159
  394TMC3    C4 5886   3.147   3.658  10.861  0.7467 -0.5694  0.3920
  394TMC3    C5 5887   3.143   3.721  10.743  0.2665 -0.0194  0.1177
  394TMC3    C6 5888   3.037   3.698  10.663  0.5287 -0.0121 -0.5417
  394TMC3     C 5889   3.044   3.489  11.017 -0.8770 -0.2957  0.3065
  394TMC3     O 5890   2.931   3.466  11.047 -0.2767  0.4910 -0.7488
  394TMC3     H 5891   2.876   3.455  10.831  0.0710  1.0313 -0.6709
  394TMC3    H1 5892   3.220   3.674  10.940  2.6954 -1.6880 -1.1595
  394TMC3    H2 5893   3.025   3.748  10.567  1.6075 -0.9904 -1.1923
  394TMC3    C7 5894   3.264   3.752  10.673 -0.0063 -0.1602  0.2981
  394TMC3    C8 5895   2.879   3.537  10.575  0.6436  0.0397 -0.1758
  394TMC3    O1 5896   3.256   3.833  10.587 -0.7701 -0.4761 -0.4547
  394TMC3    O2 5897   2.853   3.610  10.482  0.3565 -0.1278  0.3660
  395TMC3    C1 5898   3.339   0.705  14.924 -0.0801 -0.3660  0.8492
  395TMC3    C2 5899   3.218   0.647  14.882  0.0655 -0.0259 -0.5038
  395TMC3    C3 5900   3.198   0.636  14.749 -0.5555  0.4558 -0.4342
  395TMC3    C4 5901   3.440   0.723  14.831  0.3378  0.3039 -0.1984
  395TMC3    C5 5902   3.406   0.720  14.697 -0.1587  0.5759 -0.1078
  395TMC3    C6 5903   3.288   0.671  14.652  0.3021 -0.5924 -0.0621
  395TMC3     C 5904   3.376   0.685  15.060 -0.1639  0.2380  0.0353
  395TMC3     O 5905   3.405   0.783  15.126 -0.5065  0.7120 -0.0651
  395TMC3     H 5906   3.148   0.611  14.956  2.4406 -1.2506  1.1468
  395TMC3    H1 5907   3.543   0.740  14.859  0.5703 -1.6425  0.0832
  395TMC3    H2 5908   3.260   0.679  14.548 -1.8636  1.7893  0.6937
  395TMC3    C7 5909   3.493   0.783  14.591  0.4766 -0.0991 -0.7775
  395TMC3    C8 5910   3.069   0.580  14.715 -0.9615  0.2024  0.3225
  395TMC3    O1 5911   3.487   0.734  14.475 -0.0214 -0.2062 -0.6271
  395TMC3    O2 5912   2.975   0.636  14.767 -0.5785  0.3508 -0.1085
  396MPD2     C 5913   3.369   1.811  17.365 -0.7651  0.5176 -0.1660
  396MPD2    C1 5914   3.435   1.715  17.288  0.4562  0.0009 -0.9633
  396MPD2    C2 5915   3.441   1.726  17.147  0.3013  0.1430 -0.7524
  396MPD2    C3 5916   3.372   1.828  17.084  0.5519 -0.0615  1.1448
  396MPD2    C4 5917   3.312   1.918  17.165  0.3486 -0.3859 -0.2234
  396MPD2    C5 5918   3.305   1.910  17.302 -0.2328  0.2390 -0.3195
  396MPD2     H 5919   3.501   1.659  17.086  2.6135 -0.7080  2.4431
  396MPD2    H1 5920   3.257   2.003  17.127  3.3024  0.4776 -2.6066
  396MPD2    H2 5921   3.360   1.786  17.470 -2.2757  1.6955 -0.0227
  396MPD2    H3 5922   3.242   1.981  17.354  0.4037  0.0315  0.7294
  396MPD2     N 5923   3.390   1.845  16.951  0.4623  0.4382  0.4116
  396MPD2    H5 5924   3.462   1.795  16.901 -1.1421  0.1380 -1.6138
  396MPD2    N1 5925   3.480   1.600  17.359 -0.3860  1.1518  0.2833
  396MPD2    H7 5926   3.429   1.575  17.443  0.1072  2.8329  1.0746
  397TMC3    C1 5927   3.562   1.395  17.403 -0.3961 -0.8584 -0.1876
  397TMC3    C2 5928   3.446   1.333  17.365  0.0903 -0.2449  0.2107
  397TMC3    C3 5929   3.446   1.204  17.317 -0.0068  0.4603  1.1391
  397TMC3    C4 5930   3.672   1.313  17.411 -0.3184  0.4502  0.1834
  397TMC3    C5 5931   3.657   1.178  17.399  0.1770 -0.9818  0.3382
  397TMC3    C6 5932   3.548   1.116  17.345 -0.0425  0.1113 -0.3858
  397TMC3     C 5933   3.584   1.516  17.325  0.8168  0.2170  0.5429
  397TMC3     O 5934   3.665   1.522  17.238 -0.2490  0.3097  0.0083
  397TMC3     H 5935   3.366   1.394  17.326  0.5300 -0.9074 -1.7341
  397TMC3    H1 5936   3.767   1.358  17.440 -0.2386  0.3794  0.0317
  397TMC3    H2 5937   3.540   1.012  17.316 -0.3394 -0.0008  0.1074
  397TMC3    C7 5938   3.714   1.095  17.507  0.4578 -0.5348 -0.7628
  397TMC3    C8 5939   3.370   1.196  17.198 -0.3210 -0.4647  0.3888
  397TMC3    O1 5940   3.715   0.975  17.481  0.1450  0.4394 -0.2410
  397TMC3    O2 5941   3.342   1.301  17.134  0.4256 -0.4941  0.3726
  398MPD2     C 5942   1.463   2.464  17.658  0.2072 -0.0247  0.1731
  398MPD2    C1 5943   1.588   2.412  17.689  0.4150 -0.0792 -0.4282
  398MPD2    C2 5944   1.694   2.499   0.036 -0.2398 -0.5348 -0.4614
  398MPD2    C3 5945   1.661   2.634   0.058  0.7082 -0.5901 -0.0097
  398MPD2    C4 5946   1.532   2.679   0.030 -0.0977  0.1241 -0.1882
  398MPD2    C5 5947   1.441   2.595  17.672 -0.0107  0.5334 -0.1923
  398MPD2     H 5948   1.797   2.468   0.054 -0.8965 -0.8562  2.7197
  398MPD2    H1 5949   1.499   2.780   0.049  0.6784  0.4793 -0.7293
  398MPD2    H2 5950   1.392   2.406  17.600  0.0141  0.3416  0.0416
  398MPD2    H3 5951   1.341   2.629  17.649 -0.1700 -0.6597 -1.2447
  398MPD2     N 5952   1.759   2.721   0.113 -0.4719  0.2799 -0.2441
  398MPD2    H5 5953   1.852   2.686   0.137 -0.9291 -1.4199 -0.9833
  398MPD2    N1 5954   1.626   2.278  17.666 -0.2448  0.1278  0.3057
  398MPD2    H7 5955   1.726   2.258  17.663 -0.2557  0.4325 -2.6353
  399TMC3    C1 5956   1.608   2.046  17.617  0.3024  0.5709 -0.2848
  399TMC3    C2 5957   1.728   2.033  17.550  0.3726  0.3607  0.1726
  399TMC3    C3 5958   1.783   1.908  17.542  0.7331 -0.5629  0.0568
  399TMC3    C4 5959   1.532   1.938  17.646 -0.4092  0.1362 -0.4805
  399TMC3    C5 5960   1.595   1.817  17.649 -0.6442 -0.6009 -0.3535
  399TMC3    C6 5961   1.721   1.799  17.591  0.1685 -0.3111 -0.2798
  399TMC3     C 5962   1.540   2.173  17.636 -0.5711  0.7049 -0.0812
  399TMC3     O 5963   1.421   2.180  17.623 -0.3112 -0.5270 -1.0986
  399TMC3     H 5964   1.778   2.120  17.509 -1.1887  0.8776 -0.6045
  399TMC3    H1 5965   1.439   1.958   0.005  0.8438 -1.0352  2.1334
  399TMC3    H2 5966   1.758   1.698  17.588  0.4926 -0.1734 -0.9267
  399TMC3    C7 5967   1.571   1.743   0.082  0.4518  0.3365  0.6454
  399TMC3    C8 5968   1.919   1.893  17.505 -0.0493 -0.0858  0.2500
  399TMC3    O1 5969   1.470   1.772   0.141 -0.0703  0.1727 -0.1032
  399TMC3    O2 5970   1.959   1.775  17.484  0.0767  0.4567  0.2885
  400TMC3    C1 5971   0.220   1.095  16.959 -0.1408  0.2321 -0.1172
  400TMC3    C2 5972   0.081   1.099  16.988  0.5368  0.3786  0.3084
  400TMC3    C3 5973   0.032   1.216  17.047  0.1163 -0.2200  0.4994
  400TMC3    C4 5974   0.299   1.204  16.987 -0.2184  0.2620 -0.6501
  400TMC3    C5 5975   0.243   1.310  17.062  0.4402  0.1739 -0.6027
  400TMC3    C6 5976   0.113   1.311  17.104 -0.1455 -0.6427  0.6033
  400TMC3     C 5977   0.263   0.996  16.856  0.0326  0.0684 -0.3718
  400TMC3     O 5978   0.185   0.902  16.843  0.4482 -0.3065  0.1559
  400TMC3     H 5979   0.023   1.023  16.938  0.6524 -0.4877  1.4915
  400TMC3    H1 5980   0.403   1.214  16.957 -0.0200 -1.6851 -0.5954
  400TMC3    H2 5981   0.068   1.391  17.161 -0.1517  1.4863 -2.3542
  400TMC3    C7 5982   0.327   1.422  17.101 -0.4145  0.1647 -0.3518
  400TMC3    C8 5983   4.629   1.277  17.004  0.3337  0.1082  0.4430
  400TMC3    O1 5984   0.451   1.402  17.109  0.3865  0.7173 -0.2920
  400TMC3    O2 5985   4.622   1.400  17.007  0.1740  1.0274  0.0080
  401MPD2     C 5986   2.463   0.028   0.514  0.1419 -0.4825  0.7592
  401MPD2    C1 5987   2.568   4.677   0.562  0.0024  0.5304 -0.5275
  401MPD2    C2 5988   2.565   4.538   0.550  0.2953  0.0929 -0.2019
  401MPD2    C3 5989   2.475   4.474   0.474  0.7414 -0.2282  0.8091
  401MPD2    C4 5990   2.369   4.544   0.423 -0.2101  0.6567 -0.8700
  401MPD2    C5 5991   2.363   4.681   0.449 -0.1815  0.4798  0.2789
  401MPD2     H 5992   2.650   4.484   0.590 -1.5775 -3.1160 -0.5727
  401MPD2    H1 5993   2.292   4.491   0.369 -1.5193  1.0177  0.6400
  401MPD2    H2 5994   2.453   0.135   0.527 -0.1723 -0.5611  1.1741
  401MPD2    H3 5995   2.286   0.021   0.407  2.0043  2.3664 -0.9136
  401MPD2     N 5996   2.501   4.341   0.435  0.1279  0.1476 -0.3747
  401MPD2    H5 5997   2.590   4.314   0.475  0.5446  1.3908 -0.4570
  401MPD2    N1 5998   2.672   0.010   0.634 -0.0578 -0.3070  0.6313
  401MPD2    H7 5999   2.710   4.660   0.695 -2.9692 -1.7667  0.7282
  402TMC3    C1 6000   2.528   4.155   0.308  0.3219 -0.8531 -0.4812
  402TMC3    C2 6001   2.592   4.097   0.411 -0.2030 -0.4899  0.1679
  402TMC3    C3 6002   2.716   4.042   0.390 -0.0639  0.3364  0.0763
  402TMC3    C4 6003   2.586   4.149   0.188 -0.4549 -0.3943  0.6216
  402TMC3    C5 6004   2.715   4.096   0.167 -0.1968 -0.1234  0.6864
  402TMC3    C6 6005   2.783   4.038   0.271 -0.0943  0.2443  0.2672
  402TMC3     C 6006   2.441   4.268   0.335 -0.0647 -0.0064  0.5142
  402TMC3     O 6007   2.373   4.314   0.242 -0.1955 -0.5451 -0.0324
  402TMC3     H 6008   2.549   4.103   0.510 -0.2834 -1.8473  0.2217
  402TMC3    H1 6009   2.526   4.191   0.108 -0.3565 -0.2635  0.6166
  402TMC3    H2 6010   2.877   3.984   0.271 -1.3817 -1.9646  0.2479
  402TMC3    C7 6011   2.790   4.160   0.060  0.3262 -0.6686 -0.0565
  402TMC3    C8 6012   2.779   3.966   0.491  0.2725  0.4690 -0.2721
  402TMC3    O1 6013   2.725   4.198  17.659 -0.0425  0.5208 -0.3737
  402TMC3    O2 6014   2.901   3.975   0.495  0.5236 -0.4251  0.3368
  403MPD2     C 6015   1.523   3.180  13.188  0.4296  0.3417 -0.2436
  403MPD2    C1 6016   1.521   3.067  13.262 -0.0523  0.3089  0.4900
  403MPD2    C2 6017   1.618   3.048  13.356  0.0684 -0.0092 -0.0300
  403MPD2    C3 6018   1.719   3.143  13.384 -0.5278  0.0566  0.1603
  403MPD2    C4 6019   1.713   3.263  13.311 -0.0511 -0.4766  0.4280
  403MPD2    C5 6020   1.616   3.282  13.215 -0.8181 -0.0791 -0.1430
  403MPD2     H 6021   1.608   2.956  13.412 -0.5302 -0.5141 -0.9641
  403MPD2    H1 6022   1.784   3.344  13.321 -0.5714 -0.1158  1.1967
  403MPD2    H2 6023   1.450   3.186  13.108 -1.1049 -1.8024  0.9994
  403MPD2    H3 6024   1.628   3.367  13.149 -1.9846 -0.1496 -0.4414
  403MPD2     N 6025   1.803   3.119  13.499 -0.6640  0.6739  0.4195
  403MPD2    H5 6026   1.794   3.031  13.548  1.7060 -0.2407 -0.7989
  403MPD2    N1 6027   1.422   2.967  13.229  0.1486  0.3265 -0.4366
  403MPD2    H7 6028   1.365   2.990  13.149  0.7165 -0.3659 -1.0432
  404TMC3    C1 6029   1.311   2.757  13.218  0.0966  0.4109 -0.0914
  404TMC3    C2 6030   1.301   2.628  13.262  0.6405  1.6579  0.3556
  404TMC3    C3 6031   1.248   2.537  13.172  0.1319 -0.0707  0.5393
  404TMC3    C4 6032   1.273   2.795  13.091  0.4167  0.2252  0.1504
  404TMC3    C5 6033   1.209   2.700  13.012  0.0863 -0.1028  0.4746
  404TMC3    C6 6034   1.198   2.572  13.055  0.1202 -0.1570  0.3152
  404TMC3     C 6035   1.403   2.838  13.287  0.6793 -0.2888 -0.1495
  404TMC3     O 6036   1.471   2.788  13.377 -0.1373 -0.1630 -0.4201
  404TMC3     H 6037   1.340   2.593  13.357 -1.6009  0.5893  0.8660
  404TMC3    H1 6038   1.275   2.900  13.063 -1.5154  0.6029  1.4271
  404TMC3    H2 6039   1.138   2.501  12.999  1.6394 -1.4883  0.3490
  404TMC3    C7 6040   1.172   2.752  12.880  0.1772  0.4609 -0.0591
  404TMC3    C8 6041   1.206   2.402  13.221 -0.1688  0.4558 -0.6705
  404TMC3    O1 6042   1.161   2.877  12.882 -0.1044 -0.0514 -0.7340
  404TMC3    O2 6043   1.204   2.305  13.147 -0.0307 -0.6763 -0.4251
  405MPD2     C 6044   1.520   3.850  14.620  0.8105  0.2195 -0.2074
  405MPD2    C1 6045   1.593   3.927  14.541 -0.0309 -0.2119 -0.3127
  405MPD2    C2 6046   1.540   4.042  14.483  0.2291  0.1114  0.1011
  405MPD2    C3 6047   1.407   4.077  14.490 -0.4028 -0.2129  0.2499
  405MPD2    C4 6048   1.327   3.994  14.568 -0.2282 -0.2835  0.2289
  405MPD2    C5 6049   1.385   3.881  14.629  0.2671 -0.1630 -0.3904
  405MPD2     H 6050   1.592   4.113  14.421  0.7905 -1.1106 -0.8140
  405MPD2    H1 6051   1.221   4.016  14.570 -0.0541  0.5600  0.0565
  405MPD2    H2 6052   1.564   3.770  14.678 -1.8311 -0.0643  1.3978
  405MPD2    H3 6053   1.320   3.823  14.694  1.6656  0.8349  1.8961
  405MPD2     N 6054   1.365   4.197  14.415  0.0345 -0.8181  0.3363
  405MPD2    H5 6055   1.438   4.252  14.373 -0.9307  2.3497  2.8379
  405MPD2    N1 6056   1.726   3.874  14.522  0.5245  0.8699 -0.3276
  405MPD2    H7 6057   1.748   3.782  14.559  0.4571  1.4897  1.2350
  406TMC3    C1 6058   1.034   4.361  14.149  0.1000 -1.3302 -0.1651
  406TMC3    C2 6059   1.122   4.369  14.048 -0.1059  0.2530 -0.1347
  406TMC3    C3 6060   1.257   4.368  14.078  0.4143  0.5670 -0.3353
  406TMC3    C4 6061   1.073   4.339  14.276 -0.2851  0.3106  0.3074
  406TMC3    C5 6062   1.205   4.339  14.308 -0.5660 -0.4286  0.8582
  406TMC3    C6 6063   1.300   4.353  14.207  0.8585 -0.3345  0.3109
  406TMC3     C 6064   0.897   4.351  14.104 -0.3375  0.9769  0.0839
  406TMC3     O 6065   0.860   4.412  14.006  0.0247  0.5499 -0.0289
  406TMC3     H 6066   1.080   4.350  13.950 -1.5524  2.5352  0.0425
  406TMC3    H1 6067   1.005   4.344  14.361 -0.7741 -2.1100  0.0761
  406TMC3    H2 6068   1.391   4.409  14.230  1.3313 -1.2829  0.7353
  406TMC3    C7 6069   1.229   4.232  14.405  0.4156  0.3575  0.1866
  406TMC3    C8 6070   1.351   4.335  13.976  0.4237  0.5027  0.3943
  406TMC3    O1 6071   1.132   4.161  14.432  0.0439 -0.4610  0.0873
  406TMC3    O2 6072   1.328   4.349  13.857  0.2925  0.3290 -0.0762
  407MPD2     C 6073   3.123   0.002   9.534  0.1732  0.8562 -0.3488
  407MPD2    C1 6074   3.257   0.023   9.499  0.7418 -0.6923 -0.4632
  407MPD2    C2 6075   3.335   0.108   9.572 -0.3385  0.5247 -0.5400
  407MPD2    C3 6076   3.290   0.165   9.687 -0.8499  0.1591 -0.4014
  407MPD2    C4 6077   3.160   0.144   9.726 -0.9435 -0.3181 -0.2059
  407MPD2    C5 6078   3.074   0.067   9.646 -0.1239 -0.4544  0.5494
  407MPD2     H 6079   3.438   0.126   9.542  0.9879 -0.7624  3.2816
  407MPD2    H1 6080   3.124   0.195   9.814 -1.5345  0.9605 -1.1855
  407MPD2    H2 6081   3.044   4.663   9.491  1.5878 -1.4332  0.3795
  407MPD2    H3 6082   2.969   0.057   9.667 -0.3984  1.3345 -0.0347
  407MPD2     N 6083   3.365   0.253   9.770 -0.0380 -0.0479 -0.2855
  407MPD2    H5 6084   3.317   0.312   9.838 -1.3312 -1.0380 -0.3393
  407MPD2    N1 6085   3.310   4.698   9.376 -0.1966 -0.2741  0.2189
  407MPD2    H7 6086   3.404   0.009   9.360 -0.2151 -0.8595 -1.1064
  408TMC3    C1 6087   3.302   4.616   9.147 -0.4513 -0.1518  0.0612
  408TMC3    C2 6088   3.443   4.627   9.145 -0.1298 -0.1613 -0.0290
  408TMC3    C3 6089   3.497   4.668   9.034 -0.2744  0.0023  0.0665
  408TMC3    C4 6090   3.222   4.630   9.043  0.4463 -0.1433  0.5967
  408TMC3    C5 6091   3.280   4.673   8.931 -0.3293  0.3361  0.3870
  408TMC3    C6 6092   3.415   4.686   8.922 -0.7499  0.2464  0.0992
  408TMC3     C 6093   3.235   4.640   9.269 -0.3784  0.6093 -0.9012
  408TMC3     O 6094   3.113   4.622   9.264 -0.9458 -0.8465  0.5035
  408TMC3     H 6095   3.509   4.612   9.230 -0.8509  0.2091  0.5971
  408TMC3    H1 6096   3.114   4.636   9.040  0.5328  1.4094  0.6956
  408TMC3    H2 6097   3.458   4.713   8.827  1.1863 -0.0850  0.8902
  408TMC3    C7 6098   3.209   4.705   8.808 -0.1627  0.3632 -0.2432
  408TMC3    C8 6099   3.632   4.710   9.034  0.0320  0.0465  0.1308
  408TMC3    O1 6100   3.271   0.054   8.727 -0.0189 -0.1888  0.0981
  408TMC3    O2 6101   3.711   4.641   9.093 -0.1394  0.8387  0.4176
  409MPD2     C 6102   3.500   0.782  16.972  0.4278 -0.6471 -0.0117
  409MPD2    C1 6103   3.588   0.782  17.078  0.0133 -0.2455  0.3811
  409MPD2    C2 6104   3.669   0.889  17.096  0.4589  0.3999 -0.0476
  409MPD2    C3 6105   3.682   0.991  17.008 -0.2553  0.4479  0.3971
  409MPD2    C4 6106   3.599   0.986  16.899  0.2522 -0.8780  0.5694
  409MPD2    C5 6107   3.510   0.884  16.876  0.5160  0.5315 -0.0984
  409MPD2     H 6108   3.714   0.899  17.194 -0.1120  0.3865  0.2191
  409MPD2    H1 6109   3.584   1.067  16.828  1.6175  0.3877  1.7322
  409MPD2    H2 6110   3.417   0.712  16.967 -0.9460  0.7591  2.9909
  409MPD2    H3 6111   3.432   0.889  16.801  1.4569 -1.1798 -1.1867
  409MPD2     N 6112   3.772   1.100  17.032  0.1799  0.9051  0.2719
  409MPD2    H5 6113   3.763   1.168  16.957 -1.1799  0.7722  0.3002
  409MPD2    N1 6114   3.574   0.686  17.183  0.8238  0.0047 -0.0521
  409MPD2    H7 6115   3.636   0.696  17.262  0.3742 -1.7592  0.5275
  410TMC3    C1 6116   3.961   1.211  17.134  0.2575 -0.3528 -0.5387
  410TMC3    C2 6117   4.092   1.172  17.161 -0.1399  0.4507  0.1374
  410TMC3    C3 6118   4.191   1.267  17.167 -0.1338 -0.1192  0.1870
  410TMC3    C4 6119   3.930   1.343  17.098  0.8328  0.3038  0.2878
  410TMC3    C5 6120   4.032   1.436  17.117  0.2251  0.1863 -0.4772
  410TMC3    C6 6121   4.153   1.401  17.160  0.6192 -0.3087  0.6319
  410TMC3     C 6122   3.867   1.102  17.134  0.4438 -0.0040 -0.5618
  410TMC3     O 6123   3.889   1.029  17.232  0.0029  0.2901  0.5162
  410TMC3     H 6124   4.110   1.075  17.207  0.0572  1.6497  2.6139
  410TMC3    H1 6125   3.832   1.372  17.061 -0.1897  0.0935  2.7839
  410TMC3    H2 6126   4.226   1.481  17.168 -1.3526  1.7279 -1.6151
  410TMC3    C7 6127   4.022   1.563  17.050  0.9782 -0.5063 -0.7689
  410TMC3    C8 6128   4.314   1.244  17.235 -0.2285 -0.1108 -0.5252
  410TMC3    O1 6129   4.120   1.603  16.997 -0.2227  0.5771 -0.2334
  410TMC3    O2 6130   4.364   1.342  17.287  0.0228  0.3411  0.8562
  411MPD2     C 6131   4.078   1.786  14.465  0.5607 -0.0459 -0.0658
  411MPD2    C1 6132   3.940   1.788  14.464 -0.7333 -0.1315  0.3744
  411MPD2    C2 6133   3.876   1.669  14.456  0.6743  0.4118  0.1834
  411MPD2    C3 6134   3.948   1.550  14.439 -0.3019  0.6157  0.2165
  411MPD2    C4 6135   4.086   1.551  14.450  0.0286  0.6105 -0.7463
  411MPD2    C5 6136   4.155   1.672  14.471 -0.0628  0.3695  0.2811
  411MPD2     H 6137   3.768   1.668  14.443  0.8674 -0.3836 -1.4876
  411MPD2    H1 6138   4.144   1.460  14.439 -0.6239  0.2022 -0.8192
  411MPD2    H2 6139   4.130   1.881  14.467 -0.7933  0.6833  0.2929
  411MPD2    H3 6140   4.263   1.681  14.482  0.2559  0.3945 -2.8535
  411MPD2     N 6141   3.880   1.428  14.404 -0.3922  0.4014 -0.0921
  411MPD2    H5 6142   3.939   1.349  14.383  0.4966  0.5661  1.8195
  411MPD2    N1 6143   3.872   1.917  14.468 -0.1383 -0.1190  0.2132
  411MPD2    H7 6144   3.923   1.999  14.499  0.6374 -0.8522  0.8869
  412TMC3    C1 6145   3.683   1.304  14.352  0.6231 -0.5666  1.1391
  412TMC3    C2 6146   3.613   1.210  14.426  0.5280 -0.2596  0.1840
  412TMC3    C3 6147   3.550   1.111  14.354 -0.2290  0.2294  0.9590
  412TMC3    C4 6148   3.694   1.303  14.213  0.3173 -0.0290 -0.2505
  412TMC3    C5 6149   3.630   1.194  14.152 -0.0805  0.4048 -0.5947
  412TMC3    C6 6150   3.562   1.098  14.219  0.4364 -0.1437 -0.2726
  412TMC3     C 6151   3.740   1.416  14.420  0.0826  0.1946 -0.3171
  412TMC3     O 6152   3.662   1.479  14.496  0.5146  0.6026  0.2906
  412TMC3     H 6153   3.584   1.228  14.528 -0.6506 -0.8735 -0.0415
  412TMC3    H1 6154   3.747   1.388  14.172 -0.7858  1.5558  1.6643
  412TMC3    H2 6155   3.508   1.026  14.160  0.6637 -0.9533  0.5068
  412TMC3    C7 6156   3.570   1.223  14.027 -0.8612 -0.3843 -1.0466
  412TMC3    C8 6157   3.417   1.101  14.397  0.7637  0.6319 -0.1457
  412TMC3    O1 6158   3.463   1.171  14.002 -0.2119  0.6866  0.3127
  412TMC3    O2 6159   3.383   1.090  14.516 -0.1566 -0.4572 -0.2596
  413MPD2     C 6160   0.336   3.954  15.432  0.0108  0.5483 -0.4390
  413MPD2    C1 6161   0.335   4.057  15.344  0.7870  0.3047 -0.5503
  413MPD2    C2 6162   0.460   4.101  15.289  0.4256 -0.4635 -0.2024
  413MPD2    C3 6163   0.572   4.020  15.301  0.2017  0.9473 -0.5193
  413MPD2    C4 6164   0.566   3.916  15.391  0.3341  0.1990 -0.1221
  413MPD2    C5 6165   0.453   3.889  15.457  0.0648 -0.3831  0.3409
  413MPD2     H 6166   0.465   4.186  15.221 -0.8608 -1.0568 -1.0352
  413MPD2    H1 6167   0.650   3.853  15.417 -0.2166 -1.3187 -1.9521
  413MPD2    H2 6168   0.252   3.929  15.496  0.9518  0.5837  0.8085
  413MPD2    H3 6169   0.456   3.802  15.522 -0.9037  0.0413  0.9438
  413MPD2     N 6170   0.681   4.045  15.216  0.1081  0.2034  0.3004
  413MPD2    H5 6171   0.683   4.135  15.169  2.0167 -0.0897 -0.1621
  413MPD2    N1 6172   0.212   4.127  15.332  0.1650  0.1743 -0.0912
  413MPD2    H7 6173   0.143   4.092  15.397 -1.0756 -0.8977 -1.9579
  414TMC3    C1 6174   0.892   4.013  15.121 -0.2797 -0.5032  0.2737
  414TMC3    C2 6175   1.015   3.956  15.126  0.1805  0.3716 -0.1630
  414TMC3    C3 6176   1.107   4.000  15.037  0.3631  0.1906 -0.7205
  414TMC3    C4 6177   0.861   4.110  15.033 -0.6064 -0.3443 -0.2962
  414TMC3    C5 6178   0.953   4.154  14.943 -0.3697  0.9690  0.1439
  414TMC3    C6 6179   1.085   4.101  14.948 -0.4698  0.2198  0.2682
  414TMC3     C 6180   0.791   3.963  15.207  0.9375  0.1698  0.7998
  414TMC3     O 6181   0.802   3.856  15.264  0.3342  0.1717 -0.1751
  414TMC3     H 6182   1.043   3.884  15.201 -0.0316  0.3039 -0.1495
  414TMC3    H1 6183   0.762   4.154  15.037  0.6313  2.4724 -0.8074
  414TMC3    H2 6184   1.170   4.127  14.885 -1.4836 -0.9994 -1.6188
  414TMC3    C7 6185   0.926   4.265  14.859  0.4847 -0.7100 -0.0327
  414TMC3    C8 6186   1.229   3.928  15.021 -0.0471 -0.2962  0.0598
  414TMC3    O1 6187   0.809   4.298  14.840  0.0938  0.1379 -0.6529
  414TMC3    O2 6188   1.212   3.809  15.039 -0.4992 -0.4122  0.6902
  415TMC3    C1 6189   0.816   2.492   9.860  0.0036  0.0245 -0.5961
  415TMC3    C2 6190   0.841   2.580   9.957 -0.5506  0.0646 -0.8826
  415TMC3    C3 6191   0.756   2.682   9.966  0.2196  0.3895 -0.1307
  415TMC3    C4 6192   0.709   2.494   9.778 -0.4093  0.4496 -0.3091
  415TMC3    C5 6193   0.625   2.599   9.793 -0.0354  1.0484  0.2113
  415TMC3    C6 6194   0.651   2.698   9.878  0.1646 -0.2572  0.3906
  415TMC3     C 6195   0.899   2.372   9.860 -0.0484  0.6951  0.1599
  415TMC3     O 6196   0.854   2.277   9.801  0.4805  0.3004  0.6944
  415TMC3     H 6197   0.917   2.570  10.034  0.5338 -0.8302 -2.0693
  415TMC3    H1 6198   0.687   2.419   9.702  0.8468 -0.2555  0.0219
  415TMC3    H2 6199   0.581   2.778   9.898  0.2425 -0.4560  1.4556
  415TMC3    C7 6200   0.508   2.612   9.698 -0.2858 -0.2169 -0.0524
  415TMC3    C8 6201   0.775   2.765  10.083 -0.0261 -0.6986 -0.8429
  415TMC3    O1 6202   0.472   2.725   9.668 -0.3609  0.0940  0.1800
  415TMC3    O2 6203   0.785   2.708  10.192 -0.1319  0.0717  0.7009
  416MPD2     C 6204   3.048   1.922  11.374  0.1951  0.9362 -0.2120
  416MPD2    C1 6205   2.968   1.806  11.388 -0.0727  0.3209 -0.5934
  416MPD2    C2 6206   3.017   1.685  11.353 -0.4497 -0.5451  0.5627
  416MPD2    C3 6207   3.139   1.671  11.297 -0.3342  0.0358  0.8068
  416MPD2    C4 6208   3.212   1.784  11.277  0.1976 -0.2346  0.1460
  416MPD2    C5 6209   3.167   1.910  11.312 -0.4420 -0.5149  0.2405
  416MPD2     H 6210   2.961   1.593  11.368 -1.2813 -0.0876  0.2281
  416MPD2    H1 6211   3.304   1.780  11.220 -0.7536 -0.6230 -1.3553
  416MPD2    H2 6212   3.005   2.021  11.385  2.3834  1.8828 -0.0427
  416MPD2    H3 6213   3.236   1.988  11.283  0.6533 -1.5659  0.0075
  416MPD2     N 6214   3.194   1.549  11.254  0.4075  0.3200  0.5207
  416MPD2    H5 6215   3.259   1.555  11.176  1.8237 -0.4567  1.6233
  416MPD2    N1 6216   2.834   1.811  11.430  0.3106 -0.0556  0.0234
  416MPD2    H7 6217   2.804   1.890  11.487 -1.1774  0.3625 -1.3105
  417TMC3    C1 6218   2.610   1.766  11.453 -0.1347  0.2737 -0.1107
  417TMC3    C2 6219   2.602   1.773  11.591 -0.0041 -0.4284  0.1996
  417TMC3    C3 6220   2.475   1.775  11.647  0.0217  0.2429 -0.6660
  417TMC3    C4 6221   2.499   1.746  11.375  0.0222 -0.0883  0.3203
  417TMC3    C5 6222   2.375   1.743  11.440  1.1803  0.7194  0.4756
  417TMC3    C6 6223   2.366   1.760  11.570 -1.2088  0.2263 -0.5265
  417TMC3     C 6224   2.733   1.724  11.394  1.0146 -0.3328 -0.2027
  417TMC3     O 6225   2.730   1.634  11.317 -0.2543 -0.4091  0.3873
  417TMC3     H 6226   2.693   1.787  11.648  1.4266 -2.1380 -1.6586
  417TMC3    H1 6227   2.513   1.740  11.267 -0.5108  0.6660  0.2065
  417TMC3    H2 6228   2.266   1.748  11.613 -1.0898 -0.3706 -0.4068
  417TMC3    C7 6229   2.259   1.690  11.371 -0.2045 -0.5839 -0.0448
  417TMC3    C8 6230   2.464   1.755  11.787  0.3511  0.1470  0.5851
  417TMC3    O1 6231   2.184   1.605  11.418 -0.6394  0.3818 -0.1947
  417TMC3    O2 6232   2.357   1.776  11.840 -0.2943 -0.0673  0.7145
  418TMC3    C1 6233   2.082   2.886   0.250  0.6579  0.2552 -0.7224
  418TMC3    C2 6234   1.978   2.886   0.164 -0.5026  0.3115 -1.1875
  418TMC3    C3 6235   1.852   2.903   0.222  0.0441  0.2001  0.2088
  418TMC3    C4 6236   2.072   2.909   0.384 -0.3726 -0.6245 -0.5632
  418TMC3    C5 6237   1.947   2.911   0.433  0.5831  0.1646  0.4293
  418TMC3    C6 6238   1.834   2.910   0.358 -0.2329 -0.1232  0.4769
  418TMC3     C 6239   2.195   2.811   0.208 -0.5583  0.0332  0.3190
  418TMC3     O 6240   2.245   2.734   0.288  0.3777 -0.3591 -0.4646
  418TMC3     H 6241   1.988   2.854   0.061 -0.8815  0.2105 -1.1949
  418TMC3    H1 6242   2.161   2.891   0.444 -1.6869  1.9186  2.1443
  418TMC3    H2 6243   1.733   2.924   0.395 -0.2909  1.3433 -0.2383
  418TMC3    C7 6244   1.933   2.811   0.545 -0.3599  0.4300 -0.3586
  418TMC3    C8 6245   1.742   2.852   0.143  0.6637  0.4353 -0.5317
  418TMC3    O1 6246   1.840   2.732   0.529  0.4924  0.1936  0.4739
  418TMC3    O2 6247   1.641   2.920   0.136  0.1406 -0.0989 -0.6554
  419MPD2     C 6248   0.245   0.996  12.421  0.1649  0.4381 -1.0478
  419MPD2    C1 6249   0.200   1.130  12.410 -0.0137  0.1415  0.2070
  419MPD2    C2 6250   0.133   1.179  12.518 -0.2409 -0.0619 -0.2345
  419MPD2    C3 6251   0.094   1.097  12.624  0.1961  0.1871  0.4361
  419MPD2    C4 6252   0.127   0.963  12.623  0.2375 -0.2725 -0.8989
  419MPD2    C5 6253   0.205   0.918  12.526 -0.1111 -0.2163  0.3230
  419MPD2     H 6254   0.107   1.284  12.520  1.3389  0.3199  0.3522
  419MPD2    H1 6255   0.096   0.888  12.695  3.0372  1.4011  2.0501
  419MPD2    H2 6256   0.301   0.949  12.341  0.8350 -0.9357  0.2382
  419MPD2    H3 6257   0.231   0.813  12.516  4.1164  0.8371 -0.0416
  419MPD2     N 6258   0.027   1.162  12.730 -0.3540 -0.0664 -0.1011
  419MPD2    H5 6259   0.003   1.260  12.714  0.9273 -0.2399 -3.0637
  419MPD2    N1 6260   0.225   1.219  12.302  0.4914  0.0807 -0.3146
  419MPD2    H7 6261   0.174   1.306  12.294 -1.6905 -1.1499  0.0929
  420TMC3    C1 6262   4.660   1.206  12.939  0.3654  0.9552  0.0744
  420TMC3    C2 6263   4.595   1.306  12.874 -0.1977  0.1284  0.2745
  420TMC3    C3 6264   4.570   1.412  12.947 -0.0875 -0.9672 -0.1880
  420TMC3    C4 6265   4.703   1.210  13.070 -0.2125 -0.7113 -0.2062
  420TMC3    C5 6266   4.666   1.326  13.139  0.2135 -0.4432  0.3432
  420TMC3    C6 6267   4.607   1.435  13.077  0.0794 -0.1222 -0.2691
  420TMC3     C 6268   4.717   1.108  12.848  0.3970 -0.2022  0.2812
  420TMC3     O 6269   0.012   0.996  12.890  0.0493 -0.2968 -0.2508
  420TMC3     H 6270   4.547   1.288  12.779  1.3127 -0.7626 -0.3241
  420TMC3    H1 6271   0.026   1.122  13.113 -0.0265 -0.4908  0.0435
  420TMC3    H2 6272   4.598   1.538  13.110  0.2229 -0.4544  0.8062
  420TMC3    C7 6273   4.681   1.319  13.282 -0.2379 -0.6835  0.1011
  420TMC3    C8 6274   4.532   1.524  12.855 -0.5603 -0.2984 -0.9338
  420TMC3    O1 6275   0.027   1.228  13.325 -0.1125 -0.3652  0.2784
  420TMC3    O2 6276   4.568   1.501  12.739  0.3234 -0.1485  0.1123
  421TMC3    C1 6277   1.954   3.189  13.675 -0.2460  0.0035 -0.3036
  421TMC3    C2 6278   1.996   3.291  13.757 -0.6492 -0.4473  0.6181
  421TMC3    C3 6279   2.117   3.278  13.824 -0.0502 -0.3337  0.7092
  421TMC3    C4 6280   2.000   3.063  13.690 -0.6272  0.0311  0.2854
  421TMC3    C5 6281   2.117   3.054  13.776  0.6640 -0.4055  0.2173
  421TMC3    C6 6282   2.182   3.159  13.828  0.4924 -0.0730  0.4167
  421TMC3     C 6283   1.875   3.225  13.560 -0.6066 -0.1108 -0.1163
  421TMC3     O 6284   1.867   3.344  13.536 -0.6084  0.0934  0.1329
  421TMC3     H 6285   1.951   3.389  13.752 -2.7982 -1.4162  0.9272
  421TMC3    H1 6286   1.970   2.987  13.619 -0.7054 -1.0362  1.4622
  421TMC3    H2 6287   2.271   3.140  13.886  0.8890 -1.2348 -0.5689
  421TMC3    C7 6288   2.171   2.923  13.807  0.1487  0.4810 -0.3317
  421TMC3    C8 6289   2.159   3.377  13.921 -0.7820  0.2236  0.2204
  421TMC3    O1 6290   2.291   2.925  13.832  0.0291 -1.3315 -0.2516
  421TMC3    O2 6291   2.237   3.334  14.006 -0.1504  0.3080  0.2171
  422TMC3    C1 6292   3.901   4.300  12.177 -0.0448 -0.7822 -0.2950
  422TMC3    C2 6293   3.868   4.412  12.245  0.0457 -0.3896 -0.3920
  422TMC3    C3 6294   3.861   4.400  12.384  0.7135 -0.3813  0.3001
  422TMC3    C4 6295   3.919   4.172  12.233  0.4327  0.1611 -0.2953
  422TMC3    C5 6296   3.899   4.168  12.367 -0.3808  0.1283 -0.3233
  422TMC3    C6 6297   3.877   4.279  12.446  0.4583  0.0151  0.3791
  422TMC3     C 6298   3.963   4.326  12.046 -0.5724  0.1370  0.1585
  422TMC3     O 6299   3.949   4.437  11.998 -0.2911 -0.0218  0.0999
  422TMC3     H 6300   3.853   4.505  12.191 -0.5719 -0.4108 -0.2539
  422TMC3    H1 6301   3.925   4.080  12.176 -1.6043  1.5643 -2.8060
  422TMC3    H2 6302   3.874   4.265  12.553 -0.9123 -1.1645  0.1883
  422TMC3    C7 6303   3.823   4.047  12.400 -0.6838  0.6933  0.4433
  422TMC3    C8 6304   3.803   4.508  12.461 -0.0067  0.4742 -0.5519
  422TMC3    O1 6305   3.842   3.949  12.327  0.8548  0.0921 -0.2473
  422TMC3    O2 6306   3.826   4.516  12.585 -0.3072 -0.0836 -0.0462
  423MPD2     C 6307   1.081   0.582   0.620  0.5172 -0.8559 -0.0376
  423MPD2    C1 6308   1.000   0.471   0.648 -0.3658 -0.1028  0.3342
  423MPD2    C2 6309   0.968   0.386   0.541 -0.8224  0.2337 -0.1358
  423MPD2    C3 6310   1.020   0.407   0.409 -0.4420 -0.4931  0.5696
  423MPD2    C4 6311   1.104   0.517   0.388  0.3840 -0.4985 -0.2820
  423MPD2    C5 6312   1.132   0.598   0.494  0.2895  0.2071  0.8259
  423MPD2     H 6313   0.903   0.302   0.564 -0.9134 -0.1932 -1.9532
  423MPD2    H1 6314   1.149   0.540   0.292  0.6524  0.4889  0.0886
  423MPD2    H2 6315   1.115   0.660   0.689 -1.2860  0.0491 -0.1717
  423MPD2    H3 6316   1.194   0.686   0.478  0.0260  0.5404  1.6510
  423MPD2     N 6317   0.993   0.329   0.289 -0.4526  0.1487  0.1855
  423MPD2    H5 6318   1.032   0.362   0.201  0.0670 -0.1168  0.3145
  423MPD2    N1 6319   0.946   0.452   0.780  0.1276 -0.0606 -0.0030
  423MPD2    H7 6320   0.902   0.362   0.793 -0.1358 -0.0722 -1.0553
  424TMC3    C1 6321   0.867   0.515   0.994  0.3111  0.1058  0.3717
  424TMC3    C2 6322   0.884   0.386   1.042  0.4067 -0.1994  0.1158
  424TMC3    C3 6323   0.857   0.362   1.174  0.4994 -0.0066  0.5506
  424TMC3    C4 6324   0.822   0.611   1.076  0.1919  0.3889 -0.1587
  424TMC3    C5 6325   0.797   0.581   1.213  0.4495 -0.2529 -0.1646
  424TMC3    C6 6326   0.817   0.456   1.264  0.1319  0.3255  0.1520
  424TMC3     C 6327   0.938   0.552   0.873 -0.1586  0.1261  0.2540
  424TMC3     O 6328   0.977   0.671   0.870  0.1752  0.1905  0.3696
  424TMC3     H 6329   0.926   0.306   0.982  0.1950  0.1841 -0.5507
  424TMC3    H1 6330   0.802   0.715   1.055 -0.2458  0.3538  0.0746
  424TMC3    H2 6331   0.786   0.427   1.364 -1.6120 -1.4923 -0.9050
  424TMC3    C7 6332   0.766   0.693   1.300  0.1517  0.0966  0.5315
  424TMC3    C8 6333   0.878   0.221   1.219 -0.4881  0.4206  0.7789
  424TMC3    O1 6334   0.717   0.796   1.249  0.1598  0.1277 -0.3759
  424TMC3    O2 6335   0.918   0.142   1.134 -0.4153  0.6339 -0.6471
  425MPD2     C 6336   4.578   4.592  17.107 -0.1162 -0.3043  0.4887
  425MPD2    C1 6337   4.532   4.468  17.087  0.5959  0.0385  0.5401
  425MPD2    C2 6338   4.398   4.440  17.113  0.6642  1.3446  0.1687
  425MPD2    C3 6339   4.332   4.514  17.212  0.2506 -0.3986 -0.4191
  425MPD2    C4 6340   4.386   4.630  17.256  0.5254  0.1352  0.3424
  425MPD2    C5 6341   4.508   4.672  17.194  0.3596 -0.0520  0.1222
  425MPD2     H 6342   4.362   4.339  17.099  0.3034  1.2824  1.5554
  425MPD2    H1 6343   4.349   4.699  17.331  1.2888  2.8593 -1.7989
  425MPD2    H2 6344   4.678   4.621  17.077 -0.4652  0.8389  0.3958
  425MPD2    H3 6345   4.555   0.044  17.219 -0.7639  0.8182 -1.0604
  425MPD2     N 6346   4.204   4.460  17.243  0.4468  0.0944  0.1303
  425MPD2    H5 6347   4.188   4.367  17.207  0.5968  0.0852  0.0866
  425MPD2    N1 6348   4.613   4.386  17.006  0.7138  0.1871 -0.1894
  425MPD2    H7 6349   4.704   4.426  16.983  0.4609  1.5319  1.1710
  426TMC3    C1 6350   4.661   4.174  16.889  0.5302 -0.0718  0.1221
  426TMC3    C2 6351   4.629   4.086  16.793 -0.5093  0.5329 -0.0252
  426TMC3    C3 6352   4.694   3.967  16.792 -0.3570 -0.0737 -0.4274
  426TMC3    C4 6353   0.043   4.155  16.980  0.0069 -0.1148 -0.0634
  426TMC3    C5 6354   0.088   4.026  16.982  0.6889  0.3755 -0.5179
  426TMC3    C6 6355   0.059   3.939  16.884 -0.1382 -0.0569  0.0107
  426TMC3     C 6356   4.560   4.277  16.936  0.1920 -0.2315  0.0635
  426TMC3     O 6357   4.443   4.247  16.912  0.5207 -0.2391  0.2981
  426TMC3     H 6358   4.547   4.120  16.730  0.7633 -0.7357 -2.3704
  426TMC3    H1 6359   0.047   4.210  17.073 -1.6502  0.1471 -0.1371
  426TMC3    H2 6360   0.099   3.839  16.871 -0.8356 -0.1701 -1.3137
  426TMC3    C7 6361   0.144   3.967  17.104  0.1874  0.0052  0.0536
  426TMC3    C8 6362   4.660   3.859  16.703 -0.2744 -0.0504  0.0068
  426TMC3    O1 6363   0.212   3.865  17.097  0.2825 -0.2768  0.5702
  426TMC3    O2 6364   0.037   3.800  16.656 -0.0977  0.0638 -0.0061
  427MPD2     C 6365   2.862   1.933  14.748  0.0998 -0.1741 -0.8317
  427MPD2    C1 6366   2.825   1.867  14.861 -0.0284 -0.3858 -0.2121
  427MPD2    C2 6367   2.695   1.886  14.906  0.3676 -0.4454  0.5151
  427MPD2    C3 6368   2.601   1.944  14.827  0.4709  0.8508 -0.0157
  427MPD2    C4 6369   2.640   2.003  14.709  0.5194 -0.2596  0.2582
  427MPD2    C5 6370   2.773   1.996  14.673  0.2289  0.2093 -0.2394
  427MPD2     H 6371   2.668   1.847  15.003  0.3325 -2.3374 -0.2587
  427MPD2    H1 6372   2.570   2.053  14.643 -0.0893 -2.8935 -1.0684
  427MPD2    H2 6373   2.965   1.930  14.713  0.6162  1.2057  0.5108
  427MPD2    H3 6374   2.803   2.031  14.574 -2.6820  0.2499 -1.0951
  427MPD2     N 6375   2.469   1.943  14.862 -0.2496 -0.1936 -0.3248
  427MPD2    H5 6376   2.417   1.992  14.789  0.2177  0.8474  0.0427
  427MPD2    N1 6377   2.908   1.781  14.936  0.0550  0.4318 -0.4310
  427MPD2    H7 6378   2.884   1.755  15.031  0.9348  3.5512  0.6516
  428TMC3    C1 6379   3.108   1.672  15.007  0.1991  0.2906 -0.2197
  428TMC3    C2 6380   3.048   1.596  15.096  0.2428  0.2213 -0.3889
  428TMC3    C3 6381   3.122   1.524  15.187  0.0288 -1.2470  0.3550
  428TMC3    C4 6382   3.240   1.693  15.012  0.4282 -0.0400 -0.5497
  428TMC3    C5 6383   3.307   1.640  15.119  0.2777 -0.4284  0.1259
  428TMC3    C6 6384   3.248   1.558  15.210  0.0461 -0.7266 -0.4146
  428TMC3     C 6385   3.035   1.735  14.898 -0.2868 -0.6089 -0.0734
  428TMC3     O 6386   3.089   1.758  14.790 -0.0269  0.0370  0.2371
  428TMC3     H 6387   2.950   1.556  15.074  0.4696 -0.9674  0.7975
  428TMC3    H1 6388   3.288   1.772  14.956 -2.9656  1.7700 -0.9209
  428TMC3    H2 6389   3.313   1.522  15.289  0.4810  0.7525 -0.0941
  428TMC3    C7 6390   3.448   1.671  15.155 -0.3132  0.4734  0.4573
  428TMC3    C8 6391   3.048   1.476  15.303 -0.4230  1.0045 -0.3350
  428TMC3    O1 6392   3.484   1.663  15.272 -0.2021 -0.8452  0.4685
  428TMC3    O2 6393   2.929   1.503  15.295  0.7615 -0.0888  0.1113
  429MPD2     C 6394   4.047   1.752  17.369  0.7954  0.3168  0.9436
  429MPD2    C1 6395   4.174   1.713  17.396  0.7844  0.4671 -0.2557
  429MPD2    C2 6396   4.275   1.801  17.362  0.4184  0.0482  0.1144
  429MPD2    C3 6397   4.246   1.922  17.297 -0.2886 -0.1126 -0.3799
  429MPD2    C4 6398   4.114   1.958  17.275 -0.2511  0.3502  0.2558
  429MPD2    C5 6399   4.017   1.864  17.304  0.2945  0.1096 -1.0601
  429MPD2     H 6400   4.380   1.780  17.384 -0.0567 -1.7165  0.7328
  429MPD2    H1 6401   4.082   2.049  17.225  0.1724 -1.2736 -2.9542
  429MPD2    H2 6402   3.967   1.681  17.382  0.6137  0.2114 -0.7326
  429MPD2    H3 6403   3.914   1.886  17.277 -0.6411 -2.2573  0.5375
  429MPD2     N 6404   4.361   1.998  17.266 -0.2657  0.7208  0.0882
  429MPD2    H5 6405   4.450   1.949  17.274  0.0137  1.1424 -0.4455
  429MPD2    N1 6406   4.212   1.586  17.443 -0.2557  0.5056  1.0208
  429MPD2    H7 6407   4.310   1.579  17.465 -0.3214 -0.8395  0.8974
  430TMC3    C1 6408   4.488   2.194  17.228 -0.0172 -0.4993  0.1075
  430TMC3    C2 6409   4.503   2.285  17.127  0.3174  0.3641 -0.2850
  430TMC3    C3 6410   4.632   2.290  17.070 -0.4892  0.1115  0.8082
  430TMC3    C4 6411   4.593   2.119  17.283  0.9359 -0.4940  0.5179
  430TMC3    C5 6412   4.709   2.122  17.212 -0.7627  0.1288 -0.0870
  430TMC3    C6 6413   0.011   2.208  17.109 -0.1866 -0.0374 -0.1517
  430TMC3     C 6414   4.360   2.125  17.216  0.3160 -0.6520  0.1779
  430TMC3     O 6415   4.264   2.198  17.187 -0.0175  0.0517 -0.2455
  430TMC3     H 6416   4.421   2.337  17.078  1.5041  2.4088 -0.1151
  430TMC3    H1 6417   4.587   2.059  17.373  1.0467 -1.0162  0.1787
  430TMC3    H2 6418   0.100   2.201  17.047  0.2334  1.1242  0.3362
  430TMC3    C7 6419   0.072   2.003  17.224 -0.1882  0.3779 -0.0819
  430TMC3    C8 6420   4.642   2.339  16.938  0.1135  0.2028 -0.3267
  430TMC3    O1 6421   0.023   1.912  17.291  0.0446 -0.4525 -0.3500
  430TMC3    O2 6422   4.712   2.274  16.861 -0.2858 -0.1183 -0.2192
  431MPD2     C 6423   0.197   2.040  12.418 -0.7708 -0.1066  0.5438
  431MPD2    C1 6424   0.305   2.033  12.332 -0.1142 -0.2872  0.3222
  431MPD2    C2 6425   0.326   1.921  12.251 -1.2174  0.0873 -0.5211
  431MPD2    C3 6426   0.242   1.810  12.271  0.1479 -0.2408 -0.3304
  431MPD2    C4 6427   0.149   1.815  12.373  0.2528  0.4973  0.1764
  431MPD2    C5 6428   0.128   1.922  12.453 -0.1562 -0.3290  0.2701
  431MPD2     H 6429   0.398   1.922  12.171  0.5217  0.3948  1.0396
  431MPD2    H1 6430   0.087   1.732  12.408 -0.2034  1.0589  0.7106
  431MPD2    H2 6431   0.176   2.133  12.469 -0.9974 -1.3207  2.6924
  431MPD2    H3 6432   0.050   1.925  12.529 -0.2812 -1.6171  0.1807
  431MPD2     N 6433   0.257   1.692  12.200 -0.2046  0.4620  0.3078
  431MPD2    H5 6434   0.195   1.616  12.227 -0.8555  1.2866  1.1263
  431MPD2    N1 6435   0.396   2.139  12.316  0.0241  0.7824  0.2782
  431MPD2    H7 6436   0.461   2.134  12.239 -3.1938 -2.4247 -2.2298
  432TMC3    C1 6437   0.348   1.526  12.054  0.2293  0.4532 -0.3516
  432TMC3    C2 6438   0.404   1.511  11.927 -0.2689 -0.2378  0.3850
  432TMC3    C3 6439   0.422   1.378  11.900 -0.4763  0.8324  0.0359
  432TMC3    C4 6440   0.302   1.429  12.140 -0.2307 -0.7725  0.0330
  432TMC3    C5 6441   0.323   1.302  12.102  0.4563  0.9460  0.2541
  432TMC3    C6 6442   0.386   1.273  11.981 -0.5616 -0.1011  0.5791
  432TMC3     C 6443   0.341   1.669  12.093 -0.0979 -0.3486  0.5939
  432TMC3     O 6444   0.426   1.741  12.043  0.0773 -0.2087 -0.1869
  432TMC3     H 6445   0.440   1.592  11.865  1.5047 -1.3808 -0.0742
  432TMC3    H1 6446   0.247   1.454  12.229  2.8826  0.7757  1.5342
  432TMC3    H2 6447   0.388   1.171  11.943  1.6169 -0.2437  1.0816
  432TMC3    C7 6448   0.303   1.187  12.193 -0.1430  0.7514  0.9679
  432TMC3    C8 6449   0.485   1.343  11.781  0.6841  0.0939  0.3739
  432TMC3    O1 6450   0.356   1.082  12.165 -0.1893 -0.6283  0.0082
  432TMC3    O2 6451   0.531   1.228  11.780 -0.1518 -0.3276 -0.7587
  433MPD2     C 6452   3.739   0.863  10.804 -0.3232 -0.2150 -0.2891
  433MPD2    C1 6453   3.755   0.749  10.877  0.1731 -0.1031  0.1689
  433MPD2    C2 6454   3.834   0.754  10.992  0.4277  0.0557 -0.1790
  433MPD2    C3 6455   3.897   0.872  11.017 -0.6432  0.3679 -0.6338
  433MPD2    C4 6456   3.879   0.986  10.941 -0.2937 -0.4519 -0.0262
  433MPD2    C5 6457   3.789   0.986  10.832  0.8502  0.5756  0.2532
  433MPD2     H 6458   3.844   0.670  11.060  0.0101 -1.7722 -2.3905
  433MPD2    H1 6459   3.924   1.082  10.966 -1.1238 -0.1926  0.4738
  433MPD2    H2 6460   3.665   0.861  10.725 -0.9108 -2.5375  0.3308
  433MPD2    H3 6461   3.775   1.073  10.769  0.7886  0.0470 -0.4571
  433MPD2     N 6462   3.989   0.877  11.124 -0.0023  0.5428  0.0486
  433MPD2    H5 6463   4.008   0.790  11.172  0.1720 -0.0323 -1.0800
  433MPD2    N1 6464   3.684   0.635  10.831  0.0496  0.1602 -0.2445
  433MPD2    H7 6465   3.660   0.642  10.733  0.3166 -1.0068 -0.3837
  434TMC3    C1 6466   3.639   0.415  10.799  1.1063 -0.1437 -0.4229
  434TMC3    C2 6467   3.697   0.291  10.823  0.4804 -0.1004 -0.5014
  434TMC3    C3 6468   3.745   0.223  10.713  0.2231 -0.3472 -0.0574
  434TMC3    C4 6469   3.620   0.453  10.664 -0.4662 -0.1421 -0.4904
  434TMC3    C5 6470   3.643   0.366  10.562  0.1571 -0.2582  0.1878
  434TMC3    C6 6471   3.711   0.248  10.583  0.6963 -0.5498  0.1933
  434TMC3     C 6472   3.672   0.515  10.895 -0.9388  0.0551  0.1057
  434TMC3     O 6473   3.712   0.481  11.006 -0.2722  0.4027 -0.5648
  434TMC3     H 6474   3.719   0.264  10.925 -0.5201 -0.9946 -0.5283
  434TMC3    H1 6475   3.552   0.532  10.634 -2.3757 -0.6992  2.3253
  434TMC3    H2 6476   3.759   0.192  10.504 -1.7905 -2.8853  0.3468
  434TMC3    C7 6477   3.547   0.378  10.459  0.0920  0.1077  0.1742
  434TMC3    C8 6478   3.884   0.177  10.720 -0.7000 -0.4823 -0.1553
  434TMC3    O1 6479   3.513   0.482  10.413  0.1583  0.4494  0.8527
  434TMC3    O2 6480   3.952   0.212  10.816  0.2909  0.2165 -0.4136
  435MPD2     C 6481   0.915   0.845  15.322 -0.3466  0.3240 -0.0449
  435MPD2    C1 6482   0.896   0.792  15.445 -0.1524  0.1996 -0.2386
  435MPD2    C2 6483   0.999   0.727  15.504  0.5124  0.3317 -0.2505
  435MPD2    C3 6484   1.112   0.685  15.436 -0.1092  0.5826  0.1056
  435MPD2    C4 6485   1.112   0.702  15.298  0.0172 -0.3759 -0.8508
  435MPD2    C5 6486   1.025   0.801  15.245  0.0839  0.3239  0.3125
  435MPD2     H 6487   0.986   0.701  15.609  1.4826 -2.2047 -0.7559
  435MPD2    H1 6488   1.197   0.667  15.240  1.7920 -0.7383  1.9830
  435MPD2    H2 6489   0.841   0.911  15.277 -0.3448  1.4738  1.6127
  435MPD2    H3 6490   1.039   0.842  15.145 -0.2547  1.3952  0.6972
  435MPD2     N 6491   1.206   0.609  15.510 -0.1358 -0.4021 -0.1563
  435MPD2    H5 6492   1.195   0.605  15.610 -1.3050 -1.3334 -0.3229
  435MPD2    N1 6493   0.778   0.800  15.521 -0.0194  0.4344  0.1212
  435MPD2    H7 6494   0.780   0.751  15.610  0.9580  1.0743  0.4591
  436TMC3    C1 6495   0.481   0.834  15.799 -0.5092  0.3519  0.1035
  436TMC3    C2 6496   0.585   0.847  15.706  0.2353 -0.5757 -0.2138
  436TMC3    C3 6497   0.553   0.822  15.573  0.4519  0.2924 -0.2302
  436TMC3    C4 6498   0.358   0.788  15.763  0.7160  0.7647 -0.1315
  436TMC3    C5 6499   0.333   0.754  15.631  0.7791  0.1286  0.1030
  436TMC3    C6 6500   0.428   0.772  15.537 -0.2229 -0.0200 -0.5164
  436TMC3     C 6501   0.510   0.893  15.933 -0.2091  0.0922 -0.2444
  436TMC3     O 6502   0.624   0.923  15.961  0.4655  0.2041  0.2817
  436TMC3     H 6503   0.676   0.900  15.730 -0.1598 -0.2252  0.5354
  436TMC3    H1 6504   0.281   0.771  15.838  2.2651 -1.7172  0.8868
  436TMC3    H2 6505   0.409   0.747  15.433 -2.3278  3.0042 -0.8593
  436TMC3    C7 6506   0.244   0.639  15.605 -0.4457  0.1187  0.2774
  436TMC3    C8 6507   0.654   0.833  15.469  0.1856 -0.3013 -0.0945
  436TMC3    O1 6508   0.278   0.558  15.524  0.1088 -0.4618  0.0989
  436TMC3    O2 6509   0.617   0.849  15.351 -0.5211  0.3705 -0.3481
  437TMC3    C1 6510   4.436   2.520  12.462 -0.2656 -0.1860 -0.4624
  437TMC3    C2 6511   4.321   2.584  12.472  0.5276 -0.2188  0.1457
  437TMC3    C3 6512   4.299   2.693  12.392  0.2969 -0.2727 -0.3069
  437TMC3    C4 6513   4.535   2.561  12.373 -0.1615  0.8300 -0.0034
  437TMC3    C5 6514   4.502   2.664  12.291 -0.2804 -0.6086 -0.3196
  437TMC3    C6 6515   4.389   2.734  12.301 -0.7344  0.1544  0.3945
  437TMC3     C 6516   4.464   2.413  12.556  0.3402 -0.5410  0.6460
  437TMC3     O 6517   4.377   2.365  12.626  0.0932  0.8353  0.0279
  437TMC3     H 6518   4.260   2.563  12.559 -1.2008  4.7593  0.1392
  437TMC3    H1 6519   4.615   2.495  12.343 -0.4924 -0.3829  1.8019
  437TMC3    H2 6520   4.370   2.808  12.224 -0.9190  0.2604  0.5430
  437TMC3    C7 6521   4.600   2.715  12.193 -0.5673  0.1677 -0.4509
  437TMC3    C8 6522   4.174   2.754  12.404 -0.2288  0.3361  0.0530
  437TMC3    O1 6523   4.562   2.795  12.105 -0.2172 -0.2743  0.2012
  437TMC3    O2 6524   4.075   2.687  12.436  0.4264  0.2512 -0.0790
  438MPD2     C 6525   2.088   2.857  17.039  0.4119 -0.1810  0.4329
  438MPD2    C1 6526   2.163   2.766  16.972 -0.0918  0.0551  0.0267
  438MPD2    C2 6527   2.168   2.634  16.997  0.4353 -0.2877  0.0783
  438MPD2    C3 6528   2.085   2.587  17.101 -0.1463 -0.3511  0.2141
  438MPD2    C4 6529   2.004   2.677  17.162 -0.2377  0.7252  0.8483
  438MPD2    C5 6530   2.007   2.810  17.133  0.8359 -1.1900 -0.1759
  438MPD2     H 6531   2.232   2.571  16.937  0.7184 -0.2475  0.3351
  438MPD2    H1 6532   1.949   2.646  17.250  2.7593 -4.2304  1.0107
  438MPD2    H2 6533   2.080   2.963  17.019  1.0363 -0.3981 -0.9353
  438MPD2    H3 6534   1.944   2.874  17.194  1.5212  0.3780 -1.0931
  438MPD2     N 6535   2.077   2.453  17.134 -0.2382 -0.4506  0.1338
  438MPD2    H5 6536   2.021   2.421  17.212 -1.7787 -0.6933 -1.0912
  438MPD2    N1 6537   2.254   2.813  16.881  0.3104  0.3590 -0.0670
  438MPD2    H7 6538   2.320   2.744  16.845 -1.5198 -1.0691 -0.6947
  439TMC3    C1 6539   2.414   2.941  16.779 -0.7496 -0.4472 -0.7060
  439TMC3    C2 6540   2.393   2.886  16.655 -0.0460 -0.8246  0.6898
  439TMC3    C3 6541   2.505   2.858  16.582 -0.5047 -0.0745 -0.3670
  439TMC3    C4 6542   2.537   2.950  16.833 -0.2874  0.8569  0.3734
  439TMC3    C5 6543   2.645   2.920  16.755  0.7924 -0.3068 -0.0156
  439TMC3    C6 6544   2.635   2.867  16.627 -0.3594  0.1032 -0.0247
  439TMC3     C 6545   2.304   2.942  16.871  0.1485  0.8553 -0.1281
  439TMC3     O 6546   2.284   3.042  16.940  0.4835  0.0551  1.1249
  439TMC3     H 6547   2.294   2.883  16.611  0.3054 -4.0355  0.1398
  439TMC3    H1 6548   2.560   2.984  16.934  1.6993 -0.0584  0.2277
  439TMC3    H2 6549   2.719   2.852  16.561 -1.1398  1.7819 -1.4212
  439TMC3    C7 6550   2.745   2.842  16.831  0.2626 -0.2040 -0.3296
  439TMC3    C8 6551   2.475   2.793  16.454  0.2346 -0.2498 -0.8744
  439TMC3    O1 6552   2.756   2.861  16.952 -0.6225 -0.1928  0.3563
  439TMC3    O2 6553   2.558   2.713  16.413  0.0492  0.2751  0.3029
  440MPD2     C 6554   1.177   3.629  14.297 -0.7372  0.3940  0.6404
  440MPD2    C1 6555   1.175   3.621  14.437  0.2378 -0.5033 -0.1719
  440MPD2    C2 6556   1.274   3.549  14.508 -0.0626 -0.0604  1.4222
  440MPD2    C3 6557   1.375   3.499  14.425  1.2056 -0.1415  0.9874
  440MPD2    C4 6558   1.386   3.519  14.288  0.4494  0.4518 -0.6542
  440MPD2    C5 6559   1.280   3.583  14.223 -0.7923  0.2074 -0.2556
  440MPD2     H 6560   1.280   3.531  14.615 -1.9786 -1.5906  1.2711
  440MPD2    H1 6561   1.473   3.481  14.237  1.0770 -0.5760  1.1536
  440MPD2    H2 6562   1.093   3.677  14.250  0.0977  0.5806 -0.6573
  440MPD2    H3 6563   1.292   3.594  14.116 -1.5952 -0.1896 -0.3828
  440MPD2     N 6564   1.486   3.426  14.474 -0.0954  0.0625  0.0443
  440MPD2    H5 6565   1.573   3.449  14.428  0.8361  1.1396  2.3338
  440MPD2    N1 6566   1.074   3.681  14.521 -0.1498 -0.1133  0.6097
  440MPD2    H7 6567   1.068   3.645  14.615 -0.9771  1.7189  1.2591
  441TMC3    C1 6568   1.597   3.333  14.667  0.2862  0.3349 -0.2890
  441TMC3    C2 6569   1.681   3.441  14.666  0.1296 -0.0634 -0.5577
  441TMC3    C3 6570   1.737   3.473  14.791 -0.4837 -0.0890 -0.3814
  441TMC3    C4 6571   1.580   3.252  14.776 -0.1398  0.3095  0.0507
  441TMC3    C5 6572   1.638   3.288  14.895 -0.2877 -0.4529 -0.1148
  441TMC3    C6 6573   1.720   3.400  14.902  0.4433 -0.3155 -0.0033
  441TMC3     C 6574   1.475   3.367  14.597 -0.1316  0.5596 -0.5624
  441TMC3     O 6575   1.367   3.337  14.649  0.8337  0.6267  0.2806
  441TMC3     H 6576   1.682   3.515  14.586  1.1939 -1.0451 -1.4417
  441TMC3    H1 6577   1.502   3.177  14.786  0.8864 -0.6466  0.9176
  441TMC3    H2 6578   1.759   3.441  14.994 -1.0502  0.8884  0.0852
  441TMC3    C7 6579   1.596   3.210  15.014  0.1895 -0.1382 -0.4185
  441TMC3    C8 6580   1.748   3.615  14.812  0.4148  0.7046 -0.3151
  441TMC3    O1 6581   1.488   3.152  15.010 -0.0298  0.4708 -0.0980
  441TMC3    O2 6582   1.816   3.675  14.727 -0.0154  0.3404  0.0426
  442MPD2     C 6583   3.797   4.079  16.230  0.2309 -0.3501 -0.3731
  442MPD2    C1 6584   3.710   3.982  16.275  0.3866 -0.7313  0.2010
  442MPD2    C2 6585   3.759   3.860  16.307 -0.7156  0.3414  0.2347
  442MPD2    C3 6586   3.897   3.834  16.287  0.9302 -0.1269 -0.1838
  442MPD2    C4 6587   3.981   3.923  16.226 -0.1295 -0.7318 -0.1627
  442MPD2    C5 6588   3.927   4.046  16.203 -0.3448  0.3501 -0.0138
  442MPD2     H 6589   3.690   3.781  16.333  0.2619 -0.7664 -0.5316
  442MPD2    H1 6590   4.086   3.899  16.213  0.0525  0.2255 -0.4742
  442MPD2    H2 6591   3.771   4.183  16.213  0.3005 -0.6519 -2.2668
  442MPD2    H3 6592   3.996   4.118  16.162  0.6470 -0.2568  0.5823
  442MPD2     N 6593   3.957   3.706  16.324 -0.1049  0.9507 -0.4682
  442MPD2    H5 6594   4.052   3.696  16.290 -0.2863  0.6756 -0.9019
  442MPD2    N1 6595   3.573   3.998  16.304 -0.2359  0.1244  0.0910
  442MPD2    H7 6596   3.520   3.935  16.363 -0.0097  0.2560  0.4384
  443TMC3    C1 6597   3.368   4.111  16.343 -0.7743  0.4609 -0.1706
  443TMC3    C2 6598   3.270   4.183  16.290  0.3939  0.3030  0.2183
  443TMC3    C3 6599   3.169   4.228  16.375 -0.0223  0.1312 -0.2720
  443TMC3    C4 6600   3.371   4.063  16.475  0.0192  0.2997 -0.4358
  443TMC3    C5 6601   3.275   4.115  16.558  0.4045  0.2102 -0.5137
  443TMC3    C6 6602   3.168   4.191  16.509 -0.5174  0.2617 -0.1158
  443TMC3     C 6603   3.492   4.106  16.267  0.4621  0.6045  0.8298
  443TMC3     O 6604   3.510   4.196  16.185 -0.1062  0.3083 -0.4159
  443TMC3     H 6605   3.276   4.212  16.186  2.4544 -0.5895  0.0785
  443TMC3    H1 6606   3.448   4.002  16.519  1.2813  1.6921 -0.6997
  443TMC3    H2 6607   3.080   4.218  16.565  0.4916  0.6660  1.2894
  443TMC3    C7 6608   3.269   4.054  16.691 -0.0898  0.2927  0.5712
  443TMC3    C8 6609   3.045   4.246  16.299  0.2737 -0.2061 -0.2515
  443TMC3    O1 6610   3.354   3.971  16.720 -0.2195  0.5251 -0.7983
  443TMC3    O2 6611   3.023   4.356  16.249  0.3849  0.0312 -0.6277
  444MPD2     C 6612   4.550   3.223  16.844 -0.0477  0.1515  0.2637
  444MPD2    C1 6613   4.444   3.140  16.814 -0.1211  0.3441 -0.3115
  444MPD2    C2 6614   4.472   3.015  16.762 -0.4986  0.5358  0.2054
  444MPD2    C3 6615   4.597   2.971  16.754  0.7390 -0.1779 -0.2629
  444MPD2    C4 6616   4.707   3.053  16.786 -0.2854 -0.1312  0.0515
  444MPD2    C5 6617   4.680   3.180  16.827  0.3216  0.3946  0.1648
  444MPD2     H 6618   4.386   2.950  16.752  0.3204 -0.5413  0.2558
  444MPD2    H1 6619   0.088   3.025  16.777 -0.2061  0.9770 -2.5638
  444MPD2    H2 6620   4.540   3.321  16.889 -3.4176  0.4570 -1.1765
  444MPD2    H3 6621   0.034   3.242  16.871 -2.0662  1.4126  2.9117
  444MPD2     N 6622   4.617   2.838  16.698  0.0219 -0.0227  0.5385
  444MPD2    H5 6623   4.537   2.789  16.659  1.7293 -0.2195 -2.6788
  444MPD2    N1 6624   4.309   3.168  16.842  0.0008 -0.0148 -0.1763
  444MPD2    H7 6625   4.236   3.098  16.828  1.3881 -1.2532 -1.1233
  445TMC3    C1 6626   0.023   2.673  16.600 -0.2654  0.0581 -0.3233
  445TMC3    C2 6627   4.661   2.674  16.497 -0.1885 -0.2924  0.0221
  445TMC3    C3 6628   4.691   2.596  16.390  0.3615 -0.0503  0.1188
  445TMC3    C4 6629   0.133   2.587  16.600  0.0983 -0.5559  0.4462
  445TMC3    C5 6630   0.159   2.503  16.490 -0.6754 -0.0589  0.4630
  445TMC3    C6 6631   0.071   2.514  16.384  0.5181  0.1603  0.1457
  445TMC3     C 6632   0.013   2.776  16.703  0.8678  0.0082  0.0252
  445TMC3     O 6633   0.103   2.785  16.781 -0.0463  0.0634  0.0916
  445TMC3     H 6634   4.570   2.733  16.496 -1.1487 -1.7843 -1.1292
  445TMC3    H1 6635   0.202   2.590  16.683 -0.3412 -0.3395  0.8045
  445TMC3    H2 6636   0.101   2.450  16.302 -0.0203  0.6393 -0.4134
  445TMC3    C7 6637   0.295   2.471  16.451  0.2998  0.8550 -0.6413
  445TMC3    C8 6638   4.597   2.595  16.281  0.1670 -0.4152 -0.3203
  445TMC3    O1 6639   0.325   2.486  16.335 -0.3252  0.3273  0.0135
  445TMC3    O2 6640   4.505   2.675  16.278 -0.8029  0.8122  0.2233
  446MPD2     C 6641   3.789   4.652  11.274  0.2545  0.0944 -0.5315
  446MPD2    C1 6642   3.777   4.663  11.137 -0.1471  0.3554 -0.2414
  446MPD2    C2 6643   3.846   0.046  11.073 -0.5000  0.9651 -0.2713
  446MPD2    C3 6644   3.922   0.143  11.142  0.5454  0.0978  0.2721
  446MPD2    C4 6645   3.925   0.137  11.283  0.9326 -0.8573 -0.3256
  446MPD2    C5 6646   3.867   0.025  11.338 -0.2324 -0.5384  0.8409
  446MPD2     H 6647   3.840   0.060  10.966 -1.9009  0.9537 -0.1913
  446MPD2    H1 6648   3.977   0.200  11.354 -0.8345  0.8537 -0.5671
  446MPD2    H2 6649   3.735   4.577  11.330  1.3408 -0.3528 -0.0800
  446MPD2    H3 6650   3.879   0.025  11.446 -0.6742  2.7389  0.8616
  446MPD2     N 6651   3.979   0.258  11.074  0.3763 -0.8805  0.6907
  446MPD2    H5 6652   3.971   0.263  10.973 -1.1608  1.4284  0.9211
  446MPD2    N1 6653   3.700   4.576  11.060 -0.5687 -0.6509 -0.0028
  446MPD2    H7 6654   3.707   4.592  10.960 -0.3654 -2.6716 -0.3078
  447TMC3    C1 6655   4.103   0.448  11.042  0.1611 -0.6773  0.6768
  447TMC3    C2 6656   4.023   0.478  10.930 -0.0076 -0.0022 -0.4531
  447TMC3    C3 6657   4.083   0.538  10.819 -0.1782  0.0644  0.0621
  447TMC3    C4 6658   4.233   0.498  11.049 -0.1118 -0.2409  0.4668
  447TMC3    C5 6659   4.287   0.563  10.939 -0.2714  0.2022  0.4107
  447TMC3    C6 6660   4.219   0.572  10.825  0.4454 -0.9295  0.0445
  447TMC3     C 6661   4.063   0.347  11.134 -0.4980  0.4239  0.1367
  447TMC3     O 6662   4.120   0.346  11.241  0.5729  0.2618 -0.2468
  447TMC3     H 6663   3.916   0.463  10.924 -0.2429  1.2425  0.5952
  447TMC3    H1 6664   4.293   0.455  11.128  0.5625 -0.4644 -0.1733
  447TMC3    H2 6665   4.273   0.617  10.742 -1.2546 -0.3847 -0.7684
  447TMC3    C7 6666   4.433   0.567  10.924 -0.4459 -0.1940 -0.8665
  447TMC3    C8 6667   4.036   0.515  10.687 -0.0230  0.5891  0.1342
  447TMC3    O1 6668   4.484   0.576  10.813 -0.0432  0.0524 -0.1546
  447TMC3    O2 6669   3.927   0.552  10.646 -0.2792 -0.2763  0.4805
  448TMC3    C1 6670   1.809   4.342  16.697  0.2004 -0.2540  0.6595
  448TMC3    C2 6671   1.871   4.250  16.629 -0.1987 -0.3233 -0.3834
  448TMC3    C3 6672   1.911   4.138  16.694 -0.2528 -0.5215  0.7610
  448TMC3    C4 6673   1.766   4.333  16.824  0.1583  0.7844 -0.1790
  448TMC3    C5 6674   1.801   4.212  16.887  0.5397 -0.6602  0.4586
  448TMC3    C6 6675   1.875   4.113  16.823  0.1397  0.2965  0.1047
  448TMC3     C 6676   1.788   4.462  16.628  1.4299 -0.2219 -0.6480
  448TMC3     O 6677   1.773   4.465  16.507 -0.0258 -0.0834 -0.1829
  448TMC3     H 6678   1.911   4.267  16.530  0.8093  0.4903  0.1672
  448TMC3    H1 6679   1.719   4.411  16.883 -2.3161 -0.4646 -0.4735
  448TMC3    H2 6680   1.881   4.016  16.871  0.9527  0.3286  0.0553
  448TMC3    C7 6681   1.780   4.216  17.028 -0.0748  0.4471 -0.2129
  448TMC3    C8 6682   2.012   4.048  16.638 -0.3376  0.1768  0.0504
  448TMC3    O1 6683   1.676   4.268  17.072  0.6933  0.2042 -0.2795
  448TMC3    O2 6684   2.070   3.986  16.728  0.7287 -0.0822  0.3185
  449MPD2     C 6685   3.223   3.234  13.454  0.0034 -0.0022 -0.4955
  449MPD2    C1 6686   3.120   3.199  13.372  0.5801  0.0994 -0.7046
  449MPD2    C2 6687   2.995   3.188  13.428  0.6302  0.4149 -0.3550
  449MPD2    C3 6688   2.969   3.204  13.563 -0.1560  0.8390  0.1099
  449MPD2    C4 6689   3.069   3.244  13.648  0.1692  0.4223  0.4339
  449MPD2    C5 6690   3.197   3.248  13.591 -0.1261  0.0915 -0.7410
  449MPD2     H 6691   2.915   3.168  13.358  0.8256 -0.2254 -0.4013
  449MPD2    H1 6692   3.059   3.266  13.754 -1.0958 -2.3152  0.8666
  449MPD2    H2 6693   3.327   3.237  13.425  0.6751  2.3172  2.1605
  449MPD2    H3 6694   3.277   3.274  13.659  0.0385  2.3330 -1.7913
  449MPD2     N 6695   2.833   3.213  13.597  0.2540  0.6231  0.2667
  449MPD2    H5 6696   2.765   3.198  13.524 -0.5429 -1.5355  1.4315
  449MPD2    N1 6697   3.134   3.178  13.236  0.1366  0.2045  0.4347
  449MPD2    H7 6698   3.048   3.162  13.184  0.2138 -1.0377  0.6861
  450TMC3    C1 6699   3.206   3.141  13.022  0.1699 -0.7550  0.5720
  450TMC3    C2 6700   3.270   3.023  12.980  0.8147 -0.4805 -0.0759
  450TMC3    C3 6701   3.190   2.933  12.917 -0.1204 -0.3626 -0.6113
  450TMC3    C4 6702   3.070   3.152  13.002  0.4459 -1.0090  0.0125
  450TMC3    C5 6703   2.998   3.047  12.947  0.2327  0.1681 -0.1190
  450TMC3    C6 6704   3.058   2.938  12.899 -0.1238  0.4569 -0.3962
  450TMC3     C 6705   3.246   3.179  13.163 -0.1098 -0.0576 -0.2857
  450TMC3     O 6706   3.361   3.189  13.192  0.4219  0.1674  0.0707
  450TMC3     H 6707   3.371   3.011  13.019  0.5952 -1.1127  0.2969
  450TMC3    H1 6708   3.024   3.250  13.006 -0.4126 -1.5246  2.6586
  450TMC3    H2 6709   3.000   2.864  12.845 -1.6719  1.2650  0.1559
  450TMC3    C7 6710   2.869   3.040  13.009 -0.3589 -0.4176  0.7643
  450TMC3    C8 6711   3.250   2.810  12.882 -0.5804 -0.2964 -0.3098
  450TMC3    O1 6712   2.822   3.141  13.065  0.7996  0.4933 -0.3468
  450TMC3    O2 6713   3.177   2.720  12.840 -0.5370  0.1236  0.4380
  451MPD2     C 6714   0.521   2.887   0.814  0.0957 -0.4144 -0.0724
  451MPD2    C1 6715   0.483   2.893   0.948  0.2854 -0.1424 -0.0936
  451MPD2    C2 6716   0.497   2.784   1.028 -0.3154 -0.3655  0.0959
  451MPD2    C3 6717   0.554   2.663   0.981  0.6440 -0.2182 -0.1875
  451MPD2    C4 6718   0.598   2.661   0.843  0.1809  0.5120 -0.3157
  451MPD2    C5 6719   0.578   2.774   0.768 -0.0377  0.6095 -0.4905
  451MPD2     H 6720   0.448   2.784   1.124  3.3913  0.9351  1.9662
  451MPD2    H1 6721   0.638   2.575   0.790 -0.1291 -1.4797  2.7159
  451MPD2    H2 6722   0.508   2.978   0.756 -2.8267 -0.9096 -0.1967
  451MPD2    H3 6723   0.601   2.760   0.663 -0.8490  2.8551 -0.9803
  451MPD2     N 6724   0.564   2.543   1.056 -0.1795 -0.4380 -0.0049
  451MPD2    H5 6725   0.613   2.464   1.016 -0.0217 -0.7249  0.7736
  451MPD2    N1 6726   0.440   3.020   0.992 -0.1759  1.1515  0.8953
  451MPD2    H7 6727   0.425   3.096   0.926  0.2315 -0.0176 -0.5382
  452TMC3    C1 6728   0.563   2.396   1.235 -0.1392 -0.5553 -0.2220
  452TMC3    C2 6729   0.576   2.382   1.370 -0.3812  0.3707 -0.9530
  452TMC3    C3 6730   0.630   2.269   1.425 -0.1751 -0.7494  0.3506
  452TMC3    C4 6731   0.596   2.290   1.156 -0.0216 -0.1394 -0.0421
  452TMC3    C5 6732   0.638   2.171   1.212 -0.3184 -0.5266 -0.2960
  452TMC3    C6 6733   0.647   2.158   1.348 -0.2194 -0.0095 -0.3253
  452TMC3     C 6734   0.525   2.528   1.184 -0.2297  0.8112  0.2917
  452TMC3     O 6735   0.478   2.607   1.266  0.1355 -1.1901  0.0023
  452TMC3     H 6736   0.573   2.469   1.434  1.1007 -1.3854  1.4638
  452TMC3    H1 6737   0.587   2.296   1.049  0.1784 -2.9806 -0.2106
  452TMC3    H2 6738   0.700   2.072   1.388 -0.8348  0.9659  2.5663
  452TMC3    C7 6739   0.698   2.064   1.131  0.2738  0.2328  0.4080
  452TMC3    C8 6740   0.626   2.269   1.567 -0.0586  0.6242  0.3771
  452TMC3    O1 6741   0.758   1.979   1.196  0.9582 -0.2780 -0.6353
  452TMC3    O2 6742   0.544   2.195   1.629 -0.0928  0.1290  0.5328
  453TMC3    C1 6743   1.387   3.982  11.340  0.7073 -0.1202  0.2356
  453TMC3    C2 6744   1.285   3.943  11.426 -0.3002 -0.1815  0.5048
  453TMC3    C3 6745   1.158   3.985  11.390  1.2606  0.7665 -0.0587
  453TMC3    C4 6746   1.368   4.063  11.229 -0.5968  0.4964 -0.0469
  453TMC3    C5 6747   1.237   4.089  11.195  0.2510 -0.1650 -0.1075
  453TMC3    C6 6748   1.131   4.053  11.272  0.2987  0.8479 -0.2125
  453TMC3     C 6749   1.528   3.959  11.383 -0.8907 -0.6091 -0.7568
  453TMC3     O 6750   1.605   4.051  11.358  0.1166  0.0820  0.1176
  453TMC3     H 6751   1.300   3.893  11.521 -2.0966 -0.3328  0.7088
  453TMC3    H1 6752   1.444   4.056  11.152 -0.8688  0.9575 -0.3594
  453TMC3    H2 6753   1.031   4.069  11.234 -0.0381  2.2209  1.1964
  453TMC3    C7 6754   1.212   4.181  11.089 -0.1228 -0.3191 -0.1787
  453TMC3    C8 6755   1.040   3.946  11.467 -0.8060 -0.1587 -0.2713
  453TMC3    O1 6756   1.101   4.229  11.094  0.0355 -0.5909  0.4427
  453TMC3    O2 6757   0.945   4.020  11.448  0.1136  0.2901  0.3378
  454MPD2     C 6758   0.515   2.855  16.150 -0.2984  0.0614 -0.5257
  454MPD2    C1 6759   0.458   2.979  16.166  0.6244  0.3419  0.6776
  454MPD2    C2 6760   0.437   3.024  16.294  0.6145  0.2506  0.8483
  454MPD2    C3 6761   0.473   2.947  16.406 -0.3696  0.1513 -0.0980
  454MPD2    C4 6762   0.547   2.833  16.391  0.3296 -0.0294 -0.9447
  454MPD2    C5 6763   0.560   2.789  16.264 -0.0863  0.1748 -0.5144
  454MPD2     H 6764   0.397   3.123  16.309 -0.3341 -0.1753  1.1278
  454MPD2    H1 6765   0.584   2.772  16.473  0.9326  0.5842 -0.7640
  454MPD2    H2 6766   0.538   2.801  16.058 -0.4082 -2.6171  1.0461
  454MPD2    H3 6767   0.604   2.692  16.251 -1.0697 -0.1382 -1.4952
  454MPD2     N 6768   0.440   2.985  16.537 -0.5484  0.3604 -0.1395
  454MPD2    H5 6769   0.500   2.942  16.606 -0.0139  0.6948 -0.3954
  454MPD2    N1 6770   0.399   3.048  16.059 -0.0151 -0.2634 -0.1079
  454MPD2    H7 6771   0.337   3.124  16.085  0.1420 -0.0536 -0.3480
  455TMC3    C1 6772   0.224   3.090  16.486 -0.4123 -0.1442  0.2620
  455TMC3    C2 6773   0.169   3.214  16.504 -0.6958  0.0560  0.3443
  455TMC3    C3 6774   0.050   3.238  16.444  0.3292 -0.0560  0.0708
  455TMC3    C4 6775   0.162   2.996  16.410 -0.3208 -0.5450  0.1527
  455TMC3    C5 6776   0.056   3.034  16.337 -0.7335 -0.4085 -0.6565
  455TMC3    C6 6777   4.719   3.159  16.351  0.0700 -0.3385  0.6543
  455TMC3     C 6778   0.335   3.065  16.579  0.4037 -0.7933 -0.2180
  455TMC3     O 6779   0.315   3.091  16.695  0.0965 -0.3759 -0.1592
  455TMC3     H 6780   0.203   3.280  16.583 -1.1262  1.4388 -0.6408
  455TMC3    H1 6781   0.210   2.900  16.422 -0.3768 -0.9534 -2.9031
  455TMC3    H2 6782   4.622   3.190  16.314  1.3706  1.2344 -1.4556
  455TMC3    C7 6783   0.017   2.960  16.222  0.3646  0.1151 -0.1846
  455TMC3    C8 6784   4.718   3.373  16.473 -0.1669  0.0235 -0.3402
  455TMC3    O1 6785   4.628   2.977  16.175  0.2351 -0.2921  0.0107
  455TMC3    O2 6786   0.074   3.458  16.513  0.4678  0.7666 -0.7790
  456MPD2     C 6787   2.926   2.890  16.332  0.2869  0.1138  0.3297
  456MPD2    C1 6788   2.959   2.918  16.462 -0.1924  0.5643 -0.5991
  456MPD2    C2 6789   2.922   3.043  16.516 -0.1256 -0.3608  0.2242
  456MPD2    C3 6790   2.848   3.132  16.440  0.0768  0.0650  0.3405
  456MPD2    C4 6791   2.823   3.097  16.310  0.4572  0.1737 -0.0827
  456MPD2    C5 6792   2.852   2.975  16.256 -1.2093 -0.8200 -0.3407
  456MPD2     H 6793   2.943   3.050  16.622 -1.8207  1.0826  0.4533
  456MPD2    H1 6794   2.770   3.170  16.250 -0.8347 -1.1015 -0.4914
  456MPD2    H2 6795   2.951   2.793  16.290 -1.6905 -1.0045  1.7489
  456MPD2    H3 6796   2.818   2.952  16.156  0.1667 -1.3793 -0.6818
  456MPD2     N 6797   2.812   3.256  16.499 -0.1410  0.4765  0.3810
  456MPD2    H5 6798   2.829   3.248  16.599 -2.3337 -1.2760  0.6246
  456MPD2    N1 6799   3.036   2.814  16.530  0.2559 -0.0345 -0.4580
  456MPD2    H7 6800   3.060   2.730  16.477  1.3311  0.6122 -0.9983
  457TMC3    C1 6801   2.684   3.445  16.550  0.5956  0.8009  0.3212
  457TMC3    C2 6802   2.565   3.511  16.524 -0.5641 -0.5400  0.1012
  457TMC3    C3 6803   2.518   3.596  16.617 -0.0245  0.5076 -0.3312
  457TMC3    C4 6804   2.768   3.468  16.660  0.0192  0.4817  0.4020
  457TMC3    C5 6805   2.721   3.562  16.744 -0.2038  0.4134  0.4496
  457TMC3    C6 6806   2.596   3.621  16.724 -0.6563  0.2967  0.1792
  457TMC3     C 6807   2.741   3.361  16.447  0.3328 -0.4319  0.4068
  457TMC3     O 6808   2.709   3.382  16.330 -0.7845 -0.2787 -0.2642
  457TMC3     H 6809   2.510   3.483  16.435 -0.7850  0.7952 -0.1807
  457TMC3    H1 6810   2.871   3.434  16.666  0.6416  1.8959 -2.0905
  457TMC3    H2 6811   2.553   3.681  16.804 -0.6750  1.0974 -0.4204
  457TMC3    C7 6812   2.796   3.575  16.868 -0.3189 -1.0514 -0.1211
  457TMC3    C8 6813   2.393   3.678  16.593  0.2269 -0.1293 -0.5138
  457TMC3    O1 6814   2.882   3.494  16.881  0.2439 -0.4830 -0.2993
  457TMC3    O2 6815   2.329   3.708  16.694  0.2441  1.1517 -0.1980
  458MPD2     C 6816   0.350   2.843  12.053  0.0722  1.0094 -0.8943
  458MPD2    C1 6817   0.350   2.780  12.178 -0.1159  0.0772  0.2062
  458MPD2    C2 6818   0.237   2.720  12.230  0.2147 -0.1394  0.6262
  458MPD2    C3 6819   0.119   2.724  12.163  0.5855  0.2135  0.0555
  458MPD2    C4 6820   0.118   2.791  12.038 -0.0067 -0.5205 -0.1050
  458MPD2    C5 6821   0.234   2.838  11.987 -0.6785 -0.6978 -0.3789
  458MPD2     H 6822   0.246   2.673  12.327 -2.0185 -0.8842  0.4705
  458MPD2    H1 6823   0.027   2.807  11.982  1.8981 -0.4956 -3.1779
  458MPD2    H2 6824   0.431   2.903  12.013  0.2797 -0.9881 -3.5230
  458MPD2    H3 6825   0.229   2.892  11.893 -1.3853 -0.3661 -0.1483
  458MPD2     N 6826   0.003   2.672  12.223  0.4392 -0.5722  0.5409
  458MPD2    H5 6827   0.019   2.620  12.308 -0.2880  0.8201  1.5239
  458MPD2    N1 6828   0.470   2.796  12.259  0.1392  0.1100  0.4124
  458MPD2    H7 6829   0.537   2.861  12.218  0.5817 -1.5333 -1.4726
  459TMC3    C1 6830   0.611   2.783  12.458  0.3007  0.1745 -0.5504
  459TMC3    C2 6831   0.642   2.914  12.444 -0.5098 -0.0949 -0.3742
  459TMC3    C3 6832   0.726   2.967  12.540 -0.6380  0.1146 -0.4841
  459TMC3    C4 6833   0.652   2.702  12.561  0.5634  0.0645 -0.4038
  459TMC3    C5 6834   0.724   2.770  12.660 -0.4108  0.0222 -0.4539
  459TMC3    C6 6835   0.761   2.899  12.651  0.3915  0.1423  0.0818
  459TMC3     C 6836   0.488   2.744  12.386  0.1500  0.2706  0.1832
  459TMC3     O 6837   0.413   2.671  12.450 -0.2230 -0.2360 -0.4451
  459TMC3     H 6838   0.623   2.962  12.349  1.2635  0.1414 -0.6115
  459TMC3    H1 6839   0.624   2.599  12.576 -1.0537  0.3553 -1.4508
  459TMC3    H2 6840   0.825   2.952  12.721  2.5882  0.0522 -1.8988
  459TMC3    C7 6841   0.776   2.693  12.772 -0.7184  0.6368  0.1993
  459TMC3    C8 6842   0.808   3.076  12.496  0.2272  0.4273 -0.2765
  459TMC3    O1 6843   0.792   2.571  12.755 -0.5170 -0.6779 -0.2319
  459TMC3    O2 6844   0.917   3.089  12.551 -0.0419  0.1202 -0.6812
  460MPD2     C 6845   4.202   0.272  10.470 -0.1470  0.3942  0.6040
  460MPD2    C1 6846   4.112   0.372  10.498 -0.1418 -0.3753  0.7504
  460MPD2    C2 6847   3.999   0.390  10.425  0.3223  0.1083 -0.6053
  460MPD2    C3 6848   3.966   0.303  10.323 -0.6362 -0.0244  0.1887
  460MPD2    C4 6849   4.046   0.193  10.305 -0.5553  0.1659 -0.0171
  460MPD2    C5 6850   4.162   0.177  10.381 -0.1219 -0.5937  0.1225
  460MPD2     H 6851   3.925   0.468  10.444  0.5412 -0.0615  0.9566
  460MPD2    H1 6852   4.042   0.132  10.216  0.0215  1.9763 -1.2827
  460MPD2    H2 6853   4.293   0.264  10.529 -0.3167 -2.1123  0.5311
  460MPD2    H3 6854   4.227   0.092  10.368  1.8220  1.0621 -1.0488
  460MPD2     N 6855   3.845   0.333  10.260 -0.1342  0.2847 -0.2693
  460MPD2    H5 6856   3.816   0.430  10.267 -0.8835  0.0645 -0.2892
  460MPD2    N1 6857   4.132   0.448  10.619  0.2104 -0.0100  0.1741
  460MPD2    H7 6858   4.214   0.419  10.672  1.7180  2.5170 -0.7879
  461TMC3    C1 6859   3.675   0.315  10.089  0.0266  0.1125 -1.1738
  461TMC3    C2 6860   3.633   0.248   9.978  0.6751  0.0929  0.1693
  461TMC3    C3 6861   3.549   0.320   9.897 -1.0966  0.2599  0.3308
  461TMC3    C4 6862   3.634   0.447  10.110 -0.3413 -0.4419 -0.2150
  461TMC3    C5 6863   3.554   0.513  10.024  0.3375  0.2458  0.7598
  461TMC3    C6 6864   3.508   0.453   9.913  0.9085  0.6539  0.4931
  461TMC3     C 6865   3.786   0.257  10.166  0.6104 -0.1512 -0.2787
  461TMC3     O 6866   3.791   0.133  10.159  0.0071  0.3673  0.4177
  461TMC3     H 6867   3.681   0.155   9.947  2.1428  1.1719 -0.8032
  461TMC3    H1 6868   3.661   0.493  10.204  2.0414  1.5541 -1.8830
  461TMC3    H2 6869   3.439   0.507   9.849 -0.6178  0.6156  2.1026
  461TMC3    C7 6870   3.520   0.652  10.037 -0.2430 -0.0829 -0.0732
  461TMC3    C8 6871   3.504   0.243   9.783 -0.4603 -0.2774  0.4281
  461TMC3    O1 6872   3.414   0.690   9.993 -0.3404  0.2094  0.6487
  461TMC3    O2 6873   3.590   0.178   9.727 -0.6972 -0.6072  0.1145
  462TMC3    C1 6874   0.178   0.540  17.601  0.7455 -0.5018 -0.7442
  462TMC3    C2 6875   0.184   0.424  17.531 -1.1510  0.1441 -0.3291
  462TMC3    C3 6876   0.106   0.318  17.578 -0.1992  0.1991  0.4176
  462TMC3    C4 6877   0.099   0.565   0.008  0.5588 -0.9430  0.4184
  462TMC3    C5 6878   0.020   0.455   0.049  0.4506 -0.6778  0.4521
  462TMC3    C6 6879   0.031   0.329  17.687 -0.4118 -0.2265 -0.3313
  462TMC3     C 6880   0.264   0.648  17.557  1.1333  0.0848 -0.5336
  462TMC3     O 6881   0.312   0.640  17.443  0.4210  0.0323  0.2319
  462TMC3     H 6882   0.258   0.413  17.453  0.3029  1.1826  0.8789
  462TMC3    H1 6883   0.084   0.658   0.063 -0.2946 -0.5141 -0.5446
  462TMC3    H2 6884   4.681   0.249   0.004 -0.3848 -0.2044  0.0067
  462TMC3    C7 6885   4.628   0.481   0.133 -0.1434 -0.5788  0.3279
  462TMC3    C8 6886   0.105   0.189  17.499 -0.2288 -0.1155  0.5165
  462TMC3    O1 6887   4.546   0.388   0.151  0.5622 -0.6715 -0.1484
  462TMC3    O2 6888   0.100   0.089  17.565  0.3558 -0.0162 -0.4789
  463MPD2     C 6889   4.692   1.095   1.958  0.0616 -0.5949  0.0387
  463MPD2    C1 6890   0.071   1.008   1.918  0.0223  0.2088 -0.0913
  463MPD2    C2 6891   0.196   1.034   1.969 -0.3853  0.1984 -0.5998
  463MPD2    C3 6892   0.226   1.132   2.071  0.0732  0.3468 -0.3541
  463MPD2    C4 6893   0.121   1.212   2.108  0.4562  0.1350 -0.1999
  463MPD2    C5 6894   4.713   1.197   2.049 -0.5140 -0.1420  0.7436
  463MPD2     H 6895   0.279   0.971   1.940 -1.1650 -1.2928  0.3883
  463MPD2    H1 6896   0.133   1.300   2.171 -0.7761 -0.5572  1.0126
  463MPD2    H2 6897   4.595   1.090   1.910  1.1681  1.2357 -2.4141
  463MPD2    H3 6898   4.640   1.262   2.095  0.9411  1.5124  0.6782
  463MPD2     N 6899   0.352   1.145   2.132  0.3421 -0.2261 -0.2547
  463MPD2    H5 6900   0.368   1.224   2.194 -0.8570  0.5983 -1.0147
  463MPD2    N1 6901   0.055   0.904   1.824 -0.2109 -0.0637  0.5964
  463MPD2    H7 6902   0.142   0.856   1.801  0.5366  0.3020  2.7060
  464TMC3    C1 6903   4.673   0.748   1.680 -0.0467  0.9326 -0.0711
  464TMC3    C2 6904   0.040   0.649   1.705  0.2481  0.2485 -0.1146
  464TMC3    C3 6905   0.003   0.515   1.692  1.2910  0.4905  0.5743
  464TMC3    C4 6906   4.558   0.715   1.616  0.0759  0.0824  0.3132
  464TMC3    C5 6907   4.534   0.586   1.587 -0.1648 -0.0583  0.1598
  464TMC3    C6 6908   4.611   0.482   1.623 -0.5074  0.7346  0.4278
  464TMC3     C 6909   4.661   0.863   1.769 -0.7946  0.3181  0.2333
  464TMC3     O 6910   4.547   0.902   1.789 -0.0904  0.0477  0.6343
  464TMC3     H 6911   0.132   0.673   1.758 -0.1130  3.7795 -1.0572
  464TMC3    H1 6912   4.480   0.788   1.596 -0.2957 -0.5848 -0.6714
  464TMC3    H2 6913   4.571   0.381   1.619 -0.6234  0.7446  1.2743
  464TMC3    C7 6914   4.396   0.565   1.545  0.4721 -0.0133 -0.1175
  464TMC3    C8 6915   0.106   0.419   1.713  0.0256  0.0450 -0.5193
  464TMC3    O1 6916   4.316   0.651   1.575  0.2428 -0.0068  0.0098
  464TMC3    O2 6917   0.097   0.327   1.635  0.8053  0.1133 -0.4112
  465MPD2     C 6918   1.916   3.048  16.441  0.3461  0.0954 -0.2295
  465MPD2    C1 6919   1.806   3.016  16.520 -0.6686  0.3670 -0.6780
  465MPD2    C2 6920   1.687   3.088  16.498  0.7905  0.0849  0.4097
  465MPD2    C3 6921   1.670   3.168  16.394 -0.1463  0.3127 -0.1308
  465MPD2    C4 6922   1.782   3.205  16.314  0.3387 -0.7338  0.4912
  465MPD2    C5 6923   1.901   3.145  16.342  0.4449  0.3090  0.1906
  465MPD2     H 6924   1.597   3.061  16.553 -0.3578  3.0122 -0.0032
  465MPD2    H1 6925   1.778   3.276  16.232 -2.2812  0.9742  2.1274
  465MPD2    H2 6926   2.011   3.003  16.463  1.2381  1.5208 -1.1603
  465MPD2    H3 6927   1.983   3.167  16.275 -0.3132 -0.6431 -1.0387
  465MPD2     N 6928   1.539   3.222  16.370  0.2817  0.5736  0.0714
  465MPD2    H5 6929   1.468   3.182  16.430 -1.6689 -0.8644 -3.2185
  465MPD2    N1 6930   1.808   2.913  16.616  0.8651 -0.6639  0.5493
  465MPD2    H7 6931   1.722   2.924  16.669 -0.2427  0.4648 -1.4734
  466TMC3    C1 6932   1.169   3.390  16.403 -0.6672 -0.5884 -0.0217
  466TMC3    C2 6933   1.138   3.504  16.331 -0.0877  0.1106  0.4570
  466TMC3    C3 6934   1.221   3.538  16.229  0.1612 -0.0271  0.3993
  466TMC3    C4 6935   1.280   3.316  16.373 -0.8560 -0.3642  0.2545
  466TMC3    C5 6936   1.367   3.361  16.274  0.0948 -0.6970  0.5736
  466TMC3    C6 6937   1.328   3.465  16.192 -0.6797  1.2763 -0.1598
  466TMC3     C 6938   1.116   3.375  16.543  0.3583  0.4668 -0.0907
  466TMC3     O 6939   1.159   3.293  16.623  0.7561 -0.6382  0.3905
  466TMC3     H 6940   1.041   3.543  16.357 -1.0542 -2.7500  1.2168
  466TMC3    H1 6941   1.286   3.231  16.439  0.3363 -0.8775 -0.5266
  466TMC3    H2 6942   1.383   3.503  16.107  0.9078 -0.0771  0.2521
  466TMC3    C7 6943   1.507   3.323  16.275 -0.2261  0.1227  0.4326
  466TMC3    C8 6944   1.201   3.668  16.161  0.4281  0.1230  0.6920
  466TMC3    O1 6945   1.582   3.379  16.197 -0.0421  0.2568  0.4480
  466TMC3    O2 6946   1.242   3.680  16.046  0.3340  0.8743  0.2618
  467TMC3    C1 6947   2.191   1.894  13.357 -0.4703 -0.6156 -0.1361
  467TMC3    C2 6948   2.248   1.968  13.260  0.2910 -0.1596 -0.4608
  467TMC3    C3 6949   2.167   2.041  13.182  0.0916 -0.5838  0.2420
  467TMC3    C4 6950   2.057   1.910  13.393 -0.9291 -0.7386 -0.2397
  467TMC3    C5 6951   1.983   1.987  13.310  0.2736 -0.3175 -0.4988
  467TMC3    C6 6952   2.031   2.054  13.206 -0.3514  0.6339  0.6542
  467TMC3     C 6953   2.274   1.807  13.438 -0.0923  0.4049  0.3813
  467TMC3     O 6954   2.231   1.773  13.545  0.0308  0.0706  0.0627
  467TMC3     H 6955   2.355   1.980  13.250  0.4144  0.8336  2.0017
  467TMC3    H1 6956   2.008   1.852  13.470  1.6951 -0.4531  1.6462
  467TMC3    H2 6957   1.967   2.115  13.144  0.9588 -0.2233 -1.5432
  467TMC3    C7 6958   1.844   2.019  13.347  0.3388 -1.2222  0.9355
  467TMC3    C8 6959   2.217   2.147  13.102 -0.5526 -0.4343  0.0117
  467TMC3    O1 6960   1.790   2.096  13.267 -0.0483 -0.2634  0.0287
  467TMC3    O2 6961   2.140   2.237  13.075 -0.3604 -0.1199 -0.0799
  468MPD2     C 6962   1.036   0.458  10.506 -0.2815 -0.1194 -0.2051
  468MPD2    C1 6963   1.171   0.437  10.530 -0.3013  0.0520  0.1909
  468MPD2    C2 6964   1.203   0.338  10.624  0.2679  0.5921 -0.5811
  468MPD2    C3 6965   1.108   0.272  10.696  1.2917 -0.1297 -0.3018
  468MPD2    C4 6966   0.975   0.297  10.672 -0.1569 -0.6427 -0.1194
  468MPD2    C5 6967   0.940   0.386  10.571 -0.1878  0.0691 -0.5898
  468MPD2     H 6968   1.307   0.316  10.647 -0.0653 -0.3632  0.0153
  468MPD2    H1 6969   0.899   0.251  10.734 -0.2871 -1.7405 -1.1163
  468MPD2    H2 6970   1.015   0.529  10.426  0.8870 -0.1600 -0.5523
  468MPD2    H3 6971   0.834   0.393  10.549 -0.5532 -0.5492  0.9191
  468MPD2     N 6972   1.136   0.176  10.797 -0.3788  0.5184  0.3034
  468MPD2    H5 6973   1.069   0.157  10.871 -0.2893 -1.6167 -0.1407
  468MPD2    N1 6974   1.278   0.508  10.468  0.4409 -0.1904  0.5700
  468MPD2    H7 6975   1.369   0.484  10.506  2.2422  0.4532 -3.2868
  469TMC3    C1 6976   1.383   0.697  10.389 -0.2691  0.2894 -0.9443
  469TMC3    C2 6977   1.496   0.620  10.397  0.8518  0.6988  0.4331
  469TMC3    C3 6978   1.579   0.640  10.505 -0.3426 -0.3737  0.3449
  469TMC3    C4 6979   1.356   0.800  10.475  0.3131 -0.1802 -0.2931
  469TMC3    C5 6980   1.436   0.814  10.581  0.2800 -0.1193  0.3271
  469TMC3    C6 6981   1.549   0.741  10.591 -0.3524 -0.0703 -0.2363
  469TMC3     C 6982   1.263   0.620  10.382  0.7977  0.4111  0.7775
  469TMC3     O 6983   1.157   0.671  10.341 -0.2917 -0.4328  0.1468
  469TMC3     H 6984   1.505   0.533  10.332  0.7924  0.0727  1.2534
  469TMC3    H1 6985   1.266   0.859  10.464 -2.3046 -3.7741  1.8568
  469TMC3    H2 6986   1.628   0.771  10.658 -1.8756 -0.7724  1.8569
  469TMC3    C7 6987   1.401   0.925  10.672  0.7157  0.3618 -0.0953
  469TMC3    C8 6988   1.615   0.514  10.569  0.5213 -0.8747 -0.2559
  469TMC3    O1 6989   1.311   0.997  10.628  0.1365 -0.2010  0.0651
  469TMC3    O2 6990   1.663   0.418  10.504  0.3800 -0.5440 -0.1191
  470TMC3    C1 6991   4.349   2.151   0.480 -1.0877 -0.1863 -0.3601
  470TMC3    C2 6992   4.349   2.232   0.589 -0.3715  0.5308 -0.3970
  470TMC3    C3 6993   4.361   2.177   0.714 -0.6653 -0.5213  0.3631
  470TMC3    C4 6994   4.378   2.015   0.495  0.3572  0.1007  0.9955
  470TMC3    C5 6995   4.396   1.965   0.626 -0.3523 -0.3368  0.5965
  470TMC3    C6 6996   4.378   2.045   0.735 -0.2416 -0.9229  0.0051
  470TMC3     C 6997   4.329   2.211   0.347  0.4025  0.4162  0.3493
  470TMC3     O 6998   4.325   2.335   0.339 -0.3873 -0.5602 -0.7107
  470TMC3     H 6999   4.314   2.333   0.571  3.6121  2.1294  0.7339
  470TMC3    H1 7000   4.394   1.951   0.409  1.2047  2.8780 -0.9230
  470TMC3    H2 7001   4.388   2.017   0.840  1.3779  1.0639  0.3733
  470TMC3    C7 7002   4.466   1.836   0.625 -0.7140  0.4815  0.2957
  470TMC3    C8 7003   4.352   2.276   0.820 -0.3634 -0.7450 -0.1229
  470TMC3    O1 7004   4.476   1.782   0.516  0.3465  0.3925 -0.3042
  470TMC3    O2 7005   4.311   2.391   0.797 -0.5137  0.5397  0.3043
  471MPD2     C 7006   4.315   2.530  16.592 -0.8853  0.3704  0.1502
  471MPD2    C1 7007   4.381   2.408  16.594 -0.6915  0.2502  0.1863
  471MPD2    C2 7008   4.473   2.384  16.700 -0.2571 -0.3864  0.1638
  471MPD2    C3 7009   4.491   2.473  16.800 -0.2074 -0.2050 -0.1921
  471MPD2    C4 7010   4.431   2.597  16.794  0.4401  0.6524  0.3248
  471MPD2    C5 7011   4.344   2.622  16.691 -0.3404 -0.0763  0.1534
  471MPD2     H 7012   4.514   2.283  16.697  1.1543  0.2440 -1.4581
  471MPD2    H1 7013   4.451   2.678  16.863  3.5231 -0.4706  0.7285
  471MPD2    H2 7014   4.238   2.546  16.518  1.9093  1.0971 -2.6372
  471MPD2    H3 7015   4.303   2.721  16.677  0.0351 -0.0523 -0.8277
  471MPD2     N 7016   4.562   2.444  16.918  0.3780 -0.2296 -0.3964
  471MPD2    H5 7017   4.536   2.496  17.001 -3.7050 -0.5020 -1.5210
  471MPD2    N1 7018   4.357   2.297  16.509  0.4035 -0.3410 -0.0533
  471MPD2    H7 7019   4.402   2.206  16.521  0.9225 -0.0592  0.1242
  472TMC3    C1 7020   4.211   2.149  16.403 -0.7214 -0.0034  0.0812
  472TMC3    C2 7021   4.110   2.140  16.321  0.1475  0.5644  0.3615
  472TMC3    C3 7022   3.996   2.076  16.367  0.0143 -0.0152 -0.4694
  472TMC3    C4 7023   4.212   2.077  16.520 -0.3345 -0.1083 -0.7824
  472TMC3    C5 7024   4.093   2.017  16.563 -0.3241  0.6560 -0.1664
  472TMC3    C6 7025   3.983   2.020  16.490 -0.4219  0.0547  0.1272
  472TMC3     C 7026   4.256   2.286  16.417  0.1179  1.0958 -0.1377
  472TMC3     O 7027   4.196   2.372  16.356  0.3380 -0.8432 -0.0840
  472TMC3     H 7028   4.109   2.191  16.225 -0.2169  2.4093  1.3416
  472TMC3    H1 7029   4.291   2.079  16.594  1.5209 -1.0095 -2.7289
  472TMC3    H2 7030   3.896   1.974  16.535  1.4457 -1.1325  2.5293
  472TMC3    C7 7031   4.083   1.973  16.706  0.3399 -0.3755 -0.2051
  472TMC3    C8 7032   3.883   2.061  16.279 -0.8935 -0.6510  0.0282
  472TMC3    O1 7033   4.167   1.892  16.739 -0.1132 -0.3453  0.5466
  472TMC3    O2 7034   3.902   2.103  16.165  0.3783  0.6969 -0.0481
  473MPD2     C 7035   3.936   4.560  13.899  0.3258 -0.3165  0.4699
  473MPD2    C1 7036   3.925   4.683  13.842  0.0023 -0.5588 -0.7793
  473MPD2    C2 7037   3.991   0.065  13.902  0.5272  0.2606 -0.0128
  473MPD2    C3 7038   4.065   0.051  14.019 -0.1346 -0.4847 -0.0812
  473MPD2    C4 7039   4.069   4.646  14.066 -0.2262 -0.1466  0.5869
  473MPD2    C5 7040   4.013   4.537  14.010 -0.3409  0.2913 -0.3462
  473MPD2     H 7041   4.007   0.155  13.844 -0.7604 -0.6667 -1.7828
  473MPD2    H1 7042   4.120   4.632  14.161  1.2233 -0.7015 -0.2837
  473MPD2    H2 7043   3.882   4.474  13.862 -0.0870  0.1353  0.0247
  473MPD2    H3 7044   4.011   4.444  14.065 -1.1134  1.5577  1.8031
  473MPD2     N 7045   4.133   0.149  14.099 -0.4142  0.0246 -0.3202
  473MPD2    H5 7046   4.178   0.111  14.181 -1.2385 -0.3997 -0.0636
  473MPD2    N1 7047   3.853   4.702  13.718  0.2913 -0.1453 -0.0926
  473MPD2    H7 7048   3.858   0.073  13.680  1.6737  0.0439  0.5551
  474TMC3    C1 7049   4.168   0.368  14.169  0.1344  0.1959 -0.1167
  474TMC3    C2 7050   4.151   0.498  14.152  0.0173 -0.5267  0.7044
  474TMC3    C3 7051   4.200   0.578  14.246 -0.0138 -0.2600 -0.9117
  474TMC3    C4 7052   4.259   0.320  14.262 -0.0580 -0.1435  0.0927
  474TMC3    C5 7053   4.322   0.413  14.345 -0.2251 -0.2541  0.2832
  474TMC3    C6 7054   4.291   0.544  14.344  0.4307  0.0899 -0.0040
  474TMC3     C 7055   4.119   0.282  14.067 -0.5339  0.7813 -0.2175
  474TMC3     O 7056   4.054   0.325  13.971 -0.3918 -0.2410 -0.3471
  474TMC3     H 7057   4.105   0.534  14.061 -0.8555 -1.8077  0.6405
  474TMC3    H1 7058   4.291   0.217  14.268 -1.0232 -0.3712  1.2668
  474TMC3    H2 7059   4.342   0.623  14.396  1.1287 -0.3414 -0.0349
  474TMC3    C7 7060   4.406   0.369  14.453  0.1797  0.5640  0.2181
  474TMC3    C8 7061   4.163   0.716  14.245  0.4464 -0.4808 -0.6359
  474TMC3    O1 7062   4.478   0.274  14.421  0.0200 -0.5930 -0.3166
  474TMC3    O2 7063   4.243   0.801  14.283  0.0639 -0.3424  0.2190
  475MPD2     C 7064   2.140   2.477   9.825 -0.5944 -0.9429  0.0909
  475MPD2    C1 7065   2.167   2.534   9.952  0.9877 -0.4803  0.5303
  475MPD2    C2 7066   2.071   2.519  10.050 -0.4344 -0.1536  0.3957
  475MPD2    C3 7067   1.953   2.462  10.025  0.1726  0.3022  1.0627
  475MPD2    C4 7068   1.933   2.406   9.899 -0.6757 -0.0536 -0.0870
  475MPD2    C5 7069   2.022   2.416   9.803 -0.0713 -0.1867 -0.1474
  475MPD2     H 7070   2.098   2.558  10.148 -0.8109  0.6583  0.1753
  475MPD2    H1 7071   1.844   2.347   9.877  1.2892 -2.7879 -0.6544
  475MPD2    H2 7072   2.212   2.483   9.744 -3.3727  2.5545 -2.0953
  475MPD2    H3 7073   2.007   2.378   9.703 -1.4681 -0.5492  0.1922
  475MPD2     N 7074   1.849   2.476  10.127  0.7938  0.3365  0.0929
  475MPD2    H5 7075   1.884   2.522  10.210 -0.4609 -0.6960  1.1906
  475MPD2    N1 7076   2.289   2.603   9.972 -0.1785  0.2657  0.0978
  475MPD2    H7 7077   2.341   2.648   9.897  2.2158 -0.2170  1.5039
  476TMC3    C1 7078   2.378   2.779  10.087 -0.2881  0.4307 -0.1172
  476TMC3    C2 7079   2.282   2.856  10.033  0.2435  0.1080  0.8670
  476TMC3    C3 7080   2.238   2.958  10.110  0.4976 -0.0508 -0.2895
  476TMC3    C4 7081   2.452   2.815  10.197 -0.1335  0.1212 -0.4062
  476TMC3    C5 7082   2.416   2.929  10.266  0.6746 -0.0000  0.0882
  476TMC3    C6 7083   2.304   3.000  10.221  0.0029  0.3424 -0.3429
  476TMC3     C 7084   2.345   2.639  10.089 -0.4096 -0.2343 -0.1261
  476TMC3     O 7085   2.356   2.579  10.199 -0.0743 -0.7767 -0.0419
  476TMC3     H 7086   2.234   2.823   9.942 -2.6165  1.4999  1.8751
  476TMC3    H1 7087   2.521   2.745  10.242  0.2069  1.0137  0.4472
  476TMC3    H2 7088   2.264   3.082  10.280 -0.4547 -0.3222  0.2643
  476TMC3    C7 7089   2.445   2.938  10.404  0.6719 -0.2597  0.4943
  476TMC3    C8 7090   2.100   2.999  10.096 -0.9268 -0.0912 -0.1119
  476TMC3    O1 7091   2.466   2.832  10.462  0.1221  0.1489  0.4330
  476TMC3    O2 7092   2.074   3.118  10.115  0.1229  0.2309 -1.0655
  477MPD2     C 7093   0.295   4.618  11.468  0.8477  0.5506 -0.0972
  477MPD2    C1 7094   0.182   4.566  11.404  0.2347  0.0009 -0.4487
  477MPD2    C2 7095   0.086   4.500  11.491  0.2208 -0.2198  0.6720
  477MPD2    C3 7096   0.076   4.513  11.627 -0.4253  0.5039 -0.0693
  477MPD2    C4 7097   0.186   4.566  11.682  0.5784 -0.2961 -0.2449
  477MPD2    C5 7098   0.290   4.613  11.605  0.6468  0.3187  0.5769
  477MPD2     H 7099   0.003   4.448  11.443  0.7046 -0.5229  0.1716
  477MPD2    H1 7100   0.202   4.584  11.788 -0.9734  0.9760 -0.2380
  477MPD2    H2 7101   0.378   4.665  11.417  1.0543 -1.2616 -1.4851
  477MPD2    H3 7102   0.376   4.657  11.654  0.1046  1.6331  0.3426
  477MPD2     N 7103   4.688   4.475  11.699 -0.0137 -0.3958  0.1201
  477MPD2    H5 7104   4.620   4.417  11.651 -0.1853  0.9011 -1.1992
  477MPD2    N1 7105   0.165   4.585  11.269  0.5826 -0.1753  0.0420
  477MPD2    H7 7106   0.219   4.654  11.218  1.0905 -0.5752  0.0396
  478TMC3    C1 7107   0.022   4.642  11.080  0.1238  0.1020  0.1782
  478TMC3    C2 7108   0.008   0.045  11.131  0.0070 -1.1392  0.6086
  478TMC3    C3 7109   4.627   0.124  11.092 -0.0219  0.0809  0.0946
  478TMC3    C4 7110   4.662   4.600  10.979 -0.2750  0.1217 -0.2876
  478TMC3    C5 7111   4.570   4.692  10.930 -0.1415 -0.0447  0.0339
  478TMC3    C6 7112   4.548   0.093  10.980  0.0840 -0.2973 -0.2533
  478TMC3     C 7113   0.046   4.551  11.194 -0.4787 -0.3273 -0.4177
  478TMC3     O 7114   4.681   4.468  11.208  0.7078  0.6253  0.5257
  478TMC3     H 7115   0.068   0.073  11.217 -0.1599  0.7344  0.1147
  478TMC3    H1 7116   4.685   4.504  10.934  0.4630  0.7409 -1.2026
  478TMC3    H2 7117   4.475   0.164  10.945 -1.3956 -0.9191  1.5769
  478TMC3    C7 7118   4.504   4.663  10.806  0.5914 -1.1249 -0.5094
  478TMC3    C8 7119   4.579   0.233  11.183 -0.6051 -1.0892 -0.5135
  478TMC3    O1 7120   4.563   4.590  10.728  0.0534  0.7833 -0.1480
  478TMC3    O2 7121   4.462   0.265  11.159 -0.6297  0.2057 -0.8170
  479MPD2     C 7122   3.710   1.747  14.914 -0.0973  0.1484 -0.5585
  479MPD2    C1 7123   3.661   1.711  15.033  0.1011  0.0379 -0.0047
  479MPD2    C2 7124   3.737   1.721  15.145  0.5837 -0.2736  0.1023
  479MPD2    C3 7125   3.868   1.773  15.136  0.4340  0.4337 -0.2218
  479MPD2    C4 7126   3.912   1.815  15.014  0.2995  0.7197 -0.2815
  479MPD2    C5 7127   3.839   1.791  14.906  0.2495 -0.7140 -0.0237
  479MPD2     H 7128   3.711   1.664  15.234 -0.1691  1.0244  0.7001
  479MPD2    H1 7129   4.006   1.867  15.002 -0.4198  1.4357 -2.9907
  479MPD2    H2 7130   3.658   1.733  14.820 -0.7542  0.3093 -0.2235
  479MPD2    H3 7131   3.878   1.823  14.810  0.1856 -0.3484  0.0713
  479MPD2     N 7132   3.957   1.786  15.246 -0.1444 -0.3350 -0.3669
  479MPD2    H5 7133   4.053   1.811  15.225 -0.9482  0.5219 -3.0844
  479MPD2    N1 7134   3.522   1.680  15.037 -0.4659  0.0839 -0.3980
  479MPD2    H7 7135   3.475   1.679  14.947 -1.3531 -1.8097  0.0956
  480TMC3    C1 7136   3.633   1.725  15.580  0.2143  0.1722 -0.6523
  480TMC3    C2 7137   3.563   1.850  15.557  0.1916 -0.5896 -0.0522
  480TMC3    C3 7138   3.610   1.929  15.456 -0.8956 -1.0313 -0.6904
  480TMC3    C4 7139   3.752   1.694  15.529 -0.6719  0.4433 -0.2568
  480TMC3    C5 7140   3.803   1.788  15.437 -0.5777  0.3429  0.2883
  480TMC3    C6 7141   3.723   1.893  15.391 -0.2067  0.2830  1.1191
  480TMC3     C 7142   3.575   1.632  15.671  0.6830 -0.1601 -0.2786
  480TMC3     O 7143   3.651   1.554  15.731 -0.5581 -0.8175  0.2235
  480TMC3     H 7144   3.470   1.875  15.605  0.6544  1.9700 -0.4406
  480TMC3    H1 7145   3.812   1.607  15.554  0.1483  1.2114  0.4598
  480TMC3    H2 7146   3.772   1.959  15.319 -0.5405  0.4961  1.0889
  480TMC3    C7 7147   3.936   1.771  15.384 -0.2930  0.4517  0.1157
  480TMC3    C8 7148   3.510   2.001  15.391 -0.3584  0.2306  0.3842
  480TMC3    O1 7149   4.030   1.748  15.458  0.0106  0.4022 -0.7117
  480TMC3    O2 7150   3.432   2.068  15.452 -1.1451 -0.1051 -0.1525
  481MPD2     C 7151   0.339   1.165  14.197 -0.0024  0.2344 -0.6622
  481MPD2    C1 7152   0.256   1.068  14.246  0.0619 -0.3247  0.2273
  481MPD2    C2 7153   0.270   1.021  14.373 -0.5405  0.1759 -0.2869
  481MPD2    C3 7154   0.384   1.054  14.442  0.4795 -0.1036  0.1653
  481MPD2    C4 7155   0.472   1.146  14.391  0.0390  0.5222 -0.2414
  481MPD2    C5 7156   0.451   1.197  14.270 -0.3386 -0.1029 -0.1998
  481MPD2     H 7157   0.208   0.942  14.412  1.4502 -0.6489  1.2028
  481MPD2    H1 7158   0.558   1.177  14.450  0.6885  5.0209 -3.5520
  481MPD2    H2 7159   0.323   1.205  14.098  2.2028  1.5178 -0.5143
  481MPD2    H3 7160   0.521   1.266  14.225  2.6664 -3.7327 -1.0635
  481MPD2     N 7161   0.407   1.010  14.579 -0.2364  0.0008  0.2919
  481MPD2    H5 7162   0.482   1.064  14.619 -0.6046  0.7822 -0.0697
  481MPD2    N1 7163   0.146   1.039  14.155 -0.2752  0.0451 -0.1930
  481MPD2    H7 7164   0.145   1.091  14.068  1.3753  0.6864  0.1781
  482TMC3    C1 7165   4.655   0.965  14.098 -0.0637  0.1370 -0.4299
  482TMC3    C2 7166   4.565   0.866  14.093 -0.5828  0.1215  0.1291
  482TMC3    C3 7167   4.449   0.877  14.030 -0.3137  0.0333 -0.3322
  482TMC3    C4 7168   4.618   1.082  14.047 -0.4928  0.6697  0.3245
  482TMC3    C5 7169   4.495   1.096  13.989  0.2352  0.5138 -0.9067
  482TMC3    C6 7170   4.409   0.998  13.977  0.2186  1.0783  0.2927
  482TMC3     C 7171   0.044   0.953  14.190 -0.1527  0.2504 -0.4852
  482TMC3     O 7172   0.036   0.866  14.276  0.4616  0.0436 -0.3404
  482TMC3     H 7173   4.587   0.779  14.153 -2.2740  0.4347  1.1817
  482TMC3    H1 7174   4.684   1.168  14.046  1.2918 -0.6734  2.6064
  482TMC3    H2 7175   4.312   1.014  13.933  0.6048 -0.2959 -1.0419
  482TMC3    C7 7176   4.460   1.196  13.898 -0.0182 -0.7026  0.2399
  482TMC3    C8 7177   4.385   0.744  13.991 -0.5201  0.7957 -0.5969
  482TMC3    O1 7178   4.342   1.237  13.902 -0.1689  0.3545 -0.4201
  482TMC3    O2 7179   4.435   0.637  14.028  0.0403  0.5676  0.1005
  483TMC3    C1 7180   2.811   0.176   0.739  0.2962 -0.2990  0.2459
  483TMC3    C2 7181   2.882   0.293   0.720  0.2102 -0.0213  0.0313
  483TMC3    C3 7182   2.990   0.321   0.806 -0.0677  0.6134 -0.4420
  483TMC3    C4 7183   2.846   0.092   0.844 -0.0014  0.1559  0.1748
  483TMC3    C5 7184   2.953   0.118   0.919 -0.4026  0.4448  0.2787
  483TMC3    C6 7185   3.025   0.230   0.904 -0.8260  0.3130  0.4247
  483TMC3     C 7186   2.704   0.143   0.646  0.9820  0.4075  0.4587
  483TMC3     O 7187   2.660   0.233   0.577 -0.4671  0.3578 -0.5376
  483TMC3     H 7188   2.860   0.347   0.629 -4.0105 -1.3998  0.2445
  483TMC3    H1 7189   2.785   0.011   0.882 -2.2219  1.4263 -0.6495
  483TMC3    H2 7190   3.115   0.255   0.959 -1.8535  3.4512  0.6542
  483TMC3    C7 7191   3.032   0.009   0.983  0.5443  0.4873 -0.8090
  483TMC3    C8 7192   3.098   0.399   0.745  0.3780 -0.2300  0.0777
  483TMC3    O1 7193   3.126   0.043   1.058  1.1235  0.7462  0.6289
  483TMC3    O2 7194   3.210   0.363   0.775  1.1328 -0.6791  0.5962
  484MPD2     C 7195   0.741   3.363  12.269 -0.3411 -0.0215  0.1202
  484MPD2    C1 7196   0.813   3.265  12.331  0.1359  0.2140  0.6480
  484MPD2    C2 7197   0.949   3.256  12.304 -0.1664 -0.7552 -0.8192
  484MPD2    C3 7198   1.004   3.340  12.213  0.0787 -0.4038  0.8558
  484MPD2    C4 7199   0.937   3.445  12.156  0.1798  0.1397  0.4708
  484MPD2    C5 7200   0.804   3.456  12.183 -0.1780  0.4643 -0.1931
  484MPD2     H 7201   1.007   3.180  12.354 -0.0881 -1.1018 -1.4436
  484MPD2    H1 7202   0.984   3.509  12.082  1.7714 -2.8752 -1.1556
  484MPD2    H2 7203   0.638   3.367  12.302  0.0271  1.9592  1.0503
  484MPD2    H3 7204   0.745   3.529  12.129  0.6016 -0.9543 -2.9341
  484MPD2     N 7205   1.141   3.315  12.174 -0.2617 -0.4244 -0.3791
  484MPD2    H5 7206   1.167   3.364  12.090  1.7749 -0.6814  0.0963
  484MPD2    N1 7207   0.742   3.166  12.414 -0.7160 -0.4833 -0.2739
  484MPD2    H7 7208   0.641   3.161  12.408 -0.7618  0.8856 -0.8032
  485TMC3    C1 7209   1.356   3.224  12.146 -0.5911 -0.1070 -0.5295
  485TMC3    C2 7210   1.472   3.178  12.206  0.4642  0.2155  0.6700
  485TMC3    C3 7211   1.574   3.139  12.128 -0.4925  0.3174 -0.2789
  485TMC3    C4 7212   1.338   3.217  12.013 -0.3480 -0.3283  0.0467
  485TMC3    C5 7213   1.438   3.172  11.932 -0.0769  0.2562 -0.7691
  485TMC3    C6 7214   1.555   3.132  11.989  0.0014 -1.1424 -0.0328
  485TMC3     C 7215   1.237   3.227  12.232  0.4299  0.5259 -0.1296
  485TMC3     O 7216   1.244   3.179  12.343  0.0647  0.0489  0.6024
  485TMC3     H 7217   1.468   3.147  12.309 -0.4432 -0.4358  0.4336
  485TMC3    H1 7218   1.240   3.237  11.969 -1.6436  1.2852  3.6962
  485TMC3    H2 7219   1.631   3.097  11.921  0.1081 -0.5705 -0.2105
  485TMC3    C7 7220   1.407   3.112  11.803  0.5953  0.0871  0.0540
  485TMC3    C8 7221   1.626   3.000  12.142  0.0949 -0.1617  0.3864
  485TMC3    O1 7222   1.317   3.153  11.734 -0.1730 -1.3272  0.9448
  485TMC3    O2 7223   1.566   2.922  12.070 -1.0562  0.5439 -0.0211
  486MPD2     C 7224   3.009   1.867  12.587  0.3912  0.1746  0.0234
  486MPD2    C1 7225   2.876   1.833  12.589  0.1563  0.0180 -0.0689
  486MPD2    C2 7226   2.784   1.937  12.561 -0.8684 -0.1900 -0.0629
  486MPD2    C3 7227   2.833   2.064  12.528 -0.2929  0.6714 -0.6216
  486MPD2    C4 7228   2.965   2.093  12.533 -0.4471  0.7548 -0.3579
  486MPD2    C5 7229   3.051   1.996  12.559 -0.3380  0.0128 -0.4589
  486MPD2     H 7230   2.678   1.919  12.552 -1.1661  0.9552  1.2307
  486MPD2    H1 7231   3.000   2.188  12.493  0.1061  1.2390  1.2657
  486MPD2    H2 7232   3.095   1.803  12.600 -0.7765 -1.5803 -0.9159
  486MPD2    H3 7233   3.157   2.019  12.553 -0.0792 -1.4102 -1.3053
  486MPD2     N 7234   2.732   2.158  12.475 -0.0750  0.6348 -0.4723
  486MPD2    H5 7235   2.644   2.113  12.450  1.3650 -2.7209  0.4907
  486MPD2    N1 7236   2.847   1.698  12.609 -0.1284 -0.2364  0.0487
  486MPD2    H7 7237   2.917   1.634  12.644  1.1887  1.0310 -0.3122
  487TMC3    C1 7238   2.714   1.489  12.611  0.5871 -0.0633  0.8567
  487TMC3    C2 7239   2.588   1.434  12.603 -0.4588 -0.1828 -0.3805
  487TMC3    C3 7240   2.563   1.311  12.658 -0.7558  0.5858 -0.7246
  487TMC3    C4 7241   2.809   1.431  12.694  0.1466 -0.2621  0.1687
  487TMC3    C5 7242   2.778   1.306  12.756  0.1405 -0.5571 -0.7915
  487TMC3    C6 7243   2.659   1.248  12.733  0.3541 -0.1661  0.7624
  487TMC3     C 7244   2.728   1.637  12.582  0.2100 -0.8079  0.1794
  487TMC3     O 7245   2.625   1.705  12.566 -0.3921  0.0681 -0.1393
  487TMC3     H 7246   2.508   1.499  12.570 -0.3754  0.2703  0.3157
  487TMC3    H1 7247   2.907   1.475  12.703  0.0603 -0.0536  0.1003
  487TMC3    H2 7248   2.638   1.144  12.757  3.1052 -0.9608 -0.2330
  487TMC3    C7 7249   2.838   1.283  12.885 -0.3432  0.5599  0.5371
  487TMC3    C8 7250   2.437   1.272  12.701 -0.1183 -0.3099 -0.0866
  487TMC3    O1 7251   2.881   1.378  12.950 -0.2469 -0.1091 -0.4342
  487TMC3    O2 7252   2.430   1.190  12.793 -0.3999 -0.1028 -0.1581
  488MPD2     C 7253   3.598   3.272  16.765  0.6218  0.1022 -0.1520
  488MPD2    C1 7254   3.531   3.390  16.741  0.2557 -0.4444 -0.4899
  488MPD2    C2 7255   3.502   3.479  16.848  0.1107  0.7081 -0.3190
  488MPD2    C3 7256   3.534   3.438  16.976 -0.0292  0.1128 -0.5359
  488MPD2    C4 7257   3.590   3.320  17.000  0.9990  0.0395 -0.7845
  488MPD2    C5 7258   3.630   3.242  16.895 -0.0601 -0.3246  0.2188
  488MPD2     H 7259   3.447   3.570  16.830  0.7381  1.4395  1.4895
  488MPD2    H1 7260   3.617   3.283  17.099 -0.2622 -1.2375 -0.9285
  488MPD2    H2 7261   3.628   3.199  16.690 -1.3392 -0.3510 -0.5020
  488MPD2    H3 7262   3.686   3.149  16.907  1.0045  0.3145  0.1832
  488MPD2     N 7263   3.500   3.520  17.081 -0.1671  0.2364  0.3771
  488MPD2    H5 7264   3.432   3.594  17.067 -1.8322 -1.1757  1.0434
  488MPD2    N1 7265   3.501   3.438  16.611  0.3845 -0.1844  0.2986
  488MPD2    H7 7266   3.454   3.528  16.601  1.4617  0.3877  0.4337
  489TMC3    C1 7267   3.497   3.599  17.300  0.8669 -0.6287 -0.7098
  489TMC3    C2 7268   3.378   3.670  17.277 -0.9239  0.1268  0.4713
  489TMC3    C3 7269   3.344   3.769  17.367  0.0835  0.6907  0.4704
  489TMC3    C4 7270   3.569   3.623  17.415 -0.1223  0.0176 -0.0585
  489TMC3    C5 7271   3.529   3.717  17.504 -0.4148  0.1416  0.0527
  489TMC3    C6 7272   3.418   3.785  17.484  0.4307  0.9374 -0.5254
  489TMC3     C 7273   3.533   3.493  17.214 -0.2133  0.0097  0.2975
  489TMC3     O 7274   3.613   3.423  17.274  0.6815 -0.1168  0.3673
  489TMC3     H 7275   3.308   3.647  17.197 -0.6416 -1.6326  0.7394
  489TMC3    H1 7276   3.662   3.571  17.433  0.4977  0.3555 -2.3007
  489TMC3    H2 7277   3.388   3.862  17.555  1.1801  0.8533 -0.1134
  489TMC3    C7 7278   3.607   3.747  17.619  0.0582 -0.6346 -0.2289
  489TMC3    C8 7279   3.282   3.892  17.324  0.0438  0.1212 -0.2215
  489TMC3    O1 7280   3.623   3.865  17.647  0.1125 -0.0863 -0.1791
  489TMC3    O2 7281   3.268   3.990  17.397  0.1789 -0.8088 -0.4785
  490MPD2     C 7282   4.384   3.036  17.153 -0.8040  0.0772  0.7738
  490MPD2    C1 7283   4.381   2.923  17.225  0.9704  1.0027  0.7702
  490MPD2    C2 7284   4.437   2.920  17.347 -0.6805 -0.4370  0.4909
  490MPD2    C3 7285   4.516   3.035  17.388 -0.1732  0.2994  0.2615
  490MPD2    C4 7286   4.530   3.147  17.306 -0.1977  0.8972  0.1647
  490MPD2    C5 7287   4.461   3.151  17.192  0.3203 -0.6140  0.6756
  490MPD2     H 7288   4.422   2.838  17.417 -0.1002 -0.4606  0.5938
  490MPD2    H1 7289   4.589   3.235  17.326  0.1578  0.5986  0.4359
  490MPD2    H2 7290   4.329   3.056  17.062  0.7065 -0.7932 -0.3166
  490MPD2    H3 7291   4.464   3.241  17.132 -0.7252  0.7373  2.6716
  490MPD2     N 7292   4.579   3.048  17.517  0.4836 -0.3705  0.1086
  490MPD2    H5 7293   4.633   3.134  17.526  0.8842 -0.5315 -0.7790
  490MPD2    N1 7294   4.309   2.811  17.179  0.2418  0.5621 -0.2334
  490MPD2    H7 7295   4.318   2.727  17.235 -2.9604 -0.7248 -1.6630
  491TMC3    C1 7296   4.159   2.678  17.059  0.4126  0.7282  0.2392
  491TMC3    C2 7297   4.143   2.598  17.170  0.6632  0.9205 -0.2995
  491TMC3    C3 7298   4.086   2.479  17.152 -0.0760 -0.4397 -0.0296
  491TMC3    C4 7299   4.106   2.644  16.936 -0.6652  0.5207  0.5746
  491TMC3    C5 7300   4.063   2.517  16.921 -0.4411  0.2072  0.3550
  491TMC3    C6 7301   4.046   2.432  17.031  0.4658 -0.0374  0.5420
  491TMC3     C 7302   4.225   2.808  17.067  0.4450  0.6257  0.4262
  491TMC3     O 7303   4.210   2.886  16.977 -1.0908 -0.5242 -0.0468
  491TMC3     H 7304   4.162   2.636  17.270 -0.6246  1.1823 -0.1613
  491TMC3    H1 7305   4.095   2.717  16.856  2.5047 -0.4461 -0.7215
  491TMC3    H2 7306   4.043   2.325  17.018  0.2239  0.0948 -0.4944
  491TMC3    C7 7307   4.001   2.461  16.800  0.0954 -0.3033 -0.4059
  491TMC3    C8 7308   4.035   2.411  17.271  0.5351  0.0319 -0.1970
  491TMC3    O1 7309   4.004   2.339  16.797  0.1164 -0.2415 -0.1091
  491TMC3    O2 7310   4.077   2.454  17.380 -0.2979 -0.0014 -0.3999
  492MPD2     C 7311   4.089   2.933  10.259  0.0125  0.1389 -0.1176
  492MPD2    C1 7312   4.057   2.800  10.273  0.0902  0.0305  0.0944
  492MPD2    C2 7313   4.104   2.731  10.385 -0.1288 -0.1938  0.2555
  492MPD2    C3 7314   4.190   2.795  10.478 -0.5007  0.1686  0.2925
  492MPD2    C4 7315   4.230   2.925  10.444 -0.2087 -0.4698 -0.4488
  492MPD2    C5 7316   4.183   2.994  10.337  0.3200 -0.5236  0.0609
  492MPD2     H 7317   4.067   2.629  10.392 -3.4640  0.9653 -0.3223
  492MPD2    H1 7318   4.303   2.978  10.504  0.8086 -2.4149  0.0469
  492MPD2    H2 7319   4.060   2.995  10.176  0.5046  1.0114  0.3581
  492MPD2    H3 7320   4.221   3.095  10.326 -1.8521  0.1512 -1.2959
  492MPD2     N 7321   4.238   2.745  10.598 -0.0672 -0.0469  0.0633
  492MPD2    H5 7322   4.288   2.807  10.661 -0.8286  1.7622 -1.1159
  492MPD2    N1 7323   3.955   2.756  10.181  0.3223 -0.0954  0.7572
  492MPD2    H7 7324   3.923   2.826  10.115 -2.0884 -1.8937  0.0504
  493TMC3    C1 7325   3.791   2.614  10.079 -0.4675 -0.0660 -0.0597
  493TMC3    C2 7326   3.790   2.701   9.967  0.1984 -0.6376 -0.3071
  493TMC3    C3 7327   3.692   2.678   9.874 -0.0181 -0.3712  0.3537
  493TMC3    C4 7328   3.700   2.511  10.091  0.5046 -0.3081  0.4111
  493TMC3    C5 7329   3.601   2.508  10.001 -0.8616 -0.0026 -1.2551
  493TMC3    C6 7330   3.589   2.592   9.892 -0.3172  0.2016 -0.2320
  493TMC3     C 7331   3.894   2.628  10.181 -0.4804 -0.2816 -0.3274
  493TMC3     O 7332   3.917   2.523  10.244  0.1527 -0.3858 -0.6329
  493TMC3     H 7333   3.876   2.765   9.953 -1.8435  2.1890  0.1851
  493TMC3    H1 7334   3.704   2.442  10.174 -0.2729 -0.2220  0.5231
  493TMC3    H2 7335   3.502   2.586   9.828  0.7975 -1.0507 -1.6277
  493TMC3    C7 7336   3.468   2.456  10.045 -1.1911  0.4900 -0.7378
  493TMC3    C8 7337   3.674   2.784   9.777 -0.6013  0.3152  0.2498
  493TMC3    O1 7338   3.371   2.507   9.998  0.2527 -0.3483 -0.6703
  493TMC3    O2 7339   3.588   2.757   9.690 -0.6211  0.2488  0.1684
  494TMC3    C1 7340   0.614   4.532   0.603  0.3040 -0.1969 -0.2848
  494TMC3    C2 7341   0.654   4.405   0.570  0.0233 -0.4680 -0.0936
  494TMC3    C3 7342   0.666   4.367   0.439  0.0999  0.2102  1.2029
  494TMC3    C4 7343   0.563   4.612   0.504  0.1262 -0.6557  0.9315
  494TMC3    C5 7344   0.576   4.570   0.374  0.4120 -0.0232 -0.7333
  494TMC3    C6 7345   0.629   4.450   0.340  0.0814 -0.1012  0.1908
  494TMC3     C 7346   0.605   4.565   0.744  0.2160  0.8037  0.0776
  494TMC3     O 7347   0.609   4.475   0.827 -0.0410 -0.2650 -0.1321
  494TMC3     H 7348   0.698   4.335   0.641  0.6682 -0.1824 -0.2085
  494TMC3    H1 7349   0.524   4.709   0.534 -1.0537 -0.5982 -0.7770
  494TMC3    H2 7350   0.622   4.411   0.239 -0.3393  0.9371 -0.1760
  494TMC3    C7 7351   0.529   4.654   0.260 -0.7432 -0.1997  0.5885
  494TMC3    C8 7352   0.732   4.242   0.408  0.3675  0.1251 -0.5134
  494TMC3    O1 7353   0.513   4.601   0.154 -0.4272 -0.1038  0.0085
  494TMC3    O2 7354   0.705   4.145   0.478 -0.0462 -0.5562 -0.1130
  495TMC3    C1 7355   3.688   2.067  14.436  0.3635  0.0153 -1.2178
  495TMC3    C2 7356   3.587   2.084  14.349  0.0322 -0.3975  0.7568
  495TMC3    C3 7357   3.459   2.094  14.399  0.1324 -0.1258 -0.3639
  495TMC3    C4 7358   3.670   2.098  14.566  0.9052 -0.3545 -0.3088
  495TMC3    C5 7359   3.540   2.117  14.610 -0.2820  0.0189 -0.1512
  495TMC3    C6 7360   3.433   2.127  14.526  0.2971 -0.2824 -0.0557
  495TMC3     C 7361   3.744   1.931  14.416 -0.5714  0.2398  1.1036
  495TMC3     O 7362   3.677   1.856  14.345  0.0472 -0.2714  0.0893
  495TMC3     H 7363   3.603   2.052  14.247  0.6108 -1.6976  1.2434
  495TMC3    H1 7364   3.754   2.080  14.633  0.0546 -0.7357  0.6508
  495TMC3    H2 7365   3.327   2.135  14.544 -0.1764 -0.5889 -2.7003
  495TMC3    C7 7366   3.531   2.090  14.752 -0.1300  0.6941  0.2551
  495TMC3    C8 7367   3.352   2.040  14.316  0.8538  0.7944 -0.4709
  495TMC3    O1 7368   3.639   2.079  14.813  0.0086 -0.2616  0.8515
  495TMC3    O2 7369   3.240   2.088  14.320  0.0711 -0.0987 -0.2604
  496MPD2     C 7370   0.558   2.188  14.915 -0.4423  0.0034 -0.5504
  496MPD2    C1 7371   0.649   2.169  15.013  0.4772  0.2086  0.2894
  496MPD2    C2 7372   0.619   2.071  15.111  0.1001  0.2608 -0.1179
  496MPD2    C3 7373   0.520   1.973  15.085  0.4035  0.3778  0.2658
  496MPD2    C4 7374   0.442   1.983  14.972 -0.4864 -0.1531 -0.1754
  496MPD2    C5 7375   0.466   2.087  14.890 -0.2041  1.1518 -0.9912
  496MPD2     H 7376   0.680   2.069  15.201  0.3806  1.9239 -0.2686
  496MPD2    H1 7377   0.355   1.925  14.944 -0.7185  0.8900 -1.6221
  496MPD2    H2 7378   0.561   2.273  14.848 -2.3953  0.1599 -0.4296
  496MPD2    H3 7379   0.396   2.112  14.811 -2.0205  1.6925  0.7911
  496MPD2     N 7380   0.490   1.875  15.181  0.4364 -0.1927 -0.3887
  496MPD2    H5 7381   0.421   1.803  15.162  0.9813 -1.2383  1.6266
  496MPD2    N1 7382   0.757   2.270  15.023  0.5979  0.4859 -0.5273
  496MPD2    H7 7383   0.759   2.330  14.941 -1.3468  1.0138 -0.1761
  497TMC3    C1 7384   0.510   1.729  15.353 -0.9199 -0.1331  0.2837
  497TMC3    C2 7385   0.461   1.632  15.269 -0.0074  0.3663 -0.2356
  497TMC3    C3 7386   0.433   1.513  15.334  0.0956  0.2613 -0.1545
  497TMC3    C4 7387   0.539   1.714  15.484 -0.3085 -0.3434  0.2567
  497TMC3    C5 7388   0.506   1.593  15.536 -0.1924  1.0431 -0.1745
  497TMC3    C6 7389   0.449   1.495  15.468 -0.1346 -0.1695 -0.0388
  497TMC3     C 7390   0.545   1.856  15.307 -0.0846 -0.3776 -0.1969
  497TMC3     O 7391   0.627   1.928  15.366  0.0650 -0.1471 -0.0376
  497TMC3     H 7392   0.429   1.654  15.168  0.2101 -1.1517 -0.6449
  497TMC3    H1 7393   0.587   1.788  15.548 -1.3541  2.6858 -2.4604
  497TMC3    H2 7394   0.432   1.396  15.507 -2.3108  0.0875 -0.3074
  497TMC3    C7 7395   0.495   1.572  15.677 -0.7359  0.3985 -1.0844
  497TMC3    C8 7396   0.356   1.405  15.267  0.8914  0.1984 -0.2726
  497TMC3    O1 7397   0.388   1.533  15.720 -0.2655  0.2008  0.3849
  497TMC3    O2 7398   0.273   1.340  15.326 -0.0198 -0.2263 -0.6854
  498MPD2     C 7399   0.851   3.193  10.359  0.1790  0.3331  0.0385
  498MPD2    C1 7400   0.897   3.213  10.231 -0.4892 -0.0544  0.0368
  498MPD2    C2 7401   0.869   3.114  10.133  0.1754  0.6487  0.8292
  498MPD2    C3 7402   0.802   2.995  10.167 -0.5600 -0.0648  0.1663
  498MPD2    C4 7403   0.759   2.977  10.292  0.4189 -0.1237  0.6461
  498MPD2    C5 7404   0.782   3.073  10.384  0.0117  0.1739 -0.2859
  498MPD2     H 7405   0.904   3.142  10.034  2.0142  0.7264  1.4937
  498MPD2    H1 7406   0.708   2.885  10.316  0.3932  0.1368  1.6158
  498MPD2    H2 7407   0.860   3.267  10.437  0.0647 -0.3202  0.6705
  498MPD2    H3 7408   0.734   3.056  10.480  0.4507  1.8722  0.2322
  498MPD2     N 7409   0.787   2.903  10.059  0.3181 -0.1417  0.1381
  498MPD2    H5 7410   0.811   2.933   9.965 -0.2934  0.2262  0.1016
  498MPD2    N1 7411   0.960   3.325  10.178  0.2142 -0.1087  0.4012
  498MPD2    H7 7412   0.987   3.325  10.080 -0.8667  0.6536  0.1155
  499TMC3    C1 7413   1.086   3.509  10.170 -0.8358  0.5656  0.7145
  499TMC3    C2 7414   1.104   3.470  10.036  0.4189 -0.1614 -0.5594
  499TMC3    C3 7415   1.182   3.552   9.966  0.2782 -0.1314 -0.5198
  499TMC3    C4 7416   1.151   3.616  10.225  0.3581 -0.2599 -0.4547
  499TMC3    C5 7417   1.226   3.691  10.146  0.1158  0.3966  0.4378
  499TMC3    C6 7418   1.238   3.667  10.011  0.0431  0.2387 -0.1192
  499TMC3     C 7419   1.003   3.429  10.257  0.0626 -0.8350 -0.1128
  499TMC3     O 7420   0.987   3.452  10.376  0.0832 -0.1415  0.1810
  499TMC3     H 7421   1.077   3.380   9.982 -0.8970 -0.5870  0.8071
  499TMC3    H1 7422   1.131   3.634  10.330  3.8900 -2.0935  0.5677
  499TMC3    H2 7423   1.309   3.727   9.955 -0.2896 -1.5434 -2.4270
  499TMC3    C7 7424   1.183   3.824  10.162  0.4408  0.7631  0.6636
  499TMC3    C8 7425   1.171   3.537   9.820  0.3670 -1.2332 -0.2730
  499TMC3    O1 7426   1.147   3.874  10.060 -0.0813  0.7075 -0.1788
  499TMC3    O2 7427   1.138   3.430   9.780 -0.0487 -0.7806  0.7648
  500MPD2     C 7428   2.886   4.144   9.870 -0.0367  0.2450 -0.4289
  500MPD2    C1 7429   2.853   4.197   9.991  0.1859 -0.4020 -0.1706
  500MPD2    C2 7430   2.722   4.248  10.011  0.3200  0.3513  0.2724
  500MPD2    C3 7431   2.619   4.227   9.921  0.2887 -0.4321 -0.6504
  500MPD2    C4 7432   2.654   4.163   9.796 -0.2906 -0.2533  0.3123
  500MPD2    C5 7433   2.784   4.123   9.781 -0.1489 -0.3574  1.0643
  500MPD2     H 7434   2.707   4.300  10.105 -0.8526  1.3396 -0.4655
  500MPD2    H1 7435   2.587   4.141   9.714 -0.6519  1.8043  0.0632
  500MPD2    H2 7436   2.978   4.094   9.841 -0.0277 -1.4936  2.6095
  500MPD2    H3 7437   2.804   4.080   9.683  0.1289 -0.9444  1.3770
  500MPD2     N 7438   2.496   4.286   9.950  0.0726  0.0470 -0.0520
  500MPD2    H5 7439   2.484   4.322  10.044  1.7742  0.6146 -0.0490
  500MPD2    N1 7440   2.952   4.224  10.089 -0.2176  0.1881 -0.0169
  500MPD2    H7 7441   2.927   4.283  10.169  0.8037  1.0872 -0.3650
  501TMC3    C1 7442   3.152   4.225  10.201 -0.3059  0.1654 -0.0347
  501TMC3    C2 7443   3.142   4.357  10.225 -0.0448  0.2532  0.5824
  501TMC3    C3 7444   3.214   4.409  10.324 -0.8063  0.0302 -1.0507
  501TMC3    C4 7445   3.234   4.135  10.265 -0.0994 -0.1271  0.5860
  501TMC3    C5 7446   3.303   4.195  10.373  0.3880 -0.5485 -0.2494
  501TMC3    C6 7447   3.290   4.328  10.404  0.3626 -0.0088 -0.5201
  501TMC3     C 7448   3.078   4.169  10.089  0.1248  0.0417  0.1284
  501TMC3     O 7449   3.116   4.065  10.035 -0.2723 -0.7120 -0.1857
  501TMC3     H 7450   3.091   4.415  10.149  1.6726  0.3821 -0.4743
  501TMC3    H1 7451   3.244   4.029  10.242  0.9171  0.2437 -0.7049
  501TMC3    H2 7452   3.349   4.372  10.483 -1.0419  2.0564 -0.5995
  501TMC3    C7 7453   3.440   4.140  10.399  0.2049  0.0936  0.1004
  501TMC3    C8 7454   3.296   4.532  10.296 -0.2032  0.3939  0.0188
  501TMC3    O1 7455   3.456   4.017  10.391 -0.1752  0.3188  0.1542
  501TMC3    O2 7456   3.412   4.523  10.340  0.1236  0.2452  0.0112
  502TMC3    C1 7457   2.914   2.296  14.974  0.3013 -1.2966 -0.1586
  502TMC3    C2 7458   2.890   2.403  14.890  0.2211 -0.7064 -0.2297
  502TMC3    C3 7459   2.763   2.448  14.874 -0.2133  0.4842 -0.8127
  502TMC3    C4 7460   2.804   2.223  15.022  0.6535  0.2116  0.2054
  502TMC3    C5 7461   2.674   2.263  14.993  0.0172 -0.7324 -0.1355
  502TMC3    C6 7462   2.655   2.376  14.912  0.6394  0.3488 -0.5970
  502TMC3     C 7463   2.995   2.333  15.082  0.0512 -0.0825 -0.2123
  502TMC3     O 7464   3.115   2.363  15.070 -0.2325 -0.2520  0.0444
  502TMC3     H 7465   2.967   2.471  14.856  0.8010 -2.0485 -1.6108
  502TMC3    H1 7466   2.808   2.132  15.080 -1.1241  0.1468  0.2253
  502TMC3    H2 7467   2.558   2.421  14.900 -0.2107 -1.1021  0.8806
  502TMC3    C7 7468   2.575   2.237  15.095  0.5569  0.1212 -0.4498
  502TMC3    C8 7469   2.737   2.592  14.869 -0.5732  0.3410 -0.5310
  502TMC3    O1 7470   2.623   2.187  15.196  0.0991 -0.4884 -0.2062
  502TMC3    O2 7471   2.806   2.649  14.786  0.5785  0.2783 -0.4977
  503MPD2     C 7472   0.364   3.631  16.714 -0.0969 -0.4867  0.2735
  503MPD2    C1 7473   0.446   3.670  16.820 -0.1188 -0.5162  0.6330
  503MPD2    C2 7474   0.518   3.580  16.898  0.0488  0.1568 -0.4943
  503MPD2    C3 7475   0.523   3.447  16.868  0.6863 -0.0331 -0.4828
  503MPD2    C4 7476   0.450   3.404  16.756  0.2202  0.3993  0.5661
  503MPD2    C5 7477   0.366   3.497  16.689  0.3660 -0.7439 -0.4252
  503MPD2     H 7478   0.565   3.621  16.987 -0.2483  0.3118 -0.4085
  503MPD2    H1 7479   0.452   3.302  16.719 -0.2111  1.1205 -1.4338
  503MPD2    H2 7480   0.311   3.698  16.647  1.9639  1.3089  0.4320
  503MPD2    H3 7481   0.313   3.455  16.604 -1.4356  2.1719 -0.7534
  503MPD2     N 7482   0.602   3.360  16.945  0.2623 -0.2697 -0.7295
  503MPD2    H5 7483   0.643   3.399  17.029  0.2454  2.0889 -1.8090
  503MPD2    N1 7484   0.455   3.803  16.855  0.0398 -0.3460 -0.5023
  503MPD2    H7 7485   0.502   3.817  16.944  0.2338  0.0223 -0.6636
  504TMC3    C1 7486   0.736   3.187  16.993 -0.2850 -0.3420  0.2505
  504TMC3    C2 7487   0.717   3.198  17.128 -0.1460  0.4200  0.3267
  504TMC3    C3 7488   0.812   3.138  17.207  0.3592  0.4232  0.0631
  504TMC3    C4 7489   0.835   3.107  16.935  0.1331  0.3640 -0.2492
  504TMC3    C5 7490   0.927   3.053  17.020 -0.0113  0.0077 -0.3277
  504TMC3    C6 7491   0.915   3.060  17.154  0.9678  0.3926  0.1646
  504TMC3     C 7492   0.644   3.239  16.901  0.0235  0.0296  0.3137
  504TMC3     O 7493   0.629   3.181  16.795  0.4563  0.7500 -0.4336
  504TMC3     H 7494   0.631   3.252  17.166 -0.5182  0.4209 -0.5183
  504TMC3    H1 7495   0.848   3.094  16.829  0.6105 -0.4987 -0.0875
  504TMC3    H2 7496   0.982   3.009  17.222 -1.1919 -1.9537  0.5203
  504TMC3    C7 7497   1.010   2.950  16.959 -0.0520 -0.4735 -0.2940
  504TMC3    C8 7498   0.753   3.091  17.332  1.6554 -0.5961 -0.0907
  504TMC3    O1 7499   1.049   2.969  16.841 -0.3067  0.0629  0.0239
  504TMC3    O2 7500   0.631   3.096  17.331 -0.0035  0.1870  0.5280
  505MPD2     C 7501   0.477   1.628   9.665  0.9874  0.2130 -1.8274
  505MPD2    C1 7502   0.538   1.642   9.543 -0.4981 -0.0136 -0.7725
  505MPD2    C2 7503   0.678   1.625   9.551 -0.0900  0.0022  0.0328
  505MPD2    C3 7504   0.758   1.606   9.658  0.0421  0.2041 -0.7233
  505MPD2    C4 7505   0.686   1.597   9.782 -0.1542 -0.0047 -0.5672
  505MPD2    C5 7506   0.545   1.596   9.778  0.0336  0.1543 -0.1095
  505MPD2     H 7507   0.723   1.619   9.453 -2.1781  0.1833 -0.9479
  505MPD2    H1 7508   0.743   1.590   9.874  1.4887 -0.4883 -1.6191
  505MPD2    H2 7509   0.369   1.627   9.678  0.8135 -0.8544 -3.3706
  505MPD2    H3 7510   0.499   1.579   9.874  0.0559 -1.9164 -0.4652
  505MPD2     N 7511   0.899   1.609   9.640 -0.7538 -0.9003 -0.5108
  505MPD2    H5 7512   0.925   1.618   9.542 -0.0747 -1.6323 -0.4025
  505MPD2    N1 7513   0.465   1.685   9.434  0.1567 -0.5441 -0.0504
  505MPD2    H7 7514   0.373   1.727   9.447  0.9026  0.3193  2.3310
  506TMC3    C1 7515   0.437   1.761   9.215 -0.1470 -0.1453  0.0679
  506TMC3    C2 7516   0.381   1.877   9.258  0.7373 -0.4898  0.5502
  506TMC3    C3 7517   0.353   1.979   9.164  0.6732  0.3900 -0.5598
  506TMC3    C4 7518   0.471   1.747   9.083 -0.0292  0.1064  0.4340
  506TMC3    C5 7519   0.456   1.849   8.993 -0.2052  0.0095  0.1175
  506TMC3    C6 7520   0.389   1.966   9.032 -0.4880  0.3060  0.2701
  506TMC3     C 7521   0.512   1.677   9.299 -1.1035  0.3334  0.1474
  506TMC3     O 7522   0.611   1.626   9.256 -0.3241 -0.9201 -0.3464
  506TMC3     H 7523   0.337   1.888   9.357 -0.1494  0.6836  0.0310
  506TMC3    H1 7524   0.517   1.656   9.047  0.2790  1.3951 -2.4305
  506TMC3    H2 7525   0.373   2.049   8.964 -0.7851  0.4539  0.5238
  506TMC3    C7 7526   0.591   1.875   8.944 -0.9097  0.5058 -0.1972
  506TMC3    C8 7527   0.296   2.101   9.210  0.6623  0.4062 -0.8466
  506TMC3    O1 7528   0.595   1.964   8.856 -0.3984 -0.3169 -0.1970
  506TMC3    O2 7529   0.220   2.154   9.129  0.4844  0.2918 -0.3940
  507TMC3    C1 7530   1.881   3.652  14.268 -0.5448  0.4189 -0.2507
  507TMC3    C2 7531   1.944   3.710  14.161  0.2066 -0.1829  0.5412
  507TMC3    C3 7532   1.981   3.843  14.171  0.0006  0.6083  0.1766
  507TMC3    C4 7533   1.888   3.710  14.390 -0.5826  0.2367  0.1403
  507TMC3    C5 7534   1.929   3.843  14.401 -0.4629 -0.1253 -0.2638
  507TMC3    C6 7535   1.970   3.911  14.291 -0.4683  0.2667 -0.1321
  507TMC3     C 7536   1.806   3.526  14.261 -0.2911  0.4260  0.4723
  507TMC3     O 7537   1.730   3.501  14.355  1.1633 -0.4705  0.6380
  507TMC3     H 7538   1.930   3.667  14.062  0.3550  0.1566  0.3735
  507TMC3    H1 7539   1.841   3.650  14.467 -1.3535 -1.7813 -1.8896
  507TMC3    H2 7540   2.007   4.013  14.295  1.4328 -0.3647 -2.1661
  507TMC3    C7 7541   1.825   3.931  14.448 -0.0060  0.1813 -0.8109
  507TMC3    C8 7542   1.954   3.923  14.057  0.1826  0.1953  0.0381
  507TMC3    O1 7543   1.814   4.035  14.388  0.3294 -0.4157  0.4089
  507TMC3    O2 7544   1.972   3.873  13.948  0.2050  0.3954 -0.3024
  508MPD2     C 7545   2.396   0.459  15.919  0.0106 -0.5140  0.2222
  508MPD2    C1 7546   2.338   0.533  16.018  0.0445 -0.0538  0.1686
  508MPD2    C2 7547   2.223   0.610  15.989 -0.2385 -0.2330  0.0108
  508MPD2    C3 7548   2.182   0.624  15.867  0.9045  0.3052  0.1266
  508MPD2    C4 7549   2.244   0.546  15.769  0.8478 -0.0671 -0.1040
  508MPD2    C5 7550   2.340   0.455  15.798  0.1831  0.4125  0.1079
  508MPD2     H 7551   2.171   0.675  16.057  0.7074  0.2949  0.2244
  508MPD2    H1 7552   2.212   0.552  15.665 -2.6041  0.2003  0.9715
  508MPD2    H2 7553   2.481   0.393  15.932 -1.4777 -1.9928  2.4309
  508MPD2    H3 7554   2.382   0.399  15.715  0.1211 -1.7212  1.5236
  508MPD2     N 7555   2.099   0.732  15.837 -0.0472  0.0677  0.2276
  508MPD2    H5 7556   2.074   0.806  15.902  0.5605  1.9847 -1.7220
  508MPD2    N1 7557   2.393   0.526  16.153  0.4851  0.1763  0.2375
  508MPD2    H7 7558   2.482   0.476  16.154  0.3097 -0.1637 -1.0712
  509TMC3    C1 7559   1.974   1.044  15.525 -0.4930  0.0270 -0.1132
  509TMC3    C2 7560   2.049   1.139  15.589  0.0813  0.2101 -0.1081
  509TMC3    C3 7561   2.112   1.106  15.710 -0.5264  0.4379  0.5706
  509TMC3    C4 7562   1.949   0.926  15.582 -0.1055  0.8086 -0.0911
  509TMC3    C5 7563   2.007   0.899  15.701 -0.0775  0.6698  0.2154
  509TMC3    C6 7564   2.085   0.993  15.773  0.0816 -0.5155 -0.0833
  509TMC3     C 7565   1.889   1.075  15.416 -0.1537  1.0659  0.0786
  509TMC3     O 7566   1.793   1.005  15.386 -0.5142  0.1922 -0.2941
  509TMC3     H 7567   2.081   1.229  15.539 -0.1271  0.9211  1.0228
  509TMC3    H1 7568   1.892   0.848  15.535  0.2931  1.3195 -1.4286
  509TMC3    H2 7569   2.144   0.973  15.861 -0.2103  1.8773  0.6682
  509TMC3    C7 7570   2.053   0.762  15.713 -0.3430 -0.1570 -0.0920
  509TMC3    C8 7571   2.250   1.139  15.693 -0.6144  0.3916  0.0907
  509TMC3    O1 7572   2.049   0.682  15.622 -0.3796 -0.1620  0.8595
  509TMC3    O2 7573   2.326   1.041  15.689  0.0589  0.0790 -0.2572
  510MPD2     C 7574   0.184   2.204  14.257  0.2532 -0.2199  0.3418
  510MPD2    C1 7575   0.266   2.165  14.361 -0.8724 -0.1076 -0.3429
  510MPD2    C2 7576   0.395   2.181  14.334  0.0467 -0.2310 -0.7863
  510MPD2    C3 7577   0.449   2.229  14.219 -0.2744  0.7663  0.1846
  510MPD2    C4 7578   0.364   2.267  14.119 -0.6052 -0.2915 -0.3744
  510MPD2    C5 7579   0.235   2.233  14.131 -0.3122 -0.0388 -0.8537
  510MPD2     H 7580   0.468   2.174  14.415  1.2616  2.1606 -1.6663
  510MPD2    H1 7581   0.399   2.332  14.040 -0.5101  0.8853  0.6383
  510MPD2    H2 7582   0.077   2.189  14.265  0.0970 -0.1788 -1.5657
  510MPD2    H3 7583   0.166   2.258  14.051 -0.2703  3.3974  0.1600
  510MPD2     N 7584   0.585   2.237  14.207 -0.4057 -0.1771  0.1464
  510MPD2    H5 7585   0.636   2.221  14.293 -0.9782 -0.2327  0.4766
  510MPD2    N1 7586   0.222   2.110  14.489  0.1708  0.2736  0.2138
  510MPD2    H7 7587   0.124   2.129  14.506  0.4470  0.3495  1.7053
  511TMC3    C1 7588   0.220   1.962  14.665  0.4602 -0.9244  0.4187
  511TMC3    C2 7589   0.116   2.022  14.720 -0.5465 -0.2198 -0.4699
  511TMC3    C3 7590   0.029   1.947  14.793  0.0521 -0.1747  0.5481
  511TMC3    C4 7591   0.244   1.826  14.677 -0.3460 -0.7671 -1.1365
  511TMC3    C5 7592   0.150   1.752  14.741  0.0874 -0.1295  0.1432
  511TMC3    C6 7593   0.034   1.812  14.798  0.3933 -0.6355  0.6609
  511TMC3     C 7594   0.298   2.023  14.563 -0.3345  0.3725 -0.0303
  511TMC3     O 7595   0.407   1.972  14.540  0.4720  0.1445  0.4937
  511TMC3     H 7596   0.105   2.129  14.719 -2.9603 -0.4604 -0.0638
  511TMC3    H1 7597   0.324   1.775  14.624  0.5867  2.1134 -2.5584
  511TMC3    H2 7598   4.683   1.742  14.835  0.8876 -1.1981  0.5744
  511TMC3    C7 7599   0.138   1.623  14.673 -0.2722  0.0709  0.4276
  511TMC3    C8 7600   4.675   2.024  14.889 -0.5567  0.0710  0.0389
  511TMC3    O1 7601   0.191   1.621  14.564  0.5022  0.1923  0.0522
  511TMC3    O2 7602   4.660   2.148  14.885 -0.4207 -0.9854 -0.1570
  512TMC3    C1 7603   3.454   1.647  13.177 -0.7054 -0.0064 -0.2982
  512TMC3    C2 7604   3.568   1.619  13.247 -0.4297 -0.1629  0.4949
  512TMC3    C3 7605   3.643   1.504  13.222 -0.7875 -0.6340 -0.0908
  512TMC3    C4 7606   3.416   1.565  13.074 -0.0928  0.4149 -0.8286
  512TMC3    C5 7607   3.482   1.452  13.060 -0.2039  0.3152  0.1504
  512TMC3    C6 7608   3.596   1.414  13.126  0.0652  0.1856  0.2878
  512TMC3     C 7609   3.385   1.773  13.200 -0.1287  0.5979 -0.3224
  512TMC3     O 7610   3.432   1.845  13.286  0.1828 -0.0482 -0.4061
  512TMC3     H 7611   3.594   1.688  13.327  0.1950 -0.6111  0.6770
  512TMC3    H1 7612   3.321   1.576  13.023  0.3811  1.1707 -1.5485
  512TMC3    H2 7613   3.645   1.320  13.101  0.1203  0.0871  0.7652
  512TMC3    C7 7614   3.449   1.390  12.934  0.3246  0.3259  0.3191
  512TMC3    C8 7615   3.748   1.457  13.314  0.4217  0.6281 -0.2560
  512TMC3    O1 7616   3.393   1.447  12.842 -0.1202  0.1270 -0.4032
  512TMC3    O2 7617   3.778   1.340  13.319  0.0497 -0.7214 -0.1263
  513MPD2     C 7618   1.604   1.410  12.600  0.1435 -0.6026  0.2638
  513MPD2    C1 7619   1.507   1.386  12.694  0.6741 -0.2453  0.1475
  513MPD2    C2 7620   1.512   1.473  12.808 -0.0881  0.4090 -0.0779
  513MPD2    C3 7621   1.609   1.564  12.832  0.2441 -0.0747  0.3693
  513MPD2    C4 7622   1.706   1.583  12.730  0.9339  0.5237 -0.6738
  513MPD2    C5 7623   1.699   1.508  12.618  0.4496 -0.0706 -0.2250
  513MPD2     H 7624   1.427   1.456  12.874 -0.1763 -2.1031 -0.8406
  513MPD2    H1 7625   1.785   1.657  12.724  0.8958  0.7561  1.6061
  513MPD2    H2 7626   1.581   1.359  12.507  0.7051  1.6061 -1.0836
  513MPD2    H3 7627   1.776   1.529  12.545 -1.4767 -0.5091 -2.3560
  513MPD2     N 7628   1.601   1.630  12.959  0.4825  0.3814 -0.2725
  513MPD2    H5 7629   1.517   1.607  13.010  1.1830 -1.9505 -0.1654
  513MPD2    N1 7630   1.409   1.288  12.655 -0.3429 -0.6923 -0.0211
  513MPD2    H7 7631   1.388   1.268  12.558  1.2251  0.1915 -0.5485
  514TMC3    C1 7632   1.241   1.117  12.702 -0.3683  0.2875  0.1298
  514TMC3    C2 7633   1.170   1.146  12.588 -0.4077  0.1203  0.3054
  514TMC3    C3 7634   1.039   1.123  12.603 -0.3603  0.5881  0.2145
  514TMC3    C4 7635   1.190   1.059  12.814 -0.2572  0.6340  1.1264
  514TMC3    C5 7636   1.057   1.049  12.825  0.0940  0.2576 -0.4306
  514TMC3    C6 7637   0.976   1.079  12.715  0.1436 -0.0421 -0.1867
  514TMC3     C 7638   1.327   1.227  12.744  0.2331  0.2925 -0.6388
  514TMC3     O 7639   1.338   1.242  12.864  0.3151  0.2190  0.9828
  514TMC3     H 7640   1.197   1.214  12.507  0.3544  1.7273  1.9023
  514TMC3    H1 7641   1.257   1.028  12.893 -0.4317 -1.4308  0.4728
  514TMC3    H2 7642   0.870   1.058  12.712  0.6254 -2.5437  0.6914
  514TMC3    C7 7643   1.008   1.105  12.950 -0.3240 -0.7864  0.2901
  514TMC3    C8 7644   0.948   1.156  12.497  0.3318 -0.1647  0.3916
  514TMC3    O1 7645   0.896   1.074  12.984 -0.1363 -0.7141  0.2295
  514TMC3    O2 7646   0.830   1.167  12.524  0.3893  0.6794 -0.6867
  515MPD2     C 7647   3.578   3.477  15.559 -0.6225  0.7541  0.2091
  515MPD2    C1 7648   3.629   3.444  15.436 -0.0488  0.0402 -0.0931
  515MPD2    C2 7649   3.753   3.491  15.394  0.2812 -0.2213 -0.9359
  515MPD2    C3 7650   3.831   3.563  15.485  0.3198  1.1551  0.0228
  515MPD2    C4 7651   3.773   3.608  15.602 -0.3781  0.0260 -0.2878
  515MPD2    C5 7652   3.649   3.571  15.635  0.1154 -0.2734  0.6086
  515MPD2     H 7653   3.796   3.461  15.299 -2.0959 -2.8042 -1.1943
  515MPD2    H1 7654   3.828   3.675  15.667  1.8591 -0.0660 -2.0963
  515MPD2    H2 7655   3.475   3.456  15.585 -0.9661  1.9897 -0.1623
  515MPD2    H3 7656   3.617   3.616  15.729 -0.4019 -0.0661  0.3351
  515MPD2     N 7657   3.962   3.603  15.457 -0.2382  0.1801 -0.0704
  515MPD2    H5 7658   4.015   3.664  15.518  2.3243 -0.6217 -1.5165
  515MPD2    N1 7659   3.563   3.369  15.340  0.0220 -0.1937  0.2539
  515MPD2    H7 7660   3.588   3.379  15.242 -0.9625 -0.2739 -0.0053
  516TMC3    C1 7661   3.406   3.218  15.257 -0.0227  0.5213 -0.0315
  516TMC3    C2 7662   3.396   3.277  15.134  0.5460  0.0469  0.4648
  516TMC3    C3 7663   3.350   3.202  15.029 -0.0656  0.1359 -0.3581
  516TMC3    C4 7664   3.394   3.082  15.275  0.1096 -0.0400 -0.5081
  516TMC3    C5 7665   3.349   3.013  15.169 -0.3000 -0.5831 -0.0169
  516TMC3    C6 7666   3.325   3.068  15.042 -0.3857  0.5755  0.0831
  516TMC3     C 7667   3.454   3.295  15.372  0.7319  0.6000  0.5040
  516TMC3     O 7668   3.419   3.258  15.483 -0.2005 -0.2392 -0.2757
  516TMC3     H 7669   3.396   3.385  15.120  0.5945 -0.0950 -0.5604
  516TMC3    H1 7670   3.410   3.036  15.372  1.0383  1.1831 -0.0806
  516TMC3    H2 7671   3.285   3.015  14.956 -0.4802  2.4819 -1.0559
  516TMC3    C7 7672   3.391   2.875  15.166 -0.1863  0.2853 -0.1270
  516TMC3    C8 7673   3.361   3.253  14.893  1.2797  0.3172 -0.6654
  516TMC3    O1 7674   3.417   2.830  15.278 -0.3681 -0.2044  0.5350
  516TMC3    O2 7675   3.310   3.183  14.805  0.0447  0.1100 -0.2575
  517MPD2     C 7676   3.482   4.691  17.615 -0.0482 -0.7634  0.5090
  517MPD2    C1 7677   3.621   4.699  17.630  0.3848 -0.2868 -0.4085
  517MPD2    C2 7678   3.665   0.076   0.023 -1.0931 -0.2777 -0.5014
  517MPD2    C3 7679   3.582   0.171   0.078 -1.1532  0.4228  0.0695
  517MPD2    C4 7680   3.451   0.155   0.057 -0.4672  0.7660 -0.4342
  517MPD2    C5 7681   3.399   0.057  17.673  0.1647 -0.0375  0.2220
  517MPD2     H 7682   3.772   0.086   0.039 -1.0023  0.3022 -1.5140
  517MPD2    H1 7683   3.388   0.234   0.096 -2.0140 -0.5495 -0.2785
  517MPD2    H2 7684   3.427   4.629  17.545  0.0583 -2.4526  1.9212
  517MPD2    H3 7685   3.296   0.063  17.642  0.0178 -0.2519  0.6666
  517MPD2     N 7686   3.631   0.282   0.149  0.5069 -0.3271  0.2819
  517MPD2    H5 7687   3.559   0.327   0.204 -0.0758 -1.5741  0.5170
  517MPD2    N1 7688   3.712   4.609  17.563  0.4091 -0.0307 -0.1127
  517MPD2    H7 7689   3.808   4.631  17.589 -0.5605  0.0724  3.4218
  518TMC3    C1 7690   3.782   4.442  17.421  0.4114  0.2976 -0.6072
  518TMC3    C2 7691   3.775   4.302  17.412 -1.1921  0.2042  0.3024
  518TMC3    C3 7692   3.888   4.239  17.381  0.0806  0.0059 -0.2725
  518TMC3    C4 7693   3.898   4.512  17.402  0.2308 -0.6344 -1.1046
  518TMC3    C5 7694   4.005   4.440  17.363 -0.6652 -0.1473  0.0013
  518TMC3    C6 7695   4.007   4.303  17.362 -0.5176  0.5168 -0.4542
  518TMC3     C 7696   3.670   4.509  17.477 -1.2153 -0.3644 -0.0559
  518TMC3     O 7697   3.564   4.449  17.466  0.1955  0.3457 -0.5117
  518TMC3     H 7698   3.682   4.251  17.434 -2.0934  3.0778  3.1058
  518TMC3    H1 7699   3.895   4.620  17.396  1.5891 -0.6016 -1.2385
  518TMC3    H2 7700   4.102   4.252  17.351 -1.5952 -0.9224 -3.1756
  518TMC3    C7 7701   4.121   4.515  17.342  0.5726  0.0992 -0.2176
  518TMC3    C8 7702   3.881   4.118  17.308 -0.4883 -0.3968 -0.5888
  518TMC3    O1 7703   4.126   4.629  17.394  0.4560 -0.6510 -0.7174
  518TMC3    O2 7704   3.985   4.051  17.309  0.3388 -0.2225 -0.5345
  519MPD2     C 7705   0.275   3.015  14.376 -0.5268 -0.3410 -0.3843
  519MPD2    C1 7706   0.230   3.070  14.257  0.4784 -0.3790 -0.0093
  519MPD2    C2 7707   0.300   3.045  14.137 -0.6920 -0.5287  0.6595
  519MPD2    C3 7708   0.404   2.955  14.139  0.4452  0.3887  0.0430
  519MPD2    C4 7709   0.443   2.893  14.257 -0.4188 -0.2649  0.5396
  519MPD2    C5 7710   0.383   2.930  14.379 -0.2261  0.4702 -0.0697
  519MPD2     H 7711   0.268   3.096  14.046  1.2521  1.3945  1.0651
  519MPD2    H1 7712   0.517   2.813  14.252 -0.9310 -0.8123  1.8505
  519MPD2    H2 7713   0.213   3.032  14.463 -1.4076  0.4885 -1.1871
  519MPD2    H3 7714   0.414   2.884  14.472 -0.7379 -1.1464 -0.7072
  519MPD2     N 7715   0.472   2.910  14.020 -0.5013 -0.1190 -0.2966
  519MPD2    H5 7716   0.551   2.848  14.038 -0.6454 -0.0731  0.4852
  519MPD2    N1 7717   0.119   3.156  14.266 -0.1503 -0.5315 -0.5572
  519MPD2    H7 7718   0.064   3.157  14.352 -1.3009 -1.0375 -1.2815
  520TMC3    C1 7719   0.532   2.888  13.794 -0.0650 -0.3306  0.6677
  520TMC3    C2 7720   0.477   2.885  13.668 -0.9876 -0.1508 -0.0543
  520TMC3    C3 7721   0.547   2.811  13.578  0.2140 -0.2445  0.6874
  520TMC3    C4 7722   0.638   2.809  13.825 -0.8612 -0.2127 -0.1079
  520TMC3    C5 7723   0.691   2.736  13.723 -0.8711 -0.0094 -0.8172
  520TMC3    C6 7724   0.664   2.752  13.595 -0.1506 -0.4122 -0.4184
  520TMC3     C 7725   0.443   2.949  13.895  0.3232  0.5650  0.2463
  520TMC3     O 7726   0.348   3.019  13.860  0.4042 -0.2336 -0.0994
  520TMC3     H 7727   0.390   2.947  13.648 -0.3928  1.1519  1.3146
  520TMC3    H1 7728   0.689   2.799  13.920  1.5409  1.1363 -1.2611
  520TMC3    H2 7729   0.712   2.696  13.515  1.7824  1.2148 -0.3931
  520TMC3    C7 7730   0.812   2.669  13.760  0.2925 -0.6491  0.2250
  520TMC3    C8 7731   0.477   2.781  13.451  0.0294  0.6125  0.2578
  520TMC3    O1 7732   0.809   2.589  13.855 -0.5323  0.4825  0.0610
  520TMC3    O2 7733   0.541   2.722  13.371  0.3704 -0.0531  0.3255
  521MPD2     C 7734   1.256   1.583  17.470 -0.1163 -0.3998  0.0307
  521MPD2    C1 7735   1.217   1.465  17.415 -0.3903 -0.3958  0.3773
  521MPD2    C2 7736   1.321   1.384  17.362 -1.3308 -0.2181 -0.3568
  521MPD2    C3 7737   1.451   1.423  17.365  0.1849  0.6066 -1.1459
  521MPD2    C4 7738   1.485   1.549  17.413 -0.5989  0.6058  0.0176
  521MPD2    C5 7739   1.383   1.626  17.468 -0.0419  0.3446 -0.0996
  521MPD2     H 7740   1.304   1.282  17.329 -1.3028 -0.2500 -0.2729
  521MPD2    H1 7741   1.584   1.592  17.417 -1.1373  1.7492  0.9356
  521MPD2    H2 7742   1.180   1.638  17.524  0.0157 -0.6039  0.4276
  521MPD2    H3 7743   1.403   1.717  17.523 -0.7220  2.3902 -3.2641
  521MPD2     N 7744   1.540   1.340  17.293  0.5368  0.3544  0.1049
  521MPD2    H5 7745   1.496   1.256  17.257  0.8400 -0.2307  1.1145
  521MPD2    N1 7746   1.087   1.408  17.447  0.2303  0.1596 -0.2567
  521MPD2    H7 7747   1.022   1.469  17.495 -1.4547  0.5245 -3.0758
  522TMC3    C1 7748   1.740   1.271  17.187 -0.0641  0.5050  0.6419
  522TMC3    C2 7749   1.873   1.237  17.202  0.8382 -0.7639 -0.5875
  522TMC3    C3 7750   1.936   1.163  17.107 -0.0767  0.8600  0.5805
  522TMC3    C4 7751   1.666   1.233  17.080 -0.1285 -0.1360  0.4314
  522TMC3    C5 7752   1.733   1.157  16.987  0.0652 -0.5954 -0.3916
  522TMC3    C6 7753   1.866   1.121  16.994  0.1614  0.4345 -0.2012
  522TMC3     C 7754   1.676   1.350  17.292 -0.1430  0.3549 -0.6366
  522TMC3     O 7755   1.739   1.417  17.372  0.1871  0.8315 -0.3253
  522TMC3     H 7756   1.918   1.256  17.298 -1.7591  0.4061  0.4220
  522TMC3    H1 7757   1.570   1.281  17.066 -0.5171 -0.2686  2.7403
  522TMC3    H2 7758   1.916   1.081  16.907 -0.4671  0.7686 -0.7125
  522TMC3    C7 7759   1.671   1.118  16.863 -0.2684  0.1176  0.6634
  522TMC3    C8 7760   2.070   1.114  17.133  0.2433 -0.0223  0.1871
  522TMC3    O1 7761   1.734   1.037  16.802 -0.4166  0.4766 -0.0838
  522TMC3    O2 7762   2.100   1.115  17.249 -0.0734  0.2926  0.1085
  523MPD2     C 7763   3.704   0.926  10.198 -0.2867  0.7188  0.4176
  523MPD2    C1 7764   3.620   0.867  10.107 -0.6923  0.3599 -0.0023
  523MPD2    C2 7765   3.548   0.947  10.021 -0.0175 -0.4180  0.1370
  523MPD2    C3 7766   3.569   1.083  10.017  0.6755  0.0429  0.4652
  523MPD2    C4 7767   3.649   1.133  10.112 -0.6692  0.3269  0.2050
  523MPD2    C5 7768   3.725   1.060  10.200  0.2286  0.4470 -0.9734
  523MPD2     H 7769   3.477   0.900   9.954  1.3692 -1.0237 -0.9111
  523MPD2    H1 7770   3.653   1.240  10.133 -1.1854  0.7590 -1.8602
  523MPD2    H2 7771   3.748   0.855  10.268  0.9661 -0.8261 -1.9225
  523MPD2    H3 7772   3.779   1.103  10.283 -0.8124 -1.2002  0.5642
  523MPD2     N 7773   3.501   1.166   9.927  0.1361  0.2261 -0.3349
  523MPD2    H5 7774   3.505   1.265   9.949  1.6821  0.2267 -0.5907
  523MPD2    N1 7775   3.613   0.726  10.110 -0.0972 -0.4244 -0.1908
  523MPD2    H7 7776   3.695   0.674  10.139  1.1746  2.1125  0.8157
  524TMC3    C1 7777   3.395   1.225   9.720 -0.3806 -0.7601  0.4266
  524TMC3    C2 7778   3.409   1.199   9.585 -0.7092 -0.5086 -0.9076
  524TMC3    C3 7779   3.345   1.289   9.505  0.1589 -0.1063  0.8163
  524TMC3    C4 7780   3.314   1.326   9.764 -0.1825  0.7288  0.0561
  524TMC3    C5 7781   3.250   1.407   9.684 -0.0369 -0.1738  0.3448
  524TMC3    C6 7782   3.267   1.397   9.550  0.2755 -0.2038 -0.6264
  524TMC3     C 7783   3.455   1.120   9.801 -0.1737 -0.2477 -0.7445
  524TMC3     O 7784   3.477   1.012   9.749 -0.5385  0.1093  0.3735
  524TMC3     H 7785   3.496   1.146   9.550  1.0450  0.7485  1.5159
  524TMC3    H1 7786   3.288   1.335   9.869  2.8057  0.0676  0.8547
  524TMC3    H2 7787   3.241   1.482   9.488 -0.4643 -2.6811 -3.6789
  524TMC3    C7 7788   3.162   1.510   9.738 -1.0057 -0.5208 -0.2904
  524TMC3    C8 7789   3.365   1.276   9.362 -0.1961 -0.1224  0.3936
  524TMC3    O1 7790   3.164   1.523   9.861  0.6596 -0.6336 -0.0756
  524TMC3    O2 7791   3.352   1.371   9.285 -0.5819  0.2318 -0.2420
  525MPD2     C 7792   1.699   2.546  14.318 -0.3691  0.8883  0.0989
  525MPD2    C1 7793   1.825   2.554  14.377  0.2981 -0.7117 -0.6843
  525MPD2    C2 7794   1.901   2.660  14.341 -0.0943  0.4616  0.0458
  525MPD2    C3 7795   1.857   2.752  14.247 -0.6730 -0.2201  0.5909
  525MPD2    C4 7796   1.729   2.747  14.195  0.2971  0.6102  0.0340
  525MPD2    C5 7797   1.654   2.638  14.224  0.1656 -0.6473 -0.0241
  525MPD2     H 7798   1.999   2.660  14.387 -0.0525  2.7595 -0.0646
  525MPD2    H1 7799   1.690   2.821  14.125  0.8521 -1.2910 -2.2719
  525MPD2    H2 7800   1.640   2.456  14.331 -0.3586  0.6781 -1.4067
  525MPD2    H3 7801   1.556   2.633  14.177  0.4701  3.8845 -1.1712
  525MPD2     N 7802   1.933   2.860  14.202  0.6710  0.3804 -0.7805
  525MPD2    H5 7803   1.899   2.919  14.127 -0.1996  0.1698 -0.5478
  525MPD2    N1 7804   1.876   2.458  14.467 -0.3213  0.1651  0.0359
  525MPD2    H7 7805   1.974   2.453  14.493 -0.2481  0.1608 -0.2415
  526TMC3    C1 7806   1.907   2.286  14.633 -0.6881 -0.0985  0.4029
  526TMC3    C2 7807   1.847   2.242  14.748 -0.1404  0.5131  0.2362
  526TMC3    C3 7808   1.928   2.215  14.852  0.1939 -0.2962  0.1907
  526TMC3    C4 7809   2.040   2.294  14.610 -0.3813  0.3119 -0.0836
  526TMC3    C5 7810   2.122   2.275  14.718  0.1831  0.1635 -0.7479
  526TMC3    C6 7811   2.068   2.221  14.836  0.1464 -0.0386  0.0848
  526TMC3     C 7812   1.814   2.353  14.538 -0.2394 -0.3238  0.1146
  526TMC3     O 7813   1.699   2.328  14.546 -0.2208  0.0977 -0.6020
  526TMC3     H 7814   1.741   2.233  14.768  0.3916  0.3993  3.1260
  526TMC3    H1 7815   2.083   2.340  14.522 -2.0192  2.9083  0.4773
  526TMC3    H2 7816   2.130   2.223  14.925 -0.2966  1.4197  0.3673
  526TMC3    C7 7817   2.268   2.278  14.698 -0.9202  0.0963  0.1083
  526TMC3    C8 7818   1.882   2.232  14.996 -0.0169  0.5779  0.4845
  526TMC3    O1 7819   2.330   2.261  14.802 -0.3270  0.1205 -0.3039
  526TMC3    O2 7820   1.965   2.209  15.082 -0.1105  0.1641 -0.5649
  527MPD2     C 7821   0.801   0.951   1.748 -0.2464 -0.0417 -0.0800
  527MPD2    C1 7822   0.711   0.961   1.642  0.5039  0.6477  0.4068
  527MPD2    C2 7823   0.718   0.876   1.534 -0.0836 -0.3178  0.1805
  527MPD2    C3 7824   0.812   0.764   1.531 -0.1791 -0.1170 -0.0045
  527MPD2    C4 7825   0.903   0.767   1.634  0.2897 -0.0641 -0.2475
  527MPD2    C5 7826   0.897   0.856   1.741 -0.4473 -0.3621 -0.0311
  527MPD2     H 7827   0.638   0.889   1.461  0.5382  1.0935 -0.2401
  527MPD2    H1 7828   0.958   0.674   1.645 -0.1447 -0.5169 -1.8625
  527MPD2    H2 7829   0.798   1.010   1.839 -0.3408  0.5614 -0.4693
  527MPD2    H3 7830   0.958   0.832   1.827 -0.4126  0.7207  0.2508
  527MPD2     N 7831   0.818   0.671   1.428 -0.8173 -0.5113 -0.5770
  527MPD2    H5 7832   0.887   0.598   1.445 -0.3171 -0.0013 -0.4163
  527MPD2    N1 7833   0.600   1.049   1.653  0.5682  0.4022 -0.2072
  527MPD2    H7 7834   0.528   1.045   1.581  0.0355 -0.0285  0.3512
  528TMC3    C1 7835   0.454   1.216   1.737  0.0459  0.7825  0.0214
  528TMC3    C2 7836   0.444   1.321   1.817 -0.4674 -0.2461 -0.0302
  528TMC3    C3 7837   0.327   1.374   1.845 -0.5800  0.1895  0.1410
  528TMC3    C4 7838   0.345   1.162   1.673  0.2501 -0.3171 -0.7489
  528TMC3    C5 7839   0.229   1.226   1.696 -0.1466 -0.0567  0.0081
  528TMC3    C6 7840   0.211   1.331   1.776 -0.5520 -0.0855  0.4401
  528TMC3     C 7841   0.580   1.143   1.752  0.2573 -0.0548 -0.1592
  528TMC3     O 7842   0.649   1.188   1.843 -0.0847  0.4498 -0.1434
  528TMC3     H 7843   0.524   1.366   1.874 -0.9530  1.2354 -0.5355
  528TMC3    H1 7844   0.359   1.070   1.618  2.0866 -0.4171 -0.1393
  528TMC3    H2 7845   0.117   1.385   1.777  0.2866  1.4082 -0.5928
  528TMC3    C7 7846   0.120   1.196   1.600 -0.2135 -0.0250  0.7446
  528TMC3    C8 7847   0.320   1.482   1.939 -0.3325  0.7651  0.5229
  528TMC3    O1 7848   0.054   1.295   1.572  0.0674 -0.1021  0.0750
  528TMC3    O2 7849   0.417   1.543   1.982 -0.4665  0.6107 -0.2323
  529MPD2     C 7850   2.927   3.571   0.404  0.5068 -0.1774  0.6789
  529MPD2    C1 7851   2.791   3.564   0.428  0.1784 -0.0331 -0.1577
  529MPD2    C2 7852   2.706   3.612   0.327  0.1955  0.3622  0.8740
  529MPD2    C3 7853   2.760   3.679   0.217  0.4272  0.2631 -0.3207
  529MPD2    C4 7854   2.892   3.697   0.208 -0.6474 -0.1809  0.2394
  529MPD2    C5 7855   2.974   3.640   0.300 -0.0805  0.6029  0.7293
  529MPD2     H 7856   2.598   3.598   0.319  0.5409 -0.4398 -2.3347
  529MPD2    H1 7857   2.932   3.736   0.115  0.7544  0.9110  1.2784
  529MPD2    H2 7858   2.998   3.512   0.461  1.5642  0.5480  0.1240
  529MPD2    H3 7859   3.082   3.646   0.287 -0.0696  1.0180  1.0084
  529MPD2     N 7860   2.685   3.724   0.109  0.0492  0.2416 -0.5490
  529MPD2    H5 7861   2.736   3.760   0.029 -1.4632  0.0378 -1.6111
  529MPD2    N1 7862   2.730   3.486   0.531 -0.4137  0.6839 -0.2857
  529MPD2    H7 7863   2.631   3.464   0.531 -0.7630  2.2829  1.7975
  530TMC3    C1 7864   2.716   3.369   0.736 -0.4590 -0.0172 -0.4312
  530TMC3    C2 7865   2.752   3.383   0.866 -0.5698  0.0093 -0.6833
  530TMC3    C3 7866   2.669   3.322   0.959 -1.1686 -0.5967  0.5283
  530TMC3    C4 7867   2.602   3.296   0.692  0.8434  0.1473  0.1771
  530TMC3    C5 7868   2.545   3.229   0.787 -0.4457  0.1547  0.8759
  530TMC3    C6 7869   2.568   3.241   0.921 -0.4216  0.1850  0.3872
  530TMC3     C 7870   2.803   3.435   0.637 -0.0396  0.7167  0.3955
  530TMC3     O 7871   2.918   3.454   0.665  0.7335 -0.0757 -0.4354
  530TMC3     H 7872   2.818   3.466   0.887  0.0542 -0.3827 -1.1242
  530TMC3    H1 7873   2.586   3.278   0.586  0.3305  1.5536  0.0142
  530TMC3    H2 7874   2.498   3.212   1.000  1.6051 -0.6328  1.8814
  530TMC3    C7 7875   2.459   3.114   0.746 -0.1885 -0.0318  0.2947
  530TMC3    C8 7876   2.675   3.351   1.105 -0.0767 -0.2101 -0.0680
  530TMC3    O1 7877   2.404   3.116   0.634 -0.3453  0.6108  0.0522
  530TMC3    O2 7878   2.591   3.307   1.180  0.3455 -0.0992  0.1530
  531MPD2     C 7879   1.032   1.475  13.326 -0.2951 -0.5028 -0.5747
  531MPD2    C1 7880   1.148   1.482  13.246 -0.1153 -0.0201 -0.4276
  531MPD2    C2 7881   1.168   1.390  13.146 -0.1783 -0.5219 -0.2994
  531MPD2    C3 7882   1.075   1.294  13.110 -0.0192  0.3930  0.4326
  531MPD2    C4 7883   0.960   1.294  13.183  0.0720  0.0625 -0.4322
  531MPD2    C5 7884   0.943   1.376  13.290  0.3338 -0.0339  0.0576
  531MPD2     H 7885   1.261   1.386  13.089  0.2489  1.2681  0.2819
  531MPD2    H1 7886   0.879   1.222  13.179 -0.2437  0.3788  0.3313
  531MPD2    H2 7887   1.013   1.526  13.419  1.5717  0.1302 -0.5265
  531MPD2    H3 7888   0.848   1.366  13.341 -0.3800 -0.1931 -1.3104
  531MPD2     N 7889   1.098   1.206  13.001 -0.1890  0.1338 -0.0439
  531MPD2    H5 7890   1.182   1.218  12.946 -1.1040  2.0235 -1.0031
  531MPD2    N1 7891   1.243   1.574  13.281 -0.4201  0.0867 -0.2069
  531MPD2    H7 7892   1.233   1.627  13.367  2.3073  1.2393 -0.6061
  532TMC3    C1 7893   1.431   1.712  13.248  0.1121  0.0316  0.3621
  532TMC3    C2 7894   1.501   1.779  13.150 -0.1294  0.4082 -0.1471
  532TMC3    C3 7895   1.633   1.772  13.145 -0.3308 -0.3139 -0.6684
  532TMC3    C4 7896   1.499   1.656  13.352  0.7948  0.3025  1.0324
  532TMC3    C5 7897   1.632   1.669  13.348  0.1294 -0.3121  0.1148
  532TMC3    C6 7898   1.702   1.721  13.247 -0.7793  0.0158  0.0871
  532TMC3     C 7899   1.329   1.630  13.191  0.8526  0.2013  0.6662
  532TMC3     O 7900   1.333   1.609  13.071  0.0163 -0.4742 -0.3489
  532TMC3     H 7901   1.438   1.824  13.075  1.9183  4.0801  0.3470
  532TMC3    H1 7902   1.440   1.602  13.425  1.2010  0.0432  1.1668
  532TMC3    H2 7903   1.810   1.716  13.249 -0.8601 -0.8457  1.7160
  532TMC3    C7 7904   1.706   1.599  13.448 -0.0862  0.4674  0.0925
  532TMC3    C8 7905   1.680   1.730  13.015  0.0371 -0.0424 -0.4368
  532TMC3    O1 7906   1.781   1.665  13.513 -0.4067  0.2685 -0.1721
  532TMC3    O2 7907   1.782   1.784  12.978 -0.6774 -0.3277  0.3558
  533TMC3    C1 7908   2.108   3.001  14.170  0.4736  0.0041 -0.0812
  533TMC3    C2 7909   2.245   3.009  14.191  0.5316 -0.3293  0.1620
  533TMC3    C3 7910   2.287   3.128  14.242 -0.1823 -0.4962 -0.5708
  533TMC3    C4 7911   2.026   3.105  14.206  0.2182  0.8495  0.2380
  533TMC3    C5 7912   2.072   3.218  14.265  0.5692  0.4060  0.2037
  533TMC3    C6 7913   2.208   3.226  14.286 -0.4569 -0.2191 -0.8200
  533TMC3     C 7914   2.065   2.881  14.232  0.7051 -0.1953 -0.1724
  533TMC3     O 7915   2.146   2.818  14.296  0.4230 -0.3393  0.1356
  533TMC3     H 7916   2.318   2.939  14.154  3.0443  3.2140 -1.6582
  533TMC3    H1 7917   1.919   3.107  14.186 -0.0472  0.4222  1.6421
  533TMC3    H2 7918   2.260   3.302  14.344  0.8928 -2.4926  0.9259
  533TMC3    C7 7919   1.994   3.261  14.373  0.4317 -0.3131 -0.1023
  533TMC3    C8 7920   2.427   3.160  14.252 -0.2407 -1.0123  0.1248
  533TMC3    O1 7921   1.905   3.184  14.401  0.0836 -0.5046  0.0339
  533TMC3    O2 7922   2.503   3.078  14.298 -0.3365  0.0468  0.6101
  534MPD2     C 7923   4.131   0.440   1.504  0.1234 -0.6989 -0.0951
  534MPD2    C1 7924   4.255   0.379   1.471 -0.0228 -0.0753 -0.3957
  534MPD2    C2 7925   4.262   0.249   1.430 -0.8888 -0.0597 -0.0898
  534MPD2    C3 7926   4.143   0.183   1.411  0.7756 -0.1588 -0.1944
  534MPD2    C4 7927   4.024   0.243   1.451  0.8959 -1.0851  0.1521
  534MPD2    C5 7928   4.022   0.370   1.499 -0.0862  0.1375  0.2374
  534MPD2     H 7929   4.362   0.210   1.412 -1.1940  0.1569 -2.3585
  534MPD2    H1 7930   3.931   0.188   1.455  0.5578 -0.6094 -1.5724
  534MPD2    H2 7931   4.128   0.535   1.556 -2.0724 -1.6229  1.4518
  534MPD2    H3 7932   3.923   0.406   1.522  0.0777 -0.1450  1.3958
  534MPD2     N 7933   4.141   0.049   1.362  0.6443  0.2693  0.4155
  534MPD2    H5 7934   4.048   0.010   1.350  0.9803 -0.8096  1.3801
  534MPD2    N1 7935   4.376   0.441   1.498 -0.6752  0.3361  0.2304
  534MPD2    H7 7936   4.458   0.389   1.471 -0.0975  1.0295  0.6683
  535TMC3    C1 7937   4.221   4.572   1.261  0.8442  0.0410  0.5547
  535TMC3    C2 7938   4.108   4.505   1.292 -0.5891  0.4176 -0.5271
  535TMC3    C3 7939   4.085   4.387   1.227 -0.3817 -0.4664  0.3856
  535TMC3    C4 7940   4.312   4.537   1.167 -0.0512  0.4826 -0.0952
  535TMC3    C5 7941   4.295   4.414   1.109 -0.1142 -0.0998 -0.3883
  535TMC3    C6 7942   4.181   4.337   1.137 -0.2957  0.1025  0.5366
  535TMC3     C 7943   4.251   4.695   1.327 -1.4337 -0.2839  0.1136
  535TMC3     O 7944   4.367   4.712   1.365 -0.3521 -0.2112  0.3849
  535TMC3     H 7945   4.052   4.523   1.383  2.5789  1.2505  1.2541
  535TMC3    H1 7946   4.403   4.592   1.146  1.7842 -2.0341  1.2001
  535TMC3    H2 7947   4.177   4.238   1.095  1.3807 -0.4434  1.6431
  535TMC3    C7 7948   4.401   4.368   1.018 -0.2767  0.5967 -1.1336
  535TMC3    C8 7949   3.979   4.299   1.251  0.5732 -0.8584  0.1713
  535TMC3    O1 7950   4.450   4.256   1.025  0.0496  0.1257  0.5744
  535TMC3    O2 7951   3.978   4.190   1.200 -0.3661 -0.4573  0.0626
  536MPD2     C 7952   2.892   1.751  16.422 -0.2604  0.1100  0.1126
  536MPD2    C1 7953   2.967   1.857  16.381  0.4194  0.0203  0.2554
  536MPD2    C2 7954   2.910   1.950  16.293 -0.3754  0.5098 -0.3481
  536MPD2    C3 7955   2.782   1.931  16.243 -0.4511 -0.2092  0.2335
  536MPD2    C4 7956   2.712   1.821  16.278  0.1313  0.4562  0.8315
  536MPD2    C5 7957   2.768   1.735  16.366  0.3941  0.4706 -0.4902
  536MPD2     H 7958   2.964   2.043  16.283  0.5069 -0.4893 -4.8450
  536MPD2    H1 7959   2.611   1.805  16.244  0.3699  1.2845 -0.2867
  536MPD2    H2 7960   2.918   1.667  16.486  0.8247 -0.2949 -0.8685
  536MPD2    H3 7961   2.717   1.641  16.383  0.1037  0.3610 -2.0259
  536MPD2     N 7962   2.720   2.020  16.162 -0.1534 -0.0287 -0.6604
  536MPD2    H5 7963   2.623   1.999  16.141 -0.9806  2.0470  1.1389
  536MPD2    N1 7964   3.095   1.870  16.440 -0.0206 -0.0907 -0.3971
  536MPD2    H7 7965   3.104   1.797  16.510 -2.8149 -1.6924 -1.6816
  537TMC3    C1 7966   3.295   1.966  16.520  0.4586 -0.5066 -0.3386
  537TMC3    C2 7967   3.408   2.033  16.499  0.3038 -0.2289  0.1207
  537TMC3    C3 7968   3.498   2.051  16.602  0.2309 -0.0538  0.1027
  537TMC3    C4 7969   3.278   1.902  16.634 -0.3106  0.4026 -0.1607
  537TMC3    C5 7970   3.359   1.931  16.744  0.1249  0.2860 -0.0093
  537TMC3    C6 7971   3.466   2.012  16.725 -0.4377  1.0882  0.8309
  537TMC3     C 7972   3.189   1.968  16.421 -0.0682 -0.0730  0.2099
  537TMC3     O 7973   3.191   2.064  16.341  0.6085 -0.1749 -0.2844
  537TMC3     H 7974   3.438   2.083  16.408  0.5025  1.7235  1.2516
  537TMC3    H1 7975   3.185   1.849  16.654  0.2524 -0.9709 -1.1864
  537TMC3    H2 7976   3.535   2.034  16.805  2.3536 -0.3320 -1.1886
  537TMC3    C7 7977   3.307   1.920  16.873 -0.0442  0.6235  0.5438
  537TMC3    C8 7978   3.613   2.143  16.585  0.2233  1.0813  0.5444
  537TMC3    O1 7979   3.189   1.941  16.887 -0.4699  0.1647  0.6013
  537TMC3    O2 7980   3.715   2.111  16.646 -0.4356 -0.2232  0.2707
  538TMC3    C1 7981   4.541   0.586  10.418  0.1027  0.4492  0.5607
  538TMC3    C2 7982   4.453   0.576  10.313  0.0336  0.7771  0.3551
  538TMC3    C3 7983   4.366   0.669  10.291 -0.5082  0.5411  0.1313
  538TMC3    C4 7984   4.519   0.678  10.518 -0.0867  0.0950 -0.0980
  538TMC3    C5 7985   4.424   0.772  10.493 -0.2507 -0.1285  0.0976
  538TMC3    C6 7986   4.347   0.768  10.380 -0.1654  0.7998  0.2156
  538TMC3     C 7987   4.654   0.499  10.431 -0.7890 -0.3265  0.1391
  538TMC3     O 7988   4.653   0.400  10.364  0.0520  0.2880  0.1393
  538TMC3     H 7989   4.460   0.495  10.241  2.4238 -1.0850  2.7060
  538TMC3    H1 7990   4.593   0.699  10.594 -0.1292  0.5531 -0.1820
  538TMC3    H2 7991   4.278   0.845  10.349 -0.4411  0.9043  1.0940
  538TMC3    C7 7992   4.406   0.888  10.576  0.5137 -0.4111  0.3779
  538TMC3    C8 7993   4.317   0.679  10.160 -0.1756  0.1920 -0.6218
  538TMC3    O1 7994   4.339   0.974  10.528  0.8078 -0.1674  0.1673
  538TMC3    O2 7995   4.265   0.575  10.119  0.1815 -0.7444  0.0019
  539MPD2     C 7996   4.612   0.256  11.548  0.1880 -0.3714 -0.6045
  539MPD2    C1 7997   4.582   0.294  11.416  0.1221 -0.1239  0.5572
  539MPD2    C2 7998   4.496   0.401  11.404  0.1473  0.3307  0.5516
  539MPD2    C3 7999   4.431   0.468  11.515  0.1723 -0.0509 -0.1417
  539MPD2    C4 8000   4.458   0.417  11.643 -0.0113 -0.4736 -0.4258
  539MPD2    C5 8001   4.554   0.312  11.659 -0.1793  0.2148 -0.0411
  539MPD2     H 8002   4.476   0.448  11.309 -0.6310  1.4420  1.2604
  539MPD2    H1 8003   4.429   0.471  11.732 -1.3420  0.4964 -1.4340
  539MPD2    H2 8004   4.685   0.184  11.582  0.2096  0.0763  0.2971
  539MPD2    H3 8005   4.589   0.280  11.757 -1.2704  1.3702  0.7431
  539MPD2     N 8006   4.363   0.589  11.505 -0.0419 -0.4523 -0.1513
  539MPD2    H5 8007   4.317   0.620  11.589  1.7812 -0.9146  1.0134
  539MPD2    N1 8008   4.643   0.230  11.306  0.5363 -0.6483 -0.5411
  539MPD2    H7 8009   0.010   0.182  11.315  0.8036  0.3677  2.1950
  540TMC3    C1 8010   4.262   0.772  11.404 -0.3364  0.0030 -0.2163
  540TMC3    C2 8011   4.207   0.823  11.291 -0.6026 -0.1694  0.2661
  540TMC3    C3 8012   4.135   0.935  11.297  0.9825 -0.3224  0.0176
  540TMC3    C4 8013   4.217   0.803  11.524  0.7472 -0.4798  0.1739
  540TMC3    C5 8014   4.139   0.917  11.525 -0.5301  0.2340 -0.2606
  540TMC3    C6 8015   4.102   0.990  11.415 -0.4381 -0.2763  0.3448
  540TMC3     C 8016   4.352   0.659  11.391  1.0265  0.9339 -0.4964
  540TMC3     O 8017   4.398   0.644  11.279  1.2234  0.3049  1.0356
  540TMC3     H 8018   4.233   0.794  11.190 -3.0523  0.4244 -0.5487
  540TMC3    H1 8019   4.271   0.774  11.614  1.3165 -1.5280 -0.5071
  540TMC3    H2 8020   4.050   1.085  11.418  1.7363  0.9103  0.3907
  540TMC3    C7 8021   4.065   0.936  11.641  0.9752 -0.1331  0.2865
  540TMC3    C8 8022   4.054   0.987  11.190  0.0940 -0.0011 -0.2179
  540TMC3    O1 8023   4.083   0.857  11.735  0.0208  0.2040 -0.2892
  540TMC3    O2 8024   4.026   1.107  11.177 -0.2694  0.1049 -0.6269
  541MPD2     C 8025   2.509   1.531  13.117 -0.0696  0.5305  0.1032
  541MPD2    C1 8026   2.383   1.579  13.106  0.3289  0.4373  0.6473
  541MPD2    C2 8027   2.354   1.662  12.998  0.2914 -0.3486  0.4153
  541MPD2    C3 8028   2.456   1.697  12.906  0.3678  0.7538 -0.0354
  541MPD2    C4 8029   2.584   1.651  12.926 -0.3797 -0.7627  0.2649
  541MPD2    C5 8030   2.610   1.568  13.029  0.8532 -0.3194  0.4824
  541MPD2     H 8031   2.253   1.702  12.993  0.2802 -0.2030  2.0042
  541MPD2    H1 8032   2.671   1.668  12.864  0.2912  0.7227  1.6178
  541MPD2    H2 8033   2.533   1.467  13.201  1.4625  1.5582  0.4430
  541MPD2    H3 8034   2.706   1.524  13.054  1.4378  0.0115 -1.1929
  541MPD2     N 8035   2.430   1.777  12.793 -0.0002 -0.7426 -0.6818
  541MPD2    H5 8036   2.496   1.776  12.716  1.0917 -1.0302  0.2519
  541MPD2    N1 8037   2.292   1.539  13.208 -0.6005  0.1228  0.0678
  541MPD2    H7 8038   2.331   1.476  13.278  0.1366  0.7551  0.2334
  542TMC3    C1 8039   2.319   1.935  12.667  0.1188  0.1350 -0.3317
  542TMC3    C2 8040   2.364   1.871  12.549 -0.9110  0.0344  0.0044
  542TMC3    C3 8041   2.368   1.952  12.438 -0.6291 -0.0915  0.7383
  542TMC3    C4 8042   2.289   2.068  12.669  0.2158 -0.1864 -0.3469
  542TMC3    C5 8043   2.286   2.135  12.553  0.6990 -0.4882 -0.7612
  542TMC3    C6 8044   2.327   2.084  12.435  0.8797 -0.4471 -0.4190
  542TMC3     C 8045   2.333   1.865  12.792  0.3279  0.2245 -1.0290
  542TMC3     O 8046   2.259   1.896  12.885  0.3602  0.3282  0.0641
  542TMC3     H 8047   2.384   1.764  12.547 -0.7954  0.0657 -0.4170
  542TMC3    H1 8048   2.253   2.099  12.766  0.8815  0.9227 -0.4397
  542TMC3    H2 8049   2.319   2.138  12.342  0.6314  2.7586  1.4669
  542TMC3    C7 8050   2.236   2.276  12.555  0.6567 -0.2702  0.0376
  542TMC3    C8 8051   2.410   1.892  12.311 -0.1824  0.0904  0.0402
  542TMC3    O1 8052   2.278   2.342  12.458  0.4159  0.4909  0.4111
  542TMC3    O2 8053   2.370   1.956  12.214 -0.1121 -0.2677  0.2332
  543TMC3    C1 8054   2.120   2.214  17.128 -0.2673  0.0555 -0.5226
  543TMC3    C2 8055   2.211   2.113  17.106 -0.1105 -0.1239 -0.6771
  543TMC3    C3 8056   2.157   1.988  17.130  0.5673 -0.0208  0.2664
  543TMC3    C4 8057   1.986   2.199  17.149 -0.1007 -0.3394 -0.0137
  543TMC3    C5 8058   1.939   2.073  17.163  0.4753  0.4722  0.8318
  543TMC3    C6 8059   2.025   1.966  17.156  0.2596 -0.0983  0.5828
  543TMC3     C 8060   2.152   2.351  17.077 -0.0855  0.2931 -0.0536
  543TMC3     O 8061   2.242   2.354  16.995  0.2096 -0.5352 -0.1077
  543TMC3     H 8062   2.314   2.125  17.075 -0.0953 -0.3214 -0.7012
  543TMC3    H1 8063   1.908   2.274  17.159  0.3698  0.0481  0.7349
  543TMC3    H2 8064   1.995   1.863  17.170  0.8593 -0.4048 -0.3742
  543TMC3    C7 8065   1.803   2.053  17.200 -0.8860 -0.0724  0.8498
  543TMC3    C8 8066   2.245   1.870  17.121 -0.1089  0.1585  0.2428
  543TMC3    O1 8067   1.742   2.138  17.259 -0.0723 -0.0327 -0.0617
  543TMC3    O2 8068   2.187   1.762  17.115  0.2865 -0.1183 -1.0484
  544MPD2     C 8069   2.726   1.664  17.175  0.6603  0.4967  0.1869
  544MPD2    C1 8070   2.612   1.606  17.109 -0.1833  0.5518 -0.1854
  544MPD2    C2 8071   2.490   1.670  17.100  0.0946  0.2991 -0.3436
  544MPD2    C3 8072   2.484   1.802  17.146  0.0975 -0.0286  0.6326
  544MPD2    C4 8073   2.594   1.859  17.189 -0.0080 -0.5065 -0.1270
  544MPD2    C5 8074   2.714   1.794  17.213  0.1087  0.3632  0.6577
  544MPD2     H 8075   2.402   1.632  17.049 -0.8443  0.4006  1.1730
  544MPD2    H1 8076   2.598   1.967  17.195  0.7110 -0.5431  0.0951
  544MPD2    H2 8077   2.813   1.600  17.182  0.3650  0.1796  0.9166
  544MPD2    H3 8078   2.802   1.849  17.246  2.2758 -1.1195 -2.6387
  544MPD2     N 8079   2.374   1.897  17.136 -0.0882 -0.8087 -0.0572
  544MPD2    H5 8080   2.404   1.993  17.150  0.1222 -0.7938 -0.6210
  544MPD2    N1 8081   2.631   1.482  17.042 -0.4806  0.1053 -0.1582
  544MPD2    H7 8082   2.724   1.441  17.037 -0.7320 -0.2545 -1.7869
  545TMC3    C1 8083   2.595   1.285  16.940  0.2168 -0.1410 -0.1005
  545TMC3    C2 8084   2.566   1.236  16.816 -0.2770  0.4501  0.2142
  545TMC3    C3 8085   2.628   1.116  16.785 -0.2824 -0.1157  0.1507
  545TMC3    C4 8086   2.685   1.227  17.024 -0.0968 -0.6118  0.2738
  545TMC3    C5 8087   2.754   1.111  16.979 -0.7228 -0.4222 -0.0352
  545TMC3    C6 8088   2.723   1.055  16.863 -0.3874 -0.0676 -0.1066
  545TMC3     C 8089   2.542   1.413  16.967  0.1818  0.5814  0.5336
  545TMC3     O 8090   2.432   1.442  16.920 -0.5196 -0.7056 -0.6802
  545TMC3     H 8091   2.485   1.276  16.757 -1.3880  2.1118  2.9079
  545TMC3    H1 8092   2.705   1.272  17.121 -0.6145 -0.4983  0.3284
  545TMC3    H2 8093   2.770   0.961  16.837 -1.0486 -0.4256  0.0100
  545TMC3    C7 8094   2.824   1.036  17.087  0.0209 -0.2126 -0.2339
  545TMC3    C8 8095   2.637   1.061  16.653 -0.5715 -0.1478 -0.0931
  545TMC3    O1 8096   2.813   0.917  17.083 -0.8717 -0.2411 -0.2764
  545TMC3    O2 8097   2.744   1.023  16.615 -0.4209  0.3653  0.2620
  546MPD2     C 8098   3.916   2.687  17.436 -0.3423 -0.9702 -0.2018
  546MPD2    C1 8099   3.834   2.740  17.339 -0.4893  0.7322 -0.4289
  546MPD2    C2 8100   3.866   2.862  17.288  0.1916 -0.1844  0.4358
  546MPD2    C3 8101   3.981   2.933  17.328  0.3700  0.2956 -0.0241
  546MPD2    C4 8102   4.067   2.872  17.422 -0.2359  0.7644  0.6353
  546MPD2    C5 8103   4.024   2.754  17.483  0.0634  0.2206 -0.2217
  546MPD2     H 8104   3.800   2.906  17.215  1.8857  1.7038  0.0209
  546MPD2    H1 8105   4.159   2.919  17.454  0.4453 -0.0789 -0.0988
  546MPD2    H2 8106   3.887   2.588  17.468 -1.0311 -0.7193 -0.0392
  546MPD2    H3 8107   4.089   2.725  17.565 -1.3514  0.2568  0.9124
  546MPD2     N 8108   4.028   3.058  17.273 -0.0059 -0.6771 -0.0770
  546MPD2    H5 8109   4.119   3.089  17.303 -0.1331 -0.7535  0.3899
  546MPD2    N1 8110   3.731   2.646  17.301  0.1077 -0.2082  0.5563
  546MPD2    H7 8111   3.719   2.558  17.351  1.8108 -0.3206  0.7408
  547TMC3    C1 8112   3.514   2.586  17.225  0.0548  0.3498  0.3643
  547TMC3    C2 8113   3.410   2.622  17.137  0.0947 -0.1718  0.3598
  547TMC3    C3 8114   3.294   2.551  17.147 -1.3793  0.3252 -0.3235
  547TMC3    C4 8115   3.510   2.474  17.309 -0.5606  1.1994 -0.3436
  547TMC3    C5 8116   3.384   2.408  17.309  0.3942  0.4828 -0.4759
  547TMC3    C6 8117   3.287   2.446  17.228 -0.1294  0.2278 -0.2610
  547TMC3     C 8118   3.621   2.686  17.233  0.7469  0.2575  0.6622
  547TMC3     O 8119   3.602   2.796  17.177 -0.1372 -0.0198  0.1727
  547TMC3     H 8120   3.419   2.706  17.069  1.1279 -1.1166 -0.6811
  547TMC3    H1 8121   3.593   2.441  17.370 -0.0063  1.3543 -1.0156
  547TMC3    H2 8122   3.196   2.388  17.242 -0.3460  0.9106  1.1904
  547TMC3    C7 8123   3.368   2.295  17.398 -0.1624  0.1003  0.4740
  547TMC3    C8 8124   3.176   2.600  17.078  0.4881 -0.8433  0.4859
  547TMC3    O1 8125   3.293   2.207  17.365 -0.9439  0.7994 -0.4292
  547TMC3    O2 8126   3.182   2.714  17.040 -0.2246  0.2157 -0.0396
  548MPD2     C 8127   3.184   3.527  12.410 -0.4602  0.6301 -0.6837
  548MPD2    C1 8128   3.094   3.455  12.337  0.1606  0.7834 -0.0844
  548MPD2    C2 8129   3.150   3.359  12.246 -0.2743  0.1368  0.6350
  548MPD2    C3 8130   3.287   3.330  12.243  0.3115 -0.3058  0.2708
  548MPD2    C4 8131   3.370   3.408  12.314  0.4539 -0.5978 -0.2961
  548MPD2    C5 8132   3.316   3.511  12.387  0.2528  0.1290  0.1855
  548MPD2     H 8133   3.093   3.291  12.184  0.1004  0.0860  0.3501
  548MPD2    H1 8134   3.476   3.390  12.317  0.4241 -0.7219  0.0586
  548MPD2    H2 8135   3.155   3.612  12.472 -0.0739  0.5565 -0.4070
  548MPD2    H3 8136   3.384   3.573  12.444  1.7459 -2.9133  1.7141
  548MPD2     N 8137   3.333   3.213  12.175 -0.3413 -0.4493  0.0627
  548MPD2    H5 8138   3.259   3.182  12.113 -1.7677  1.9434  0.5418
  548MPD2    N1 8139   2.955   3.481  12.368  0.1770  0.7943 -0.3925
  548MPD2    H7 8140   2.935   3.565  12.421  2.5384  0.4781  1.0432
  549TMC3    C1 8141   2.718   3.454  12.340  0.0904 -0.6113  0.2928
  549TMC3    C2 8142   2.699   3.588  12.324 -0.1742 -0.1369  0.3461
  549TMC3    C3 8143   2.570   3.629  12.320 -0.8087  0.1374  0.1552
  549TMC3    C4 8144   2.623   3.359  12.364  0.3802 -0.4098  0.4289
  549TMC3    C5 8145   2.494   3.406  12.363  0.4613  0.6972 -0.3328
  549TMC3    C6 8146   2.471   3.538  12.344  0.0415 -0.8684 -0.5680
  549TMC3     C 8147   2.851   3.407  12.315 -0.0934  0.0562  0.3391
  549TMC3     O 8148   2.862   3.298  12.267 -0.2222  0.8013  0.5081
  549TMC3     H 8149   2.777   3.650  12.281 -0.0934 -0.8179 -0.4999
  549TMC3    H1 8150   2.656   3.258  12.385 -2.8720 -2.0542 -2.4037
  549TMC3    H2 8151   2.367   3.566  12.337 -0.0678 -1.7612 -2.4105
  549TMC3    C7 8152   2.380   3.312  12.374  1.0000  0.0612 -0.9314
  549TMC3    C8 8153   2.531   3.751  12.257  0.1914 -0.5894 -0.4562
  549TMC3    O1 8154   2.273   3.359  12.393 -0.0022 -0.0000  1.0643
  549TMC3    O2 8155   2.427   3.757  12.195  0.3279  0.5479 -0.7147
  550TMC3    C1 8156   2.138   1.549  12.258 -0.8652 -0.2438 -0.5928
  550TMC3    C2 8157   2.091   1.650  12.338 -0.3311 -0.2909 -0.0442
  550TMC3    C3 8158   1.969   1.709  12.305  0.5137  1.4760  0.2415
  550TMC3    C4 8159   2.063   1.494  12.156  0.0564 -0.0153  0.0428
  550TMC3    C5 8160   1.952   1.562  12.115 -0.1359  1.1539 -0.7899
  550TMC3    C6 8161   1.899   1.667  12.193 -0.3096 -0.2989  0.0286
  550TMC3     C 8162   2.264   1.479  12.288 -0.5120  0.6153  0.1678
  550TMC3     O 8163   2.311   1.486  12.401 -0.2882 -0.4286  0.5284
  550TMC3     H 8164   2.158   1.706  12.402 -0.3081 -1.0724  0.6200
  550TMC3    H1 8165   2.091   1.402  12.106  1.1235  0.5277 -0.3561
  550TMC3    H2 8166   1.818   1.733  12.162 -2.0131 -2.2207  0.4188
  550TMC3    C7 8167   1.864   1.505  12.012  0.6454 -0.2881 -0.9045
  550TMC3    C8 8168   1.901   1.806  12.390 -0.7125 -0.7708 -0.3546
  550TMC3    O1 8169   1.745   1.528  12.029 -0.2798  0.7373 -0.2097
  550TMC3    O2 8170   1.798   1.854  12.350  0.3484  0.2586 -0.4691
  551TMC3    C1 8171   3.904   4.225  13.235  0.0490 -0.7318 -0.5174
  551TMC3    C2 8172   3.973   4.339  13.197  0.9587 -0.4482  0.5950
  551TMC3    C3 8173   4.049   4.401  13.290 -0.3345  0.0402  0.2868
  551TMC3    C4 8174   3.908   4.193  13.369 -0.6250  0.1271 -0.4781
  551TMC3    C5 8175   3.964   4.268  13.465  0.1013 -0.7614 -0.3102
  551TMC3    C6 8176   4.052   4.366  13.419  0.1932 -0.1212  0.4063
  551TMC3     C 8177   3.908   4.108  13.150 -0.0139  0.1962 -0.8292
  551TMC3     O 8178   3.943   4.135  13.038 -0.9702 -0.3845 -0.0412
  551TMC3     H 8179   3.979   4.352  13.089  0.2055 -1.8286  0.3809
  551TMC3    H1 8180   3.838   4.116  13.400 -0.1675  1.1869  3.1992
  551TMC3    H2 8181   4.120   4.413  13.489 -1.5843  2.0061  0.6833
  551TMC3    C7 8182   3.999   4.212  13.591  1.0940  0.9866  0.5616
  551TMC3    C8 8183   4.177   4.431  13.241 -0.0004  0.3675 -0.4855
  551TMC3    O1 8184   4.081   4.276  13.661  0.1814  0.1482 -1.0866
  551TMC3    O2 8185   4.269   4.379  13.306  0.5289 -0.4992 -0.2258
  552MPD2     C 8186   1.337   1.257  13.754 -0.0295 -0.5195  0.7481
  552MPD2    C1 8187   1.324   1.175  13.866  0.0684 -0.1226 -0.2162
  552MPD2    C2 8188   1.433   1.155  13.954  0.4836  0.3934 -0.2447
  552MPD2    C3 8189   1.553   1.220  13.934 -0.6230 -0.1439 -0.7303
  552MPD2    C4 8190   1.558   1.299  13.825 -0.3921  0.2688  0.7332
  552MPD2    C5 8191   1.453   1.322  13.737 -0.0253 -0.1915  0.1392
  552MPD2     H 8192   1.429   1.090  14.040 -2.0244 -0.5323 -1.0553
  552MPD2    H1 8193   1.650   1.356  13.818  0.6822 -1.6313 -0.9263
  552MPD2    H2 8194   1.260   1.273  13.680  1.8353 -1.2503 -1.3314
  552MPD2    H3 8195   1.461   1.408  13.672 -1.2107  0.4238  0.7904
  552MPD2     N 8196   1.658   1.222  14.028  0.7126  0.0560  0.0693
  552MPD2    H5 8197   1.726   1.295  14.009 -1.0954  0.9717 -2.9121
  552MPD2    N1 8198   1.201   1.113  13.909  0.5442  0.5862  0.7934
  552MPD2    H7 8199   1.209   1.044  13.983 -0.6752 -0.2694  0.1304
  553TMC3    C1 8200   0.986   1.028  13.899 -0.0276  0.3431 -0.3149
  553TMC3    C2 8201   0.883   0.997  13.815 -0.3053 -0.7214  0.2284
  553TMC3    C3 8202   0.826   0.880  13.844  0.5054 -0.4755 -0.7118
  553TMC3    C4 8203   1.019   0.949  14.005 -1.2020 -0.2857  0.5403
  553TMC3    C5 8204   0.949   0.833  14.031 -0.0372  0.9442 -0.2352
  553TMC3    C6 8205   0.842   0.810  13.957  0.4361 -0.8289 -0.0315
  553TMC3     C 8206   1.074   1.132  13.854  1.1274 -0.1100 -0.1101
  553TMC3     O 8207   1.050   1.195  13.751 -0.0080 -0.0371 -0.0749
  553TMC3     H 8208   0.852   1.058  13.731  0.9316 -1.3747 -0.7027
  553TMC3    H1 8209   1.098   0.974  14.075  0.2054 -3.2517  0.0147
  553TMC3    H2 8210   0.796   0.712  13.967 -0.6415 -0.0963  2.1756
  553TMC3    C7 8211   0.996   0.719  14.111  1.2534 -0.1798  0.5782
  553TMC3    C8 8212   0.809   0.803  13.726 -1.0536  0.2068 -0.3706
  553TMC3    O1 8213   0.914   0.648  14.169 -0.1259  0.5345  0.5670
  553TMC3    O2 8214   0.723   0.716  13.722  0.1017 -0.0607  0.3082
  554TMC3    C1 8215   3.529   0.500  11.503  0.3928 -0.5650 -0.2661
  554TMC3    C2 8216   3.462   0.487  11.383 -0.5360 -0.0680 -0.3928
  554TMC3    C3 8217   3.461   0.592  11.293 -0.0791  0.0194 -0.2141
  554TMC3    C4 8218   3.604   0.611  11.534  0.1657 -0.2889  0.4437
  554TMC3    C5 8219   3.592   0.719  11.448  0.3237 -0.2082  0.7045
  554TMC3    C6 8220   3.523   0.713  11.326  0.7297  0.3436  0.2246
  554TMC3     C 8221   3.540   0.381  11.585 -0.7346 -0.0234 -0.6784
  554TMC3     O 8222   3.527   0.272  11.531  0.0313  0.0260 -0.4300
  554TMC3     H 8223   3.399   0.401  11.367  0.4105 -0.3116 -2.6927
  554TMC3    H1 8224   3.658   0.617  11.628  1.6710  0.5890 -0.4663
  554TMC3    H2 8225   3.523   0.795  11.255  1.9956 -0.5949 -0.8586
  554TMC3    C7 8226   3.670   0.835  11.467 -0.6405  0.0590  0.1434
  554TMC3    C8 8227   3.416   0.576  11.156 -0.2447 -0.8209 -0.3662
  554TMC3    O1 8228   3.780   0.830  11.424  0.2902 -1.1137  0.4695
  554TMC3    O2 8229   3.419   0.677  11.084  0.9441 -0.2114 -0.2565
  555TMC3    C1 8230   2.208   0.167  15.064 -0.6352  0.0623 -0.4305
  555TMC3    C2 8231   2.323   0.233  15.062 -0.8010  0.0751 -0.8063
  555TMC3    C3 8232   2.433   0.158  15.097 -0.8551  0.4882 -0.0403
  555TMC3    C4 8233   2.188   0.034  15.090 -0.5215 -0.1932  0.2184
  555TMC3    C5 8234   2.306   4.685  15.115  0.0039 -0.2165 -0.3397
  555TMC3    C6 8235   2.429   0.022  15.120 -0.1360 -0.9020  0.1489
  555TMC3     C 8236   2.090   0.224  14.993  0.0754  0.3967 -0.3285
  555TMC3     O 8237   2.021   0.155  14.922  0.3623  0.2317  0.5091
  555TMC3     H 8238   2.326   0.340  15.044  1.1661  0.1526 -0.0364
  555TMC3    H1 8239   2.088   4.716  15.080 -0.5626 -0.0309 -0.0243
  555TMC3    H2 8240   2.515   4.682  15.101 -0.0180 -1.2290  1.8012
  555TMC3    C7 8241   2.288   4.541  15.134 -0.2619 -0.2008 -0.1705
  555TMC3    C8 8242   2.562   0.221  15.088 -0.1414  0.1123  0.4177
  555TMC3    O1 8243   2.174   4.492  15.132 -0.6023 -0.2148  0.0117
  555TMC3    O2 8244   2.571   0.329  15.035  0.4248  0.3452 -0.5175
  556MPD2     C 8245   0.299   1.695  10.138  0.0967  0.3719  0.1136
  556MPD2    C1 8246   0.248   1.569  10.182 -0.5823  0.5625 -0.0225
  556MPD2    C2 8247   0.180   1.501  10.086  0.3337  0.2378  0.1975
  556MPD2    C3 8248   0.167   1.547   9.957  0.9094  0.2345  0.1536
  556MPD2    C4 8249   0.223   1.668   9.922 -0.2449  1.5074  0.3642
  556MPD2    C5 8250   0.292   1.741  10.010  0.0718  0.1338 -0.7938
  556MPD2     H 8251   0.141   1.404  10.115 -0.2928  1.1556  2.3757
  556MPD2    H1 8252   0.211   1.714   9.824  0.9959  0.1701 -0.4076
  556MPD2    H2 8253   0.341   1.769  10.205 -0.0336 -0.0236  0.6308
  556MPD2    H3 8254   0.331   1.838   9.982 -0.5487  0.5479 -0.2514
  556MPD2     N 8255   0.081   1.472   9.869  0.9865 -0.0709  0.5173
  556MPD2    H5 8256   0.032   1.395   9.912  0.6123  0.1899  0.5594
  556MPD2    N1 8257   0.261   1.515  10.308 -0.1893  0.5678 -0.6153
  556MPD2    H7 8258   0.207   1.430  10.322  0.5276 -0.0410 -1.5907
  557TMC3    C1 8259   4.668   1.441   9.680 -0.2913  0.3920 -0.3649
  557TMC3    C2 8260   4.658   1.439   9.539 -0.2058  0.4829 -0.3430
  557TMC3    C3 8261   4.548   1.376   9.484 -0.3541 -0.4238 -0.0083
  557TMC3    C4 8262   4.578   1.379   9.767  0.4696 -0.8006 -0.1307
  557TMC3    C5 8263   4.480   1.302   9.703  0.0693 -0.3798  0.1494
  557TMC3    C6 8264   4.463   1.304   9.561 -0.3074  0.0625  0.6052
  557TMC3     C 8265   0.069   1.491   9.734  0.5772 -1.0111  0.0845
  557TMC3     O 8266   0.147   1.546   9.661  0.7751 -0.2854  0.5605
  557TMC3     H 8267   0.008   1.485   9.472 -0.2625 -1.0578 -1.4560
  557TMC3    H1 8268   4.579   1.380   9.875 -0.7867 -3.0951 -0.0897
  557TMC3    H2 8269   4.381   1.245   9.523  0.5575 -0.6185 -0.1934
  557TMC3    C7 8270   4.404   1.209   9.788 -0.4750 -0.7405  0.0518
  557TMC3    C8 8271   4.532   1.382   9.338 -0.1028 -0.4139  0.2498
  557TMC3    O1 8272   4.429   1.218   9.906 -0.1850  0.9357 -0.4935
  557TMC3    O2 8273   4.607   1.462   9.279  0.5451 -0.3280 -0.2290
  558TMC3    C1 8274   2.252   4.313   9.925 -1.0062 -0.0511  0.2267
  558TMC3    C2 8275   2.224   4.265  10.049 -0.0630 -0.3212 -0.2621
  558TMC3    C3 8276   2.092   4.262  10.082  0.2944 -0.8817  0.4630
  558TMC3    C4 8277   2.161   4.360   9.839  0.5012  0.8098 -0.0651
  558TMC3    C5 8278   2.032   4.363   9.883  0.0519  0.1929 -0.4246
  558TMC3    C6 8279   1.996   4.310  10.002  0.4903  0.0520  0.1656
  558TMC3     C 8280   2.384   4.293   9.867  0.4624 -0.1312 -1.0646
  558TMC3     O 8281   2.382   4.285   9.747 -0.2907  0.4382 -0.2795
  558TMC3     H 8282   2.307   4.239  10.114 -0.2171  2.3621  1.0369
  558TMC3    H1 8283   2.185   4.389   9.738 -1.8120 -1.5709 -1.3255
  558TMC3    H2 8284   1.892   4.305  10.031  0.1550 -0.8144 -1.2171
  558TMC3    C7 8285   1.930   4.444   9.811 -0.4494  0.4402  0.0182
  558TMC3    C8 8286   2.043   4.202  10.206 -0.3866 -0.0062 -0.2063
  558TMC3    O1 8287   1.974   4.491   9.706  0.4702 -0.7929 -0.1480
  558TMC3    O2 8288   1.922   4.211  10.226 -0.6095 -0.5081 -0.2553
  559MPD2     C 8289   2.899   0.005  10.496 -0.3014  0.0370  0.1774
  559MPD2    C1 8290   2.850   4.680  10.617 -0.2517 -0.1714 -0.0765
  559MPD2    C2 8291   2.939   4.640  10.715 -0.5191  0.5944  0.2803
  559MPD2    C3 8292   3.084   4.650  10.688  0.4268 -0.3988  1.2781
  559MPD2    C4 8293   3.125   4.717  10.577 -0.4280  0.2990  0.2447
  559MPD2    C5 8294   3.036   0.030  10.483  0.2321  0.8132 -0.0478
  559MPD2     H 8295   2.904   4.602  10.810 -1.7825  1.5183  0.1822
  559MPD2    H1 8296   3.227   0.019  10.550 -0.7682  1.7584  0.3140
  559MPD2    H2 8297   2.841   0.035  10.409 -0.4823 -2.0730 -0.4302
  559MPD2    H3 8298   3.070   0.074  10.390  0.1229  1.9778  0.4612
  559MPD2     N 8299   3.179   4.582  10.768 -0.3443  0.3254  0.1414
  559MPD2    H5 8300   3.143   4.523  10.843  1.8337 -2.3298 -0.8875
  559MPD2    N1 8301   2.711   4.668  10.624  0.1780 -0.5410  0.2415
  559MPD2    H7 8302   2.654   4.696  10.544  1.1428 -1.5363 -0.7993
  560TMC3    C1 8303   3.387   4.491  10.820  0.5892 -0.3202  0.0461
  560TMC3    C2 8304   3.338   4.368  10.828  0.4143 -0.2106  0.9200
  560TMC3    C3 8305   3.382   4.280  10.922  0.0722 -0.0163 -0.5991
  560TMC3    C4 8306   3.479   4.542  10.911 -0.4681 -0.1890 -0.1890
  560TMC3    C5 8307   3.526   4.447  10.998  0.1621 -0.3244 -0.4998
  560TMC3    C6 8308   3.478   4.318  11.007 -0.4504 -0.4199 -0.2256
  560TMC3     C 8309   3.315   4.593  10.753  0.1772  0.9533 -0.2109
  560TMC3     O 8310   3.382   4.682  10.700  0.2238 -0.4741 -0.4154
  560TMC3     H 8311   3.249   4.340  10.773  1.2305  1.8104 -1.4403
  560TMC3    H1 8312   3.491   4.648  10.927  0.5320 -0.1678 -1.1239
  560TMC3    H2 8313   3.511   4.256  11.089  0.1598 -0.8289 -0.7858
  560TMC3    C7 8314   3.610   4.488  11.105 -0.7856 -0.7183 -0.0630
  560TMC3    C8 8315   3.310   4.161  10.932  0.1329 -1.2590  0.5253
  560TMC3    O1 8316   3.603   4.431  11.215  0.2339  0.6475 -0.2253
  560TMC3    O2 8317   3.239   4.138  10.838  0.0976  0.0157 -0.0303
  561TMC3    C1 8318   0.655   3.795  11.414 -0.1472  0.2454  0.4859
  561TMC3    C2 8319   0.577   3.725  11.507 -0.6407  0.4650 -0.1753
  561TMC3    C3 8320   0.523   3.804  11.605 -0.9551  0.7492  0.0465
  561TMC3    C4 8321   0.674   3.932  11.423 -0.2183 -0.0396 -0.1331
  561TMC3    C5 8322   0.615   4.000  11.525  1.0591  0.1260 -0.2573
  561TMC3    C6 8323   0.526   3.939  11.611  0.3092  0.0624 -0.0296
  561TMC3     C 8324   0.716   3.715  11.316  0.1360  0.3484  0.2961
  561TMC3     O 8325   0.698   3.594  11.326 -0.0025 -0.1684  0.2720
  561TMC3     H 8326   0.550   3.620  11.515 -0.5544  0.6681  2.8102
  561TMC3    H1 8327   0.729   3.983  11.345  0.0739  0.8699  0.6707
  561TMC3    H2 8328   0.487   3.992  11.698 -0.5993  0.1660 -0.4903
  561TMC3    C7 8329   0.630   4.143  11.537  0.9035 -0.2187 -0.0782
  561TMC3    C8 8330   0.430   3.743  11.699 -0.3871 -0.6749 -0.2524
  561TMC3    O1 8331   0.537   4.207  11.590 -0.1901  0.1569 -0.2991
  561TMC3    O2 8332   0.443   3.626  11.733  0.9414 -0.6066  0.2173
  562TMC3    C1 8333   2.123   0.258  16.118 -0.1962  0.4521  0.0512
  562TMC3    C2 8334   2.018   0.346  16.118 -0.4444 -0.2029 -0.0234
  562TMC3    C3 8335   1.928   0.350  16.015  1.1592  0.1870  0.0775
  562TMC3    C4 8336   2.152   0.180  16.008  0.3031  0.7073  0.0220
  562TMC3    C5 8337   2.060   0.197  15.907 -1.1077  0.1758 -0.5534
  562TMC3    C6 8338   1.946   0.276  15.907  0.7030 -0.1239 -0.2405
  562TMC3     C 8339   2.222   0.251  16.219 -0.1408  0.1825 -0.2981
  562TMC3     O 8340   2.315   0.171  16.192 -0.1762  0.6455  0.6551
  562TMC3     H 8341   2.001   0.420  16.195 -1.8708  1.2373 -1.7190
  562TMC3    H1 8342   2.247   0.128  15.999 -0.4109 -0.6525  0.4048
  562TMC3    H2 8343   1.881   0.270  15.821 -1.6904  0.4256  1.5470
  562TMC3    C7 8344   2.100   0.145  15.775  0.5399 -0.5970  0.3806
  562TMC3    C8 8345   1.816   0.439  16.018 -0.3356 -0.1517 -0.0152
  562TMC3    O1 8346   2.088   0.220  15.675  0.3490  0.6077 -0.0371
  562TMC3    O2 8347   1.772   0.462  16.130 -0.6772  0.0033  0.0567
  563MPD2     C 8348   4.285   1.563  15.407  0.1336  0.0653  0.2245
  563MPD2    C1 8349   4.345   1.626  15.513  0.1801 -0.2199 -0.6487
  563MPD2    C2 8350   4.474   1.583  15.550 -0.2973  0.3182  0.4828
  563MPD2    C3 8351   4.533   1.483  15.488  1.1564 -0.2112 -0.8737
  563MPD2    C4 8352   4.469   1.414  15.387  0.5219  0.5714  0.4156
  563MPD2    C5 8353   4.344   1.452  15.352 -0.4204  0.3369  0.5531
  563MPD2     H 8354   4.531   1.632  15.629 -0.3913  2.8650 -1.0200
  563MPD2    H1 8355   4.508   1.323  15.341 -3.2799 -1.0771  0.4390
  563MPD2    H2 8356   4.182   1.584  15.379 -0.2811 -1.0236  0.9843
  563MPD2    H3 8357   4.285   1.394  15.281 -0.2650  1.0106 -0.1281
  563MPD2     N 8358   4.661   1.434  15.534 -0.6146 -0.0020  0.2176
  563MPD2    H5 8359   4.700   1.474  15.618  3.0968 -2.5697 -0.2358
  563MPD2    N1 8360   4.281   1.742  15.566  0.1335 -0.2980 -0.2830
  563MPD2    H7 8361   4.189   1.771  15.536  0.6495  0.4638 -1.1107
  564TMC3    C1 8362   4.257   1.892  15.744 -0.3971  0.1742  0.8359
  564TMC3    C2 8363   4.123   1.866  15.746 -0.3808  0.6505  0.0932
  564TMC3    C3 8364   4.055   1.867  15.866 -0.1712 -0.9322 -0.1898
  564TMC3    C4 8365   4.321   1.942  15.856 -0.0386  0.0035  0.4546
  564TMC3    C5 8366   4.255   1.923  15.977  0.2603 -0.1676 -0.0168
  564TMC3    C6 8367   4.123   1.893  15.979 -0.1576  0.6538 -0.0835
  564TMC3     C 8368   4.344   1.832  15.646 -0.5661  0.2156  0.1658
  564TMC3     O 8369   4.465   1.838  15.673 -0.1921  0.2520 -0.2256
  564TMC3     H 8370   4.070   1.861  15.651  2.9253  1.0091 -1.7798
  564TMC3    H1 8371   4.427   1.962  15.856  0.3787 -2.3039 -0.2362
  564TMC3    H2 8372   4.083   1.867  16.076  1.9181 -1.2933  0.2693
  564TMC3    C7 8373   4.323   1.818  16.048 -0.2891  0.4641 -0.4131
  564TMC3    C8 8374   3.979   1.741  15.890 -0.8245 -0.0438 -0.0689
  564TMC3    O1 8375   4.307   1.809  16.169  0.0657 -0.4691 -0.1258
  564TMC3    O2 8376   3.940   1.718  16.001 -0.5872  0.2084  1.0946
  565TMC3    C1 8377   4.427   2.892   9.706 -0.5450  0.1011  0.3066
  565TMC3    C2 8378   4.440   2.756   9.742  0.0996  0.1618  0.0133
  565TMC3    C3 8379   4.404   2.658   9.645  0.8540  0.5722 -0.1454
  565TMC3    C4 8380   4.377   2.926   9.585 -0.1635  0.2541  0.3870
  565TMC3    C5 8381   4.362   2.825   9.496  0.9456  0.3885  0.4489
  565TMC3    C6 8382   4.380   2.695   9.520  0.1157 -0.3815  0.2483
  565TMC3     C 8383   4.487   2.995   9.787  0.6481  0.4411  0.2721
  565TMC3     O 8384   4.476   3.110   9.748  0.0815  0.2191  0.0829
  565TMC3     H 8385   4.482   2.715   9.833  3.1224  0.6561 -1.1673
  565TMC3    H1 8386   4.390   3.028   9.551  3.0422 -0.9011 -1.8374
  565TMC3    H2 8387   4.343   2.625   9.446 -0.2858  0.5372 -0.4340
  565TMC3    C7 8388   4.312   2.862   9.367 -0.5379  0.1035  0.5929
  565TMC3    C8 8389   4.437   2.523   9.672 -0.8130 -0.0230  0.1903
  565TMC3    O1 8390   4.352   2.967   9.320 -0.1953  0.1911 -0.0692
  565TMC3    O2 8391   4.513   2.504   9.767 -0.4422  0.0103  0.3329
  566MPD2     C 8392   1.925   0.286  14.232  0.6016 -0.5453  0.3487
  566MPD2    C1 8393   1.974   0.306  14.107 -0.2113 -0.1469 -0.0257
  566MPD2    C2 8394   1.887   0.259  14.005  0.2690 -0.4604 -0.9195
  566MPD2    C3 8395   1.767   0.195  14.038 -0.0638  0.0607  0.0393
  566MPD2    C4 8396   1.728   0.178  14.172 -0.6378  0.0177  0.1659
  566MPD2    C5 8397   1.803   0.233  14.265  0.3175 -0.5148 -0.7260
  566MPD2     H 8398   1.925   0.247  13.904 -0.5140  1.8429 -1.5079
  566MPD2    H1 8399   1.638   0.125  14.199 -1.8695  1.9667 -0.0437
  566MPD2    H2 8400   1.984   0.322  14.315  0.4515 -0.0936  0.2635
  566MPD2    H3 8401   1.780   0.213  14.369  1.1331  3.0691  0.1655
  566MPD2     N 8402   1.693   0.132  13.927 -0.2750  0.0191  0.4025
  566MPD2    H5 8403   1.726   0.143  13.831 -0.7648 -0.3803  0.1914
  566MPD2    N1 8404   2.109   0.334  14.080 -0.0201  0.0819  0.3139
  566MPD2    H7 8405   2.171   0.313  14.158  1.1308  2.7268  0.1005
  567TMC3    C1 8406   2.291   0.227  13.971 -0.2599  0.6008 -0.0403
  567TMC3    C2 8407   2.372   0.233  13.859  0.1626  0.4194 -0.0801
  567TMC3    C3 8408   2.445   0.125  13.826 -0.4791  0.2296  0.2391
  567TMC3    C4 8409   2.290   0.118  14.044  0.4307  0.6508 -0.4308
  567TMC3    C5 8410   2.359   0.003  14.009 -0.2924 -0.1641  0.0451
  567TMC3    C6 8411   2.433   0.004  13.898  0.4208  1.0277  0.1318
  567TMC3     C 8412   2.174   0.310  13.965  0.1397  0.1124  0.0694
  567TMC3     O 8413   2.128   0.348  13.858 -0.2548  0.6512  0.4152
  567TMC3     H 8414   2.360   0.307  13.781  0.1499 -0.5923 -1.0419
  567TMC3    H1 8415   2.214   0.105  14.121  1.6654 -0.8421  0.5434
  567TMC3    H2 8416   2.491   4.640  13.870 -3.0878 -1.7541  1.5401
  567TMC3    C7 8417   2.330   4.599  14.066 -0.4556  0.1371  1.2040
  567TMC3    C8 8418   2.482   0.123  13.685 -0.2279 -0.3111 -0.0722
  567TMC3    O1 8419   2.398   4.507  14.027  0.8337 -0.0541  0.3510
  567TMC3    O2 8420   2.466   0.020  13.618 -0.1969 -0.1373 -0.6262
  568MPD2     C 8421   3.883   0.322  16.600 -0.3789 -0.1815  0.7183
  568MPD2    C1 8422   4.015   0.359  16.619  0.1624 -0.4023 -0.0706
  568MPD2    C2 8423   4.061   0.477  16.571  0.1581 -0.0377  0.3743
  568MPD2    C3 8424   3.971   0.562  16.509 -0.0315  0.1739 -0.1966
  568MPD2    C4 8425   3.841   0.518  16.485  0.5620  0.1325  0.7982
  568MPD2    C5 8426   3.800   0.391  16.515 -0.1399 -0.2318  0.4610
  568MPD2     H 8427   4.168   0.490  16.567  0.4613 -2.8142 -0.8159
  568MPD2    H1 8428   3.762   0.573  16.434  1.2399 -2.2737 -2.8198
  568MPD2    H2 8429   3.860   0.227  16.648  0.7773 -0.6519  0.3329
  568MPD2    H3 8430   3.706   0.354  16.476  0.6898 -2.0778  0.2346
  568MPD2     N 8431   4.019   0.682  16.455  0.5696  0.7838 -0.5171
  568MPD2    H5 8432   4.118   0.699  16.469  0.3093  0.7074  1.4108
  568MPD2    N1 8433   4.097   0.264  16.684  0.2500 -0.2432  0.5060
  568MPD2    H7 8434   4.049   0.177  16.702 -0.0318 -0.4642 -1.3464
  569TMC3    C1 8435   4.032   0.877  16.314 -0.9554 -0.2844  0.3600
  569TMC3    C2 8436   4.109   0.939  16.411 -0.5304 -0.3787 -0.2713
  569TMC3    C3 8437   4.167   1.056  16.366 -0.1998  0.5291 -0.7970
  569TMC3    C4 8438   3.988   0.934  16.201 -0.0992 -0.7944 -0.0397
  569TMC3    C5 8439   4.047   1.052  16.162  0.0673  0.1694  0.0503
  569TMC3    C6 8440   4.142   1.114  16.237  0.3493 -0.2658 -0.0002
  569TMC3     C 8441   3.957   0.764  16.361 -1.3640  0.2854 -0.5905
  569TMC3     O 8442   3.847   0.749  16.312  0.0717  0.5313 -0.0014
  569TMC3     H 8443   4.129   0.893  16.507  1.3362  2.1675  0.5850
  569TMC3    H1 8444   3.928   0.879  16.129 -0.6261 -1.2055  0.7150
  569TMC3    H2 8445   4.182   1.207  16.197 -0.7300  1.0551  2.0129
  569TMC3    C7 8446   4.024   1.094  16.030 -0.1323  0.2397 -0.2103
  569TMC3    C8 8447   4.186   1.155  16.471 -0.8154 -0.7414 -0.5683
  569TMC3    O1 8448   4.031   1.006  15.946  0.4331 -0.2605  0.1132
  569TMC3    O2 8449   4.149   1.264  16.426 -0.8422 -0.0115 -0.4766
  570TMC3    C1 8450   3.472   3.449  16.389 -0.2088  0.4581  0.3296
  570TMC3    C2 8451   3.554   3.453  16.283  0.1322 -0.2912 -0.3683
  570TMC3    C3 8452   3.528   3.545  16.184 -0.2149 -0.4521 -0.5806
  570TMC3    C4 8453   3.369   3.533  16.398 -0.0757  0.7233 -0.5981
  570TMC3    C5 8454   3.344   3.616  16.295  0.2275  0.6663 -0.4313
  570TMC3    C6 8455   3.422   3.627  16.186 -0.0980 -0.4466 -0.4073
  570TMC3     C 8456   3.519   3.366  16.497  0.5608  0.6208 -0.1296
  570TMC3     O 8457   3.579   3.261  16.473  0.1819 -0.1146  0.6257
  570TMC3     H 8458   3.648   3.400  16.295  0.8492  1.1368  0.2771
  570TMC3    H1 8459   3.300   3.524  16.481 -0.7064  1.4443 -1.0464
  570TMC3    H2 8460   3.405   3.706  16.114  0.9532 -0.8528 -1.0930
  570TMC3    C7 8461   3.261   3.731  16.313  0.1130  0.6595 -0.1635
  570TMC3    C8 8462   3.626   3.577  16.084  0.0854  0.5947 -0.4728
  570TMC3    O1 8463   3.302   3.832  16.264 -0.1267 -0.3491  0.9185
  570TMC3    O2 8464   3.611   3.679  16.015  0.1162  0.3972  0.2780
  571MPD2     C 8465   1.830   0.955  17.390  0.3917  0.2091 -0.6398
  571MPD2    C1 8466   1.696   0.975  17.363  0.0351 -0.0491  0.0357
  571MPD2    C2 8467   1.627   1.049  17.463 -0.5400 -0.8582 -0.6727
  571MPD2    C3 8468   1.689   1.098  17.577  0.3953  0.5737 -0.2716
  571MPD2    C4 8469   1.820   1.065  17.603 -0.6109  0.1320 -0.5783
  571MPD2    C5 8470   1.883   0.986  17.509  0.0928  0.1680 -0.4034
  571MPD2     H 8471   1.521   1.069  17.452 -0.6326 -0.8588  0.2190
  571MPD2    H1 8472   1.872   1.086   0.003 -0.5986  1.1386 -0.8117
  571MPD2    H2 8473   1.894   0.908  17.316 -2.0478 -1.6575 -1.5720
  571MPD2    H3 8474   1.986   0.955  17.526  0.3078  1.2725  0.3420
  571MPD2     N 8475   1.617   1.165  17.683 -0.1507 -0.0285  0.5881
  571MPD2    H5 8476   1.679   1.190   0.065  0.0863 -0.7331  0.6252
  571MPD2    N1 8477   1.632   0.929  17.249  0.0462 -0.4058  1.0023
  571MPD2    H7 8478   1.680   0.869  17.182  0.4780  0.1059  0.8543
  572TMC3    C1 8479   1.439   1.267   0.111  0.9741 -0.4075 -0.0844
  572TMC3    C2 8480   1.510   1.241   0.220  0.1933  0.3513 -0.2101
  572TMC3    C3 8481   1.479   1.305   0.334 -0.0904  0.2534  0.3513
  572TMC3    C4 8482   1.342   1.361   0.107 -0.3863 -0.7645 -0.1826
  572TMC3    C5 8483   1.321   1.431   0.219  0.3582 -0.8834 -0.6670
  572TMC3    C6 8484   1.393   1.410   0.336 -0.6289 -0.0829 -0.0361
  572TMC3     C 8485   1.482   1.201  17.680 -0.4785  0.5648  0.6432
  572TMC3     O 8486   1.393   1.178  17.596 -0.2983 -0.0661  0.0115
  572TMC3     H 8487   1.561   1.147   0.235 -0.2086 -0.2792 -2.7943
  572TMC3    H1 8488   1.279   1.384   0.022  0.2940  0.6350 -0.2991
  572TMC3    H2 8489   1.361   1.453   0.430 -0.7927  0.7126 -0.4563
  572TMC3    C7 8490   1.197   1.509   0.213 -0.3197  0.0227 -0.5847
  572TMC3    C8 8491   1.555   1.274   0.453 -0.1526 -0.0173 -0.3463
  572TMC3    O1 8492   1.122   1.501   0.121  0.4205  0.2628  0.0356
  572TMC3    O2 8493   1.650   1.197   0.440  0.9132 -0.3198 -0.2600
  573MPD2     C 8494   2.874   1.493   0.864 -0.0537  0.0680  0.3555
  573MPD2    C1 8495   3.009   1.511   0.844 -0.6042 -0.0186 -0.4556
  573MPD2    C2 8496   3.064   1.493   0.719  0.1748  0.5384  1.1921
  573MPD2    C3 8497   2.982   1.457   0.613  0.2694  0.1971  0.3441
  573MPD2    C4 8498   2.853   1.427   0.635 -0.1556 -0.7975 -0.1526
  573MPD2    C5 8499   2.802   1.448   0.759  1.2491 -0.5189  0.9938
  573MPD2     H 8500   3.162   1.532   0.696 -1.6935  3.1843 -2.1715
  573MPD2    H1 8501   2.780   1.403   0.559 -0.9248  1.1744 -0.0182
  573MPD2    H2 8502   2.828   1.526   0.957  0.4744  0.9992  0.2812
  573MPD2    H3 8503   2.694   1.457   0.758  1.3955  1.1167 -1.1665
  573MPD2     N 8504   3.024   1.441   0.482 -0.6025  0.5972 -0.1896
  573MPD2    H5 8505   2.957   1.407   0.414  0.2424 -1.0131 -0.2387
  573MPD2    N1 8506   3.084   1.570   0.950  0.9716  0.3530  0.1382
  573MPD2    H7 8507   3.035   1.588   1.037 -0.6455  0.8649 -0.8841
  574TMC3    C1 8508   3.156   1.488   0.293 -0.4961  0.3200 -0.1400
  574TMC3    C2 8509   3.105   1.372   0.231  0.3991 -0.0705 -0.1289
  574TMC3    C3 8510   3.132   1.366   0.101  0.2386  0.5439  0.5117
  574TMC3    C4 8511   3.237   1.582   0.236 -0.2816 -0.3255  0.2162
  574TMC3    C5 8512   3.257   1.571   0.103  0.0394 -1.1758 -0.4924
  574TMC3    C6 8513   3.217   1.457   0.038 -0.5223 -0.2386  0.4204
  574TMC3     C 8514   3.144   1.495   0.432  0.0755  0.3682 -0.1159
  574TMC3     O 8515   3.236   1.554   0.490  0.3773  0.3997 -0.0335
  574TMC3     H 8516   3.044   1.295   0.276 -1.4100  2.3825  1.6316
  574TMC3    H1 8517   3.247   1.677   0.287 -2.1515 -0.2754  0.4766
  574TMC3    H2 8518   3.255   1.432  17.633 -0.8624  2.7211 -0.4624
  574TMC3    C7 8519   3.376   1.623   0.040  0.6541  0.0548  0.4239
  574TMC3    C8 8520   3.116   1.238   0.039 -0.1369 -0.4839  0.1158
  574TMC3    O1 8521   3.387   1.613  17.613 -0.2516  0.0046  0.0231
  574TMC3    O2 8522   3.118   1.137   0.107 -0.8331  0.5754  0.4520
  575TMC3    C1 8523   0.013   1.963  10.223  0.1693  0.1626  1.2064
  575TMC3    C2 8524   4.704   1.832  10.220  0.6997 -0.3435 -0.1466
  575TMC3    C3 8525   4.664   1.772  10.101 -0.0617 -0.6912  0.1069
  575TMC3    C4 8526   0.007   2.042  10.107 -0.6527  0.1884  0.4845
  575TMC3    C5 8527   4.691   1.979   9.993 -0.0786  0.0687 -0.1142
  575TMC3    C6 8528   4.653   1.848   9.985  0.5672  0.4047  0.5242
  575TMC3     C 8529   4.717   2.028  10.349  0.1443  0.3330 -0.2626
  575TMC3     O 8530   0.001   1.955  10.449  0.2265 -1.0668 -0.0975
  575TMC3     H 8531   4.714   1.771  10.309  0.7842  0.5458  0.4489
  575TMC3    H1 8532   0.030   2.148  10.101 -1.3273  0.3134  0.1207
  575TMC3    H2 8533   4.633   1.800   9.890 -1.1414 -1.0219  1.6095
  575TMC3    C7 8534   4.660   2.066   9.880  0.0255 -0.2571  0.3398
  575TMC3    C8 8535   4.602   1.643  10.114 -0.1074 -0.5355  0.0692
  575TMC3    O1 8536   4.708   2.179   9.888  0.0112 -0.0893  0.1965
  575TMC3    O2 8537   4.540   1.619  10.014  0.1194  0.5150 -0.4225
  576MPD2     C 8538   4.253   4.588  12.439  0.2402  0.2684 -0.1758
  576MPD2    C1 8539   4.256   4.633  12.305  0.1367 -0.1631 -0.8416
  576MPD2    C2 8540   4.173   0.024  12.277  0.3250  0.1985 -0.0758
  576MPD2    C3 8541   4.105   0.094  12.378 -0.0829  0.1068 -0.1894
  576MPD2    C4 8542   4.119   0.053  12.510 -0.2119 -0.5533  0.0224
  576MPD2    C5 8543   4.188   4.660  12.533  0.4291 -0.0594  0.1119
  576MPD2     H 8544   4.169   0.066  12.177  1.0022  1.0815  0.2645
  576MPD2    H1 8545   4.071   0.108  12.590 -0.9592 -1.8267  0.4579
  576MPD2    H2 8546   4.297   4.492  12.463 -3.2554 -1.7424 -1.9171
  576MPD2    H3 8547   4.211   4.636  12.636 -0.9396 -1.2371  0.1445
  576MPD2     N 8548   4.045   0.215  12.346 -0.3482  0.7437  0.3565
  576MPD2    H5 8549   4.050   0.249  12.251 -3.0082 -1.3754 -0.5316
  576MPD2    N1 8550   4.317   4.561  12.196  0.2375  0.0208 -0.2442
  576MPD2    H7 8551   4.312   4.610  12.107  2.3147 -0.0865 -0.4317
  577TMC3    C1 8552   4.416   4.386  12.068  0.1219 -0.0239 -0.0362
  577TMC3    C2 8553   4.429   4.254  12.060  0.0118 -0.0662 -0.3493
  577TMC3    C3 8554   4.521   4.212  11.970 -0.1570 -0.4639  0.1199
  577TMC3    C4 8555   4.474   4.478  11.984  0.2876  0.2551  0.1085
  577TMC3    C5 8556   4.547   4.433  11.881  0.2067 -1.1931  0.3548
  577TMC3    C6 8557   4.573   4.299  11.885 -0.5050 -0.3876  0.1577
  577TMC3     C 8558   4.365   4.433  12.198 -0.1274  0.3904  0.1158
  577TMC3     O 8559   4.368   4.351  12.291  0.2641 -0.1418  0.3785
  577TMC3     H 8560   4.391   4.181  12.132  3.1376 -0.1508  1.2013
  577TMC3    H1 8561   4.449   4.584  11.988  1.6457  0.6285 -1.7658
  577TMC3    H2 8562   4.645   4.270  11.809  1.8974 -1.4922  2.8286
  577TMC3    C7 8563   4.659   4.514  11.830 -0.2112  0.3645  0.2109
  577TMC3    C8 8564   4.580   4.080  11.990  0.4507 -0.1114  0.1868
  577TMC3    O1 8565   4.714   4.592  11.905  0.1907  0.0632 -0.6948
  577TMC3    O2 8566   4.569   4.031  12.103 -0.4129 -0.3046 -0.0454
  578MPD2     C 8567   2.608   3.820   0.791 -0.2354 -0.1749 -0.0660
  578MPD2    C1 8568   2.716   3.852   0.708 -0.1850 -0.7625  0.7002
  578MPD2    C2 8569   2.846   3.839   0.748  0.5183  0.1245 -0.7874
  578MPD2    C3 8570   2.869   3.801   0.881  0.1083 -0.1798  0.4896
  578MPD2    C4 8571   2.761   3.768   0.963  0.4622 -0.0884 -0.2954
  578MPD2    C5 8572   2.632   3.777   0.919  0.0402  0.0717  0.2130
  578MPD2     H 8573   2.932   3.858   0.684  1.1824  2.0306  0.6662
  578MPD2    H1 8574   2.764   3.747   1.070  1.5518 -1.4772 -0.5884
  578MPD2    H2 8575   2.510   3.842   0.750 -0.2471 -0.9891 -0.4688
  578MPD2    H3 8576   2.549   3.753   0.984 -0.0358  1.6624  0.7061
  578MPD2     N 8577   3.002   3.815   0.924  0.6831  0.4186  0.3160
  578MPD2    H5 8578   3.071   3.846   0.856  0.2912 -0.6050 -0.5434
  578MPD2    N1 8579   2.686   3.914   0.586  0.7833  0.1904 -0.0533
  578MPD2    H7 8580   2.593   3.910   0.545  0.7476 -0.2254  0.0659
  579TMC3    C1 8581   3.192   3.789   1.046  0.1849  0.1359  0.1345
  579TMC3    C2 8582   3.251   3.835   1.160 -0.4017 -0.0639  0.1322
  579TMC3    C3 8583   3.375   3.887   1.162 -0.0050 -0.4595 -0.3186
  579TMC3    C4 8584   3.264   3.775   0.933 -0.4941 -0.0057  0.1043
  579TMC3    C5 8585   3.389   3.832   0.938  0.3969 -0.1245 -0.1287
  579TMC3    C6 8586   3.444   3.894   1.043  0.6364 -0.6113 -0.0106
  579TMC3     C 8587   3.053   3.782   1.050 -0.0755 -0.3224  0.1307
  579TMC3     O 8588   2.992   3.776   1.155 -0.4412  0.6009 -0.0961
  579TMC3     H 8589   3.190   3.839   1.250  0.7366 -0.3941  0.9214
  579TMC3    H1 8590   3.228   3.754   0.833 -1.7448  0.7340  0.3871
  579TMC3    H2 8591   3.539   3.946   1.040  0.1046  0.2589 -1.4904
  579TMC3    C7 8592   3.483   3.816   0.826  0.7809 -0.1734  0.4100
  579TMC3    C8 8593   3.401   3.989   1.267  0.0529 -0.1270 -0.6461
  579TMC3    O1 8594   3.568   3.899   0.797  0.0999 -0.0953  0.5606
  579TMC3    O2 8595   3.301   4.016   1.332  0.8223  0.3400  0.2679
  580TMC3    C1 8596   1.717   2.793  11.741  0.3736  0.6467  0.0248
  580TMC3    C2 8597   1.741   2.798  11.609  0.5766 -0.1030 -0.0864
  580TMC3    C3 8598   1.815   2.694  11.552  0.6305  0.2972  0.4810
  580TMC3    C4 8599   1.734   2.680  11.811  0.5119 -0.0592  0.2749
  580TMC3    C5 8600   1.793   2.569  11.747 -0.1349 -0.0808 -0.2296
  580TMC3    C6 8601   1.849   2.580  11.626  0.3131 -0.0621  0.3350
  580TMC3     C 8602   1.785   2.910  11.796  0.2650 -0.1588 -0.2441
  580TMC3     O 8603   1.756   3.018  11.749 -0.3318 -0.1161  0.1905
  580TMC3     H 8604   1.740   2.890  11.552 -1.6340  0.0997  0.2898
  580TMC3    H1 8605   1.719   2.685  11.918  1.5019  1.6229  0.3442
  580TMC3    H2 8606   1.927   2.512  11.595  2.2054  2.7496 -1.0869
  580TMC3    C7 8607   1.878   2.499  11.844 -0.1282 -0.4417  0.1173
  580TMC3    C8 8608   1.911   2.742  11.456  0.3884  0.0905  1.2002
  580TMC3    O1 8609   1.915   2.573  11.935  0.1848 -0.3576 -0.1409
  580TMC3    O2 8610   1.884   2.754  11.332 -0.0346  0.4599 -0.0055
  581MPD2     C 8611   0.318   2.902  14.816 -0.0754 -0.1377  0.2540
  581MPD2    C1 8612   0.371   3.000  14.893 -0.8083  0.3575  0.6840
  581MPD2    C2 8613   0.300   3.116  14.900  0.4984  0.1455  0.3245
  581MPD2    C3 8614   0.181   3.138  14.830 -0.2024 -0.7275 -0.0431
  581MPD2    C4 8615   0.120   3.032  14.768 -0.5584 -0.4834 -0.5767
  581MPD2    C5 8616   0.196   2.921  14.750  0.6456 -0.0143  0.5991
  581MPD2     H 8617   0.342   3.193  14.963 -0.0699  1.5446 -1.0083
  581MPD2    H1 8618   0.022   3.038  14.722 -1.1606  0.0349  0.7645
  581MPD2    H2 8619   0.366   2.808  14.790  0.3743  0.7102 -1.9345
  581MPD2    H3 8620   0.151   2.856  14.676  0.4249 -0.7235  1.3589
  581MPD2     N 8621   0.116   3.261  14.844  0.2628 -0.2162 -0.9244
  581MPD2    H5 8622   0.174   3.334  14.885 -0.8245 -0.0283  0.2797
  581MPD2    N1 8623   0.494   2.968  14.957  0.2109 -0.0852 -0.2046
  581MPD2    H7 8624   0.513   2.868  14.952 -1.9754 -0.5683  1.1630
  582TMC3    C1 8625   0.700   2.977  15.053 -0.5055  0.2824 -0.1137
  582TMC3    C2 8626   0.760   2.998  15.178  0.8870 -0.6604  0.1152
  582TMC3    C3 8627   0.849   2.902  15.218  0.4534  0.4059  0.0450
  582TMC3    C4 8628   0.734   2.867  14.974 -0.5303  0.3243 -0.3412
  582TMC3    C5 8629   0.813   2.767  15.027  0.7828  0.4344  0.1443
  582TMC3    C6 8630   0.881   2.789  15.147  0.1759  0.7228  0.1378
  582TMC3     C 8631   0.581   3.055  15.020  0.3874 -0.3396 -0.1911
  582TMC3     O 8632   0.556   3.169  15.051  0.4348  0.2618  0.3856
  582TMC3     H 8633   0.725   3.079  15.241 -0.2445 -0.3171 -0.9715
  582TMC3    H1 8634   0.698   2.851  14.872  1.3106 -2.8677 -0.5064
  582TMC3    H2 8635   0.941   2.710  15.192 -1.3873  0.0094  0.9558
  582TMC3    C7 8636   0.864   2.665  14.941  0.3212 -0.1208 -0.1017
  582TMC3    C8 8637   0.915   2.920  15.344 -0.5186  0.0961  0.1968
  582TMC3    O1 8638   0.986   2.650  14.943  0.2291  0.0185 -0.1594
  582TMC3    O2 8639   0.859   2.977  15.436  0.3799 -0.3104  0.2288
  583MPD2     C 8640   0.745   4.318  16.645  0.2515 -0.0566  1.1400
  583MPD2    C1 8641   0.694   4.438  16.598  1.3904  0.5362  0.1214
  583MPD2    C2 8642   0.666   4.534  16.698 -0.5479  0.8252  0.3244
  583MPD2    C3 8643   0.685   4.512  16.834 -0.2098  0.2763 -0.2257
  583MPD2    C4 8644   0.728   4.387  16.872  0.2217 -0.1756 -0.2050
  583MPD2    C5 8645   0.751   4.287  16.784  0.3996  0.3826  0.2067
  583MPD2     H 8646   0.637   4.632  16.662 -0.4235  0.9332  0.5165
  583MPD2    H1 8647   0.738   4.357  16.976 -2.5009 -0.7004 -0.1157
  583MPD2    H2 8648   0.774   4.234  16.582 -0.2115  0.6686 -0.0232
  583MPD2    H3 8649   0.784   4.190  16.818  1.6460  0.3131 -1.1800
  583MPD2     N 8650   0.656   4.619  16.929 -0.2685 -0.1281  0.0811
  583MPD2    H5 8651   0.604   4.696  16.887  0.0455  0.1363  0.1755
  583MPD2    N1 8652   0.668   4.471  16.463  0.1944  0.2246  0.4171
  583MPD2    H7 8653   0.640   4.562  16.429 -1.5740 -0.3357  0.3587
  584TMC3    C1 8654   0.604   0.008  17.120 -0.3800 -0.8367  0.0651
  584TMC3    C2 8655   0.602   0.131  17.052  0.1226 -0.1099  0.0299
  584TMC3    C3 8656   0.577   0.246  17.128  0.1642 -0.6179 -0.5582
  584TMC3    C4 8657   0.579   0.006  17.255 -0.0526 -1.1426  0.2130
  584TMC3    C5 8658   0.546   0.119  17.322 -0.4240 -0.4120 -1.0704
  584TMC3    C6 8659   0.550   0.240  17.260 -0.1366 -0.5869 -0.2962
  584TMC3     C 8660   0.644   4.607  17.058  0.4587 -0.3055  0.1677
  584TMC3     O 8661   0.659   4.501  17.122  0.0562  0.4171 -0.2165
  584TMC3     H 8662   0.622   0.150  16.947  3.1035  0.1367  0.6598
  584TMC3    H1 8663   0.572   4.638  17.314 -1.2174 -1.7807 -0.9055
  584TMC3    H2 8664   0.512   0.330  17.306  0.6326 -0.9930  1.1378
  584TMC3    C7 8665   0.530   0.107  17.469  0.4688 -0.3535 -0.1903
  584TMC3    C8 8666   0.571   0.372  17.057 -0.1482  0.3954  0.2563
  584TMC3    O1 8667   0.521   4.714  17.508  0.7138 -0.2787  0.1138
  584TMC3    O2 8668   0.566   0.360  16.933  0.7839 -0.5231 -0.3555
  585MPD2     C 8669   4.516   3.753   0.382 -0.1942 -0.0436 -0.2352
  585MPD2    C1 8670   4.634   3.691   0.418 -0.2912 -0.3168 -0.4527
  585MPD2    C2 8671   4.658   3.557   0.381  0.1098  1.0606 -0.8836
  585MPD2    C3 8672   4.566   3.492   0.300  0.3343  0.6849 -0.2671
  585MPD2    C4 8673   4.460   3.563   0.245 -0.1574 -0.0529 -0.4865
  585MPD2    C5 8674   4.427   3.689   0.292  0.1050  0.0485 -0.0988
  585MPD2     H 8675   0.025   3.520   0.430 -1.4773 -1.3485  0.2062
  585MPD2    H1 8676   4.386   3.511   0.184  2.6089 -0.9549 -3.0666
  585MPD2    H2 8677   4.496   3.857   0.404  0.3910  0.2724 -1.1908
  585MPD2    H3 8678   4.339   3.741   0.257  1.9015  0.7283 -3.5462
  585MPD2     N 8679   4.603   3.363   0.249 -0.2671 -0.2643 -0.0914
  585MPD2    H5 8680   4.545   3.321   0.177 -0.8657  0.9575 -0.3331
  585MPD2    N1 8681   0.001   3.781   0.484 -0.5058 -0.0570  1.1509
  585MPD2    H7 8682   4.699   3.878   0.500  2.1748  0.7437  0.5002
  586TMC3    C1 8683   4.712   3.156   0.219  0.2677 -0.1411  0.2709
  586TMC3    C2 8684   0.054   3.050   0.284 -0.4441  0.1413 -0.4041
  586TMC3    C3 8685   0.069   2.929   0.218  0.4708  0.3670 -0.6637
  586TMC3    C4 8686   4.656   3.134   0.093 -0.2911  0.4328  0.1364
  586TMC3    C5 8687   4.665   3.008   0.039 -0.4674  0.0462 -0.1336
  586TMC3    C6 8688   0.012   2.908   0.100  0.5261  0.3015  0.5007
  586TMC3     C 8689   4.705   3.284   0.293  0.3028  0.9483  0.1345
  586TMC3     O 8690   0.045   3.295   0.400 -0.2561 -0.9483 -0.5195
  586TMC3     H 8691   0.095   3.068   0.383 -1.1648  2.5124 -0.5458
  586TMC3    H1 8692   4.595   3.211   0.047 -0.7658 -0.0408 -0.0246
  586TMC3    H2 8693   0.018   2.809   0.055  1.3239  0.4400  0.3005
  586TMC3    C7 8694   4.580   2.958  17.619 -0.0796  0.3403  0.0741
  586TMC3    C8 8695   0.162   2.831   0.265 -0.2949  0.0444 -0.3700
  586TMC3    O1 8696   4.564   2.839  17.605  0.2294  0.0084 -0.2877
  586TMC3    O2 8697   0.155   2.713   0.227  0.3087  0.8164  0.4834
  587TMC3    C1 8698   2.155   1.672  16.467 -0.5300 -0.0045 -0.3403
  587TMC3    C2 8699   2.161   1.808  16.475 -0.1435  0.7496 -0.6366
  587TMC3    C3 8700   2.284   1.882  16.482 -0.3841  0.3808  0.1666
  587TMC3    C4 8701   2.273   1.602  16.469  0.0109  1.0166 -0.1027
  587TMC3    C5 8702   2.388   1.669  16.498  0.4953  0.1803 -0.3129
  587TMC3    C6 8703   2.394   1.810  16.501 -0.1244  0.3544  0.0155
  587TMC3     C 8704   2.037   1.595  16.439  0.4628  0.2533 -0.6016
  587TMC3     O 8705   2.061   1.482  16.399 -0.3359 -0.0561  0.9160
  587TMC3     H 8706   2.065   1.858  16.475 -0.2540  0.5416 -1.9488
  587TMC3    H1 8707   2.278   1.498  16.438  0.4670  0.0830  3.1629
  587TMC3    H2 8708   2.493   1.853  16.501 -0.4611  1.1409  0.5897
  587TMC3    C7 8709   2.505   1.587  16.525  0.1079  0.0281 -0.4032
  587TMC3    C8 8710   2.297   2.021  16.445 -0.7877 -0.2976 -0.8083
  587TMC3    O1 8711   2.500   1.482  16.461 -0.5013  0.2009  0.5214
  587TMC3    O2 8712   2.411   2.065  16.455  0.5594 -0.7761 -0.1696
  588TMC3    C1 8713   3.722   0.005   9.457 -0.1007 -0.1746 -0.1784
  588TMC3    C2 8714   3.643   4.624   9.480 -0.5334 -0.7047 -0.5686
  588TMC3    C3 8715   3.659   4.534   9.580 -0.2171  0.2943  0.3512
  588TMC3    C4 8716   3.833   0.023   9.541 -0.3668  0.1031  0.0709
  588TMC3    C5 8717   3.847   4.666   9.650 -0.0119  0.2886  0.5699
  588TMC3    C6 8718   3.765   4.557   9.666 -0.2199  0.1143 -0.0756
  588TMC3     C 8719   3.666   0.126   9.384  0.0666 -0.6634 -0.2281
  588TMC3     O 8720   3.558   0.110   9.332  0.5327 -0.5109 -0.2289
  588TMC3     H 8721   3.555   4.617   9.416 -0.4509  1.0694 -0.8646
  588TMC3    H1 8722   3.906   0.097   9.510  2.1937 -1.6485  1.8927
  588TMC3    H2 8723   3.777   4.505   9.760 -1.9176  2.4017  1.4095
  588TMC3    C7 8724   3.919   0.004   9.755  0.4490  0.0354 -0.1101
  588TMC3    C8 8725   3.600   4.402   9.561 -0.4410  0.1946  1.1439
  588TMC3    O1 8726   3.995   4.670   9.833 -0.1039 -0.0820  0.0734
  588TMC3    O2 8727   3.502   4.400   9.488 -0.2362 -0.3088 -0.1514
  589TMC3    C1 8728   3.954   2.889   1.275 -0.2883  0.2661 -0.0402
  589TMC3    C2 8729   4.013   2.970   1.371  0.4644  0.5293 -0.2094
  589TMC3    C3 8730   4.148   2.953   1.384 -0.5242  0.5613  0.0562
  589TMC3    C4 8731   4.016   2.793   1.199 -0.5782  0.0361  1.0206
  589TMC3    C5 8732   4.146   2.777   1.229  0.3786  0.0770 -0.0001
  589TMC3    C6 8733   4.220   2.858   1.312  0.7587 -0.3928  0.1129
  589TMC3     C 8734   3.824   2.929   1.224 -0.3815  0.0747 -0.9342
  589TMC3     O 8735   3.769   2.859   1.136 -0.0116 -0.2321  0.4308
  589TMC3     H 8736   3.964   3.057   1.413  1.2306  0.5026  0.7479
  589TMC3    H1 8737   3.957   2.722   1.142 -0.4743 -0.7051  1.8442
  589TMC3    H2 8738   4.325   2.847   1.335  0.7304  2.2973  1.5070
  589TMC3    C7 8739   4.201   2.661   1.160  0.3464 -0.2558 -0.7977
  589TMC3    C8 8740   4.223   3.046   1.469 -0.0625  0.2083  0.6009
  589TMC3    O1 8741   4.138   2.615   1.064 -0.0095  0.2342  0.3405
  589TMC3    O2 8742   4.151   3.113   1.542 -0.4933 -0.1397 -0.4835
  590MPD2     C 8743   3.044   0.593  16.656 -0.2006  0.1445 -0.3620
  590MPD2    C1 8744   2.979   0.662  16.552  0.1899 -0.1994 -0.4400
  590MPD2    C2 8745   3.057   0.740  16.466 -0.0457  0.0573 -0.2548
  590MPD2    C3 8746   3.195   0.753  16.494  0.3128  0.5396  0.2886
  590MPD2    C4 8747   3.256   0.686  16.600 -0.3965 -0.8725  0.2400
  590MPD2    C5 8748   3.175   0.609  16.679 -0.8690 -0.0008 -0.8021
  590MPD2     H 8749   3.015   0.785  16.376  0.5094  1.0279 -0.0356
  590MPD2    H1 8750   3.362   0.691  16.625 -0.2593  0.5740 -0.6764
  590MPD2    H2 8751   2.984   0.526  16.716  1.1103  0.6010  1.4794
  590MPD2    H3 8752   3.213   0.540  16.754  0.3537  0.0475 -1.3844
  590MPD2     N 8753   3.269   0.834  16.403  0.4030 -0.0310 -0.1677
  590MPD2    H5 8754   3.219   0.888  16.333  0.0360 -2.9240 -2.1271
  590MPD2    N1 8755   2.843   0.662  16.552  0.1334  0.4321  0.5367
  590MPD2    H7 8756   2.801   0.600  16.622 -1.1487  0.6957 -0.0009
  591TMC3    C1 8757   3.426   0.959  16.292 -0.1422 -0.1362  0.0471
  591TMC3    C2 8758   3.531   0.930  16.222 -0.9697 -0.6635  0.3458
  591TMC3    C3 8759   3.557   0.991  16.102 -0.3757  0.2059  0.7727
  591TMC3    C4 8760   3.336   1.053  16.253 -0.2559 -0.0174 -0.0740
  591TMC3    C5 8761   3.368   1.126  16.141 -0.0395 -0.4119 -0.2965
  591TMC3    C6 8762   3.476   1.095  16.063  0.5870 -0.5362 -0.1173
  591TMC3     C 8763   3.400   0.864  16.396 -0.6597 -0.4717  0.2387
  591TMC3     O 8764   3.494   0.813  16.456  0.4834  0.1666 -0.4849
  591TMC3     H 8765   3.596   0.849  16.254 -1.1369 -0.6871  0.6286
  591TMC3    H1 8766   3.245   1.072  16.310 -0.6816 -1.0538 -0.4064
  591TMC3    H2 8767   3.496   1.140  15.967  1.3040 -1.1062 -0.2354
  591TMC3    C7 8768   3.274   1.217  16.082 -0.1619  0.9336 -0.2959
  591TMC3    C8 8769   3.645   0.924  16.007  0.4455  0.3370 -0.9149
  591TMC3    O1 8770   3.155   1.199  16.106 -0.9528 -0.9500  0.0127
  591TMC3    O2 8771   3.688   0.815  16.037  0.1299  0.5536 -0.3818
  592MPD2     C 8772   3.412   2.568  11.063  0.4566 -0.0427  0.3316
  592MPD2    C1 8773   3.386   2.620  11.188  0.1145 -0.3167 -0.5819
  592MPD2    C2 8774   3.290   2.560  11.271 -0.3781 -0.7124  0.6230
  592MPD2    C3 8775   3.217   2.455  11.225  0.4626  0.8847 -0.0681
  592MPD2    C4 8776   3.231   2.408  11.098 -0.0097 -0.4627 -0.5376
  592MPD2    C5 8777   3.338   2.460  11.023  0.4021  0.1880 -0.1618
  592MPD2     H 8778   3.279   2.592  11.374  0.1023  0.1809  0.3981
  592MPD2    H1 8779   3.156   2.343  11.056  1.7103 -1.5310 -1.9429
  592MPD2    H2 8780   3.489   2.609  10.999  1.4833  0.5161  1.9199
  592MPD2    H3 8781   3.357   2.417  10.925  0.7212 -1.2353  0.5219
  592MPD2     N 8782   3.118   2.407  11.306 -0.7128 -0.3853  0.4100
  592MPD2    H5 8783   3.091   2.460  11.389 -0.1532  0.3449  0.1223
  592MPD2    N1 8784   3.468   2.730  11.226 -0.2220  0.1259 -0.2146
  592MPD2    H7 8785   3.544   2.749  11.161  1.4624  0.0507  1.7525
  593TMC3    C1 8786   3.545   2.908  11.359  0.9707 -0.1810 -0.1781
  593TMC3    C2 8787   3.566   2.958  11.485  0.6417 -0.6997  0.8601
  593TMC3    C3 8788   3.649   3.061  11.500 -0.2397  0.2612  0.0843
  593TMC3    C4 8789   3.611   2.968  11.249 -0.1716  0.1191 -0.1111
  593TMC3    C5 8790   3.699   3.073  11.274  0.6279  0.3080 -0.4323
  593TMC3    C6 8791   3.727   3.118  11.403 -0.1254 -0.0631 -0.3318
  593TMC3     C 8792   3.467   2.790  11.348  0.2027 -0.6320 -0.3172
  593TMC3     O 8793   3.399   2.763  11.447 -0.1434  0.2817  0.1486
  593TMC3     H 8794   3.526   2.910  11.573  0.6814 -0.1673  1.1735
  593TMC3    H1 8795   3.594   2.932  11.149 -0.2114 -0.6191  0.1571
  593TMC3    H2 8796   3.795   3.200  11.422  0.1782 -0.8092  1.8551
  593TMC3    C7 8797   3.772   3.125  11.167  0.0357 -0.5918 -0.5235
  593TMC3    C8 8798   3.668   3.125  11.632 -0.0300  0.5318 -0.1775
  593TMC3    O1 8799   3.847   3.220  11.192  0.0498 -0.7087 -0.4598
  593TMC3    O2 8800   3.573   3.117  11.709  0.1423 -0.4959  0.1404
  594MPD2     C 8801   2.448   1.305  14.371 -0.4894  0.2191 -0.2348
  594MPD2    C1 8802   2.349   1.346  14.285 -0.0473  0.3811 -0.1633
  594MPD2    C2 8803   2.388   1.438  14.188  0.1958  0.0307  0.4623
  594MPD2    C3 8804   2.522   1.471  14.169 -0.4943 -0.5486  0.0881
  594MPD2    C4 8805   2.618   1.412  14.246 -0.2759  0.4000  0.1677
  594MPD2    C5 8806   2.579   1.325  14.345  0.9617 -0.2004 -0.4406
  594MPD2     H 8807   2.320   1.481  14.115 -0.3872 -0.9094  0.4408
  594MPD2    H1 8808   2.723   1.432  14.229  0.3128 -1.5840  1.5284
  594MPD2    H2 8809   2.438   1.239  14.457 -1.9784 -0.0646 -0.6410
  594MPD2    H3 8810   2.654   1.290  14.415  0.5584 -1.3971 -0.6001
  594MPD2     N 8811   2.553   1.577  14.080  0.1324  0.9620  0.0625
  594MPD2    H5 8812   2.475   1.619  14.030  0.7454  2.3070  0.2469
  594MPD2    N1 8813   2.221   1.293  14.297 -0.0040 -0.4216  0.1955
  594MPD2    H7 8814   2.193   1.229  14.370  1.2093 -0.3809  0.6924
  595TMC3    C1 8815   2.811   1.928  13.943  0.2106  0.0792  0.3738
  595TMC3    C2 8816   2.777   1.796  13.931 -0.2366 -1.0628  0.9740
  595TMC3    C3 8817   2.666   1.752  13.990 -0.0783  0.0346  0.2014
  595TMC3    C4 8818   2.728   2.017  14.007  0.4047  0.2685  0.1831
  595TMC3    C5 8819   2.608   1.976  14.053 -0.4912 -0.4536  0.3537
  595TMC3    C6 8820   2.578   1.841  14.041 -0.1667 -0.3302  0.1984
  595TMC3     C 8821   2.948   1.936  13.989  0.3349 -0.4392 -0.3666
  595TMC3     O 8822   2.975   2.040  14.051  0.4899 -0.0950  0.6504
  595TMC3     H 8823   2.846   1.716  13.907  0.6785 -0.0859  0.3642
  595TMC3    H1 8824   2.769   2.116  14.021  0.7985  0.0010  0.9187
  595TMC3    H2 8825   2.483   1.810  14.085 -0.5970  0.2116 -0.3510
  595TMC3    C7 8826   2.538   2.049  14.152  0.9431  0.2328  0.3944
  595TMC3    C8 8827   2.681   1.616  14.036  0.4600 -0.6416 -0.7144
  595TMC3    O1 8828   2.416   2.039  14.155 -0.0260 -0.3764  0.1576
  595TMC3    O2 8829   2.792   1.590  14.079 -0.3694 -0.1629  0.0563
  596MPD2     C 8830   1.436   4.275  16.421  0.4401 -0.5615  0.0108
  596MPD2    C1 8831   1.435   4.404  16.368 -0.2118 -0.1301 -0.6064
  596MPD2    C2 8832   1.425   4.413  16.225 -0.3469 -0.5554 -0.7461
  596MPD2    C3 8833   1.392   4.306  16.148  0.3707  0.0303  0.5335
  596MPD2    C4 8834   1.397   4.179  16.201  0.4961  0.3397  0.3777
  596MPD2    C5 8835   1.412   4.167  16.335  0.6520  0.7015  0.0312
  596MPD2     H 8836   1.427   4.514  16.186  1.3973  1.2756  4.0672
  596MPD2    H1 8837   1.370   4.089  16.149 -0.4076  1.3634 -0.9256
  596MPD2    H2 8838   1.447   4.260  16.528  1.0178 -1.1265 -0.1286
  596MPD2    H3 8839   1.402   4.065  16.367  0.6028  2.3345  5.1782
  596MPD2     N 8840   1.350   4.326  16.011 -0.3779 -0.1827  0.3110
  596MPD2    H5 8841   1.330   4.242  15.957 -1.1591  0.2384 -0.0550
  596MPD2    N1 8842   1.440   4.529  16.436  0.5025  0.0610  0.1291
  596MPD2    H7 8843   1.450   4.613  16.380  3.1832 -0.2870  0.0613
  597TMC3    C1 8844   1.376   4.681  16.622  0.3002  0.2685 -0.2039
  597TMC3    C2 8845   1.430   0.058  16.552 -0.4328  0.1403  0.7033
  597TMC3    C3 8846   1.417   0.183  16.604  0.0219 -0.3004 -0.5032
  597TMC3    C4 8847   1.320   4.698  16.744  0.0105  0.3034 -0.2860
  597TMC3    C5 8848   1.306   0.102  16.796  0.0214 -0.2135  0.1640
  597TMC3    C6 8849   1.354   0.211  16.721 -0.1412 -0.5683  0.5487
  597TMC3     C 8850   1.411   4.542  16.575 -0.7055 -0.0687 -0.3719
  597TMC3     O 8851   1.410   4.454  16.663  0.2750  0.6948 -0.2607
  597TMC3     H 8852   1.479   0.033  16.459 -1.2968  2.3822 -0.3618
  597TMC3    H1 8853   1.277   4.612  16.794 -0.1170 -0.6546 -2.0176
  597TMC3    H2 8854   1.343   0.309  16.767 -1.0530  0.4293 -1.8004
  597TMC3    C7 8855   1.225   0.123  16.918  0.1695 -0.3467 -0.1737
  597TMC3    C8 8856   1.475   0.285  16.529  0.2445 -0.2653  0.0666
  597TMC3    O1 8857   1.156   0.027  16.955  0.2810 -0.7229 -0.0195
  597TMC3    O2 8858   1.509   0.260  16.417 -0.0770  0.0360 -0.6463
  598TMC3    C1 8859   4.202   1.053  15.029  0.1874  0.3147  0.0152
  598TMC3    C2 8860   4.100   0.958  15.009 -0.3905 -0.3720  0.6947
  598TMC3    C3 8861   4.084   0.920  14.874 -0.1987 -0.0124 -0.3867
  598TMC3    C4 8862   4.285   1.098  14.927 -0.3185 -0.0942 -0.1455
  598TMC3    C5 8863   4.274   1.047  14.804  0.3448  0.9230  0.0142
  598TMC3    C6 8864   4.171   0.957  14.773 -0.0012  0.6840 -0.1111
  598TMC3     C 8865   4.259   1.080  15.163 -0.1792 -0.0350  0.0051
  598TMC3     O 8866   4.354   1.155  15.168  0.7283 -0.3510 -0.0295
  598TMC3     H 8867   4.042   0.908  15.085 -1.8389  0.3002  0.0268
  598TMC3    H1 8868   4.369   1.162  14.949 -0.5304 -0.5396  1.9453
  598TMC3    H2 8869   4.161   0.924  14.670  0.6601  0.8603 -0.2377
  598TMC3    C7 8870   4.379   1.074  14.701  0.6681 -0.5615 -0.3808
  598TMC3    C8 8871   3.997   0.803  14.864  0.2140  0.0866  0.0128
  598TMC3    O1 8872   4.369   1.019  14.594  0.5109 -0.4840  0.2020
  598TMC3    O2 8873   3.891   0.817  14.926 -0.1577 -0.0109 -0.1538
  599MPD2     C 8874   4.716   3.538  16.083 -0.2722 -0.0969  0.1730
  599MPD2    C1 8875   4.661   3.420  16.040 -0.0691  0.2506 -0.2353
  599MPD2    C2 8876   4.535   3.390  16.070  0.0902 -1.0700 -0.9209
  599MPD2    C3 8877   4.456   3.483  16.133  0.1092  0.2111 -0.0440
  599MPD2    C4 8878   4.514   3.607  16.174 -0.2021 -0.1923 -0.4118
  599MPD2    C5 8879   4.644   3.625  16.144 -0.2725  0.4260 -0.5237
  599MPD2     H 8880   4.490   3.295  16.044 -3.1831  0.6769 -1.5209
  599MPD2    H1 8881   4.471   3.688  16.231  1.4180  0.9884 -0.8870
  599MPD2    H2 8882   0.099   3.560  16.070  0.1406 -1.3882  1.4002
  599MPD2    H3 8883   4.698   3.714  16.174  3.0423 -0.8684 -2.6406
  599MPD2     N 8884   4.325   3.459  16.186  0.4543 -0.0762  0.0082
  599MPD2    H5 8885   4.287   3.538  16.238  0.6238  0.4931 -0.7302
  599MPD2    N1 8886   0.019   3.330  15.967 -0.2270 -0.2690 -0.0852
  599MPD2    H7 8887   0.107   3.372  15.938  0.5819 -1.9590 -0.0956
  600TMC3    C1 8888   4.142   3.347  16.288 -0.2550 -1.0038 -0.5683
  600TMC3    C2 8889   4.114   3.246  16.376  0.0669 -0.0951  0.6428
  600TMC3    C3 8890   4.010   3.259  16.465  0.2922  0.1868 -0.2690
  600TMC3    C4 8891   4.070   3.466  16.286 -0.3912  0.8902  0.3281
  600TMC3    C5 8892   3.966   3.478  16.376 -0.0923 -0.1884 -0.1445
  600TMC3    C6 8893   3.936   3.375  16.463  0.6168 -0.0817 -0.5826
  600TMC3     C 8894   4.261   3.336  16.202  0.0100  0.7949 -0.6560
  600TMC3     O 8895   4.305   3.225  16.183 -0.8926 -0.0731  0.0338
  600TMC3     H 8896   4.185   3.164  16.377  2.7234  2.2216 -0.3733
  600TMC3    H1 8897   4.086   3.542  16.210 -1.4671  0.9747  0.1885
  600TMC3    H2 8898   3.854   3.387  16.533  0.5674 -2.1099 -0.2893
  600TMC3    C7 8899   3.901   3.604  16.394  0.7226 -0.1081  0.3749
  600TMC3    C8 8900   3.994   3.166  16.581 -0.0364  0.0136 -0.6652
  600TMC3    O1 8901   3.790   3.601  16.451  0.2526 -0.0816  0.3135
  600TMC3    O2 8902   4.094   3.117  16.624 -0.4703  0.3384 -0.3760
  601MPD2     C 8903   0.913   1.914   0.368 -0.0714  0.3578 -0.7876
  601MPD2    C1 8904   0.893   1.818   0.273 -0.1221  0.7520  0.8211
  601MPD2    C2 8905   0.988   1.713   0.264  0.3735  0.6340 -0.6700
  601MPD2    C3 8906   1.105   1.711   0.338  0.1152 -0.4511  0.1262
  601MPD2    C4 8907   1.124   1.817   0.434  0.7548  0.7929  0.0884
  601MPD2    C5 8908   1.029   1.917   0.443 -0.3116 -0.3843 -0.3391
  601MPD2     H 8909   0.965   1.624   0.208  0.2640 -1.4125  2.6295
  601MPD2    H1 8910   1.218   1.817   0.488 -1.3300 -1.2625  3.7538
  601MPD2    H2 8911   0.848   1.998   0.389 -0.4340 -0.3152  0.7828
  601MPD2    H3 8912   1.054   2.005   0.500  1.0347  0.1052 -1.6704
  601MPD2     N 8913   1.201   1.605   0.315 -0.2002  0.5354  0.2957
  601MPD2    H5 8914   1.284   1.604   0.373  0.4060 -1.8759 -0.6066
  601MPD2    N1 8915   0.789   1.816   0.176  0.2904 -0.1823  0.6217
  601MPD2    H7 8916   0.781   1.732   0.119 -0.2576  0.6696 -0.5442
  602TMC3    C1 8917   0.657   1.928   0.002 -0.4089 -0.5841 -0.1331
  602TMC3    C2 8918   0.645   2.052  17.639  0.4410 -0.0431  0.4625
  602TMC3    C3 8919   0.648   2.065  17.509 -0.2507  0.4558  0.1650
  602TMC3    C4 8920   0.671   1.815  17.611  0.3052  0.1402 -0.5732
  602TMC3    C5 8921   0.666   1.830  17.474  0.1864  0.4091  0.4517
  602TMC3    C6 8922   0.662   1.962  17.421 -0.8031 -0.4170 -0.4093
  602TMC3     C 8923   0.721   1.929   0.142 -0.4438  0.0776 -0.1469
  602TMC3     O 8924   0.731   2.042   0.188  0.1538 -0.2999  0.0574
  602TMC3     H 8925   0.615   2.137   0.007  0.7023  0.4775 -0.1245
  602TMC3    H1 8926   0.690   1.720  17.659  0.9802  1.6529  2.1523
  602TMC3    H2 8927   0.662   1.973  17.313  1.2970 -0.2462 -0.3808
  602TMC3    C7 8928   0.727   1.726  17.388 -0.5217  0.4471  0.0437
  602TMC3    C8 8929   0.631   2.199  17.445 -0.0927 -0.4337  0.6936
  602TMC3    O1 8930   0.679   1.615  17.392  0.1638  0.2259  0.4665
  602TMC3    O2 8931   0.570   2.293  17.493  0.1190 -0.0944 -0.1398
  603TMC3    C1 8932   0.105   2.544  10.395  0.7048 -0.0549  0.5386
  603TMC3    C2 8933   0.127   2.575  10.522  0.4486 -0.1447 -0.5610
  603TMC3    C3 8934   0.047   2.658  10.587  0.1422 -0.1455  0.3222
  603TMC3    C4 8935   4.720   2.599  10.325 -0.8204 -0.2819  0.0337
  603TMC3    C5 8936   4.640   2.687  10.400 -0.0770  0.5559  0.2237
  603TMC3    C6 8937   4.666   2.729  10.528  0.3368 -0.2089  0.5491
  603TMC3     C 8938   0.171   2.422  10.335 -0.6841  0.4504  1.0530
  603TMC3     O 8939   0.167   2.418  10.212  0.0045 -0.2346 -0.0543
  603TMC3     H 8940   0.216   2.542  10.575 -0.2833 -1.4186 -0.1198
  603TMC3    H1 8941   4.698   2.555  10.228 -1.8178  1.3177 -0.4623
  603TMC3    H2 8942   4.590   2.784  10.583 -0.9164 -3.1386  1.7245
  603TMC3    C7 8943   4.527   2.749  10.327 -0.1526  0.2684 -0.0529
  603TMC3    C8 8944   0.053   2.639  10.735  0.0569  0.6739  0.8280
  603TMC3    O1 8945   4.503   2.866  10.341  0.0373 -0.5195 -0.0417
  603TMC3    O2 8946   0.090   2.527  10.777  0.1030 -0.0927  0.2675
  604MPD2     C 8947   0.395   1.135  16.364 -0.1568  0.3441  0.6480
  604MPD2    C1 8948   0.279   1.081  16.321 -0.0584 -0.7904 -0.0816
  604MPD2    C2 8949   0.279   1.006  16.202 -0.7136  0.4424  0.4119
  604MPD2    C3 8950   0.399   0.995  16.130  0.0227 -0.3450  0.4498
  604MPD2    C4 8951   0.510   1.062  16.172 -0.7563 -0.3467 -0.5900
  604MPD2    C5 8952   0.508   1.125  16.290  0.4469 -0.6021 -0.3854
  604MPD2     H 8953   0.194   0.948  16.168 -0.4653  0.2479  0.1177
  604MPD2    H1 8954   0.599   1.074  16.112 -1.1892 -0.1409 -1.1917
  604MPD2    H2 8955   0.403   1.182  16.461  1.6825 -1.2465  1.2719
  604MPD2    H3 8956   0.608   1.162  16.309  0.0232 -0.2978  1.2852
  604MPD2     N 8957   0.404   0.927  16.001  0.7939 -0.4758 -0.1111
  604MPD2    H5 8958   0.314   0.894  15.969  0.9636 -1.0440 -0.0029
  604MPD2    N1 8959   0.174   1.103  16.417 -0.0077 -0.2760 -0.3579
  604MPD2    H7 8960   0.202   1.152  16.501  0.5601 -1.1169 -0.0609
  605TMC3    C1 8961   4.687   1.120  16.503  0.2414  0.0030  0.3684
  605TMC3    C2 8962   0.029   1.174  16.611  0.0478  0.0640  0.0719
  605TMC3    C3 8963   0.021   1.308  16.632  0.6121  0.9018  0.1352
  605TMC3    C4 8964   4.588   1.192  16.443  0.1676 -0.6371 -0.4057
  605TMC3    C5 8965   4.569   1.325  16.480 -0.0603 -0.2245 -0.0918
  605TMC3    C6 8966   4.652   1.385  16.571  0.1740  0.3248 -0.6569
  605TMC3     C 8967   0.046   1.055  16.405 -0.2551 -0.0077  0.8395
  605TMC3     O 8968   4.705   1.002  16.312  0.4487 -0.5689 -0.2265
  605TMC3     H 8969   0.104   1.110  16.658 -0.3478 -0.2748  0.2502
  605TMC3    H1 8970   4.509   1.137  16.393  1.1386 -0.9157 -1.6442
  605TMC3    H2 8971   4.651   1.494  16.566  0.6587  0.3104 -1.1372
  605TMC3    C7 8972   4.507   1.406  16.377 -0.3408  0.4832  0.5945
  605TMC3    C8 8973   0.155   1.367  16.669 -0.5135 -0.5453 -0.3077
  605TMC3    O1 8974   4.487   1.520  16.407  0.1914  0.1766  0.6464
  605TMC3    O2 8975   0.248   1.287  16.668 -0.4553  0.2358 -0.5408
  606TMC3    C1 8976   2.259   3.309  16.590 -0.4410  0.6871 -0.4664
  606TMC3    C2 8977   2.318   3.321  16.716 -0.0901 -0.3793 -0.1955
  606TMC3    C3 8978   2.244   3.388  16.812  0.2789 -0.3309 -0.0807
  606TMC3    C4 8979   2.132   3.352  16.561 -0.6637 -0.2627  0.4736
  606TMC3    C5 8980   2.060   3.408  16.670  1.1562  0.2711 -0.7126
  606TMC3    C6 8981   2.114   3.429  16.798 -0.1525 -0.6015 -0.0929
  606TMC3     C 8982   2.341   3.243  16.489  0.4353 -0.1530  0.0261
  606TMC3     O 8983   2.422   3.160  16.537  0.2213 -0.0758 -0.6258
  606TMC3     H 8984   2.420   3.286  16.732 -0.3112 -1.7078 -1.7068
  606TMC3    H1 8985   2.090   3.339  16.462  0.4919  2.2756 -0.3334
  606TMC3    H2 8986   2.057   3.482  16.873  0.6807  0.6658 -0.3704
  606TMC3    C7 8987   1.921   3.435  16.643 -0.5471 -0.6124 -0.1901
  606TMC3    C8 8988   2.311   3.423  16.938 -0.4605  0.2835 -0.6052
  606TMC3    O1 8989   1.884   3.440  16.528  0.0453 -0.1115  0.0131
  606TMC3    O2 8990   2.252   3.498  17.015 -0.4965  0.0134  0.0301
  607MPD2     C 8991   4.127   2.085  11.177 -0.4507  0.5560 -0.2945
  607MPD2    C1 8992   4.079   2.215  11.195  0.2929 -1.0145 -0.5725
  607MPD2    C2 8993   4.001   2.244  11.303  0.1514 -0.1896 -0.5058
  607MPD2    C3 8994   3.942   2.139  11.382 -0.3085  0.3793  0.5665
  607MPD2    C4 8995   3.985   2.010  11.363 -0.4057 -0.0022 -0.4085
  607MPD2    C5 8996   4.092   1.988  11.269  0.4682 -0.5893  0.0921
  607MPD2     H 8997   3.968   2.347  11.315 -0.2833 -0.2522 -1.1571
  607MPD2    H1 8998   3.946   1.930  11.424 -1.0507 -0.3690 -1.3033
  607MPD2    H2 8999   4.191   2.061  11.093  2.7387  0.2790  2.2460
  607MPD2    H3 9000   4.141   1.892  11.253  0.3225 -1.0507  2.3940
  607MPD2     N 9001   3.844   2.178  11.472 -0.2120 -0.0689  0.5522
  607MPD2    H5 9002   3.828   2.278  11.466 -0.5382 -0.2558 -1.6386
  607MPD2    N1 9003   4.119   2.328  11.116 -0.8060 -0.0437  0.2205
  607MPD2    H7 9004   4.073   2.416  11.133 -0.4098  0.3691 -0.8539
  608TMC3    C1 9005   4.229   2.463  10.971 -0.1850  1.6227 -0.1295
  608TMC3    C2 9006   4.211   2.568  11.063  0.2814 -0.4879  0.0936
  608TMC3    C3 9007   4.189   2.695  11.014 -0.0915 -0.0795  0.0399
  608TMC3    C4 9008   4.233   2.486  10.835  0.0034 -0.1447  0.3696
  608TMC3    C5 9009   4.224   2.612  10.793  0.0755  0.0179 -1.0286
  608TMC3    C6 9010   4.196   2.718  10.876  0.5060  0.0317 -0.1911
  608TMC3     C 9011   4.208   2.329  11.016 -0.1615 -0.0939 -0.0957
  608TMC3     O 9012   4.248   2.248  10.933 -0.2476  0.1800  0.0517
  608TMC3     H 9013   4.219   2.552  11.170  1.1931 -1.7765 -0.1804
  608TMC3    H1 9014   4.235   2.407  10.760  0.8097  0.0771  0.1653
  608TMC3    H2 9015   4.180   2.818  10.836  0.5804  0.1901  0.1670
  608TMC3    C7 9016   4.205   2.622  10.652  0.5640 -0.3410 -0.3605
  608TMC3    C8 9017   4.151   2.794  11.108 -0.1430  0.1375  0.1873
  608TMC3    O1 9018   4.177   2.525  10.582  0.2106  0.4753 -0.3516
  608TMC3    O2 9019   4.186   2.914  11.086  0.0329 -0.0764 -0.4326
  609TMC3    C1 9020   2.013   0.981   8.578  1.2453  0.2151  0.1058
  609TMC3    C2 9021   2.036   1.067   8.477 -0.7150 -0.3967 -0.1770
  609TMC3    C3 9022   2.153   1.130   8.459  0.5103 -0.2340  0.1713
  609TMC3    C4 9023   2.112   0.953   8.671 -0.1808 -0.2069  0.3565
  609TMC3    C5 9024   2.234   1.018   8.650 -0.1611  0.2302  0.6215
  609TMC3    C6 9025   2.263   1.101   8.541 -0.3754  0.4247 -0.1064
  609TMC3     C 9026   1.873   0.957   8.618  0.2073  0.1850  0.5848
  609TMC3     O 9027   1.845   0.965   8.736  0.1529  0.0470  0.9935
  609TMC3     H 9028   1.948   1.098   8.422  0.7099 -0.5218 -2.5111
  609TMC3    H1 9029   2.096   0.896   8.762  2.0647 -0.1008  0.8356
  609TMC3    H2 9030   2.356   1.155   8.527 -0.7869  0.5794 -2.1879
  609TMC3    C7 9031   2.353   0.990   8.742 -0.0255 -0.1273  0.6111
  609TMC3    C8 9032   2.151   1.258   8.386  0.5688  0.4112  0.0469
  609TMC3    O1 9033   2.430   1.083   8.744 -0.0043  0.8104 -0.3924
  609TMC3    O2 9034   2.040   1.310   8.375  0.4781  0.0551  0.8643
  610TMC3    C1 9035   4.511   2.149  12.193 -0.0660 -0.0340  0.6425
  610TMC3    C2 9036   4.599   2.096  12.101  0.4054 -0.1795  0.9949
  610TMC3    C3 9037   4.635   1.963  12.107 -0.4407 -0.3473 -0.7723
  610TMC3    C4 9038   4.479   2.080  12.304 -0.0954  0.3841  0.7915
  610TMC3    C5 9039   4.514   1.943  12.314 -0.1797  0.5034 -0.5679
  610TMC3    C6 9040   4.594   1.882  12.215 -0.1114 -0.1559 -0.1623
  610TMC3     C 9041   4.427   2.257  12.153  0.7361 -0.7293 -0.2556
  610TMC3     O 9042   4.482   2.346  12.085 -0.0262 -0.8191  0.1516
  610TMC3     H 9043   4.612   2.160  12.015  0.5686  1.2776  2.0962
  610TMC3    H1 9044   4.415   2.124  12.380  0.8429  2.6800  0.2640
  610TMC3    H2 9045   4.639   1.784  12.231 -1.6577 -0.7273  0.6720
  610TMC3    C7 9046   4.496   1.871  12.444  0.5364 -0.8969  0.6501
  610TMC3    C8 9047   4.718   1.906  12.004  0.8020 -0.6703  0.6780
  610TMC3    O1 9048   4.573   1.777  12.466  0.4526  0.3115 -0.4879
  610TMC3    O2 9049   0.054   1.981  11.929 -0.6731  0.3750 -0.1274
  611MPD2     C 9050   3.225   2.368   9.614 -0.1163  0.1822 -0.4505
  611MPD2    C1 9051   3.266   2.299   9.726 -0.0879 -0.5659  0.0166
  611MPD2    C2 9052   3.399   2.267   9.738  0.7597 -0.3352  0.6388
  611MPD2    C3 9053   3.490   2.318   9.645  0.1194 -0.3842  0.0882
  611MPD2    C4 9054   3.451   2.403   9.546  0.0348  0.0147 -0.4629
  611MPD2    C5 9055   3.316   2.421   9.526 -0.5898 -0.3643 -1.5129
  611MPD2     H 9056   3.427   2.217   9.830 -1.6750  1.2895  2.2812
  611MPD2    H1 9057   3.525   2.454   9.486  0.7100  1.8069  1.8960
  611MPD2    H2 9058   3.120   2.387   9.599  0.2141  2.5934  0.3415
  611MPD2    H3 9059   3.275   2.479   9.444 -2.8151  0.6032  0.2781
  611MPD2     N 9060   3.629   2.281   9.655 -0.0466 -0.3666  0.3595
  611MPD2    H5 9061   3.697   2.323   9.592 -0.0476  1.4991  1.6077
  611MPD2    N1 9062   3.169   2.272   9.821 -0.6416 -0.1429 -0.0044
  611MPD2    H7 9063   3.083   2.325   9.813  0.1928  1.2889  0.4356
  612TMC3    C1 9064   3.826   2.201   9.747  0.3809 -0.3234 -0.5782
  612TMC3    C2 9065   3.886   2.330   9.749 -0.1303  0.0445  1.1377
  612TMC3    C3 9066   4.008   2.341   9.802 -0.1897 -0.6244 -0.1205
  612TMC3    C4 9067   3.882   2.094   9.812  0.4690 -0.1548 -0.2367
  612TMC3    C5 9068   4.005   2.111   9.866  0.1880  0.5956  0.2888
  612TMC3    C6 9069   4.070   2.235   9.863  0.1702 -0.8862  0.2775
  612TMC3     C 9070   3.685   2.186   9.737  0.4071  0.5320  0.1468
  612TMC3     O 9071   3.629   2.100   9.803 -0.0200 -0.2952 -0.0855
  612TMC3     H 9072   3.830   2.420   9.727  0.5304  0.0300 -0.6031
  612TMC3    H1 9073   3.823   2.004   9.824 -0.0870  0.2230 -0.1282
  612TMC3    H2 9074   4.168   2.242   9.909 -0.0791  2.6839  0.2923
  612TMC3    C7 9075   4.056   2.003   9.943  0.6403  0.7369 -0.2990
  612TMC3    C8 9076   4.054   2.476   9.829  0.6696 -0.0512 -0.6366
  612TMC3    O1 9077   4.021   1.889   9.917 -0.2725 -0.5922 -0.4607
  612TMC3    O2 9078   3.994   2.565   9.774  0.6001  0.3773 -0.2851
  613MPD2     C 9079   2.985   0.018  15.969 -0.0834  0.0586 -0.3728
  613MPD2    C1 9080   3.028   4.635  15.896  0.3689 -0.2701 -0.2917
  613MPD2    C2 9081   2.971   4.512  15.900  0.2430  0.3113 -0.2490
  613MPD2    C3 9082   2.854   4.492  15.964  0.2559 -0.6783 -0.0524
  613MPD2    C4 9083   2.812   4.588  16.045  0.4570 -0.9175  0.0875
  613MPD2    C5 9084   2.877   4.712  16.048 -0.0534  0.4580  0.5864
  613MPD2     H 9085   3.014   4.444  15.827 -0.2703 -0.6370  0.3274
  613MPD2    H1 9086   2.727   4.578  16.113  0.1338  1.3800  0.0112
  613MPD2    H2 9087   3.033   0.115  15.978 -0.2091  0.1450 -0.6413
  613MPD2    H3 9088   2.838   0.064  16.116  0.3576  0.2038  1.1038
  613MPD2     N 9089   2.779   4.373  15.960  0.4211  0.1699 -0.3472
  613MPD2    H5 9090   2.685   4.364  15.996 -0.3895 -0.2550 -2.5252
  613MPD2    N1 9091   3.131   4.657  15.803 -0.2461  0.1959 -0.2227
  613MPD2    H7 9092   3.163   4.580  15.746 -2.7404 -1.4646  0.5873
  614TMC3    C1 9093   3.274   0.018  15.651  0.6553  0.0628 -0.7423
  614TMC3    C2 9094   3.333   4.617  15.663  0.4268 -0.0919 -0.0947
  614TMC3    C3 9095   3.354   4.540  15.553  0.4667  0.6765 -0.1932
  614TMC3    C4 9096   3.256   0.066  15.520 -0.3998  0.1195  0.2113
  614TMC3    C5 9097   3.296   4.719  15.417 -0.5298 -0.3259 -0.2707
  614TMC3    C6 9098   3.337   4.589  15.424 -0.4945  0.5918  0.1632
  614TMC3     C 9099   3.177   0.050  15.754  0.5723  0.4026  0.0774
  614TMC3     O 9100   3.151   0.169  15.778  0.2070 -0.0697 -0.5138
  614TMC3     H 9101   3.355   4.583  15.763 -0.7460  0.0944  0.2194
  614TMC3    H1 9102   3.201   0.158  15.501 -2.0744 -0.6876  1.1683
  614TMC3    H2 9103   3.345   4.527  15.335 -1.1927  1.8508 -0.7716
  614TMC3    C7 9104   3.236   0.040  15.292 -0.5439 -0.2959  0.3654
  614TMC3    C8 9105   3.307   4.406  15.586 -0.3468 -0.4115  0.4752
  614TMC3    O1 9106   3.308   0.040  15.194  0.6659  0.3940 -0.7632
  614TMC3    O2 9107   3.248   4.408  15.690 -0.1478 -0.3865  0.1506
  615MPD2     C 9108   1.739   1.080  15.980  0.1001 -0.0114 -0.0563
  615MPD2    C1 9109   1.824   1.191  15.977  0.7569 -0.5941 -0.5389
  615MPD2    C2 9110   1.810   1.282  15.877  0.1631 -0.3416 -0.2497
  615MPD2    C3 9111   1.722   1.262  15.771  0.5852 -0.1091 -0.4805
  615MPD2    C4 9112   1.653   1.151  15.767  0.3624  0.4011  0.1328
  615MPD2    C5 9113   1.656   1.067  15.871  0.8444  0.4291  0.7289
  615MPD2     H 9114   1.889   1.356  15.879  0.1604 -0.4592  3.8885
  615MPD2    H1 9115   1.592   1.121  15.683  1.6096 -0.8328 -0.3264
  615MPD2    H2 9116   1.738   1.004  16.057 -2.1422 -0.1347 -0.2201
  615MPD2    H3 9117   1.598   0.975  15.871  1.4690  0.0282  0.7830
  615MPD2     N 9118   1.704   1.354  15.665  0.1251  0.6700  0.1191
  615MPD2    H5 9119   1.633   1.334  15.595 -0.1861  1.2956  0.2584
  615MPD2    N1 9120   1.918   1.211  16.078  0.1182 -0.7224  0.1573
  615MPD2    H7 9121   1.972   1.296  16.070  1.1374 -1.5155 -1.4352
  616TMC3    C1 9122   2.061   1.180  16.253 -0.0298  0.3238 -0.0560
  616TMC3    C2 9123   2.161   1.225  16.171 -0.1571  0.3841 -0.4846
  616TMC3    C3 9124   2.276   1.272  16.230  0.8350 -0.1723  1.0428
  616TMC3    C4 9125   2.063   1.179  16.391  0.0485 -0.5630 -0.3842
  616TMC3    C5 9126   2.190   1.205  16.444 -0.1484  0.2475 -0.9777
  616TMC3    C6 9127   2.292   1.252  16.370  0.3013  0.1838 -0.1080
  616TMC3     C 9128   1.930   1.138  16.193  0.1166  1.0864 -0.6485
  616TMC3     O 9129   1.858   1.047  16.236 -0.2817  0.2439 -0.2963
  616TMC3     H 9130   2.155   1.214  16.064  0.8607  0.9247 -0.6040
  616TMC3    H1 9131   1.973   1.157  16.448 -0.5850  5.9186  1.0692
  616TMC3    H2 9132   2.382   1.280  16.423  1.1101 -1.5549 -0.5594
  616TMC3    C7 9133   2.189   1.237  16.579  0.3570 -0.0371  0.2174
  616TMC3    C8 9134   2.385   1.297  16.136  0.6953 -0.3406 -0.0642
  616TMC3    O1 9135   2.286   1.207  16.646  0.0326  0.4958  0.0975
  616TMC3    O2 9136   2.373   1.256  16.021  0.4998 -0.1002  0.0048
  617MPD2     C 9137   0.419   3.873  13.426  0.2644  0.0230 -0.8540
  617MPD2    C1 9138   0.381   3.946  13.533  0.9707  0.2092  0.3782
  617MPD2    C2 9139   0.249   3.946  13.574 -0.1953 -0.5603 -0.3338
  617MPD2    C3 9140   0.147   3.892  13.489  0.8607 -0.3222 -0.6293
  617MPD2    C4 9141   0.188   3.813  13.383 -0.7446  0.0542  0.2196
  617MPD2    C5 9142   0.322   3.808  13.352 -0.4374 -0.0125  0.6723
  617MPD2     H 9143   0.225   4.006  13.661 -0.5268 -0.2031 -0.6695
  617MPD2    H1 9144   0.122   3.766  13.311 -0.6794  1.8483 -1.0037
  617MPD2    H2 9145   0.523   3.871  13.395 -0.3287 -1.2329 -2.8069
  617MPD2    H3 9146   0.360   3.747  13.270 -1.7136  0.4348 -0.2460
  617MPD2     N 9147   0.006   3.927  13.499 -0.0068 -0.0448 -0.0069
  617MPD2    H5 9148   4.660   3.875  13.447  1.4823 -2.3575  0.3130
  617MPD2    N1 9149   0.482   4.013  13.599  0.6663  0.1365 -0.1409
  617MPD2    H7 9150   0.572   4.032  13.556  0.0027  1.8058 -0.7768
  618TMC3    C1 9151   0.595   4.109  13.771 -0.5254  0.1361 -0.4692
  618TMC3    C2 9152   0.670   4.047  13.869  0.4349 -0.2996  0.4930
  618TMC3    C3 9153   0.803   4.064  13.862  0.4090 -0.3734 -0.6064
  618TMC3    C4 9154   0.660   4.188  13.680  0.5664 -0.0663 -0.3756
  618TMC3    C5 9155   0.799   4.202  13.673 -0.3405  0.3062 -0.2583
  618TMC3    C6 9156   0.873   4.143  13.771 -0.4014  0.2563  0.1732
  618TMC3     C 9157   0.474   4.041  13.728 -0.6430  0.4310 -0.2546
  618TMC3     O 9158   0.402   3.993  13.815 -0.0195 -0.1972 -0.1878
  618TMC3     H 9159   0.635   3.984  13.949 -0.6628 -0.7523 -0.3474
  618TMC3    H1 9160   0.610   4.230  13.594  0.4368  0.3338 -0.1034
  618TMC3    H2 9161   0.979   4.159  13.783 -0.0155 -1.3371 -1.2185
  618TMC3    C7 9162   0.836   4.147  13.541  1.0266 -0.5792  0.4930
  618TMC3    C8 9163   0.878   3.964  13.947 -0.3385  0.6841 -0.1435
  618TMC3    O1 9164   0.738   4.103  13.477 -0.2216  0.2888  0.1845
  618TMC3    O2 9165   0.831   3.924  14.056 -0.1803  0.6531  0.0466
  619MPD2     C 9166   1.548   0.436  13.964  0.4629 -0.7832 -0.6040
  619MPD2    C1 9167   1.490   0.421  13.839  0.4130  0.2714 -0.5963
  619MPD2    C2 9168   1.355   0.387  13.820  0.3587  0.0663 -0.8120
  619MPD2    C3 9169   1.273   0.396  13.936  0.3528 -0.9098  0.2286
  619MPD2    C4 9170   1.326   0.423  14.059 -0.2865  0.5617 -0.4570
  619MPD2    C5 9171   1.463   0.437  14.077 -1.2683 -0.5365  0.5646
  619MPD2     H 9172   1.315   0.380  13.720 -0.2970 -0.8858 -0.4825
  619MPD2    H1 9173   1.258   0.445  14.140  1.0186 -1.4295  1.2073
  619MPD2    H2 9174   1.650   0.466  13.982  0.9233 -1.6777 -1.7290
  619MPD2    H3 9175   1.505   0.466  14.173  1.1127  2.4720 -1.3777
  619MPD2     N 9176   1.135   0.375  13.924  0.0166  0.2733  0.1299
  619MPD2    H5 9177   1.088   0.384  14.014 -0.9891  2.2355 -0.6017
  619MPD2    N1 9178   1.565   0.450  13.721  0.5487 -0.9185  0.0777
  619MPD2    H7 9179   1.515   0.448  13.632  1.4673  0.3403 -0.4749
  620TMC3    C1 9180   1.687   0.590  13.593 -0.6983 -0.0801  0.6083
  620TMC3    C2 9181   1.611   0.541  13.488  0.4602 -0.6322 -0.0542
  620TMC3    C3 9182   1.536   0.626  13.406 -0.6631  0.4035  0.0082
  620TMC3    C4 9183   1.696   0.726  13.611 -0.3422  0.2430  0.0604
  620TMC3    C5 9184   1.636   0.809  13.518  0.2855  0.1332  0.2166
  620TMC3    C6 9185   1.552   0.761  13.424  0.2865 -0.3892 -0.1477
  620TMC3     C 9186   1.685   0.515  13.719  0.7743 -0.3808 -0.3388
  620TMC3     O 9187   1.764   0.546  13.806 -0.3663  0.1836 -1.2269
  620TMC3     H 9188   1.609   0.436  13.462 -2.8172 -0.4757 -0.4516
  620TMC3    H1 9189   1.769   0.757  13.686 -1.7537 -3.3012  2.9144
  620TMC3    H2 9190   1.493   0.825  13.359  1.8344 -0.5138 -1.6683
  620TMC3    C7 9191   1.666   0.949  13.514 -0.1894 -0.8488 -0.1677
  620TMC3    C8 9192   1.403   0.567  13.390  0.8134 -0.0187  0.4512
  620TMC3    O1 9193   1.611   1.010  13.417  0.0532  0.3030 -0.3151
  620TMC3    O2 9194   1.395   0.447  13.368  0.1463  0.0116  0.4496
  621MPD2     C 9195   1.376   0.357  10.153 -0.6307 -0.2123 -0.1442
  621MPD2    C1 9196   1.295   0.458  10.092  0.8226 -0.8582  0.1014
  621MPD2    C2 9197   1.362   0.568  10.035  0.0976  0.0675 -0.1849
  621MPD2    C3 9198   1.500   0.556  10.019  0.8011 -0.3950  0.2526
  621MPD2    C4 9199   1.575   0.447  10.060 -0.2243 -0.4187 -0.3265
  621MPD2    C5 9200   1.510   0.350  10.135 -0.3004  0.3979  0.0391
  621MPD2     H 9201   1.304   0.647   9.990 -2.5185 -0.4794  2.1896
  621MPD2    H1 9202   1.682   0.435  10.054 -0.1648 -0.2384  0.4209
  621MPD2    H2 9203   1.338   0.280  10.219 -1.5557 -0.2829 -0.7493
  621MPD2    H3 9204   1.562   0.262  10.170 -0.2528  0.4560  0.1122
  621MPD2     N 9205   1.574   0.663   9.950  0.1364  0.6195 -0.2549
  621MPD2    H5 9206   1.530   0.754   9.940  0.5561  0.9952  1.2508
  621MPD2    N1 9207   1.157   0.454  10.076  0.0457  0.4291  0.2274
  621MPD2    H7 9208   1.120   0.528  10.018  0.2177  1.4016  1.3565
  622TMC3    C1 9209   0.936   0.372  10.096 -0.3773 -0.9410 -0.5197
  622TMC3    C2 9210   0.847   0.371  10.196  0.1824  0.1320 -0.0001
  622TMC3    C3 9211   0.714   0.380  10.164  0.6210  0.1296  0.3186
  622TMC3    C4 9212   0.894   0.372   9.964 -0.7629 -0.8186 -0.0384
  622TMC3    C5 9213   0.759   0.378   9.940 -0.6137 -1.1588 -0.9008
  622TMC3    C6 9214   0.664   0.386  10.040 -0.7838  0.0997  0.4376
  622TMC3     C 9215   1.069   0.358  10.136 -0.0553 -0.4006  0.6654
  622TMC3     O 9216   1.088   0.271  10.222  0.5044 -0.4759  0.9327
  622TMC3     H 9217   0.878   0.375  10.300  0.7645 -1.1972 -0.1243
  622TMC3    H1 9218   0.961   0.399   9.884  1.9034 -2.9096  1.4940
  622TMC3    H2 9219   0.560   0.388  10.009 -0.3666 -0.2293 -0.9811
  622TMC3    C7 9220   0.733   0.461   9.834 -0.3109 -0.2017  1.0218
  622TMC3    C8 9221   0.651   0.478  10.245 -0.7509 -1.0474  0.3523
  622TMC3    O1 9222   0.680   0.564   9.873  0.0764  0.1518  0.1287
  622TMC3    O2 9223   0.644   0.451  10.365 -0.4093 -0.7265  0.3871
  623MPD2     C 9224   0.687   1.198  15.745  0.3673  0.4393 -0.3230
  623MPD2    C1 9225   0.592   1.262  15.820  0.0021 -0.3424 -0.1200
  623MPD2    C2 9226   0.632   1.318  15.940 -0.0685 -0.0358  0.5105
  623MPD2    C3 9227   0.763   1.322  15.977 -0.0553 -0.5361 -0.0283
  623MPD2    C4 9228   0.858   1.261  15.892  0.7623 -0.1161 -0.3004
  623MPD2    C5 9229   0.818   1.202  15.777 -0.7047  1.1319  0.6033
  623MPD2     H 9230   0.564   1.371  16.006  0.5868  1.4452  0.0081
  623MPD2    H1 9231   0.963   1.260  15.922  0.4147  1.0653  0.9659
  623MPD2    H2 9232   0.661   1.152  15.650 -1.3969 -1.3983  1.0585
  623MPD2    H3 9233   0.888   1.143  15.718 -1.3032 -0.9748  1.9924
  623MPD2     N 9234   0.787   1.385  16.097 -0.0981  0.1195 -0.0925
  623MPD2    H5 9235   0.705   1.424  16.141 -0.2917 -0.1938 -0.1728
  623MPD2    N1 9236   0.458   1.250  15.797  0.5815 -0.1353 -0.1398
  623MPD2    H7 9237   0.398   1.295  15.865 -0.5117 -4.0105  1.4964
  624TMC3    C1 9238   1.017   1.462  16.497  0.2591 -0.5297  0.0187
  624TMC3    C2 9239   0.896   1.488  16.558 -0.4488 -0.5736  1.2353
  624TMC3    C3 9240   0.781   1.476  16.485  0.6251  0.0922 -0.3842
  624TMC3    C4 9241   1.019   1.431  16.366 -0.7193  0.5668  0.4574
  624TMC3    C5 9242   0.902   1.437  16.292 -0.6190 -0.2802 -0.0402
  624TMC3    C6 9243   0.780   1.452  16.352 -0.2588  0.5999  0.2012
  624TMC3     C 9244   1.123   1.407  16.581  0.1982 -0.3087  0.1227
  624TMC3     O 9245   1.129   1.439  16.699  0.0106 -0.8419  0.1884
  624TMC3     H 9246   0.888   1.486  16.666  1.2271  0.0326  1.3665
  624TMC3    H1 9247   1.112   1.439  16.312  0.3862  1.3152  2.4945
  624TMC3    H2 9248   0.683   1.468  16.307 -0.8258 -1.7289  0.6020
  624TMC3    C7 9249   0.911   1.393  16.158 -0.3053 -0.6758 -0.1704
  624TMC3    C8 9250   0.653   1.466  16.550  0.8213  0.6540 -0.0849
  624TMC3    O1 9251   1.019   1.351  16.119  0.4177  0.1962 -0.1541
  624TMC3    O2 9252   0.579   1.379  16.507 -0.5582  0.0390 -0.2764
  625MPD2     C 9253   1.394   2.166   0.350  0.1057 -0.0714  0.6165
  625MPD2    C1 9254   1.436   2.282   0.416  0.2682  0.1461  0.4005
  625MPD2    C2 9255   1.519   2.272   0.521 -0.2422  0.2827 -0.1891
  625MPD2    C3 9256   1.558   2.145   0.559 -0.0104 -0.3359  0.4115
  625MPD2    C4 9257   1.514   2.029   0.491 -0.5634  0.5484  0.1934
  625MPD2    C5 9258   1.433   2.039   0.387 -0.6257  0.9516 -0.4699
  625MPD2     H 9259   1.549   2.358   0.578 -1.0232  0.1242  0.4596
  625MPD2    H1 9260   1.560   1.932   0.507 -2.6885 -0.4465  0.2318
  625MPD2    H2 9261   1.346   2.174   0.253  0.2626  0.4589  0.5806
  625MPD2    H3 9262   1.406   1.956   0.322 -0.7015  1.2152 -0.7801
  625MPD2     N 9263   1.639   2.143   0.677  0.5278 -0.1749 -0.7895
  625MPD2    H5 9264   1.653   2.231   0.726 -0.4585 -0.8984  0.7863
  625MPD2    N1 9265   1.412   2.415   0.380 -0.0777 -0.3156  0.3401
  625MPD2    H7 9266   1.438   2.490   0.443  0.9116  0.3271 -0.8317
  626TMC3    C1 9267   1.326   2.598   0.263  0.4113  0.6944  0.5728
  626TMC3    C2 9268   1.216   2.652   0.204 -0.0971  0.0332 -0.0728
  626TMC3    C3 9269   1.202   2.789   0.212  0.2665  0.4775  0.7050
  626TMC3    C4 9270   1.402   2.667   0.358  0.0625 -0.0774  0.0036
  626TMC3    C5 9271   1.373   2.796   0.373 -0.4927 -0.3786 -0.3316
  626TMC3    C6 9272   1.278   2.863   0.307 -0.0372  0.0841 -0.2721
  626TMC3     C 9273   1.321   2.453   0.277 -0.4454 -0.3697  0.6157
  626TMC3     O 9274   1.236   2.390   0.211 -0.0665  0.0381 -0.1426
  626TMC3     H 9275   1.154   2.590   0.140  2.0442 -0.5676 -1.5569
  626TMC3    H1 9276   1.504   2.634   0.375  0.8355  1.5154 -1.6487
  626TMC3    H2 9277   1.278   2.971   0.294  0.7815  0.3215  1.6679
  626TMC3    C7 9278   1.447   2.863   0.480 -0.2426  0.8826  0.3212
  626TMC3    C8 9279   1.119   2.869   0.121 -0.2027  0.1321 -0.5648
  626TMC3    O1 9280   1.556   2.817   0.499  0.2016 -0.0603 -0.0130
  626TMC3    O2 9281   1.141   2.987   0.104  0.6559 -0.4165  0.8326
  627MPD2     C 9282   4.186   3.347  14.495 -0.0738 -0.0642  0.4563
  627MPD2    C1 9283   4.303   3.291  14.551 -0.8933 -0.3340 -0.4883
  627MPD2    C2 9284   4.322   3.154  14.543 -1.0195 -0.8203  0.5386
  627MPD2    C3 9285   4.232   3.068  14.484  0.6381  0.2470 -0.0799
  627MPD2    C4 9286   4.115   3.127  14.431 -0.5021  0.0444  0.3458
  627MPD2    C5 9287   4.093   3.265  14.435  0.3612 -0.0603 -0.1294
  627MPD2     H 9288   4.419   3.115  14.571 -1.0947 -0.1352  1.7647
  627MPD2    H1 9289   4.043   3.058  14.390 -1.5101  1.2002  0.1493
  627MPD2    H2 9290   4.165   3.454  14.491 -1.2217 -0.3287 -0.8251
  627MPD2    H3 9291   3.996   3.305  14.407 -0.3652  0.1818  2.7411
  627MPD2     N 9292   4.257   2.929  14.486  0.9402 -0.4712  0.0401
  627MPD2    H5 9293   4.348   2.903  14.521 -0.5024 -1.4761  3.0135
  627MPD2    N1 9294   4.404   3.370  14.602 -0.1629 -0.1739 -0.0368
  627MPD2    H7 9295   4.496   3.332  14.623 -0.4003 -0.8825 -0.2861
  628TMC3    C1 9296   4.526   3.552  14.670  0.2081  0.6736 -0.5543
  628TMC3    C2 9297   4.580   3.474  14.766 -0.2114 -0.0184  0.0276
  628TMC3    C3 9298   4.711   3.444  14.771 -0.6396 -1.1728  0.5425
  628TMC3    C4 9299   4.592   3.606  14.571  0.6471 -0.6069 -0.4779
  628TMC3    C5 9300   4.721   3.555  14.558  0.9409 -0.1178 -0.1870
  628TMC3    C6 9301   0.060   3.494  14.664  0.5436 -0.2118 -0.3889
  628TMC3     C 9302   4.395   3.507  14.631  0.0434 -0.2770 -0.1028
  628TMC3     O 9303   4.299   3.580  14.634  0.2403  0.8036  0.3951
  628TMC3     H 9304   4.521   3.437  14.849  0.1575  2.5744  1.4549
  628TMC3    H1 9305   4.538   3.644  14.485 -0.3322 -0.8450  0.0372
  628TMC3    H2 9306   0.150   3.443  14.633 -0.5189 -0.7346 -2.5785
  628TMC3    C7 9307   0.079   3.594  14.446 -0.2058 -0.4918 -0.7724
  628TMC3    C8 9308   4.721   3.299  14.779  0.3828  0.1573 -0.5829
  628TMC3    O1 9309   0.182   3.534  14.431 -0.2055  0.6318 -0.0337
  628TMC3    O2 9310   4.639   3.235  14.713 -0.0754 -0.0736  0.0119
  629MPD2     C 9311   2.842   1.518  16.030 -0.4690  0.2512  0.3962
  629MPD2    C1 9312   2.840   1.472  16.156  0.5191 -0.4173  0.0133
  629MPD2    C2 9313   2.715   1.430  16.210 -0.2441  0.9431  0.3777
  629MPD2    C3 9314   2.611   1.398  16.126 -0.1974  0.3916  0.2282
  629MPD2    C4 9315   2.616   1.440  15.989  0.1766 -0.1663  0.2474
  629MPD2    C5 9316   2.729   1.510  15.949  0.1157 -0.3268 -0.0871
  629MPD2     H 9317   2.706   1.410  16.316  2.9040 -1.0163  0.2720
  629MPD2    H1 9318   2.530   1.437  15.923  0.0787  1.2304  0.2987
  629MPD2    H2 9319   2.934   1.558  15.988  0.1467 -1.1859  0.3705
  629MPD2    H3 9320   2.745   1.553  15.851  0.8043  0.7238  0.4789
  629MPD2     N 9321   2.498   1.345  16.190 -0.8721  0.1377 -0.8113
  629MPD2    H5 9322   2.495   1.351  16.291 -3.2098 -0.8027 -0.8206
  629MPD2    N1 9323   2.963   1.469  16.227 -0.6633  0.0172  0.0245
  629MPD2    H7 9324   3.029   1.536  16.191 -0.8973 -0.7897 -1.9610
  630TMC3    C1 9325   3.118   1.397  16.390  0.2289 -0.7907 -0.3072
  630TMC3    C2 9326   3.205   1.501  16.362 -0.0588  0.4708  0.2769
  630TMC3    C3 9327   3.321   1.509  16.440  0.7758  0.2933  0.0407
  630TMC3    C4 9328   3.145   1.303  16.491 -0.6073 -0.0614 -0.4239
  630TMC3    C5 9329   3.266   1.311  16.557  0.1358 -0.6356  0.2413
  630TMC3    C6 9330   3.352   1.415  16.531  0.0602  0.4152  0.6338
  630TMC3     C 9331   2.992   1.377  16.327 -0.3992 -0.8185  0.0196
  630TMC3     O 9332   2.926   1.283  16.366 -0.2821  0.0339  0.0768
  630TMC3     H 9333   3.170   1.580  16.297  2.3812  1.1759 -0.1851
  630TMC3    H1 9334   3.069   1.240  16.534  1.8860 -1.7296  1.5413
  630TMC3    H2 9335   3.446   1.414  16.586 -0.2278 -1.2901  1.0785
  630TMC3    C7 9336   3.279   1.249  16.691 -0.3807  0.2691  0.3094
  630TMC3    C8 9337   3.407   1.619  16.420 -0.1484 -0.0820 -0.3608
  630TMC3    O1 9338   3.363   1.304  16.760 -0.6595  0.7655  0.1496
  630TMC3    O2 9339   3.467   1.661  16.519  0.1654  0.4478 -0.3826
  631MPD2     C 9340   1.137   2.104  15.513 -0.2328 -0.0582 -0.3823
  631MPD2    C1 9341   1.223   2.130  15.409  0.1914 -0.6410  0.4350
  631MPD2    C2 9342   1.313   2.034  15.363  0.7811  0.7471 -0.2579
  631MPD2    C3 9343   1.311   1.904  15.423 -0.8271 -0.6459 -0.0197
  631MPD2    C4 9344   1.219   1.882  15.524  0.4732 -0.0561  0.5678
  631MPD2    C5 9345   1.135   1.980  15.572  0.1842 -0.0974  0.7798
  631MPD2     H 9346   1.382   2.063  15.283  0.3292 -1.0168 -1.2891
  631MPD2    H1 9347   1.211   1.787  15.575 -1.6324 -0.2280 -0.0517
  631MPD2    H2 9348   1.064   2.175  15.552  0.6677 -0.4176  1.9443
  631MPD2    H3 9349   1.066   1.963  15.653  2.4060  0.3776  2.7909
  631MPD2     N 9350   1.412   1.817  15.395  0.8549 -0.4992 -0.4489
  631MPD2    H5 9351   1.482   1.841  15.325 -1.0034 -0.0630 -2.1656
  631MPD2    N1 9352   1.196   2.246  15.340  1.1380 -0.2950  0.0270
  631MPD2    H7 9353   1.123   2.301  15.383  2.1492  2.1035 -1.3432
  632TMC3    C1 9354   1.179   2.404  15.179  0.0185 -0.0038 -0.4045
  632TMC3    C2 9355   1.044   2.387  15.198  0.1725  0.2959 -0.0766
  632TMC3    C3 9356   0.961   2.365  15.096  0.1682  0.3493 -0.0219
  632TMC3    C4 9357   1.225   2.410  15.046  0.0557  0.6624 -0.0321
  632TMC3    C5 9358   1.139   2.378  14.943 -0.1399  0.1285 -0.1357
  632TMC3    C6 9359   1.000   2.367  14.964 -0.4480  0.6065 -0.1860
  632TMC3     C 9360   1.257   2.291  15.228  0.3867 -0.5739  0.6512
  632TMC3     O 9361   1.342   2.248  15.158 -0.3022  0.1111 -0.7601
  632TMC3     H 9362   1.001   2.376  15.297  0.2921  2.9559  0.2702
  632TMC3    H1 9363   1.329   2.432  15.025 -0.2840  0.1296 -2.2124
  632TMC3    H2 9364   0.927   2.353  14.885  0.0240  0.6682 -0.6332
  632TMC3    C7 9365   1.196   2.296  14.838 -0.0291 -0.3937  0.4580
  632TMC3    C8 9366   0.843   2.279  15.126 -0.2073  0.2891  0.3188
  632TMC3    O1 9367   1.135   2.285  14.731  0.5832 -0.1591  0.2021
  632TMC3    O2 9368   0.839   2.223  15.234 -0.4575 -0.0781  0.3050
  633MPD2     C 9369   0.935   4.185  17.211 -0.3660  0.0902  0.0112
  633MPD2    C1 9370   1.032   4.134  17.122 -0.0038  0.1276  0.0282
  633MPD2    C2 9371   1.097   4.012  17.141 -0.0899  0.0541  0.3471
  633MPD2    C3 9372   1.063   3.944  17.253 -0.5485 -0.7373 -0.6029
  633MPD2    C4 9373   0.970   3.992  17.341 -0.1640 -0.0571 -0.0932
  633MPD2    C5 9374   0.897   4.105  17.314  0.1495  1.1390 -0.7767
  633MPD2     H 9375   1.159   3.970  17.064 -0.9390 -2.3466  0.9671
  633MPD2    H1 9376   0.929   3.925  17.416  4.1178 -0.9899  1.3780
  633MPD2    H2 9377   0.884   4.280  17.204 -0.0229  0.3934  1.7795
  633MPD2    H3 9378   0.810   4.122  17.376 -1.2538 -2.6601 -1.7361
  633MPD2     N 9379   1.106   3.818  17.283  0.0797  0.0444  0.5543
  633MPD2    H5 9380   1.062   3.768  17.359 -1.1629  0.1880 -0.0787
  633MPD2    N1 9381   1.085   4.211  17.012 -0.1640  0.2495 -0.5830
  633MPD2    H7 9382   1.154   4.170  16.949 -0.2600 -0.1908 -0.4001
  634TMC3    C1 9383   1.075   4.378  16.841  0.2913  0.0694 -0.3764
  634TMC3    C2 9384   1.103   4.276  16.749 -0.3087  0.1139  0.8131
  634TMC3    C3 9385   1.068   4.299  16.623  0.4004  1.0260 -0.4610
  634TMC3    C4 9386   1.016   4.498  16.798  0.0258 -0.4996  0.2121
  634TMC3    C5 9387   1.006   4.521  16.661 -0.6516 -0.5366  0.2392
  634TMC3    C6 9388   1.036   4.419  16.569  0.9860  0.1737 -0.1759
  634TMC3     C 9389   1.045   4.340  16.981  0.4224 -0.2137 -0.8288
  634TMC3     O 9390   0.981   4.424  17.038  0.4323  0.1046  0.0610
  634TMC3     H 9391   1.132   4.178  16.785 -1.3675  0.5345  2.8156
  634TMC3    H1 9392   0.986   4.570  16.874  2.7307 -0.3496  1.1418
  634TMC3    H2 9393   1.033   4.444  16.464  0.2871 -1.1888 -0.4774
  634TMC3    C7 9394   0.956   4.652  16.609  0.4395 -0.2185 -0.6892
  634TMC3    C8 9395   1.087   4.183  16.533  1.4474  0.2058  0.1222
  634TMC3    O1 9396   0.938   4.662  16.488  0.0637  0.0977  0.5154
  634TMC3    O2 9397   1.117   4.075  16.585  0.3416  0.3019 -0.5811
  635TMC3    C1 9398   1.448   0.863  17.124 -0.7799  0.5963  0.3763
  635TMC3    C2 9399   1.382   0.916  17.021 -1.0131 -0.1581  0.6288
  635TMC3    C3 9400   1.331   0.838  16.919  0.0089  0.7829 -0.1404
  635TMC3    C4 9401   1.464   0.727  17.138 -0.3558  0.2881 -0.5905
  635TMC3    C5 9402   1.405   0.653  17.039  0.0176  0.3412  0.1190
  635TMC3    C6 9403   1.332   0.704  16.933 -0.4770  0.4642  0.5636
  635TMC3     C 9404   1.505   0.956  17.217 -0.3085 -0.6241  0.0509
  635TMC3     O 9405   1.441   1.058  17.232  0.0437  0.1801  0.5975
  635TMC3     H 9406   1.387   1.024  17.010  0.3118 -0.4898 -2.0891
  635TMC3    H1 9407   1.531   0.675  17.205  0.8412  2.0723 -0.3922
  635TMC3    H2 9408   1.291   0.637  16.858 -0.2554 -0.1441  0.9914
  635TMC3    C7 9409   1.442   0.515  17.023  0.3754  0.2979  0.2951
  635TMC3    C8 9410   1.238   0.885  16.817  0.7240 -0.3853  0.7200
  635TMC3    O1 9411   1.419   0.462  16.916  0.0553  0.6697 -0.0240
  635TMC3    O2 9412   1.221   0.809  16.722 -0.4591 -0.4612 -0.2699
  636MPD2     C 9413   2.188   4.678  15.560  0.6519 -0.9628  0.6235
  636MPD2    C1 9414   2.208   4.663  15.693 -0.4923 -0.4242 -0.4052
  636MPD2    C2 9415   2.284   4.553  15.741 -0.3730 -0.3480  0.4407
  636MPD2    C3 9416   2.336   4.455  15.665 -0.3113  0.2608  0.5697
  636MPD2    C4 9417   2.304   4.467  15.529  0.5704  0.1323  0.3263
  636MPD2    C5 9418   2.230   4.574  15.482  0.2706 -0.1433  0.1882
  636MPD2     H 9419   2.294   4.555  15.849 -1.1784  1.3770  0.4867
  636MPD2    H1 9420   2.344   4.391  15.462 -0.0785  0.5264 -0.5149
  636MPD2    H2 9421   2.123   0.029  15.516  0.9688 -0.6283  0.7165
  636MPD2    H3 9422   2.218   4.579  15.375  0.5201 -1.3213  0.1031
  636MPD2     N 9423   2.415   4.352  15.724  0.6294  0.2436  0.1245
  636MPD2    H5 9424   2.460   4.372  15.813 -0.2459 -0.6332  0.7736
  636MPD2    N1 9425   2.153   0.020  15.789 -0.1476 -0.3783 -0.3464
  636MPD2    H7 9426   2.156   4.708  15.884  1.8420 -1.4060 -0.7907
  637TMC3    C1 9427   2.543   4.157  15.730 -0.4088  0.4241 -0.2678
  637TMC3    C2 9428   2.604   4.201  15.843  0.3073  0.0008 -0.2829
  637TMC3    C3 9429   2.724   4.149  15.880 -0.3062 -0.5184 -0.1707
  637TMC3    C4 9430   2.602   4.062  15.658  0.1005  0.2512  0.0483
  637TMC3    C5 9431   2.727   4.013  15.693 -0.2046  0.0815  0.5609
  637TMC3    C6 9432   2.790   4.053  15.805  0.2025  0.2018  0.0967
  637TMC3     C 9433   2.431   4.229  15.665  1.5058  0.3890 -0.3336
  637TMC3     O 9434   2.385   4.182  15.563 -0.1154 -0.2050  0.1112
  637TMC3     H 9435   2.559   4.285  15.895 -0.1545 -0.4889  0.1114
  637TMC3    H1 9436   2.565   4.020  15.565  1.9434  0.9031 -0.9732
  637TMC3    H2 9437   2.879   4.012  15.852 -1.6198 -1.5023  2.1050
  637TMC3    C7 9438   2.816   3.989  15.587  0.9265 -0.3855  0.0052
  637TMC3    C8 9439   2.819   4.256  15.895  0.1940  0.3788  0.4662
  637TMC3    O1 9440   2.775   3.925  15.490  0.2584  0.1818  0.1323
  637TMC3    O2 9441   2.925   4.241  15.826 -0.7127  0.5280  0.6475
  638MPD2     C 9442   2.070   3.467  14.658  0.3194  0.0098  0.1437
  638MPD2    C1 9443   2.027   3.362  14.589  1.2717  0.9993  0.1200
  638MPD2    C2 9444   1.995   3.249  14.661 -0.0038  0.4111  0.2035
  638MPD2    C3 9445   1.984   3.248  14.801  0.0344  0.1620  0.0528
  638MPD2    C4 9446   2.031   3.360  14.869 -0.0475  0.4224  0.2703
  638MPD2    C5 9447   2.067   3.471  14.796  0.5431  0.3609  0.2725
  638MPD2     H 9448   1.982   3.154  14.611 -0.6325  1.6119 -1.9150
  638MPD2    H1 9449   2.026   3.371  14.976 -0.6168 -3.2393  0.5853
  638MPD2    H2 9450   2.103   3.553  14.601  2.5652 -3.1305 -3.1945
  638MPD2    H3 9451   2.095   3.563  14.846  0.7003 -0.6366  2.0215
  638MPD2     N 9452   1.952   3.124  14.864  0.0830 -0.1845  0.8749
  638MPD2    H5 9453   1.932   3.047  14.801  1.5953 -0.0476  0.2210
  638MPD2    N1 9454   2.045   3.364  14.448  0.0571 -0.3594  1.0024
  638MPD2    H7 9455   2.100   3.440  14.410  0.7845 -1.8809 -0.9209
  639TMC3    C1 9456   1.903   2.963  15.022  0.8591  0.2584  0.5931
  639TMC3    C2 9457   1.834   2.891  14.926  0.1908  0.1394 -0.1384
  639TMC3    C3 9458   1.838   2.754  14.934  0.1324 -0.2406 -0.1179
  639TMC3    C4 9459   1.958   2.896  15.136  0.8260  0.6926  0.0303
  639TMC3    C5 9460   1.949   2.759  15.142 -0.7122 -0.1404  0.4735
  639TMC3    C6 9461   1.898   2.687  15.034  0.5974 -0.1393 -0.2863
  639TMC3     C 9462   1.938   3.101  15.001  0.3832 -0.0472  0.0658
  639TMC3     O 9463   1.957   3.165  15.101  0.4391 -0.0803 -0.6527
  639TMC3     H 9464   1.784   2.935  14.840 -1.2337 -2.1985 -0.4856
  639TMC3    H1 9465   2.019   2.949  15.208  0.9562 -0.2004  0.5753
  639TMC3    H2 9466   1.892   2.579  15.030 -1.7648 -0.0736  0.9988
  639TMC3    C7 9467   2.022   2.678  15.239 -0.1606 -0.2042 -0.5598
  639TMC3    C8 9468   1.754   2.678  14.848  0.1259  0.7936  0.5759
  639TMC3    O1 9469   2.043   2.706  15.354 -0.0793 -0.1754  0.1681
  639TMC3    O2 9470   1.800   2.574  14.800  0.0843  0.4017 -0.5981
  640MPD2     C 9471   1.948   1.926   9.835  0.4429 -0.4739 -0.1838
  640MPD2    C1 9472   1.907   1.955   9.709 -0.1701 -0.3502 -0.7613
  640MPD2    C2 9473   1.802   2.046   9.699  0.4603 -0.2797  0.3360
  640MPD2    C3 9474   1.741   2.096   9.810 -0.1047 -0.0480  0.4581
  640MPD2    C4 9475   1.789   2.076   9.939  0.5222  0.4975 -0.0666
  640MPD2    C5 9476   1.892   1.988   9.949  0.6913 -0.3073  0.3532
  640MPD2     H 9477   1.749   2.071   9.607 -0.5448 -0.1960  0.9414
  640MPD2    H1 9478   1.756   2.129  10.028 -2.1191 -0.2602 -0.5912
  640MPD2    H2 9479   2.023   1.851   9.860  0.6096 -0.0102  0.7025
  640MPD2    H3 9480   1.932   1.971  10.048  0.9352 -1.4670  0.0561
  640MPD2     N 9481   1.641   2.189   9.804 -0.7489 -0.1715  0.2012
  640MPD2    H5 9482   1.621   2.242   9.888 -2.3682 -0.3895 -0.0487
  640MPD2    N1 9483   1.971   1.905   9.594 -0.3428  0.8084  0.0766
  640MPD2    H7 9484   2.032   1.824   9.599  0.7135  1.6879  1.3032
  641TMC3    C1 9485   2.021   1.874   9.369 -0.8427 -0.7381  0.4285
  641TMC3    C2 9486   2.119   1.792   9.414 -0.5183 -0.3578  0.1714
  641TMC3    C3 9487   2.150   1.684   9.339 -0.0964 -0.6900  0.7384
  641TMC3    C4 9488   1.946   1.848   9.259 -0.4004 -0.2950 -0.1993
  641TMC3    C5 9489   1.983   1.741   9.185 -0.1206 -0.3353  0.2372
  641TMC3    C6 9490   2.084   1.650   9.224 -0.5086  0.2332 -0.3740
  641TMC3     C 9491   1.952   1.957   9.466 -0.1595 -0.1737  0.0692
  641TMC3     O 9492   1.869   2.039   9.426  0.0237  0.2162 -0.4859
  641TMC3     H 9493   2.175   1.830   9.499  0.6124  0.3088 -0.8594
  641TMC3    H1 9494   1.860   1.910   9.232 -0.4377 -0.7998 -1.2312
  641TMC3    H2 9495   2.100   1.554   9.176  1.7669 -0.1103  1.0665
  641TMC3    C7 9496   1.887   1.692   9.086  0.0666  0.3975  0.7753
  641TMC3    C8 9497   2.265   1.606   9.372  0.7254 -0.3447  1.0385
  641TMC3    O1 9498   1.877   1.576   9.057  0.5615 -0.8464  0.7872
  641TMC3    O2 9499   2.288   1.515   9.295 -0.4245 -0.1063 -0.6107
  642TMC3    C1 9500   3.476   3.071  12.055 -0.3273  0.7096 -0.1047
  642TMC3    C2 9501   3.605   3.014  12.045  0.0067 -0.1376  0.1139
  642TMC3    C3 9502   3.614   2.905  11.957  0.5689  0.7425  0.2860
  642TMC3    C4 9503   3.371   3.017  11.988  0.3342 -0.1634  0.2727
  642TMC3    C5 9504   3.389   2.896  11.921  0.6986 -1.2861  0.1803
  642TMC3    C6 9505   3.512   2.845  11.892  0.0416 -0.0378  0.3413
  642TMC3     C 9506   3.456   3.155  12.176 -0.0051 -0.9131 -0.2712
  642TMC3     O 9507   3.552   3.183  12.247 -0.1073  0.4516 -0.1512
  642TMC3     H 9508   3.696   3.062  12.080  1.6189 -2.3545 -1.0684
  642TMC3    H1 9509   3.275   3.068  11.988  0.6792  0.4734  1.3868
  642TMC3    H2 9510   3.521   2.747  11.848  1.3331  0.5694 -0.7144
  642TMC3    C7 9511   3.281   2.824  11.873 -0.5035 -0.0380  0.6368
  642TMC3    C8 9512   3.746   2.847  11.921  0.1910  0.5679 -0.4321
  642TMC3    O1 9513   3.298   2.764  11.768  0.1833  0.3313 -0.7839
  642TMC3    O2 9514   3.744   2.768  11.829  0.1960 -0.0488  0.5130
  643TMC3    C1 9515   3.237   2.706   0.541 -0.4131  0.0729 -0.1559
  643TMC3    C2 9516   3.101   2.686   0.544  0.3340  0.0777 -0.1945
  643TMC3    C3 9517   3.046   2.576   0.489 -0.5031 -0.4764  0.0000
  643TMC3    C4 9518   3.325   2.623   0.469 -0.3352  0.4657  0.2940
  643TMC3    C5 9519   3.263   2.512   0.421  0.1582 -0.2334 -0.1269
  643TMC3    C6 9520   3.131   2.487   0.431 -0.3360 -0.7441 -1.3182
  643TMC3     C 9521   3.275   2.833   0.591  0.9740  0.3690  0.6420
  643TMC3     O 9522   3.188   2.921   0.590 -0.2086 -0.2951  0.1794
  643TMC3     H 9523   3.035   2.742   0.609  0.5602  0.7208 -0.5114
  643TMC3    H1 9524   3.427   2.650   0.445 -0.3764  0.8211  0.5047
  643TMC3    H2 9525   3.082   2.406   0.378 -1.7381 -1.9453  1.8071
  643TMC3    C7 9526   3.336   2.454   0.311 -0.0851 -0.3415  0.2172
  643TMC3    C8 9527   2.924   2.607   0.417  0.3801  0.3207 -0.4360
  643TMC3    O1 9528   3.419   2.522   0.258 -0.2680 -0.0195  0.0133
  643TMC3    O2 9529   2.859   2.514   0.370 -0.6210 -0.5200  0.2614
  644MPD2     C 9530   2.218   2.474   9.400 -0.5329 -1.0031 -0.7654
  644MPD2    C1 9531   2.179   2.353   9.341 -0.6203 -0.0424  0.8509
  644MPD2    C2 9532   2.049   2.314   9.349 -0.3476 -0.0001 -0.2275
  644MPD2    C3 9533   1.944   2.388   9.397 -0.5182  0.0273  0.6461
  644MPD2    C4 9534   1.976   2.516   9.436 -0.2720 -0.9146  0.1290
  644MPD2    C5 9535   2.116   2.552   9.441 -0.1865  0.6360 -0.0028
  644MPD2     H 9536   2.024   2.215   9.312  0.4493 -0.5472  0.6933
  644MPD2    H1 9537   1.901   2.587   9.469 -0.8554 -1.0232 -0.9674
  644MPD2    H2 9538   2.317   2.517   9.402  0.0999 -2.4150 -1.2082
  644MPD2    H3 9539   2.140   2.655   9.468 -0.8003  0.6645  0.4222
  644MPD2     N 9540   1.817   2.325   9.386  0.2916 -0.1336 -0.2014
  644MPD2    H5 9541   1.809   2.229   9.355  2.6447  0.0400 -1.3746
  644MPD2    N1 9542   2.284   2.265   9.307  0.5660  0.4582 -0.5274
  644MPD2    H7 9543   2.381   2.290   9.326  0.8011  1.6110 -3.2335
  645TMC3    C1 9544   1.585   2.333   9.358  0.3268 -0.2394 -0.2664
  645TMC3    C2 9545   1.478   2.411   9.330  0.4725 -0.5489 -0.0863
  645TMC3    C3 9546   1.375   2.352   9.253  0.2717 -0.7574  0.0685
  645TMC3    C4 9547   1.586   2.202   9.318  0.5903  0.0659  0.6534
  645TMC3    C5 9548   1.478   2.143   9.260  0.1469  0.8597  0.5142
  645TMC3    C6 9549   1.375   2.216   9.224  0.1490 -0.1361  0.1201
  645TMC3     C 9550   1.702   2.400   9.412  0.5833  0.0303 -0.5196
  645TMC3     O 9551   1.681   2.516   9.445  0.0647  0.4929  0.2924
  645TMC3     H 9552   1.473   2.518   9.348  2.0208 -0.4652 -0.2185
  645TMC3    H1 9553   1.678   2.147   9.333  0.9024  0.5104  0.3847
  645TMC3    H2 9554   1.290   2.166   9.179  0.4164 -1.9038  1.5529
  645TMC3    C7 9555   1.457   2.004   9.280 -0.2504 -0.0872 -0.9229
  645TMC3    C8 9556   1.285   2.446   9.201  0.3950  0.1052 -0.0379
  645TMC3    O1 9557   1.354   1.955   9.241 -0.1835  0.0468 -0.2010
  645TMC3    O2 9558   1.287   2.553   9.253 -0.4988  0.4810 -0.7058
  646MPD2     C 9559   2.148   2.047  14.392  0.0822  0.7849 -1.1872
  646MPD2    C1 9560   2.052   2.001  14.474  0.5417  0.0893  0.0329
  646MPD2    C2 9561   1.920   2.022  14.442  0.1048  0.1047 -0.3164
  646MPD2    C3 9562   1.880   2.097  14.331  0.0838  1.0585 -0.0191
  646MPD2    C4 9563   1.982   2.148  14.250 -0.0525  0.3292 -0.4767
  646MPD2    C5 9564   2.112   2.117  14.277 -0.1695  0.2398 -0.5776
  646MPD2     H 9565   1.846   1.976  14.506 -0.8946 -0.8295 -2.1480
  646MPD2    H1 9566   1.945   2.214  14.172  2.1433 -1.9485 -3.4414
  646MPD2    H2 9567   2.254   2.034  14.408  0.2543 -0.8467 -3.6924
  646MPD2    H3 9568   2.186   2.172  14.221  0.5379  0.5034  0.6220
  646MPD2     N 9569   1.743   2.125  14.314 -0.7151 -0.0715 -0.2409
  646MPD2    H5 9570   1.689   2.076  14.384 -1.9216 -1.5177 -2.1756
  646MPD2    N1 9571   2.094   1.930  14.588  0.1480  0.1010 -0.2858
  646MPD2    H7 9572   2.194   1.917  14.596  0.1503  0.3729  0.1722
  647TMC3    C1 9573   2.088   1.851  14.808 -0.9896  0.0360  0.2023
  647TMC3    C2 9574   2.031   1.764  14.900 -0.2307  0.0844 -0.0960
  647TMC3    C3 9575   2.086   1.747  15.013  0.1386 -0.6138 -0.0997
  647TMC3    C4 9576   2.205   1.915  14.837 -0.0284  0.6709 -0.3229
  647TMC3    C5 9577   2.264   1.891  14.957 -0.1379  0.5632 -0.1165
  647TMC3    C6 9578   2.206   1.805  15.045 -0.4384  0.8894  0.3172
  647TMC3     C 9579   2.012   1.886  14.695 -0.3079 -0.8021 -0.2143
  647TMC3     O 9580   1.894   1.857  14.702 -0.0939 -0.0875 -0.1929
  647TMC3     H 9581   1.937   1.714  14.878 -0.5195  1.4158 -1.8643
  647TMC3    H1 9582   2.244   1.981  14.760 -0.2119  2.3756  1.0630
  647TMC3    H2 9583   2.257   1.773  15.135 -0.8239 -4.2991 -1.2923
  647TMC3    C7 9584   2.409   1.890  14.970  0.1004 -0.6080 -0.1199
  647TMC3    C8 9585   2.046   1.633  15.106  0.4069  0.6800 -0.2898
  647TMC3    O1 9586   2.455   1.851  15.077 -0.1696  0.5519 -0.2048
  647TMC3    O2 9587   2.138   1.580  15.166 -0.4133 -0.3835 -0.4390
  648TMC3    C1 9588   1.282   4.436  15.804 -0.3822 -0.0706  0.3695
  648TMC3    C2 9589   1.270   4.308  15.752  0.0683 -0.1555  0.1530
  648TMC3    C3 9590   1.193   4.313  15.638 -0.4519  0.0310 -0.0247
  648TMC3    C4 9591   1.208   4.547  15.751 -0.0547 -0.6681  0.3672
  648TMC3    C5 9592   1.126   4.536  15.637  0.1691 -0.4165  0.7690
  648TMC3    C6 9593   1.128   4.421  15.575 -0.0661 -0.0267 -0.0074
  648TMC3     C 9594   1.318   4.444  15.948 -0.1945 -0.0201  0.3289
  648TMC3     O 9595   1.317   4.553  15.992  0.0453 -0.7679  0.1219
  648TMC3     H 9596   1.345   4.231  15.767 -0.7658 -0.8833  0.5773
  648TMC3    H1 9597   1.210   4.645  15.797  1.4106 -1.2228  1.4900
  648TMC3    H2 9598   1.082   4.412  15.477 -0.8081  2.0138  0.1480
  648TMC3    C7 9599   1.075   4.654  15.574  0.4838  0.0778 -0.1941
  648TMC3    C8 9600   1.196   4.192  15.557  0.6926  0.2227  0.0510
  648TMC3    O1 9601   1.047   4.661  15.457  0.0912  0.0512 -0.6160
  648TMC3    O2 9602   1.089   4.162  15.504 -0.0925  0.0107  0.2129
  649TMC3    C1 9603   4.674   0.551  12.766 -0.0595 -0.4001 -0.9130
  649TMC3    C2 9604   0.077   0.606  12.782 -0.1324  0.1264  0.2358
  649TMC3    C3 9605   0.151   0.541  12.876  0.4905 -0.2051  0.4363
  649TMC3    C4 9606   4.620   0.450  12.847 -0.0669  0.2624  0.2664
  649TMC3    C5 9607   4.705   0.398  12.938  0.4775 -0.2245 -0.3290
  649TMC3    C6 9608   0.109   0.442  12.958  0.6551 -0.8535 -0.1852
  649TMC3     C 9609   4.592   0.625  12.685 -0.4108 -0.0473  0.1772
  649TMC3     O 9610   4.482   0.653  12.733  0.7759 -1.0634 -0.1987
  649TMC3     H 9611   0.110   0.702  12.745  1.1404  0.3311  1.9058
  649TMC3    H1 9612   4.520   0.411  12.835  0.4616 -0.5715 -1.4290
  649TMC3    H2 9613   0.137   0.419  13.060 -0.0187 -0.1437  0.1627
  649TMC3    C7 9614   4.660   0.295  13.030 -0.4359 -0.2950 -0.2955
  649TMC3    C8 9615   0.272   0.610  12.911 -0.2595  0.1695 -0.4108
  649TMC3    O1 9616   4.539   0.274  13.041  0.4417 -0.2137 -0.5553
  649TMC3    O2 9617   0.286   0.729  12.884 -0.4367  0.0920 -0.1270
  650TMC3    C1 9618   2.657   2.361  12.363  0.0525 -0.8512  0.2164
  650TMC3    C2 9619   2.631   2.489  12.389  0.0600 -0.1934  0.2567
  650TMC3    C3 9620   2.512   2.547  12.338 -0.7897  0.0458  0.0814
  650TMC3    C4 9621   2.581   2.290  12.287  0.5214 -0.1534  0.0905
  650TMC3    C5 9622   2.483   2.353  12.217 -0.1004 -0.3631 -1.0249
  650TMC3    C6 9623   2.439   2.479  12.243  0.1216 -0.3170 -0.1984
  650TMC3     C 9624   2.760   2.294  12.443  0.2181 -0.3406 -0.5803
  650TMC3     O 9625   2.844   2.365  12.493  0.2664 -0.3941  0.0789
  650TMC3     H 9626   2.689   2.553  12.454  1.8320 -1.6566  0.1214
  650TMC3    H1 9627   2.600   2.184  12.272  0.2020 -0.1958 -0.0233
  650TMC3    H2 9628   2.372   2.534  12.177  0.7162  2.3367  1.4083
  650TMC3    C7 9629   2.418   2.272  12.121  0.0999  0.5324 -1.0039
  650TMC3    C8 9630   2.490   2.683  12.333 -0.0568 -0.6860  0.0457
  650TMC3    O1 9631   2.484   2.184  12.071 -0.6876  0.2072 -0.0173
  650TMC3    O2 9632   2.587   2.755  12.335  0.4516 -0.1376  0.2169
  651MPD2     C 9633   1.786   4.491  11.196  0.5765  0.3117  0.6297
  651MPD2    C1 9634   1.743   4.552  11.080  0.6820  0.4699 -0.8000
  651MPD2    C2 9635   1.845   4.594  10.996  0.7602 -0.8054 -0.1871
  651MPD2    C3 9636   1.978   4.583  11.024  0.6760  0.2922  0.5756
  651MPD2    C4 9637   2.014   4.524  11.143  0.9370 -0.5109  1.0736
  651MPD2    C5 9638   1.916   4.473  11.229 -0.2550 -0.1229  0.2983
  651MPD2     H 9639   1.815   4.645  10.906 -0.9819  1.6990  1.8266
  651MPD2    H1 9640   2.120   4.530  11.169  1.0245 -2.3299  1.1517
  651MPD2    H2 9641   1.718   4.474  11.279  0.2640 -0.3992  0.2303
  651MPD2    H3 9642   1.933   4.441  11.331  2.2590 -1.3908 -0.5127
  651MPD2     N 9643   2.076   4.642  10.934  0.1822  0.0150 -0.2675
  651MPD2    H5 9644   2.043   4.691  10.852  2.7942  1.0361 -0.6902
  651MPD2    N1 9645   1.610   4.575  11.053  0.2258 -0.4342  0.0144
  651MPD2    H7 9646   1.594   4.626  10.966 -0.4042  2.2542  1.6873
  652TMC3    C1 9647   2.504   4.679  10.730  0.3052 -0.7652  0.8136
  652TMC3    C2 9648   2.413   4.623  10.810 -0.0398 -0.1460  0.1357
  652TMC3    C3 9649   2.291   4.685  10.833  0.4043  0.1040 -0.1078
  652TMC3    C4 9650   2.485   0.083  10.686  0.6842  0.5350 -0.0251
  652TMC3    C5 9651   2.360   0.144  10.703 -0.0304  0.2020 -0.1135
  652TMC3    C6 9652   2.262   0.084  10.779  0.6078 -0.4315 -0.3977
  652TMC3     C 9653   2.643   4.636  10.741  0.2993 -0.5854 -0.0961
  652TMC3     O 9654   2.679   4.613  10.851  0.6678  0.4615 -0.3526
  652TMC3     H 9655   2.440   4.534  10.867  1.6652  0.0541 -0.3617
  652TMC3    H1 9656   2.566   0.144  10.648  2.6505 -1.4588  0.9743
  652TMC3    H2 9657   2.175   0.139  10.811  2.5661  2.5934 -0.2880
  652TMC3    C7 9658   2.369   0.282  10.702 -0.1489 -0.1334  0.1338
  652TMC3    C8 9659   2.211   4.621  10.941 -0.3538 -0.6020  0.4963
  652TMC3    O1 9660   2.330   0.335  10.806  0.0689  0.5712 -0.2064
  652TMC3    O2 9661   2.272   4.545  11.013  0.4727  0.1717 -0.0996
  653MPD2     C 9662   0.664   4.314  17.634  0.4213  0.2661  0.9296
  653MPD2    C1 9663   0.724   4.390  17.537  0.2347 -0.7639  0.4141
  653MPD2    C2 9664   0.685   4.376  17.408 -0.4139  0.1708  0.9636
  653MPD2    C3 9665   0.587   4.284  17.374  0.5244  0.0150  0.0752
  653MPD2    C4 9666   0.532   4.203  17.471  0.0274 -0.2207  0.5290
  653MPD2    C5 9667   0.570   4.228  17.592 -0.2882  0.8778 -0.9552
  653MPD2     H 9668   0.718   4.447  17.333 -0.6191  0.7435  1.4226
  653MPD2    H1 9669   0.443   4.144  17.452 -0.7134  0.8624  0.6211
  653MPD2    H2 9670   0.686   4.316   0.046  2.2606  1.8930  0.5355
  653MPD2    H3 9671   0.520   4.167  17.667 -2.1497  0.0887 -2.8396
  653MPD2     N 9672   0.554   4.271  17.236 -0.4237 -0.1379  0.1758
  653MPD2    H5 9673   0.583   4.352  17.182 -1.4455 -0.8928 -1.4996
  653MPD2    N1 9674   0.801   4.508  17.571 -0.2542  0.6160  0.1613
  653MPD2    H7 9675   0.834   4.562  17.493  1.6170 -1.4584 -0.4760
  654TMC3    C1 9676   0.486   4.172  17.041 -0.5915 -0.9160 -0.1574
  654TMC3    C2 9677   0.393   4.270  17.002  0.3220 -0.3634 -1.0028
  654TMC3    C3 9678   0.335   4.251  16.880 -0.1050  0.0970  1.0110
  654TMC3    C4 9679   0.491   4.050  16.968  0.2934 -0.5791  0.5948
  654TMC3    C5 9680   0.413   4.033  16.854  0.7361 -0.0246 -0.2227
  654TMC3    C6 9681   0.349   4.136  16.801  0.3238 -0.7253 -0.3587
  654TMC3     C 9682   0.503   4.157  17.182  0.6758 -0.3720  0.2608
  654TMC3     O 9683   0.492   4.047  17.238  0.5777  0.2275  0.3182
  654TMC3     H 9684   0.399   4.364  17.057  0.0705 -1.0914  0.2687
  654TMC3    H1 9685   0.562   3.973  16.995  1.5604  1.0898  2.0360
  654TMC3    H2 9686   0.291   4.123  16.710 -1.6773 -0.0572  0.8323
  654TMC3    C7 9687   0.392   3.904  16.784  0.8201 -0.4299  0.1575
  654TMC3    C8 9688   0.257   4.360  16.831  0.6102 -0.9344 -0.1720
  654TMC3    O1 9689   0.357   3.919  16.666  0.0995 -0.2394 -0.0851
  654TMC3    O2 9690   0.180   4.408  16.911 -0.5494 -0.2383  0.1888
  655MPD2     C 9691   1.805   0.027  15.372  0.6244  1.3108 -0.0021
  655MPD2    C1 9692   1.726   0.125  15.316  0.2572  0.6035 -0.1265
  655MPD2    C2 9693   1.696   0.120  15.179  0.2169  0.0283 -0.1672
  655MPD2    C3 9694   1.761   0.019  15.107  0.1673  0.3549 -0.3036
  655MPD2    C4 9695   1.843   4.649  15.171 -0.5008 -0.4606 -0.3155
  655MPD2    C5 9696   1.864   4.656  15.301  0.7603 -0.4760 -0.1756
  655MPD2     H 9697   1.656   0.211  15.137 -1.3143 -0.7568 -0.4054
  655MPD2    H1 9698   1.893   4.569  15.118  1.0838 -1.6012  2.9447
  655MPD2    H2 9699   1.824   0.018  15.478  2.8438 -1.0883 -0.5825
  655MPD2    H3 9700   1.931   4.583  15.344 -0.2538  0.0091  2.2389
  655MPD2     N 9701   1.741   4.719  14.968 -0.2086  0.4723 -0.0112
  655MPD2    H5 9702   1.771   4.628  14.934  1.4525  1.0306 -0.0221
  655MPD2    N1 9703   1.670   0.234  15.386  0.4485  0.6530  0.4798
  655MPD2    H7 9704   1.617   0.305  15.336  0.8001 -0.5669 -1.6246
  656TMC3    C1 9705   1.575   0.331  15.579 -0.0869  0.7663  0.6330
  656TMC3    C2 9706   1.523   0.277  15.694 -0.3272  0.6060 -0.3935
  656TMC3    C3 9707   1.401   0.331  15.737  0.5291  0.3412  0.9817
  656TMC3    C4 9708   1.506   0.421  15.506  0.0244  0.0955 -0.2430
  656TMC3    C5 9709   1.385   0.460  15.548 -0.5008 -0.2539 -0.7794
  656TMC3    C6 9710   1.330   0.412  15.658  0.7207 -0.1038  0.1152
  656TMC3     C 9711   1.672   0.244  15.525  0.3393 -0.4230 -0.0848
  656TMC3     O 9712   1.726   0.162  15.599 -0.2584 -0.1276  0.2389
  656TMC3     H 9713   1.555   0.189  15.749  1.2865  1.1451 -0.4726
  656TMC3    H1 9714   1.541   0.463  15.412 -2.9100  2.0919 -0.4167
  656TMC3    H2 9715   1.224   0.415  15.680  0.7954 -0.4418  0.5148
  656TMC3    C7 9716   1.311   0.545  15.454 -0.5485  0.0951  0.5961
  656TMC3    C8 9717   1.333   0.246  15.844 -0.1116 -0.7863 -0.9949
  656TMC3    O1 9718   1.355   0.544  15.338 -0.5721  0.3408 -0.1314
  656TMC3    O2 9719   1.345   0.123  15.844 -0.1823  0.0009 -0.0293
  657TMC3    C1 9720   0.901   3.808  14.602 -0.8760 -0.1960 -0.5314
  657TMC3    C2 9721   0.889   3.727  14.707  0.0392 -0.8165  0.7049
  657TMC3    C3 9722   0.808   3.771  14.807  0.3603  0.9171  0.8316
  657TMC3    C4 9723   0.833   3.926  14.589 -0.0077  0.1793  0.0701
  657TMC3    C5 9724   0.748   3.957  14.690 -0.0678  0.5855 -0.4981
  657TMC3    C6 9725   0.735   3.885  14.800  0.1430  0.2642 -0.0172
  657TMC3     C 9726   0.976   3.769  14.485 -0.4650 -0.4760 -0.2827
  657TMC3     O 9727   0.965   3.827  14.378  0.1308  0.1454  0.1469
  657TMC3     H 9728   0.932   3.627  14.706  0.1158 -0.7602 -1.2194
  657TMC3    H1 9729   0.844   3.994  14.504 -1.4934  1.3823  0.8346
  657TMC3    H2 9730   0.696   3.929  14.892  1.5717  1.7386 -0.1056
  657TMC3    C7 9731   0.645   4.059  14.665  0.2779  0.4241  0.5871
  657TMC3    C8 9732   0.792   3.692  14.924  0.0352  0.0726  0.4263
  657TMC3    O1 9733   0.671   4.141  14.578 -0.6566 -0.3401 -0.0293
  657TMC3    O2 9734   0.696   3.717  14.996 -0.6779  0.0199  0.1423
  658MPD2     C 9735   2.057   4.269  14.351 -0.1038 -0.2135  0.6346
  658MPD2    C1 9736   2.025   4.401  14.380 -0.4998  0.2013  0.3630
  658MPD2    C2 9737   2.078   4.502  14.303 -0.3693  0.0032  0.1446
  658MPD2    C3 9738   2.172   4.478  14.208 -0.5618 -0.0778  0.0482
  658MPD2    C4 9739   2.209   4.342  14.182  0.7431 -0.0230 -0.4217
  658MPD2    C5 9740   2.147   4.241  14.250  1.2223  0.7806  0.1906
  658MPD2     H 9741   2.043   4.604  14.317 -1.0681 -0.0170 -1.4746
  658MPD2    H1 9742   2.278   4.308  14.106  1.3103  1.6140 -0.6359
  658MPD2    H2 9743   2.004   4.186  14.396  1.0589  0.1995  2.7389
  658MPD2    H3 9744   2.168   4.142  14.211 -0.5719 -0.4851  2.4161
  658MPD2     N 9745   2.222   4.590  14.144  0.3758 -0.0249 -0.0434
  658MPD2    H5 9746   2.187   4.674  14.190 -2.2823  0.3432 -2.7229
  658MPD2    N1 9747   1.930   4.430  14.479  0.5810  0.2397  0.1008
  658MPD2    H7 9748   1.867   4.357  14.513  0.3273 -0.8939 -2.7777
  659TMC3    C1 9749   1.806   4.589  14.626  0.3601  0.3407  0.1245
  659TMC3    C2 9750   1.800   4.693  14.717 -0.1502  0.7102  0.1184
  659TMC3    C3 9751   1.685   0.029  14.748 -0.1176  0.1721 -0.4587
  659TMC3    C4 9752   1.691   4.550  14.567  0.2507  0.4598 -0.5480
  659TMC3    C5 9753   1.570   4.615  14.586  0.2868  0.2907  0.0373
  659TMC3    C6 9754   1.568   4.707  14.688  0.7223  0.1043  0.0740
  659TMC3     C 9755   1.923   4.556  14.550  0.5382  0.3396  0.0023
  659TMC3     O 9756   2.017   4.636  14.561  0.0391 -0.6079  0.1482
  659TMC3     H 9757   1.891   0.006  14.764  0.3724 -1.1580  0.5461
  659TMC3    H1 9758   1.705   4.472  14.493 -0.8002 -1.4820  1.3061
  659TMC3    H2 9759   1.477   0.031  14.722  0.7147 -0.6190  1.0582
  659TMC3    C7 9760   1.453   4.537  14.580  0.5619  0.4633 -0.7211
  659TMC3    C8 9761   1.670   0.080  14.884 -0.5404  0.2360 -0.3099
  659TMC3    O1 9762   1.461   4.416  14.594  0.0589  0.1073  0.0922
  659TMC3    O2 9763   1.612   0.186  14.907  0.0845  0.5567  0.2854
  660MPD2     C 9764   0.070   2.921  12.453 -0.4289 -0.4144 -0.1988
  660MPD2    C1 9765   4.673   2.986  12.442 -0.5077  0.5695 -0.2466
  660MPD2    C2 9766   4.563   2.956  12.522  0.4492  0.3456 -1.1555
  660MPD2    C3 9767   4.578   2.865  12.622 -0.5806 -0.3800  0.3166
  660MPD2    C4 9768   4.697   2.797  12.627 -0.1188  0.2922 -0.2021
  660MPD2    C5 9769   0.079   2.816  12.539 -0.3401 -0.5804  0.1173
  660MPD2     H 9770   4.465   3.001  12.506  0.7303  1.0859 -0.8284
  660MPD2    H1 9771   4.709   2.717  12.699 -1.7782  0.7813  0.6366
  660MPD2    H2 9772   0.150   2.935  12.381  1.0668 -0.7072  1.4239
  660MPD2    H3 9773   0.176   2.769  12.544  1.0856  2.2684 -0.4720
  660MPD2     N 9774   4.483   2.826  12.718 -0.0862  0.0240  0.2691
  660MPD2    H5 9775   4.507   2.754  12.785  2.7110  0.2080 -0.5551
  660MPD2    N1 9776   4.657   3.063  12.327 -0.2163  0.0858 -0.7876
  660MPD2    H7 9777   0.019   3.079  12.273 -0.3886  0.3076 -0.9905
  661TMC3    C1 9778   4.544   3.162  12.148 -0.1716 -0.1496 -0.0159
  661TMC3    C2 9779   4.598   3.096  12.041  0.1741  0.5334 -0.1958
  661TMC3    C3 9780   4.544   3.133  11.921 -0.3071  0.0292 -0.0065
  661TMC3    C4 9781   4.440   3.258  12.149 -0.0490  0.6697 -0.6446
  661TMC3    C5 9782   4.388   3.281  12.025 -0.7195  0.2871  0.3077
  661TMC3    C6 9783   4.443   3.225  11.913  0.8961  0.2282 -0.7124
  661TMC3     C 9784   4.528   3.087  12.272  0.1020  0.1019  0.0901
  661TMC3     O 9785   4.414   3.043  12.294  0.2684  0.0624  0.1084
  661TMC3     H 9786   4.664   3.011  12.059  0.7260  0.9675 -0.1728
  661TMC3    H1 9787   4.395   3.304  12.236  1.7095  2.7402 -0.8543
  661TMC3    H2 9788   4.415   3.269  11.819 -0.0034  0.7096 -0.2155
  661TMC3    C7 9789   4.253   3.331  12.017 -0.3228 -0.0984 -0.2478
  661TMC3    C8 9790   4.581   3.057  11.798  0.3585  0.7026  0.2533
  661TMC3    O1 9791   4.213   3.392  12.116 -0.1454  0.3287  0.5511
  661TMC3    O2 9792   4.589   3.127  11.698  0.0466  0.0566 -0.5192
  662MPD2     C 9793   0.645   2.757   0.416 -0.4810 -0.5970 -0.1961
  662MPD2    C1 9794   0.537   2.673   0.392  0.0494  0.0396 -0.0948
  662MPD2    C2 9795   0.418   2.722   0.354 -0.6550  0.1151 -0.0382
  662MPD2    C3 9796   0.397   2.857   0.340  0.2205  0.4774  0.0417
  662MPD2    C4 9797   0.499   2.943   0.349 -0.0657  0.2680  0.0660
  662MPD2    C5 9798   0.622   2.892   0.395 -0.3047  0.4117  0.1829
  662MPD2     H 9799   0.337   2.650   0.357 -1.7769  1.2787 -1.8760
  662MPD2    H1 9800   0.482   3.050   0.354  0.3567  0.2975  0.8977
  662MPD2    H2 9801   0.741   2.735   0.460 -0.1895  1.6901  0.3153
  662MPD2    H3 9802   0.714   2.947   0.411 -0.6246  1.0338 -0.1097
  662MPD2     N 9803   0.266   2.908   0.316 -0.1275 -0.0635 -0.3837
  662MPD2    H5 9804   0.263   3.009   0.305 -0.5355  0.0173  0.4842
  662MPD2    N1 9805   0.546   2.531   0.410 -0.3360  0.1111 -0.2721
  662MPD2    H7 9806   0.464   2.473   0.398 -0.4869  0.4915 -1.1068
  663TMC3    C1 9807   0.623   2.337   0.482 -0.4263  0.0953  0.2724
  663TMC3    C2 9808   0.598   2.333   0.616 -0.0705 -0.5868  0.0265
  663TMC3    C3 9809   0.543   2.217   0.665  0.1800  0.1659  0.2872
  663TMC3    C4 9810   0.557   2.258   0.391 -0.2480 -0.3373 -0.2690
  663TMC3    C5 9811   0.471   2.164   0.447 -0.1294 -0.1144 -0.7650
  663TMC3    C6 9812   0.463   2.141   0.579  0.7896 -0.5189 -0.2120
  663TMC3     C 9813   0.660   2.469   0.450  0.1957  0.0200  0.1493
  663TMC3     O 9814   0.759   2.514   0.508  0.1495 -0.0413 -0.2194
  663TMC3     H 9815   0.652   2.403   0.679 -0.5218 -1.1922  1.0848
  663TMC3    H1 9816   0.574   2.272   0.285 -0.0196 -0.7281 -0.2840
  663TMC3    H2 9817   0.380   2.091   0.627  2.0963 -1.0545  1.5007
  663TMC3    C7 9818   0.388   2.080   0.368  0.1392  0.3826  0.0661
  663TMC3    C8 9819   0.459   2.263   0.774 -0.3200 -0.1303 -0.0937
  663TMC3    O1 9820   0.373   1.971   0.416 -0.0234  0.0674 -0.1679
  663TMC3    O2 9821   0.457   2.186   0.866 -0.1387 -0.1725 -0.2784
  664MPD2     C 9822   3.786   0.989   0.077  0.2230 -0.0744  0.6445
  664MPD2    C1 9823   3.780   1.127   0.052  1.1015 -0.7401 -0.0301
  664MPD2    C2 9824   3.808   1.214   0.156  0.2188  0.4088  0.0928
  664MPD2    C3 9825   3.826   1.171   0.286  0.4968 -0.6588 -0.0953
  664MPD2    C4 9826   3.828   1.041   0.305 -0.0251  0.3617 -0.0446
  664MPD2    C5 9827   3.822   0.950   0.203  0.0141 -0.1991  0.4748
  664MPD2     H 9828   3.805   1.320   0.132 -1.2754  0.5278  0.7961
  664MPD2    H1 9829   3.827   0.998   0.404  1.7137  2.2857  0.8067
  664MPD2    H2 9830   3.767   0.911   0.004 -0.9967  0.6464  0.2017
  664MPD2    H3 9831   3.823   0.845   0.228 -1.9121  0.0225  1.4169
  664MPD2     N 9832   3.851   1.268   0.391  0.8289  0.3038 -0.2927
  664MPD2    H5 9833   3.849   1.364   0.359 -1.4239 -1.2892 -4.9153
  664MPD2    N1 9834   3.735   1.173  17.623  0.0070 -0.4673 -0.1181
  664MPD2    H7 9835   3.715   1.272  17.611  2.7111  0.0435 -0.5312
  665TMC3    C1 9836   3.868   1.361   0.607 -0.6035  0.5096  0.4409
  665TMC3    C2 9837   3.844   1.352   0.739 -0.2945 -0.0999 -0.2908
  665TMC3    C3 9838   3.908   1.438   0.825  0.2048 -0.2404 -0.0837
  665TMC3    C4 9839   3.948   1.454   0.556 -0.3199  0.2797 -0.4080
  665TMC3    C5 9840   4.006   1.547   0.641 -0.4346  0.0245 -0.0970
  665TMC3    C6 9841   3.986   1.537   0.777 -0.2525 -0.3370 -0.0501
  665TMC3     C 9842   3.854   1.241   0.525  0.2531 -0.7043  0.0086
  665TMC3     O 9843   3.841   1.134   0.580 -0.2818  0.0318  0.5161
  665TMC3     H 9844   3.782   1.269   0.771  0.8430 -0.9703 -0.3637
  665TMC3    H1 9845   3.964   1.465   0.449  0.4663  0.7874 -0.2425
  665TMC3    H2 9846   4.028   1.608   0.847  0.6944 -0.3992 -0.5583
  665TMC3    C7 9847   4.025   1.684   0.584 -0.2383 -0.2674  0.1825
  665TMC3    C8 9848   3.879   1.425   0.967 -0.2633 -0.4721  0.2767
  665TMC3    O1 9849   4.000   1.708   0.469  0.0403 -0.3071 -0.2950
  665TMC3    O2 9850   3.958   1.473   1.052 -0.5919 -0.3321  0.1161
  666TMC3    C1 9851   1.758   0.774   9.840  0.6836  0.4593 -0.0731
  666TMC3    C2 9852   1.895   0.776   9.824 -0.2755  0.1379 -0.3004
  666TMC3    C3 9853   1.949   0.894   9.778  0.9481 -0.3363  0.4897
  666TMC3    C4 9854   1.676   0.877   9.809  0.0323 -0.0763  0.0005
  666TMC3    C5 9855   1.732   0.991   9.754 -0.4102  0.5031 -0.0106
  666TMC3    C6 9856   1.871   1.001   9.731 -0.3203  0.1407  0.2610
  666TMC3     C 9857   1.699   0.649   9.888 -0.3885  0.0545  0.2153
  666TMC3     O 9858   1.772   0.554   9.873 -0.8301  0.2167 -0.4644
  666TMC3     H 9859   1.958   0.693   9.853  0.2207  1.1571  1.5739
  666TMC3    H1 9860   1.569   0.860   9.802  0.0235  0.5393 -1.4040
  666TMC3    H2 9861   1.918   1.087   9.684 -1.4162  0.6645  0.1215
  666TMC3    C7 9862   1.664   1.117   9.738 -0.5896 -0.5282 -0.2521
  666TMC3    C8 9863   2.095   0.913   9.798  0.6400 -0.5665  0.2480
  666TMC3    O1 9864   1.732   1.203   9.684  0.2911  0.0078 -0.0583
  666TMC3    O2 9865   2.153   0.856   9.889 -0.1439  0.3454 -0.0651
  667MPD2     C 9866   3.928   1.040  14.521  0.3970  0.6905  0.3935
  667MPD2    C1 9867   3.858   1.102  14.623 -0.3984  0.9025  0.3195
  667MPD2    C2 9868   3.736   1.052  14.668 -0.2016  0.4189 -0.2220
  667MPD2    C3 9869   3.688   0.937  14.604  0.5470  0.2145 -0.3525
  667MPD2    C4 9870   3.753   0.871  14.508 -0.5782  0.8276 -0.2969
  667MPD2    C5 9871   3.881   0.920  14.466 -0.4081 -0.2316  0.4161
  667MPD2     H 9872   3.673   1.108  14.736 -1.0851  0.9124 -1.4343
  667MPD2    H1 9873   3.713   0.791  14.447  1.5415 -0.8560  0.5245
  667MPD2    H2 9874   4.018   1.078  14.474  1.8504 -1.6226  1.3227
  667MPD2    H3 9875   3.931   0.876  14.381 -0.5606  1.9431 -0.8106
  667MPD2     N 9876   3.564   0.890  14.643 -0.2200  0.4984  0.1883
  667MPD2    H5 9877   3.532   0.932  14.730 -0.2995 -0.7276  0.7603
  667MPD2    N1 9878   3.907   1.212  14.699  0.0695  0.4480  0.1189
  667MPD2    H7 9879   3.855   1.246  14.779 -0.2602  0.7062 -0.2071
  668TMC3    C1 9880   4.059   1.354  14.795  0.5755  0.8129 -0.6264
  668TMC3    C2 9881   4.175   1.429  14.782  0.0534 -0.0156  0.6723
  668TMC3    C3 9882   4.222   1.500  14.888  0.0064 -0.2564 -0.4359
  668TMC3    C4 9883   3.991   1.352  14.914 -0.0871 -0.0538 -0.2044
  668TMC3    C5 9884   4.028   1.437  15.015  0.2294  0.6909 -0.2000
  668TMC3    C6 9885   4.150   1.505  15.008  0.5123  0.6578 -0.2049
  668TMC3     C 9886   4.028   1.267  14.685 -0.0373  0.3578  0.0923
  668TMC3     O 9887   4.120   1.247  14.598 -0.3292 -0.2924  0.1462
  668TMC3     H 9888   4.221   1.444  14.685 -4.1464 -0.6150 -1.4204
  668TMC3    H1 9889   3.906   1.287  14.932 -2.6284  3.5362  0.7926
  668TMC3    H2 9890   4.175   1.574  15.088  1.6881  0.9654 -0.8399
  668TMC3    C7 9891   3.974   1.418  15.150 -0.3669 -0.5271 -0.3213
  668TMC3    C8 9892   4.296   1.622  14.865  0.0254  0.5024  0.5525
  668TMC3    O1 9893   4.052   1.431  15.243  0.0612 -0.1656 -0.0155
  668TMC3    O2 9894   4.275   1.715  14.941  0.4368 -0.6006 -0.1992
  669TMC3    C1 9895   1.865   1.202  14.464 -0.1735  0.2947 -0.4166
  669TMC3    C2 9896   1.763   1.173  14.373  0.1700  0.3861 -0.4118
  669TMC3    C3 9897   1.781   1.198  14.237 -0.2290  0.5119  0.5622
  669TMC3    C4 9898   1.990   1.252  14.413 -0.0439 -0.6280  0.1145
  669TMC3    C5 9899   2.001   1.259  14.275  0.7719  0.3198 -0.5842
  669TMC3    C6 9900   1.903   1.227  14.181 -0.2360  0.0558  0.1254
  669TMC3     C 9901   1.840   1.212  14.608  0.8469 -0.0276 -0.3718
  669TMC3     O 9902   1.722   1.209  14.637 -0.3747 -0.4714  0.1772
  669TMC3     H 9903   1.666   1.152  14.418  0.3634 -1.0452 -0.6948
  669TMC3    H1 9904   2.063   1.303  14.474 -0.6610  0.8564 -0.3922
  669TMC3    H2 9905   1.914   1.256  14.077 -2.7930 -0.5210 -0.3176
  669TMC3    C7 9906   2.121   1.314  14.209  0.0059  0.6577  0.6365
  669TMC3    C8 9907   1.662   1.173  14.159  0.5167 -0.2279 -0.0157
  669TMC3    O1 9908   2.110   1.368  14.097 -0.5955 -0.0277 -0.1486
  669TMC3    O2 9909   1.584   1.092  14.205 -0.6524  0.2278 -0.3435
  670MPD2     C 9910   0.000   3.538  13.480  0.7099 -0.4795 -0.7405
  670MPD2    C1 9911   0.106   3.507  13.565 -0.7770  0.4512  0.0506
  670MPD2    C2 9912   0.077   3.482  13.698 -0.2642  0.1057  0.8656
  670MPD2    C3 9913   4.667   3.499  13.750  0.6019 -0.0233 -0.0320
  670MPD2    C4 9914   4.570   3.544  13.664 -0.3100 -0.5150 -0.2269
  670MPD2    C5 9915   4.595   3.556  13.531  0.5842 -0.0764 -0.7702
  670MPD2     H 9916   0.159   3.459  13.765  1.5716  0.8107 -1.1637
  670MPD2    H1 9917   4.468   3.570  13.690  0.0793  0.3457  0.4249
  670MPD2    H2 9918   0.006   3.569  13.376 -0.9269  1.9571 -0.0920
  670MPD2    H3 9919   4.519   3.596  13.465 -1.2896  0.6536  1.8723
  670MPD2     N 9920   4.646   3.462  13.889  0.0491  0.4523 -0.0595
  670MPD2    H5 9921   4.717   3.412  13.941  0.8062  0.7955 -0.7706
  670MPD2    N1 9922   0.240   3.492  13.512 -0.1205 -0.8378 -0.2500
  670MPD2    H7 9923   0.312   3.485  13.584  0.0202  2.2145 -0.1023
  671TMC3    C1 9924   4.528   3.440  14.090  0.5583  0.2493 -0.3295
  671TMC3    C2 9925   4.648   3.430  14.155 -0.1990  0.4097  0.2217
  671TMC3    C3 9926   4.674   3.296  14.203  0.6509 -0.7616  0.2127
  671TMC3    C4 9927   4.422   3.361  14.121 -0.6215  0.5548 -1.5799
  671TMC3    C5 9928   4.449   3.246  14.178 -0.5027 -0.3087 -0.2524
  671TMC3    C6 9929   4.575   3.207  14.205  0.4073 -0.0805  0.6850
  671TMC3     C 9930   4.525   3.487  13.957 -0.2335  0.1229  0.0951
  671TMC3     O 9931   4.416   3.527  13.918  0.3236 -0.4287 -0.5549
  671TMC3     H 9932   0.020   3.479  14.134 -1.0546  1.8106 -0.3781
  671TMC3    H1 9933   4.322   3.381  14.085 -0.7625  0.5863 -1.1633
  671TMC3    H2 9934   4.600   3.102  14.217 -1.6494 -0.2073  3.8910
  671TMC3    C7 9935   4.373   3.133  14.132 -0.0466  0.4539 -0.7375
  671TMC3    C8 9936   0.077   3.247  14.170 -0.3093 -0.3169 -0.5497
  671TMC3    O1 9937   4.433   3.034  14.089 -0.3806 -0.1208  0.0573
  671TMC3    O2 9938   0.124   3.289  14.064 -0.0528 -0.4254 -0.1136
  672MPD2     C 9939   0.608   3.767   0.748 -0.7437 -0.6633 -0.0981
  672MPD2    C1 9940   0.745   3.762   0.763 -0.7944 -0.1291 -0.3484
  672MPD2    C2 9941   0.812   3.840   0.856  0.0534 -0.1593  0.0878
  672MPD2    C3 9942   0.745   3.931   0.929 -0.0504  1.1504 -0.4015
  672MPD2    C4 9943   0.614   3.947   0.909  0.2043 -0.4028  0.5591
  672MPD2    C5 9944   0.548   3.871   0.810  0.1275  0.3129  0.1647
  672MPD2     H 9945   0.915   3.814   0.877  0.2677  0.6040 -0.0116
  672MPD2    H1 9946   0.554   3.996   0.985  2.3781  1.3950  1.1192
  672MPD2    H2 9947   0.564   3.693   0.681  0.9017 -2.8856  1.2663
  672MPD2    H3 9948   0.440   3.880   0.797 -0.2493 -2.1010  1.6684
  672MPD2     N 9949   0.803   4.004   1.041 -0.0389 -0.4081  0.0540
  672MPD2    H5 9950   0.746   4.070   1.093  0.9985 -0.8926  1.7718
  672MPD2    N1 9951   0.824   3.681   0.678 -0.7904 -0.1765 -0.2278
  672MPD2    H7 9952   0.920   3.660   0.704  0.5210  1.0798 -4.0677
  673TMC3    C1 9953   0.884   3.561   0.472  0.7257  0.3448  0.4144
  673TMC3    C2 9954   1.003   3.533   0.528  1.2645 -0.7158  0.7235
  673TMC3    C3 9955   1.112   3.516   0.438 -0.0695 -0.2630  0.0735
  673TMC3    C4 9956   0.872   3.589   0.339 -0.1440 -0.1274  0.4891
  673TMC3    C5 9957   0.977   3.572   0.258  0.8060 -0.1227 -0.4141
  673TMC3    C6 9958   1.099   3.530   0.300  0.3622 -0.3701 -0.1686
  673TMC3     C 9959   0.789   3.635   0.550  0.1138  0.1064  0.4827
  673TMC3     O 9960   0.698   3.680   0.483  0.3018  0.2183 -0.2850
  673TMC3     H 9961   1.019   3.520   0.634  1.2570 -1.7090  0.6016
  673TMC3    H1 9962   0.776   3.618   0.298  1.6965  0.5048 -3.4298
  673TMC3    H2 9963   1.174   3.519   0.223 -0.0294  0.8362 -0.7301
  673TMC3    C7 9964   0.988   3.681   0.169  0.1551  0.0784  0.5144
  673TMC3    C8 9965   1.234   3.474   0.497 -0.5297 -0.3683 -0.3465
  673TMC3    O1 9966   1.072   3.673   0.082 -0.3508 -0.5260  0.5345
  673TMC3    O2 9967   1.244   3.503   0.614  0.1853 -0.1060  0.0944
  674MPD2     C 9968   0.704   3.746  17.627  0.6941  0.3077  0.5024
  674MPD2    C1 9969   0.635   3.648   0.005  0.7768 -0.1273  0.3670
  674MPD2    C2 9970   0.571   3.686   0.117 -0.2345 -0.5099  0.0351
  674MPD2    C3 9971   0.571   3.818   0.156  0.0350  0.3719  0.4784
  674MPD2    C4 9972   0.632   3.916   0.080  0.3802 -0.1774 -0.0351
  674MPD2    C5 9973   0.702   3.878  17.661  0.3237  0.0176  0.1181
  674MPD2     H 9974   0.510   3.621   0.180 -0.9426 -0.4896 -0.6258
  674MPD2    H1 9975   0.642   4.022   0.102  1.1426  0.4344 -3.2995
  674MPD2    H2 9976   0.762   3.720  17.539 -0.5838  1.5239 -0.7145
  674MPD2    H3 9977   0.764   3.949  17.608 -0.8093 -0.9549 -2.5119
  674MPD2     N 9978   0.501   3.849   0.276  0.5935 -0.2618 -0.3140
  674MPD2    H5 9979   0.464   3.767   0.323 -0.9763  0.4857 -0.2417
  674MPD2    N1 9980   0.653   3.508  17.666 -0.8126  0.3409  0.2359
  674MPD2    H7 9981   0.717   3.484  17.591  0.3200  1.6454  0.7954
  675TMC3    C1 9982   0.694   3.281   0.015  0.3528 -0.1829  0.0976
  675TMC3    C2 9983   0.682   3.194   0.127 -0.1765 -0.7205  0.7672
  675TMC3    C3 9984   0.797   3.153   0.184 -0.9984 -0.1651  0.9490
  675TMC3    C4 9985   0.806   3.309  17.643 -0.5690 -0.3278  0.1425
  675TMC3    C5 9986   0.914   3.260   0.008  0.6503  0.5229 -0.5477
  675TMC3    C6 9987   0.914   3.192   0.128 -0.6898  0.1343 -0.7796
  675TMC3     C 9988   0.616   3.401   0.043 -0.3081  0.0369  0.4254
  675TMC3     O 9989   0.541   3.395   0.146  0.4597  0.1759  0.4451
  675TMC3     H 9990   0.582   3.162   0.156 -0.4997 -1.3569 -1.0660
  675TMC3    H1 9991   0.807   3.354  17.544  1.7841 -0.3072  0.1776
  675TMC3    H2 9992   1.008   3.166   0.175 -0.9837 -0.0632 -0.3004
  675TMC3    C7 9993   1.037   3.318  17.652  0.5577  0.3060 -0.1081
  675TMC3    C8 9994   0.795   3.183   0.322  0.2519  0.5787 -0.3600
  675TMC3    O1 9995   1.033   3.421  17.588  0.3325 -0.0087 -0.1069
  675TMC3    O2 9996   0.867   3.130   0.406  0.2133  0.0686 -0.5114
  676MPD2     C 9997   2.729   2.425  10.924 -1.3624 -0.1494  0.1888
  676MPD2    C1 9998   2.634   2.329  10.960  0.0432 -0.4529  0.4248
  676MPD2    C2 9999   2.671   2.198  10.968  0.6788  0.0735  0.2830
  676MPD2    C310000   2.805   2.162  10.955  0.3663 -0.2129 -0.1737
  676MPD2    C410001   2.898   2.265  10.933  0.6604 -0.2522  0.0422
  676MPD2    C510002   2.862   2.394  10.917  0.3284 -0.2614  0.1546
  676MPD2     H10003   2.591   2.126  10.979  1.2013 -0.2790  1.6809
  676MPD2    H110004   3.002   2.234  10.929  1.4368  2.4172 -0.5018
  676MPD2    H210005   2.703   2.530  10.920  0.3448  0.2564 -0.1887
  676MPD2    H310006   2.931   2.473  10.892 -1.3953  1.0494 -0.4266
  676MPD2     N10007   2.850   2.026  10.968  0.3773 -0.1112 -0.0206
  676MPD2    H510008   2.951   2.015  10.975  0.5834 -0.2253 -2.8858
  676MPD2    N110009   2.501   2.360  10.986 -0.1274 -0.5066 -0.4443
  676MPD2    H710010   2.439   2.279  10.982 -0.4360 -0.2483 -0.9052
  677TMC3    C110011   2.312   2.472  11.035  0.2341 -0.5466  0.6977
  677TMC3    C210012   2.255   2.343  11.009 -0.0847  0.1457 -0.1814
  677TMC3    C310013   2.149   2.312  11.090  0.5930  0.1205 -0.4318
  677TMC3    C410014   2.277   2.551  11.136  0.7850  0.3453 -0.1854
  677TMC3    C510015   2.179   2.511  11.229  0.2974 -0.0250 -0.6857
  677TMC3    C610016   2.112   2.394  11.199 -0.4135 -0.2869 -0.3183
  677TMC3     C10017   2.448   2.486  11.004 -0.0359  0.5368  0.6625
  677TMC3     O10018   2.506   2.593  11.024  0.8839  0.2450  0.2023
  677TMC3     H10019   2.260   2.289  10.915 -0.1885 -1.7684  0.9170
  677TMC3    H110020   2.326   2.646  11.157 -1.7729  1.4673  0.7230
  677TMC3    H210021   2.033   2.355  11.263 -0.3128  2.0832  1.2428
  677TMC3    C710022   2.181   2.550  11.370 -0.1801  0.1809 -0.6369
  677TMC3    C810023   2.087   2.183  11.059 -0.7430 -0.0012  0.2832
  677TMC3    O110024   2.109   2.475  11.433 -0.1241  0.0621 -0.1865
  677TMC3    O210025   2.045   2.168  10.945  0.0989  0.0880 -0.2579
  678MPD2     C10026   4.610   3.391   1.490  0.5721  0.1450  0.3655
  678MPD2    C110027   4.638   3.285   1.396  0.3209  0.3628  0.0058
  678MPD2    C210028   4.552   3.171   1.396 -0.1585 -0.7241  0.3576
  678MPD2    C310029   4.436   3.167   1.470  0.5528 -0.4655  0.3813
  678MPD2    C410030   4.417   3.266   1.562  0.3890 -0.6710 -0.0624
  678MPD2    C510031   4.502   3.375   1.571  0.0991 -0.2174 -0.5391
  678MPD2     H10032   4.557   3.095   1.319  2.6236 -0.4648  0.3066
  678MPD2    H110033   4.323   3.268   1.616  0.1740 -0.6028 -0.4395
  678MPD2    H210034   4.658   3.489   1.494  1.0311 -0.0543 -0.2776
  678MPD2    H310035   4.482   3.449   1.648 -0.4493 -1.2301  0.2884
  678MPD2     N10036   4.350   3.065   1.429 -0.7128  0.1977 -0.2144
  678MPD2    H510037   4.377   3.003   1.354 -0.8880 -1.8844  1.4459
  678MPD2    N110038   0.030   3.298   1.315 -0.0358 -0.0274  0.3293
  678MPD2    H710039   0.051   3.218   1.256  1.4377  2.0345 -1.9809
  679TMC3    C110040   0.369   3.181   1.156  0.4889  1.5530 -0.8380
  679TMC3    C210041   0.268   3.216   1.240 -0.3615  0.4357 -0.2635
  679TMC3    C310042   0.252   3.344   1.276 -0.1920 -0.6153 -0.0529
  679TMC3    C410043   0.458   3.272   1.106  0.1815 -0.1123 -0.7104
  679TMC3    C510044   0.428   3.401   1.142 -0.2207 -0.7587  0.6925
  679TMC3    C610045   0.332   3.446   1.226 -0.7546  0.0270  0.2350
  679TMC3     C10046   0.403   3.044   1.126 -0.5427 -0.2722  0.0215
  679TMC3     O10047   0.373   2.970   1.220  0.5268  0.2786 -0.0581
  679TMC3     H10048   0.208   3.134   1.278 -3.3793  1.9008 -1.8701
  679TMC3    H110049   0.540   3.241   1.042  0.4190  0.6120 -0.7598
  679TMC3    H210050   0.302   3.550   1.238 -0.1875 -0.0667  2.4701
  679TMC3    C710051   0.504   3.508   1.081 -0.2141  0.0735 -0.1331
  679TMC3    C810052   0.132   3.389   1.336  0.3739  0.4433 -0.4126
  679TMC3    O110053   0.624   3.497   1.085 -0.5591  0.2119  0.4397
  679TMC3    O210054   0.124   3.499   1.391 -0.1087  0.1152 -0.0150
  680MPD2     C10055   4.128   0.493  13.613  0.1768 -0.2568  0.7933
  680MPD2    C110056   4.213   0.442  13.712  0.2433 -0.2386  0.8692
  680MPD2    C210057   4.257   0.527  13.807 -0.3431  0.0454 -0.3267
  680MPD2    C310058   4.220   0.659  13.823 -0.5014 -0.5143  0.3973
  680MPD2    C410059   4.132   0.708  13.726 -0.4617 -0.1741  0.1311
  680MPD2    C510060   4.095   0.627  13.627 -0.4123 -0.4807 -0.4294
  680MPD2     H10061   4.332   0.488  13.876 -0.1376 -0.5038 -0.8631
  680MPD2    H110062   4.100   0.811  13.728 -0.1614 -0.0815  0.1969
  680MPD2    H210063   4.081   0.437  13.533 -0.6412  0.7811  0.5478
  680MPD2    H310064   4.022   0.662  13.555 -2.5549 -1.3945  1.3288
  680MPD2     N10065   4.270   0.756  13.912 -0.0875  0.2494  0.4690
  680MPD2    H510066   4.240   0.852  13.896  0.8401 -0.0470 -2.9649
  680MPD2    N110067   4.250   0.310  13.711  0.4624  0.5499  0.0329
  680MPD2    H710068   4.322   0.285  13.778  2.7857  2.2190 -1.8201
  681TMC3    C110069   4.278   0.091  13.651  0.6221  0.3226  0.5011
  681TMC3    C210070   4.321   0.063  13.778  0.0188  0.8472  0.0095
  681TMC3    C310071   4.368   4.659  13.803  0.4355  0.5024  0.0029
  681TMC3    C410072   4.301   0.007  13.545  0.9506  0.2443  0.3940
  681TMC3    C510073   4.366   4.614  13.572  0.6925  0.6975  0.1719
  681TMC3    C610074   4.393   4.571  13.700  0.0585  0.3525  0.3585
  681TMC3     C10075   4.207   0.216  13.627  0.1278 -0.1966  0.4899
  681TMC3     O10076   4.112   0.222  13.554 -0.0098  0.2662 -0.1954
  681TMC3     H10077   4.270   0.112  13.860 -0.2208  3.0376 -1.4308
  681TMC3    H110078   4.270   0.037  13.446 -1.0714 -0.3876  0.8239
  681TMC3    H210079   4.437   4.473  13.716 -1.5260 -0.1336  1.8428
  681TMC3    C710080   4.472   4.580  13.478  0.1976  0.1497  0.0337
  681TMC3    C810081   4.425   4.630  13.937 -0.1544  0.2806  0.2269
  681TMC3    O110082   4.525   4.473  13.491 -0.4033 -0.0038  0.2059
  681TMC3    O210083   4.441   0.003  14.009  0.1191  0.4412 -0.1876
  682MPD2     C10084   1.537   2.031  10.576  0.1827 -0.5055 -0.2950
  682MPD2    C110085   1.602   1.907  10.549 -0.9577  0.2126  0.1666
  682MPD2    C210086   1.639   1.823  10.653  0.4834  0.0246 -0.4775
  682MPD2    C310087   1.616   1.860  10.785  0.0355 -0.4099  0.2447
  682MPD2    C410088   1.563   1.983  10.807 -0.1653  0.0280  0.3265
  682MPD2    C510089   1.522   2.070  10.713 -0.2244  0.1793 -0.1020
  682MPD2     H10090   1.669   1.721  10.631  1.2063 -0.1915  1.4170
  682MPD2    H110091   1.557   2.020  10.909  0.4547 -0.1638  0.4335
  682MPD2    H210092   1.494   2.098  10.502  1.4448 -1.7879 -2.1926
  682MPD2    H310093   1.494   2.172  10.739 -1.0063 -0.2571  0.7827
  682MPD2     N10094   1.639   1.775  10.893  0.6516  0.0321  0.3787
  682MPD2    H510095   1.585   1.794  10.977  0.5880  1.0070  0.1153
  682MPD2    N110096   1.641   1.868  10.418  0.3991  0.4906 -0.6934
  682MPD2    H710097   1.684   1.776  10.411  0.8464  0.6737 -0.3222
  683TMC3    C110098   1.754   1.607  11.247  0.9017  0.1099 -0.0412
  683TMC3    C210099   1.779   1.469  11.257 -0.0077 -0.0776  0.0849
  683TMC3    C310100   1.772   1.396  11.139  0.2153  0.5955 -0.1383
  683TMC3    C410101   1.714   1.666  11.133  0.8574  0.6450  0.2021
  683TMC3    C510102   1.702   1.585  11.023  0.0066  0.4334  0.3401
  683TMC3    C610103   1.737   1.450  11.017 -0.2350  0.3085 -0.6520
  683TMC3     C10104   1.754   1.692  11.365  0.0634  0.4308 -0.7145
  683TMC3     O10105   1.706   1.806  11.359 -0.5377 -0.0669 -0.2041
  683TMC3     H10106   1.791   1.428  11.357  1.6811  1.3317  0.4550
  683TMC3    H110107   1.693   1.772  11.133 -1.9707  0.0691 -0.3097
  683TMC3    H210108   1.731   1.401  10.921  1.9122 -2.9758  0.9063
  683TMC3    C710109   1.699   1.651  10.892 -0.9075  0.8718  0.1231
  683TMC3    C810110   1.812   1.252  11.125  0.1213  0.4822  0.4607
  683TMC3    O110111   1.749   1.591  10.800  0.1784  0.2071 -0.2234
  683TMC3    O210112   1.793   1.203  11.017 -0.8964 -0.2731  0.3667
  684MPD2     C10113   0.091   1.563  16.183  0.4250 -0.4919  0.4626
  684MPD2    C110114   0.108   1.578  16.047  0.4048  0.8935  0.1964
  684MPD2    C210115   0.168   1.698  16.001  0.1857  0.2662  0.0313
  684MPD2    C310116   0.205   1.800  16.083  0.3150  0.1826  0.4605
  684MPD2    C410117   0.188   1.782  16.219 -0.2154  0.5681 -0.0607
  684MPD2    C510118   0.138   1.662  16.265  0.1142  0.3074 -0.0470
  684MPD2     H10119   0.191   1.709  15.895  1.1109  1.5031  0.3628
  684MPD2    H110120   0.199   1.866  16.287 -1.1688  1.1159 -0.5895
  684MPD2    H210121   0.053   1.468  16.219  0.0243 -0.1828  0.8506
  684MPD2    H310122   0.120   1.658  16.372 -1.7441  1.5408 -0.3203
  684MPD2     N10123   0.278   1.918  16.035  0.2820  0.3790  0.9065
  684MPD2    H510124   0.334   1.970  16.102 -0.4417 -0.7833  2.4270
  684MPD2    N110125   0.077   1.474  15.951 -0.0775  0.1735 -0.3014
  684MPD2    H710126   0.090   1.497  15.853 -2.4899 -0.3985 -0.7575
  685TMC3    C110127   0.093   1.272  15.865  0.1390  0.0296  0.0827
  685TMC3    C210128   0.010   1.310  15.760  0.4623 -0.6406  0.6840
  685TMC3    C310129   0.072   1.288  15.634  0.3212  0.3294  0.5829
  685TMC3    C410130   0.205   1.202  15.843  0.7864  0.4989  0.9563
  685TMC3    C510131   0.256   1.171  15.720 -0.1338 -0.7438  0.0859
  685TMC3    C610132   0.188   1.221  15.612 -0.4238  0.0108 -0.4323
  685TMC3     C10133   0.069   1.342  15.988  0.2979  0.0099 -0.3165
  685TMC3     O10134   0.097   1.294  16.096 -0.1367 -0.3101 -0.2756
  685TMC3     H10135   4.644   1.368  15.782 -0.9058 -2.1700 -0.8624
  685TMC3    H110136   0.263   1.179  15.932 -1.8757  2.0544  3.0993
  685TMC3    H210137   0.229   1.221  15.512  1.3428  1.8192  0.2743
  685TMC3    C710138   0.398   1.183  15.698 -0.0663  0.5740  0.8333
  685TMC3    C810139   4.709   1.309  15.520 -0.0509 -0.1926 -0.0193
  685TMC3    O110140   0.444   1.154  15.591 -0.2463 -0.7625 -0.0760
  685TMC3    O210141   4.684   1.224  15.433 -0.0165 -0.5784 -0.3414
  686MPD2     C10142   1.527   2.106  15.653  0.0139 -0.0486 -0.5898
  686MPD2    C110143   1.572   1.975  15.681 -0.0654  0.4362  0.2401
  686MPD2    C210144   1.677   1.920  15.602 -0.8681  0.3608  0.6521
  686MPD2    C310145   1.726   1.998  15.498  0.0724 -0.1661  0.8650
  686MPD2    C410146   1.683   2.129  15.478 -0.0077 -0.3719 -0.4541
  686MPD2    C510147   1.585   2.182  15.553 -0.1063 -0.4566 -0.5660
  686MPD2     H10148   1.713   1.819  15.616  2.5792  1.2890 -1.4234
  686MPD2    H110149   1.731   2.191  15.404 -2.6839  1.3574 -0.7632
  686MPD2    H210150   1.440   2.142  15.706  0.9091  0.6476  0.3987
  686MPD2    H310151   1.554   2.284  15.536 -0.3036 -0.4946 -0.4332
  686MPD2     N10152   1.830   1.955  15.409 -0.2998  0.2246 -0.0039
  686MPD2    H510153   1.886   2.031  15.371 -2.1525  1.1356 -0.9409
  686MPD2    N110154   1.517   1.908  15.795 -0.3475 -0.2591  0.1863
  686MPD2    H710155   1.427   1.943  15.827  0.2499 -0.0306  1.6252
  687TMC3    C110156   1.788   1.709  15.391 -0.2706  0.0077  0.5158
  687TMC3    C210157   1.656   1.726  15.358 -0.1864  0.1295  0.1176
  687TMC3    C310158   1.564   1.649  15.419  0.3570  0.5238  0.3567
  687TMC3    C410159   1.832   1.610  15.474 -1.1483 -0.6638 -0.3358
  687TMC3    C510160   1.735   1.534  15.527  0.3315 -0.8894  0.3613
  687TMC3    C610161   1.605   1.554  15.504  0.0141 -0.1440 -0.7165
  687TMC3     C10162   1.881   1.825  15.389  0.3612 -0.6820 -0.5592
  687TMC3     O10163   1.999   1.807  15.386  0.7826  0.5525  0.0025
  687TMC3     H10164   1.633   1.815  15.300 -0.5489  0.0324  0.1125
  687TMC3    H110165   1.932   1.610  15.516 -1.4919 -1.0729  0.4733
  687TMC3    H210166   1.532   1.502  15.563  1.1802 -0.3791  0.5286
  687TMC3    C710167   1.775   1.471  15.651 -0.1374  0.5661 -0.4549
  687TMC3    C810168   1.432   1.698  15.454  0.3663  0.1868 -0.3480
  687TMC3    O110169   1.865   1.517  15.723  0.1837  0.4897 -0.5497
  687TMC3    O210170   1.368   1.638  15.538 -0.3118  0.1305 -0.7140
  688MPD2     C10171   0.979   0.420  17.265  0.0105  0.0370 -0.2294
  688MPD2    C110172   0.985   0.279  17.261  0.3355 -0.1850  0.3530
  688MPD2    C210173   1.060   0.217  17.159 -0.2732  0.0458  1.4047
  688MPD2    C310174   1.122   0.298  17.064 -0.2636  0.5162 -0.1497
  688MPD2    C410175   1.115   0.438  17.069 -0.1684  0.0281  0.5274
  688MPD2    C510176   1.042   0.499  17.169  0.2504 -0.1098  0.1040
  688MPD2     H10177   1.078   0.111  17.165  0.8542  0.0739 -1.7651
  688MPD2    H110178   1.175   0.500  17.004  2.1844 -3.2382 -0.4396
  688MPD2    H210179   0.917   0.479  17.331  0.3874  0.2858 -0.0928
  688MPD2    H310180   1.045   0.607  17.186 -0.8806 -0.0523 -0.0715
  688MPD2     N10181   1.201   0.249  16.962  0.8360  0.2454  0.5360
  688MPD2    H510182   1.244   0.319  16.902  0.7140  0.7201  0.9960
  688MPD2    N110183   0.941   0.204  17.372 -0.1562 -0.2388  0.5254
  688MPD2    H710184   0.941   0.104  17.355  1.7857 -0.3607  1.2908
  689TMC3    C110185   0.923   0.167  17.609 -0.1625  0.1127  0.9737
  689TMC3    C210186   0.929   0.230   0.039  0.7025  0.1750  0.7685
  689TMC3    C310187   0.931   0.149   0.147 -0.2319  0.2250  0.3588
  689TMC3    C410188   0.922   0.030  17.599 -1.0930  0.3825 -0.2214
  689TMC3    C510189   0.897   4.677   0.013 -0.3109 -0.6556  0.3967
  689TMC3    C610190   0.902   0.015   0.138  0.6844 -0.2428 -0.1064
  689TMC3     C10191   0.914   0.255  17.496 -0.2861 -0.2900 -0.1508
  689TMC3     O10192   0.891   0.367  17.532 -0.1071 -0.1653  0.1763
  689TMC3     H10193   0.948   0.336   0.046  0.7406  0.1799  0.5933
  689TMC3    H110194   0.940   4.714  17.500  0.1928  0.4988 -0.0406
  689TMC3    H210195   0.882   4.675   0.225  0.0832  1.4198  0.9506
  689TMC3    C710196   0.831   4.549   0.005  0.4354  0.3494  0.1557
  689TMC3    C810197   0.929   0.207   0.283  0.0542 -0.0118 -0.2902
  689TMC3    O110198   0.812   4.497   0.115 -0.0704 -0.4787  0.0991
  689TMC3    O210199   0.878   0.142   0.377  0.0009  0.0651 -0.3458
  690MPD2     C10200   3.206   1.997  15.996  0.0438  0.4543  0.7910
  690MPD2    C110201   3.183   1.976  15.862 -0.0594 -0.3095  0.3178
  690MPD2    C210202   3.273   2.034  15.781 -0.5732 -0.1492  0.3659
  690MPD2    C310203   3.392   2.078  15.825  0.3442 -0.3692  0.6129
  690MPD2    C410204   3.415   2.091  15.962  0.4591 -0.1988 -0.6493
  690MPD2    C510205   3.319   2.055  16.043 -0.6004 -0.8471 -0.0646
  690MPD2     H10206   3.247   2.028  15.676  0.3644  2.0284  0.0147
  690MPD2    H110207   3.514   2.111  15.999  0.0704  1.9349 -0.7610
  690MPD2    H210208   3.139   1.964  16.075 -0.1839  0.3222  0.5429
  690MPD2    H310209   3.350   2.058  16.147 -1.4418 -0.0103  0.1632
  690MPD2     N10210   3.475   2.142  15.726  0.0201  0.2283  0.2666
  690MPD2    H510211   3.445   2.129  15.630 -0.1365  0.7311  0.2508
  690MPD2    N110212   3.054   1.929  15.813  0.1926 -0.0403  0.4651
  690MPD2    H710213   3.042   1.937  15.712  2.2378  2.5848  0.4293
  691TMC3    C110214   2.834   1.844  15.809 -0.0614  0.4409  0.1393
  691TMC3    C210215   2.722   1.874  15.878  0.4927  0.3347 -0.0329
  691TMC3    C310216   2.601   1.894  15.816 -0.3349 -0.2140 -0.1888
  691TMC3    C410217   2.819   1.836  15.673  0.2408 -0.6796 -0.5688
  691TMC3    C510218   2.699   1.843  15.615  0.0076  0.3692 -0.2502
  691TMC3    C610219   2.584   1.876  15.684 -0.7236 -0.1081 -0.3459
  691TMC3     C10220   2.958   1.856  15.879 -0.1554  1.0814 -0.0883
  691TMC3     O10221   2.970   1.805  15.990  0.7091  0.1372  0.0059
  691TMC3     H10222   2.729   1.864  15.985 -2.0413 -0.3450  0.0781
  691TMC3    H110223   2.903   1.820  15.606  0.7991 -0.7721  0.1431
  691TMC3    H210224   2.488   1.894  15.637 -0.0931 -1.0907 -1.9878
  691TMC3    C710225   2.678   1.720  15.542 -0.2389  0.6907  0.1047
  691TMC3    C810226   2.493   1.948  15.899  0.3907 -0.1265  0.3337
  691TMC3    O110227   2.779   1.675  15.486 -0.4450  0.0487  0.4033
  691TMC3    O210228   2.494   1.917  16.018 -0.6247 -0.4164  0.5774
  692TMC3    C110229   0.105   3.152  15.844 -0.1279 -0.4923 -0.4772
  692TMC3    C210230   0.231   3.161  15.900  0.0102 -0.9805 -0.3940
  692TMC3    C310231   0.340   3.105  15.839  0.0155 -0.4195 -0.0099
  692TMC3    C410232   0.081   3.065  15.741  0.3188  0.5099  0.0500
  692TMC3    C510233   0.193   3.016  15.679 -0.8300 -0.8553 -0.0576
  692TMC3    C610234   0.320   3.031  15.728 -1.0072 -0.4966 -0.2791
  692TMC3     C10235   4.706   3.215  15.910  0.3603  0.6722  0.3729
  692TMC3     O10236   4.604   3.159  15.872 -0.0497  0.3056 -0.8321
  692TMC3     H10237   0.259   3.242  15.967  0.4371 -1.3210 -0.1583
  692TMC3    H110238   4.707   3.032  15.707 -0.2106  1.1071  0.9766
  692TMC3    H210239   0.402   3.006  15.661 -0.1907  1.4213  0.0065
  692TMC3    C710240   0.162   2.917  15.580  0.0377  0.1379 -0.5818
  692TMC3    C810241   0.426   3.027  15.929 -0.1996  0.6108 -0.0841
  692TMC3    O110242   0.058   2.928  15.516  0.4984  0.0864 -0.4694
  692TMC3    O210243   0.471   2.920  15.881  0.0002  0.4599 -0.7044
  693MPD2     C10244   4.351   1.072  11.051  0.2572 -0.7991 -0.7209
  693MPD2    C110245   4.291   1.111  10.928  0.3770 -0.1628  0.1177
  693MPD2    C210246   4.326   1.041  10.817 -0.6460 -0.0955 -0.0505
  693MPD2    C310247   4.418   0.939  10.819  0.2470 -0.4699 -0.4129
  693MPD2    C410248   4.483   0.907  10.933 -0.4245 -0.1606  0.9067
  693MPD2    C510249   4.453   0.980  11.047 -0.5753 -0.6018 -0.3713
  693MPD2     H10250   4.270   1.073  10.730 -1.5052 -1.7726 -0.1220
  693MPD2    H110251   4.561   0.832  10.940 -1.0215 -1.0046 -1.4186
  693MPD2    H210252   4.324   1.126  11.142  2.1040 -2.0235  0.5504
  693MPD2    H310253   4.507   0.957  11.139 -2.1483  2.5711  1.3394
  693MPD2     N10254   4.452   0.861  10.704  0.5542 -0.3865  0.0582
  693MPD2    H510255   4.503   0.775  10.720  0.5759 -0.3503  0.1853
  693MPD2    N110256   4.199   1.219  10.934  0.3477  0.1597  0.0655
  693MPD2    H710257   4.169   1.258  11.023  0.9913  3.7022 -1.2401
  694TMC3    C110258   4.033   1.372  10.857 -0.0419  0.4194 -0.4171
  694TMC3    C210259   3.962   1.409  10.750 -0.8724 -0.0412  0.7553
  694TMC3    C310260   3.827   1.391  10.763 -0.1768  0.7077  0.0548
  694TMC3    C410261   3.975   1.341  10.981  1.2079 -0.0120 -0.1656
  694TMC3    C510262   3.840   1.329  10.988  0.0317 -0.7505 -0.1252
  694TMC3    C610263   3.766   1.360  10.876  0.1602 -0.5857 -1.0180
  694TMC3     C10264   4.148   1.288  10.829 -0.9176 -0.7783 -0.8116
  694TMC3     O10265   4.197   1.290  10.712  0.4112  0.2014  0.0038
  694TMC3     H10266   4.009   1.424  10.654 -1.8477 -1.2583  0.1064
  694TMC3    H110267   4.025   1.328  11.076  1.2167 -2.2949 -0.4713
  694TMC3    H210268   3.660   1.367  10.894  0.2151 -1.2111 -0.4419
  694TMC3    C710269   3.776   1.363  11.110 -0.9299 -0.4711  0.2798
  694TMC3    C810270   3.747   1.402  10.639 -0.1838  0.7892 -0.1561
  694TMC3    O110271   3.689   1.445  11.110 -0.0437  0.2971 -0.7654
  694TMC3    O210272   3.792   1.470  10.545  0.6290  0.1927  0.1280
  695MPD2     C10273   0.291   2.770  13.217 -0.0626 -1.2094  0.3557
  695MPD2    C110274   0.258   2.809  13.342 -0.1495  0.1606 -0.4979
  695MPD2    C210275   0.132   2.848  13.367 -0.0727  0.0318  0.2652
  695MPD2    C310276   0.032   2.840  13.276  0.2159 -0.4583  0.6552
  695MPD2    C410277   0.065   2.806  13.145  0.1383 -0.0224 -0.0115
  695MPD2    C510278   0.202   2.791  13.115 -0.0850  0.2132 -0.5662
  695MPD2     H10279   0.108   2.879  13.468  0.5286  0.4610  0.2779
  695MPD2    H110280   4.714   2.816  13.066 -0.0897  0.2624  0.2400
  695MPD2    H210281   0.393   2.743  13.192  0.3096 -0.2088  0.8019
  695MPD2    H310282   0.227   2.775  13.010 -0.0594  1.5247 -0.7590
  695MPD2     N10283   4.616   2.858  13.322  0.7027 -0.0289 -0.0835
  695MPD2    H510284   4.592   2.845  13.420 -0.8239 -2.5874 -0.7976
  695MPD2    N110285   0.341   2.819  13.457  0.3207  0.0454  0.3528
  695MPD2    H710286   0.301   2.851  13.544 -1.2653  0.6243 -0.5936
  696TMC3    C110287   4.387   2.928  13.296 -0.9794  0.1530  0.0032
  696TMC3    C210288   4.367   2.912  13.433  0.7609 -0.1374  0.1684
  696TMC3    C310289   4.251   2.969  13.483 -0.4766 -1.3372  0.5825
  696TMC3    C410290   4.311   3.009  13.219 -0.3519  0.1123 -0.0204
  696TMC3    C510291   4.210   3.082  13.282  0.5538 -0.2885  0.9552
  696TMC3    C610292   4.175   3.057  13.414  0.5691 -0.2682  0.8769
  696TMC3     C10293   4.517   2.894  13.234  0.3284  0.4375  0.3485
  696TMC3     O10294   4.534   2.941  13.124 -0.1925 -0.1648 -0.1411
  696TMC3     H10295   4.431   2.844  13.487  1.1854  0.9586  1.0444
  696TMC3    H110296   4.338   3.031  13.117 -1.1215 -2.3866 -0.7760
  696TMC3    H210297   4.095   3.118  13.455  1.2576  0.1526  1.5828
  696TMC3    C710298   4.180   3.210  13.218  0.6722  0.3362 -0.6134
  696TMC3    C810299   4.257   2.996  13.622  0.0637 -0.2586 -0.8482
  696TMC3    O110300   4.179   3.213  13.096 -0.4887  0.2314 -0.6956
  696TMC3    O210301   4.372   3.003  13.671 -0.3332 -0.2897 -0.6012
  697MPD2     C10302   3.977   4.644  15.887 -1.3376  0.7845 -0.4101
  697MPD2    C110303   4.051   4.604  15.774  0.1824 -0.8306 -0.0580
  697MPD2    C210304   4.093   4.704  15.694  0.5897  0.1598 -0.4631
  697MPD2    C310305   4.076   0.118  15.721 -1.0303  0.1579 -0.5594
  697MPD2    C410306   4.011   0.159  15.833  0.6648  0.4386 -0.1100
  697MPD2    C510307   3.962   0.058  15.909  0.0105 -0.1445 -0.2765
  697MPD2     H10308   4.164   4.672  15.617 -1.4630 -1.7503 -1.5603
  697MPD2    H110309   3.985   0.261  15.857 -0.4255  0.4253 -1.2140
  697MPD2    H210310   3.923   4.566  15.940  3.3243 -1.3700  1.2373
  697MPD2    H310311   3.913   0.088  16.001 -0.0893  0.5540 -0.5606
  697MPD2     N10312   4.137   0.202  15.630 -0.0100 -0.7807 -0.4163
  697MPD2    H510313   4.186   0.169  15.547 -0.0895 -0.5930 -0.5361
  697MPD2    N110314   4.082   4.469  15.744 -0.5937 -0.3682 -0.2686
  697MPD2    H710315   4.109   4.445  15.649 -0.7901  0.4054 -0.5163
  698TMC3    C110316   4.193   0.389  15.513  0.1744 -0.1782 -0.4329
  698TMC3    C210317   4.229   0.517  15.517 -0.5672  0.2095  0.0535
  698TMC3    C310318   4.304   0.560  15.413  0.7219  0.5198 -0.5101
  698TMC3    C410319   4.202   0.313  15.395  0.5997 -0.5115 -0.5706
  698TMC3    C510320   4.260   0.371  15.289  0.3373  0.2344 -0.2878
  698TMC3    C610321   4.318   0.492  15.292 -0.3936 -0.1746 -0.7957
  698TMC3     C10322   4.131   0.338  15.632  0.4846 -0.4379  0.1318
  698TMC3     O10323   4.059   0.415  15.703  0.2800  0.1110  0.2384
  698TMC3     H10324   4.204   0.574  15.605 -0.2463  0.1826  0.1614
  698TMC3    H110325   4.147   0.222  15.375 -1.3283  0.7689 -0.9996
  698TMC3    H210326   4.380   0.528  15.211 -0.5797 -1.5613 -1.5560
  698TMC3    C710327   4.289   0.294  15.174  0.0368  0.5274  0.3165
  698TMC3    C810328   4.397   0.668  15.445 -0.0790 -0.5768 -0.4622
  698TMC3    O110329   4.307   0.175  15.207 -0.3679  0.0168 -0.2888
  698TMC3    O210330   4.391   0.710  15.559  0.0003 -0.2083 -0.2640
  699TMC3    C110331   4.266   2.822  12.806  0.6392 -0.4797 -0.2014
  699TMC3    C210332   4.315   2.744  12.904 -1.1485 -0.0851 -0.0327
  699TMC3    C310333   4.220   2.665  12.971 -0.5039  0.3808 -0.2540
  699TMC3    C410334   4.132   2.824  12.772 -0.0888 -0.2350 -0.1122
  699TMC3    C510335   4.045   2.743  12.840  0.5330 -0.1530  0.0416
  699TMC3    C610336   4.086   2.664  12.940  0.0430  1.0767 -0.5101
  699TMC3     C10337   4.361   2.893  12.727  0.3387 -0.3062  0.3800
  699TMC3     O10338   4.324   2.993  12.668 -0.4314  0.4287 -0.1000
  699TMC3     H10339   4.411   2.774  12.946  0.0703 -0.5925 -2.4430
  699TMC3    H110340   4.105   2.896  12.696 -0.7407  0.0482  0.3937
  699TMC3    H210341   4.024   2.605  13.007  0.4948  0.2719 -0.7972
  699TMC3    C710342   3.908   2.778  12.854 -0.4370 -0.0801  0.1408
  699TMC3    C810343   4.261   2.592  13.101  0.3248 -0.0727 -0.1884
  699TMC3    O110344   3.877   2.889  12.819  0.6624 -0.0245  0.2571
  699TMC3    O210345   4.178   2.561  13.183 -0.3862 -0.0045 -0.3382
  700TMC3    C110346   3.529   0.506  17.317 -0.3104  0.7028 -0.8593
  700TMC3    C210347   3.553   0.372  17.290  0.2193  0.8726 -0.2421
  700TMC3    C310348   3.632   0.312  17.382 -0.7729 -0.4044 -0.5638
  700TMC3    C410349   3.583   0.572  17.422  0.0086 -0.4719 -0.5302
  700TMC3    C510350   3.672   0.508  17.504 -0.8469  0.1802  0.1476
  700TMC3    C610351   3.685   0.374  17.490 -0.2218 -0.0056  0.6543
  700TMC3     C10352   3.488   0.581  17.197 -0.1512  0.1299 -0.4115
  700TMC3     O10353   3.407   0.536  17.118 -0.3093 -0.0983  0.9209
  700TMC3     H10354   3.509   0.322  17.205 -0.2373 -0.8058  0.9788
  700TMC3    H110355   3.572   0.679  17.420  1.3321 -0.3657 -1.8874
  700TMC3    H210356   3.732   0.313  17.567 -2.6196 -2.0850  0.4582
  700TMC3    C710357   3.780   0.595  17.542 -0.5771 -0.1208  0.2628
  700TMC3    C810358   3.709   0.197  17.350 -0.8347 -0.3124  0.0100
  700TMC3    O110359   3.774   0.712  17.511 -0.0635  0.0858 -0.2529
  700TMC3    O210360   3.825   0.189  17.391 -0.5449 -0.5012 -0.1169
  701TMC3    C110361   3.459   3.912  15.580 -0.7019  1.1293 -0.0484
  701TMC3    C210362   3.528   3.840  15.484 -0.2297 -0.9201  0.2731
  701TMC3    C310363   3.636   3.889  15.416 -0.0803 -0.0913 -0.6012
  701TMC3    C410364   3.501   4.039  15.613  0.3873  0.3195 -0.0990
  701TMC3    C510365   3.627   4.082  15.565  0.7353  0.0723 -0.7129
  701TMC3    C610366   3.686   4.013  15.462  0.6259  0.1949 -0.0499
  701TMC3     C10367   3.359   3.844  15.655 -0.4235 -0.3588  0.0942
  701TMC3     O10368   3.342   3.726  15.627 -0.5138  0.2035  0.3086
  701TMC3     H10369   3.486   3.743  15.461  1.0915 -1.5179  0.3654
  701TMC3    H110370   3.455   4.092  15.696  1.2084  0.5877  0.1802
  701TMC3    H210371   3.770   4.051  15.404  2.3307 -2.3965  0.6853
  701TMC3    C710372   3.666   4.222  15.592 -0.1913  0.4389  0.2347
  701TMC3    C810373   3.639   3.866  15.275 -0.5355  0.5953  0.5289
  701TMC3    O110374   3.737   4.270  15.506  0.2177  0.3369 -0.3625
  701TMC3    O210375   3.738   3.879  15.210 -0.1549  0.0690  0.8815
  702MPD2     C10376   3.310   1.670  10.621 -0.0400  0.2408 -0.1378
  702MPD2    C110377   3.185   1.715  10.637 -0.6429  0.7329  0.1159
  702MPD2    C210378   3.118   1.772  10.529  0.0368 -0.1928  0.0576
  702MPD2    C310379   3.187   1.789  10.410 -0.2907 -0.5508 -0.3641
  702MPD2    C410380   3.310   1.731  10.392  0.4287 -0.0956  0.9237
  702MPD2    C510381   3.365   1.677  10.501 -0.2925  0.0020 -0.2337
  702MPD2     H10382   3.022   1.821  10.545  0.0558 -0.6430  1.5789
  702MPD2    H110383   3.366   1.737  10.299 -0.6619 -1.0714  0.2045
  702MPD2    H210384   3.363   1.629  10.706 -1.3052 -1.8474 -0.3637
  702MPD2    H310385   3.471   1.653  10.496  0.2079  1.7983  1.7790
  702MPD2     N10386   3.141   1.879  10.305 -0.4560 -0.3491 -0.4833
  702MPD2    H510387   3.209   1.897  10.232  0.6128  0.5645  0.7403
  702MPD2    N110388   3.115   1.711  10.761  0.2954 -0.3606 -0.0150
  702MPD2    H710389   3.028   1.763  10.769 -0.4373 -1.5876 -0.0014
  703TMC3    C110390   2.993   2.020  10.182 -0.1955  0.1208 -0.1447
  703TMC3    C210391   2.865   2.052  10.156  0.9934  0.6137  0.0794
  703TMC3    C310392   2.845   2.151  10.058 -0.2008 -0.1389 -0.3997
  703TMC3    C410393   3.100   2.082  10.118 -0.0710  0.1355  0.4677
  703TMC3    C510394   3.075   2.169  10.018 -0.0927 -0.0457  0.6581
  703TMC3    C610395   2.946   2.205   9.986 -0.4718 -0.0441  0.6209
  703TMC3     C10396   3.013   1.934  10.294  0.0621  0.3401 -0.1506
  703TMC3     O10397   2.914   1.914  10.365  0.0680  0.3181  0.3727
  703TMC3     H10398   2.788   2.009  10.218 -0.6933  0.8105 -1.8653
  703TMC3    H110399   3.199   2.078  10.162 -0.6037 -0.0212  1.6375
  703TMC3    H210400   2.920   2.277   9.909 -0.7094  1.1686  1.8212
  703TMC3    C710401   3.184   2.184   9.927 -0.3840 -0.7292 -0.1922
  703TMC3    C810402   2.712   2.169  10.010 -0.4793  0.3561 -0.6130
  703TMC3    O110403   3.277   2.106   9.951 -0.4987  0.4955  0.0724
  703TMC3    O210404   2.705   2.211   9.896  0.0319  0.5480  0.3114
  704TMC3    C110405   0.272   0.071  12.295  0.9401 -0.2113  0.0286
  704TMC3    C210406   0.393   0.127  12.323 -0.5637 -0.0784  0.5367
  704TMC3    C310407   0.463   0.069  12.425 -0.1440 -0.5095 -0.1662
  704TMC3    C410408   0.234   4.679  12.355 -0.0489 -0.2202  0.5092
  704TMC3    C510409   0.318   4.618  12.443  0.2111  0.3881 -0.1979
  704TMC3    C610410   0.442   4.669  12.481 -0.1174  0.2128 -0.0834
  704TMC3     C10411   0.206   0.106  12.178 -0.3655  0.3437 -0.7279
  704TMC3     O10412   0.083   0.104  12.170  0.2533  0.5339  0.2502
  704TMC3     H10413   0.420   0.224  12.286  0.5503 -1.4325 -2.1830
  704TMC3    H110414   0.147   4.628  12.317 -0.4208  2.0212 -1.6567
  704TMC3    H210415   0.512   4.624  12.551 -2.1106 -1.8111  0.6370
  704TMC3    C710416   0.298   4.477  12.452 -0.1324 -0.0817 -0.3444
  704TMC3    C810417   0.599   0.116  12.437 -0.3809 -0.2008 -0.3142
  704TMC3    O110418   0.184   4.425  12.455 -0.0603  0.3465 -0.1556
  704TMC3    O210419   0.646   0.140  12.329 -0.2081 -0.2983  0.3983
  705MPD2     C10420   0.788   2.466  16.598 -0.0582  0.5162 -0.4024
  705MPD2    C110421   0.733   2.494  16.475 -0.6599 -0.2550  0.6137
  705MPD2    C210422   0.596   2.471  16.455 -0.2801  0.4057 -0.1052
  705MPD2    C310423   0.514   2.436  16.558 -0.2103 -0.1108 -0.2785
  705MPD2    C410424   0.572   2.410  16.683  1.1800 -0.1550  0.1151
  705MPD2    C510425   0.705   2.423  16.695 -0.4812  0.8335  0.3216
  705MPD2     H10426   0.548   2.494  16.361 -0.7382 -3.9979 -0.9399
  705MPD2    H110427   0.515   2.389  16.773  0.4320 -1.5247 -0.6874
  705MPD2    H210428   0.894   2.469  16.619 -0.0365 -2.6697  0.0275
  705MPD2    H310429   0.749   2.429  16.794 -0.2115  0.7186  0.2094
  705MPD2     N10430   0.370   2.439  16.561  0.0744 -0.7356 -0.3518
  705MPD2    H510431   0.327   2.424  16.652  1.1285 -0.3703  0.2117
  705MPD2    N110432   0.807   2.556  16.373 -0.6153 -0.5206  0.2140
  705MPD2    H710433   0.767   2.561  16.279 -0.0337 -1.8507 -0.1095
  706TMC3    C110434   0.984   2.753  16.059 -0.4887  0.2256 -0.3244
  706TMC3    C210435   0.940   2.881  16.067  0.6261  0.0211 -0.5847
  706TMC3    C310436   0.892   2.928  16.186  0.7175  0.3583  0.6127
  706TMC3    C410437   0.991   2.669  16.170 -0.1624 -0.0996 -0.1687
  706TMC3    C510438   0.939   2.719  16.288  0.1214  0.1931  0.3110
  706TMC3    C610439   0.889   2.846  16.298 -0.6440  0.8634 -0.5775
  706TMC3     C10440   1.072   2.706  15.946  0.2339  0.6304  0.3354
  706TMC3     O10441   1.155   2.616  15.976  0.7051 -0.2622  0.1913
  706TMC3     H10442   0.939   2.943  15.978 -2.6694 -0.7021 -1.0733
  706TMC3    H110443   1.005   2.564  16.147 -0.7392 -0.0347 -0.8409
  706TMC3    H210444   0.843   2.882  16.389  0.0568 -0.1162  0.1668
  706TMC3    C710445   0.910   2.643  16.402 -0.3435  0.0805  0.3426
  706TMC3    C810446   0.823   3.064  16.194 -0.7244 -0.5374  0.4764
  706TMC3    O110447   0.949   2.689  16.509  0.7739  0.1159  0.3905
  706TMC3    O210448   0.791   3.113  16.085 -0.1399 -0.1939  0.0893
  707TMC3    C110449   3.213   2.400   1.670  0.2582 -0.1095 -0.3165
  707TMC3    C210450   3.350   2.415   1.689  0.0078 -0.6032 -0.1248
  707TMC3    C310451   3.390   2.503   1.794 -0.0965 -0.6853  0.3255
  707TMC3    C410452   3.132   2.470   1.751 -0.8835 -0.1502 -0.6077
  707TMC3    C510453   3.175   2.564   1.841 -0.4417  0.0330 -0.2787
  707TMC3    C610454   3.306   2.589   1.864  0.0373 -0.4656  0.7927
  707TMC3     C10455   3.169   2.301   1.569 -0.9429  1.5441  0.1155
  707TMC3     O10456   3.259   2.229   1.538  0.0196  0.9825 -0.4481
  707TMC3     H10457   3.420   2.381   1.613 -0.0862 -2.2625  0.5462
  707TMC3    H110458   3.027   2.451   1.730 -1.5165 -0.8045  3.2659
  707TMC3    H210459   3.338   2.664   1.936 -2.2356 -0.0888  1.3883
  707TMC3    C710460   3.085   2.662   1.893  0.2067  0.1071  0.4692
  707TMC3    C810461   3.534   2.500   1.830 -0.9832  0.3686  0.3300
  707TMC3    O110462   3.127   2.746   1.973  0.3501 -0.3324  0.3455
  707TMC3    O210463   3.582   2.589   1.898  0.0078 -0.3097  0.4097
  708MPD2     C10464   3.473   1.536  13.629 -0.3949  0.3305  0.0191
  708MPD2    C110465   3.393   1.454  13.702  0.6032  0.2840  0.3249
  708MPD2    C210466   3.439   1.371  13.804 -0.1618  0.8174 -0.0669
  708MPD2    C310467   3.567   1.390  13.844 -0.0376 -0.4730 -0.1581
  708MPD2    C410468   3.643   1.484  13.786  0.1775  0.7821  0.2503
  708MPD2    C510469   3.599   1.560  13.679  0.4279 -0.2389  0.5063
  708MPD2     H10470   3.374   1.307  13.863 -0.6509  0.5612 -0.8739
  708MPD2    H110471   3.742   1.507  13.824  0.7391  0.1573 -0.8399
  708MPD2    H210472   3.442   1.612  13.559 -0.9657 -1.3605 -1.5544
  708MPD2    H310473   3.663   1.638  13.640 -0.5899 -0.4894 -1.6713
  708MPD2     N10474   3.630   1.327  13.957 -0.0433 -0.0800 -0.2666
  708MPD2    H510475   3.725   1.353  13.978 -0.1786  0.0856  0.1504
  708MPD2    N110476   3.252   1.454  13.678  0.5705  0.2582  0.2279
  708MPD2    H710477   3.215   1.495  13.592  0.7784  1.4397  0.6981
  709TMC3    C110478   3.025   1.415  13.734 -0.0215  0.0405 -0.5250
  709TMC3    C210479   3.001   1.333  13.629  0.2574 -0.3019  0.2700
  709TMC3    C310480   2.881   1.260  13.634  0.4328 -0.1958  0.2263
  709TMC3    C410481   2.943   1.417  13.848 -0.2313  0.4798  0.4409
  709TMC3    C510482   2.839   1.328  13.861  0.9876 -0.4367 -0.1113
  709TMC3    C610483   2.800   1.261  13.749  0.0177 -0.1139 -0.8989
  709TMC3     C10484   3.163   1.423  13.776 -0.0840 -0.2902 -0.0297
  709TMC3     O10485   3.184   1.423  13.894 -0.4192  0.6056  0.2621
  709TMC3     H10486   3.069   1.322  13.545  0.8338 -3.3381  1.1449
  709TMC3    H110487   2.970   1.477  13.934  0.2855  0.1679  0.4986
  709TMC3    H210488   2.714   1.195  13.753  0.9272 -1.1738  1.1530
  709TMC3    C710489   2.835   1.259  13.980 -0.1567 -0.4106 -0.7190
  709TMC3    C810490   2.855   1.148  13.544 -0.2805 -0.7009  0.1624
  709TMC3    O110491   2.744   1.179  13.993 -0.4824  0.1861  0.8221
  709TMC3    O210492   2.797   1.055  13.588  0.1141 -0.2806 -0.9558
  710TMC3    C110493   4.589   3.070   0.610 -0.0339 -0.1648 -0.3911
  710TMC3    C210494   4.657   2.951   0.591 -0.1879 -0.3259  0.1983
  710TMC3    C310495   0.050   2.934   0.660  0.0620  0.1477  0.5496
  710TMC3    C410496   4.652   3.178   0.672 -0.3336  0.3705 -0.2192
  710TMC3    C510497   0.042   3.155   0.744 -0.0850 -0.4403 -0.2299
  710TMC3    C610498   0.104   3.036   0.734  0.7280  0.3834 -0.5773
  710TMC3     C10499   4.450   3.079   0.577  0.3998 -0.3636 -0.5227
  710TMC3     O10500   4.409   3.020   0.475 -0.1686 -0.0070  0.3128
  710TMC3     H10501   4.623   2.865   0.534 -0.9960  0.9549 -1.2388
  710TMC3    H110502   4.597   3.272   0.668  2.1907  1.9262  1.3118
  710TMC3    H210503   0.198   3.019   0.785  0.1980  0.9753  0.5971
  710TMC3    C710504   0.124   3.262   0.788 -0.3797 -0.3190  0.0175
  710TMC3    C810505   0.106   2.800   0.678 -0.0167  0.1244  0.0084
  710TMC3    O110506   0.240   3.234   0.816  0.1326  0.3785 -0.4492
  710TMC3    O210507   0.111   2.732   0.578 -0.2747  0.2493  0.0579
  711TMC3    C110508   4.143   3.640  15.303 -0.1665  0.3044  0.0074
  711TMC3    C210509   4.235   3.672  15.403  0.4004 -0.3661 -0.7688
  711TMC3    C310510   4.362   3.701  15.364 -0.0761 -0.9011 -0.4598
  711TMC3    C410511   4.189   3.618  15.171  0.1248 -0.4152 -0.5901
  711TMC3    C510512   4.322   3.628  15.141 -0.1162 -0.2311 -0.3310
  711TMC3    C610513   4.405   3.673  15.235 -0.1347  0.8189 -0.2643
  711TMC3     C10514   4.030   3.566  15.340  0.0665 -0.4297 -0.1929
  711TMC3     O10515   4.012   3.474  15.259  0.7772  0.3373 -0.2605
  711TMC3     H10516   4.208   3.701  15.504  0.3203  0.1175 -0.9322
  711TMC3    H110517   4.115   3.582  15.101 -0.0306 -0.7168 -0.2760
  711TMC3    H210518   4.506   3.703  15.207  0.3093 -0.2806  0.1201
  711TMC3    C710519   4.377   3.496  15.115 -0.8118  0.9124  0.1705
  711TMC3    C810520   4.458   3.676  15.468 -0.0581  0.8460  0.7213
  711TMC3    O110521   4.492   3.483  15.166  0.2794  0.5760  0.5463
  711TMC3    O210522   4.448   3.732  15.576 -0.5566  0.4421  0.7781
  712MPD2     C10523   0.973   4.543  13.261  0.6391 -0.0754  0.1787
  712MPD2    C110524   0.846   4.528  13.303  0.3313  0.3188 -0.1969
  712MPD2    C210525   0.808   4.602  13.412 -0.2081  0.3813  0.0068
  712MPD2    C310526   0.890   4.711  13.456  0.7897 -0.0485 -0.9377
  712MPD2    C410527   1.013   0.007  13.393 -1.2531  0.3268 -0.3914
  712MPD2    C510528   1.056   4.642  13.300 -0.5732 -0.1835  0.1819
  712MPD2     H10529   0.724   4.568  13.471 -0.2255  2.6091  1.2795
  712MPD2    H110530   1.075   0.092  13.419 -0.8860  0.0307 -0.3051
  712MPD2    H210531   1.017   4.465  13.200 -0.6108 -0.8938  0.3217
  712MPD2    H310532   1.159   4.643  13.268 -0.5171  0.1679  0.3734
  712MPD2     N10533   0.855   0.070  13.561  0.0182  0.4236 -0.4427
  712MPD2    H510534   0.928   0.135  13.590 -0.3819  1.1158 -0.9918
  712MPD2    N110535   0.760   4.428  13.250  0.0770  0.2454  0.4244
  712MPD2    H710536   0.786   4.389  13.160  1.7053  1.5354  0.3333
  713TMC3    C110537   0.763   0.174  13.734  0.7913 -0.3983 -0.1534
  713TMC3    C210538   0.889   0.180  13.777 -0.2115 -0.4900 -0.7905
  713TMC3    C310539   0.927   0.286  13.854  0.3725  0.7443 -0.5716
  713TMC3    C410540   0.668   0.273  13.754  0.3958  0.5813 -0.7385
  713TMC3    C510541   0.717   0.375  13.830 -0.2300 -0.6827 -0.0885
  713TMC3    C610542   0.841   0.384  13.884 -0.1518 -0.3482 -0.0703
  713TMC3     C10543   0.736   0.077  13.626  0.0361  0.7106  0.6000
  713TMC3     O10544   0.627   0.030  13.603  0.2117  0.3084 -0.4224
  713TMC3     H10545   0.954   0.093  13.777  0.4322 -0.0032  1.6545
  713TMC3    H110546   0.571   0.253  13.710 -0.3151  0.2521  0.9747
  713TMC3    H210547   0.869   0.479  13.928 -1.8108 -0.2243  0.7364
  713TMC3    C710548   0.620   0.456  13.905  0.0647  0.3907 -0.1954
  713TMC3    C810549   1.064   0.329  13.815  0.1902  0.5248 -0.2954
  713TMC3    O110550   0.654   0.516  14.005  0.2844 -0.1998 -0.4474
  713TMC3    O210551   1.106   0.293  13.706 -0.1523  0.1423 -0.3756
  714MPD2     C10552   2.941   3.469   1.533  0.2598  0.0851 -0.2722
  714MPD2    C110553   3.029   3.489   1.419  0.4095  0.0942 -0.5398
  714MPD2    C210554   2.965   3.486   1.293  0.3309  0.0020 -0.8447
  714MPD2    C310555   2.840   3.434   1.270 -0.2177 -1.0042 -0.3195
  714MPD2    C410556   2.761   3.417   1.382 -0.2168  0.0620  0.0033
  714MPD2    C510557   2.815   3.429   1.509 -0.0662 -0.1173  0.4271
  714MPD2     H10558   3.019   3.513   1.203  1.8479  0.1200  0.1098
  714MPD2    H110559   2.657   3.384   1.381 -0.0053 -0.5022 -2.1330
  714MPD2    H210560   2.971   3.475   1.637 -2.7893  1.2753  0.5175
  714MPD2    H310561   2.753   3.397   1.592 -0.7947  3.2333  1.1567
  714MPD2     N10562   2.792   3.420   1.132 -0.1061 -0.2626  0.2467
  714MPD2    H510563   2.854   3.439   1.055 -0.1626 -0.2837  0.1962
  714MPD2    N110564   3.164   3.531   1.427 -0.1936 -0.0778 -0.2043
  714MPD2    H710565   3.196   3.562   1.519 -0.1305 -0.4985 -0.0827
  715TMC3    C110566   3.388   3.564   1.368 -0.0706 -0.3848  0.3810
  715TMC3    C210567   3.500   3.497   1.327 -0.1952 -0.5102 -0.4658
  715TMC3    C310568   3.619   3.524   1.388  0.3573  0.7805  0.2794
  715TMC3    C410569   3.396   3.659   1.472  0.5039  0.1953  1.1268
  715TMC3    C510570   3.515   3.695   1.516 -0.4498 -0.4789 -0.5859
  715TMC3    C610571   3.623   3.616   1.498 -0.2484 -0.5992  0.1694
  715TMC3     C10572   3.258   3.510   1.330  0.4814  0.7260 -0.1875
  715TMC3     O10573   3.246   3.454   1.220  0.3158  0.2732 -0.5422
  715TMC3     H10574   3.491   3.419   1.253  2.0902 -1.3065  0.0730
  715TMC3    H110575   3.306   3.717   1.491  0.2582  0.1775  0.0198
  715TMC3    H210576   3.712   3.636   1.555  0.6360 -0.5123 -1.2432
  715TMC3    C710577   3.540   3.810   1.600 -0.2180 -0.0909 -0.4187
  715TMC3    C810578   3.736   3.443   1.354 -0.1678 -0.1365  0.4376
  715TMC3    O110579   3.654   3.829   1.625  0.2090 -0.1796  0.2608
  715TMC3    O210580   3.718   3.377   1.258 -0.5861  0.6844  0.5088
  716MPD2     C10581   2.522   1.644   9.636  0.3419 -0.4798  0.6751
  716MPD2    C110582   2.466   1.594   9.519 -0.3694 -0.5676  0.0506
  716MPD2    C210583   2.541   1.497   9.454 -0.4392 -0.5101  0.7002
  716MPD2    C310584   2.655   1.450   9.508  0.0175  0.2247  0.3893
  716MPD2    C410585   2.710   1.501   9.624  0.4669 -0.5300  0.3797
  716MPD2    C510586   2.641   1.597   9.687 -0.3742  0.9563  0.3827
  716MPD2     H10587   2.510   1.478   9.352 -0.3273  0.1421  0.5408
  716MPD2    H110588   2.805   1.467   9.664 -0.0555  0.3068  2.3343
  716MPD2    H210589   2.460   1.714   9.691 -1.5787 -3.2664  2.0588
  716MPD2    H310590   2.673   1.656   9.772 -0.5484  1.8964 -0.2050
  716MPD2     N10591   2.723   1.355   9.432  0.9436  0.0767 -0.1983
  716MPD2    H510592   2.706   1.342   9.333 -1.3983  0.2678  0.1826
  716MPD2    N110593   2.343   1.653   9.472 -0.1245  0.1749  0.5757
  716MPD2    H710594   2.302   1.724   9.532 -0.8263  0.4475 -0.2199
  717TMC3    C110595   2.891   1.211   9.360  0.6409  0.6176 -0.2169
  717TMC3    C210596   2.806   1.158   9.266 -0.0573 -0.2501  0.4410
  717TMC3    C310597   2.828   1.037   9.208  0.3402  0.1027 -0.1066
  717TMC3    C410598   3.004   1.140   9.396  0.6272  0.0181 -0.4037
  717TMC3    C510599   3.022   1.013   9.340  0.0919 -0.2659 -0.1174
  717TMC3    C610600   2.940   0.965   9.241 -0.5056 -0.0429 -0.0440
  717TMC3     C10601   2.831   1.284   9.467 -0.6845  0.7592  0.1464
  717TMC3     O10602   2.883   1.272   9.577  0.0754  0.1476 -0.1528
  717TMC3     H10603   2.727   1.213   9.217 -1.0069 -4.8745 -3.1981
  717TMC3    H110604   3.062   1.172   9.481 -0.3729 -0.0361  0.3082
  717TMC3    H210605   2.970   0.876   9.188  0.5100  0.3542 -0.1571
  717TMC3    C710606   3.109   0.925   9.417 -0.0337  0.5442  0.7209
  717TMC3    C810607   2.752   1.000   9.093  0.1905 -0.6042  0.1399
  717TMC3    O110608   3.195   0.981   9.482  0.1915 -0.0600  0.1324
  717TMC3    O210609   2.729   1.088   9.009  0.0891 -0.6184 -0.2743
  718MPD2     C10610   2.247   4.694  12.493 -0.2988  0.4605  0.0732
  718MPD2    C110611   2.206   0.081  12.417 -0.0710 -0.0663  0.2844
  718MPD2    C210612   2.113   0.166  12.474  0.0828 -0.0629  0.1496
  718MPD2    C310613   2.042   0.128  12.584 -0.8092 -0.3534 -0.1450
  718MPD2    C410614   2.084   0.019  12.662 -0.2764 -0.6790 -0.7474
  718MPD2    C510615   2.183   4.663  12.613  0.1560 -0.6889  0.2455
  718MPD2     H10616   2.085   0.261  12.430 -0.5167 -0.1719  0.2891
  718MPD2    H110617   2.040   4.714  12.757 -1.5299 -1.5678 -1.5770
  718MPD2    H210618   2.309   4.624  12.439  1.3774  0.6188  1.7772
  718MPD2    H310619   2.212   4.576  12.671  1.6108 -1.4418 -1.5838
  718MPD2     N10620   1.938   0.211  12.612 -0.1139  0.0036 -0.6299
  718MPD2    H510621   1.920   0.284  12.544  0.6546  1.9128  1.2289
  718MPD2    N110622   2.252   0.110  12.288  0.1641  0.4262 -0.0542
  718MPD2    H710623   2.215   0.197  12.251  1.7896  1.8420  1.6803
  719TMC3    C110624   2.389   0.182  12.145  0.4800 -0.7824 -0.3967
  719TMC3    C210625   2.279   0.226  12.074  0.1466 -0.1208  0.2445
  719TMC3    C310626   2.276   0.359  12.043  0.0073 -0.7765 -0.0694
  719TMC3    C410627   2.495   0.261  12.164  0.9497  0.0007 -0.3713
  719TMC3    C510628   2.495   0.389  12.114 -0.9107  0.1004  0.5152
  719TMC3    C610629   2.387   0.437  12.053 -0.3571  0.3611 -0.1124
  719TMC3     C10630   2.371   0.071  12.238  0.5920 -0.4466  0.5974
  719TMC3     O10631   2.464   0.004  12.281 -0.1833 -0.2668 -0.1503
  719TMC3     H10632   2.194   0.160  12.060 -1.1060  1.3530  0.9856
  719TMC3    H110633   2.585   0.227  12.213  1.1824 -0.0886 -0.8513
  719TMC3    H210634   2.388   0.542  12.025  0.1193  0.2968 -0.3382
  719TMC3    C710635   2.614   0.468  12.129  0.0918  0.1121 -1.0102
  719TMC3    C810636   2.174   0.421  12.115 -0.0687  0.0990 -0.1077
  719TMC3    O110637   2.675   0.511  12.030 -0.0969 -0.5843 -0.2569
  719TMC3    O210638   2.109   0.341  12.177 -0.7835  0.1974 -0.1486
  720MPD2     C10639   0.703   1.910  13.847 -0.1505  0.0920 -0.3914
  720MPD2    C110640   0.803   1.889  13.755 -0.4775 -0.7195  0.6994
  720MPD2    C210641   0.921   1.838  13.811 -0.1406  0.4172 -0.6961
  720MPD2    C310642   0.934   1.808  13.943 -0.0457  0.2230 -0.0384
  720MPD2    C410643   0.824   1.816  14.030  0.4362 -0.6995  0.2118
  720MPD2    C510644   0.706   1.872  13.980 -0.1102  0.2814  0.0328
  720MPD2     H10645   1.005   1.831  13.744  0.5594  2.5615 -0.0471
  720MPD2    H110646   0.832   1.778  14.131  1.4434  2.0598  1.1630
  720MPD2    H210647   0.612   1.958  13.812  0.2177  0.2412 -1.1440
  720MPD2    H310648   0.623   1.896  14.045 -0.8526  0.4240 -0.9778
  720MPD2     N10649   1.065   1.787  13.990  0.4855  0.2323  0.5717
  720MPD2    H510650   1.145   1.792  13.927  1.5355  3.6166  2.1758
  720MPD2    N110651   0.789   1.942  13.620 -0.0498 -0.2389 -0.0561
  720MPD2    H710652   0.719   2.012  13.599  1.9621  2.1060  0.9813
  721TMC3    C110653   1.248   1.788  14.143  0.2362  0.1795 -0.1188
  721TMC3    C210654   1.296   1.795  14.277  0.0677 -0.0970 -0.2893
  721TMC3    C310655   1.427   1.826  14.298 -0.5558  0.7919 -0.1449
  721TMC3    C410656   1.332   1.810  14.034  0.2834 -0.4558  0.2160
  721TMC3    C510657   1.460   1.851  14.065  0.5237  0.2306  0.0521
  721TMC3    C610658   1.506   1.861  14.195 -0.6267 -0.0166 -0.3531
  721TMC3     C10659   1.104   1.772  14.125 -0.2238  0.5684  0.1210
  721TMC3     O10660   1.039   1.750  14.225 -0.3777  0.6195 -0.3523
  721TMC3     H10661   1.225   1.774  14.356 -0.4913 -0.3036 -0.8461
  721TMC3    H110662   1.298   1.795  13.932 -1.1706  0.5322  0.5610
  721TMC3    H210663   1.610   1.892  14.201 -0.7074  0.5877 -1.9886
  721TMC3    C710664   1.547   1.902  13.958  0.2477 -0.2724 -0.1535
  721TMC3    C810665   1.477   1.854  14.424  0.4206  0.5786  0.2356
  721TMC3    O110666   1.671   1.912  13.978  0.4716 -0.5088  0.3166
  721TMC3    O210667   1.598   1.814  14.431  0.0609 -0.6553  0.0924
  722MPD2     C10668   4.303   0.313  13.295 -0.2618  0.2885 -0.5182
  722MPD2    C110669   4.263   0.448  13.291 -0.1967  0.1403  0.9186
  722MPD2    C210670   4.145   0.478  13.235  0.6457  0.6468 -0.5194
  722MPD2    C310671   4.063   0.387  13.169  0.9645  0.3582 -0.6176
  722MPD2    C410672   4.102   0.254  13.185  0.9110 -0.3308 -0.3754
  722MPD2    C510673   4.222   0.218  13.244 -0.5238 -0.1964  0.0013
  722MPD2     H10674   4.123   0.584  13.229 -1.5207  0.2669  0.4963
  722MPD2    H110675   4.053   0.170  13.139 -0.5807  0.3714 -0.0448
  722MPD2    H210676   4.394   0.279  13.344 -1.0790  0.7117  1.2968
  722MPD2    H310677   4.249   0.113  13.240  0.8515  0.2047 -1.0244
  722MPD2     N10678   3.941   0.433  13.112 -0.4787  0.2481  0.4065
  722MPD2    H510679   3.942   0.532  13.093  0.8905  0.0516 -0.5920
  722MPD2    N110680   4.338   0.555  13.343 -0.5939  0.2384 -0.1485
  722MPD2    H710681   4.298   0.648  13.335 -0.0214  0.4079 -1.0082
  723TMC3    C110682   3.728   0.402  13.019  0.2930  0.3186 -0.7609
  723TMC3    C210683   3.653   0.328  12.932  0.8889 -0.1447  0.0930
  723TMC3    C310684   3.583   0.389  12.833 -0.1932 -0.8724 -0.7877
  723TMC3    C410685   3.727   0.543  13.011  0.1319 -0.6796  0.4657
  723TMC3    C510686   3.652   0.609  12.912  0.0956  0.5816  0.3511
  723TMC3    C610687   3.578   0.533  12.826 -0.9087 -0.6105  0.1853
  723TMC3     C10688   3.838   0.343  13.081  0.1864 -0.3010  0.6728
  723TMC3     O10689   3.836   0.225  13.114 -0.4453 -0.1105  0.0028
  723TMC3     H10690   3.651   0.220  12.946 -0.6492 -0.0836  0.2894
  723TMC3    H110691   3.778   0.598  13.090 -2.0872 -0.3669  1.6916
  723TMC3    H210692   3.512   0.576  12.752 -1.4922 -0.4797  0.7864
  723TMC3    C710693   3.617   0.749  12.923 -0.2773  0.4110 -0.4320
  723TMC3    C810694   3.512   0.314  12.731  0.0350  0.0883 -0.0607
  723TMC3    O110695   3.666   0.807  13.022  0.0904 -0.1298  0.2216
  723TMC3    O210696   3.424   0.371  12.669 -0.1440 -0.2739  0.3977
  724TMC3    C110697   3.687   4.020   9.286 -0.4054  0.3776  0.1955
  724TMC3    C210698   3.654   4.037   9.155  0.4952  0.2873 -0.6625
  724TMC3    C310699   3.659   4.164   9.112 -0.0452 -0.3688  0.3415
  724TMC3    C410700   3.753   4.117   9.351 -0.2246 -0.6014 -0.3596
  724TMC3    C510701   3.774   4.236   9.293 -0.0334 -0.1685  0.2336
  724TMC3    C610702   3.716   4.270   9.176 -0.5498  0.9147  0.4882
  724TMC3     C10703   3.699   3.893   9.349  0.2315 -0.1878  0.0158
  724TMC3     O10704   3.789   3.864   9.432 -0.5332  0.5763 -0.0780
  724TMC3     H10705   3.593   3.965   9.102  1.6478  0.0392 -1.6683
  724TMC3    H110706   3.785   4.094   9.452  1.3294 -0.4886 -0.8268
  724TMC3    H210707   3.713   4.369   9.134 -1.1445  1.0809  0.9253
  724TMC3    C710708   3.881   4.317   9.358 -0.0232 -0.4016  0.5100
  724TMC3    C810709   3.609   4.192   8.980 -0.3173  0.3720  0.6274
  724TMC3    O110710   3.912   4.283   9.471  0.0487  0.1431  0.0906
  724TMC3    O210711   3.521   4.120   8.935  0.2984  0.3019 -0.2255
  725TMC3    C110712   1.447   2.564  12.611  0.6150  0.4792 -0.1844
  725TMC3    C210713   1.360   2.569  12.507  0.2101  1.0115 -0.2173
  725TMC3    C310714   1.368   2.455  12.426 -0.4726 -0.2459 -0.1319
  725TMC3    C410715   1.534   2.462  12.638 -0.4535 -0.1726  0.5108
  725TMC3    C510716   1.529   2.351  12.558 -0.2586  0.1181 -0.1312
  725TMC3    C610717   1.440   2.342  12.454 -0.0680 -0.4345 -0.2815
  725TMC3     C10718   1.483   2.691  12.683  0.0398 -0.3952 -0.7971
  725TMC3     O10719   1.484   2.799  12.628  0.1528 -0.3951 -0.5127
  725TMC3     H10720   1.305   2.658  12.478 -1.0586  0.1420 -0.4598
  725TMC3    H110721   1.622   2.475  12.699  1.0096 -2.6289 -1.0702
  725TMC3    H210722   1.449   2.265  12.379 -1.6114 -0.5403 -0.3489
  725TMC3    C710723   1.639   2.259  12.551 -0.3486 -0.1813  0.1756
  725TMC3    C810724   1.268   2.432  12.328 -0.4270 -0.4527  0.4939
  725TMC3    O110725   1.664   2.215  12.436 -0.3806 -0.3542  0.5815
  725TMC3    O210726   1.229   2.316  12.310 -0.1969 -0.5789 -0.0838
  726MPD2     C10727   3.693   3.578  10.447  0.5225 -0.4078  0.0634
  726MPD2    C110728   3.620   3.699  10.433  0.0574 -0.3040  0.0997
  726MPD2    C210729   3.510   3.717  10.515 -0.2051  0.5480 -0.1086
  726MPD2    C310730   3.470   3.621  10.609 -0.5068 -0.0255 -0.5432
  726MPD2    C410731   3.544   3.507  10.624 -0.9329 -0.2886  0.0614
  726MPD2    C510732   3.660   3.495  10.551  0.0825 -0.6866 -0.4737
  726MPD2     H10733   3.449   3.802  10.488  0.6558  0.4296 -2.5090
  726MPD2    H110734   3.507   3.426  10.685 -0.7496  0.5260  1.2467
  726MPD2    H210735   3.774   3.548  10.382  0.6673 -2.1559  1.0344
  726MPD2    H310736   3.727   3.411  10.567 -2.1122 -1.9900  1.7523
  726MPD2     N10737   3.351   3.644  10.680  0.0205  0.1751  0.0735
  726MPD2    H510738   3.318   3.577  10.748  0.2126 -0.6810 -0.6868
  726MPD2    N110739   3.641   3.794  10.333 -0.4745  0.1886  0.1388
  726MPD2    H710740   3.576   3.872  10.334 -1.0544 -0.3080  0.9706
  727TMC3    C110741   3.771   3.925  10.184 -0.4921  0.6121 -0.1026
  727TMC3    C210742   3.899   3.970  10.163  0.4191 -0.1696 -0.4913
  727TMC3    C310743   3.909   4.091  10.103 -0.0259  0.0216 -0.0936
  727TMC3    C410744   3.658   3.988  10.139  0.4417  0.4788  0.2123
  727TMC3    C510745   3.684   4.097  10.060 -0.5937 -0.4318  0.2058
  727TMC3    C610746   3.803   4.157  10.044 -0.2268  0.4211  0.9311
  727TMC3     C10747   3.764   3.806  10.266 -0.1137 -0.1694 -0.9063
  727TMC3     O10748   3.866   3.736  10.277 -0.1521 -0.0419  0.1511
  727TMC3     H10749   3.987   3.916  10.197 -0.0989 -0.9831 -0.4250
  727TMC3    H110750   3.559   3.946  10.153  1.1006 -1.1136  0.1051
  727TMC3    H210751   3.828   4.227   9.965 -0.5710 -0.0571  0.3990
  727TMC3    C710752   3.557   4.171  10.035  0.0504  0.2912 -0.7658
  727TMC3    C810753   4.045   4.155  10.103 -0.5077 -1.2402 -0.2345
  727TMC3    O110754   3.448   4.120  10.034 -0.1820 -0.0787  0.4547
  727TMC3    O210755   4.136   4.074  10.131  0.3316 -0.3332  0.3378
  728TMC3    C110756   3.652   2.267  15.640  0.1786 -0.1550  0.6321
  728TMC3    C210757   3.767   2.204  15.608 -0.0952  0.1014 -0.8644
  728TMC3    C310758   3.818   2.225  15.481  0.3109  0.4078  0.3520
  728TMC3    C410759   3.567   2.320  15.547 -0.4499 -0.1568 -0.3126
  728TMC3    C510760   3.613   2.318  15.420  0.1588 -0.3967 -0.5960
  728TMC3    C610761   3.731   2.259  15.381  0.5973  1.1937  0.0601
  728TMC3     C10762   3.596   2.202  15.753  0.1890 -0.1366 -0.7876
  728TMC3     O10763   3.673   2.183  15.847 -0.4586  0.6768 -0.3321
  728TMC3     H10764   3.836   2.159  15.678  0.0003  0.7556 -0.5303
  728TMC3    H110765   3.469   2.361  15.569 -0.5680 -0.6888  0.1537
  728TMC3    H210766   3.758   2.256  15.277 -0.8607 -0.5546 -0.2750
  728TMC3    C710767   3.545   2.409  15.325  0.2806  0.4428 -0.7881
  728TMC3    C810768   3.947   2.159  15.449 -0.2495 -0.3929 -0.3313
  728TMC3    O110769   3.468   2.491  15.379 -0.0721  0.1923  0.0354
  728TMC3    O210770   3.991   2.070  15.519  0.1732  0.4809 -0.0056
  729MPD2     C10771   0.877   3.620  16.686 -0.1698  0.0294  0.4870
  729MPD2    C110772   0.962   3.511  16.696 -0.2301  0.3034 -0.2897
  729MPD2    C210773   1.002   3.462  16.816  0.2572  0.0687  0.3472
  729MPD2    C310774   0.949   3.517  16.934 -0.2397 -0.0653 -0.1185
  729MPD2    C410775   0.860   3.623  16.924  0.9349 -0.4769  0.4516
  729MPD2    C510776   0.820   3.673  16.804 -0.0538  0.2628 -0.1107
  729MPD2     H10777   1.067   3.375  16.822 -2.2604 -1.7203  1.9719
  729MPD2    H110778   0.826   3.679  17.010 -0.0276 -0.2168 -0.1019
  729MPD2    H210779   0.848   3.660  16.590 -0.0550 -1.8758 -0.3313
  729MPD2    H310780   0.739   3.745  16.802  0.3512  0.7637  2.4765
  729MPD2     N10781   1.000   3.482  17.061 -0.0277  0.7310 -0.5305
  729MPD2    H510782   0.953   3.529  17.137  0.2545 -1.3628  0.9453
  729MPD2    N110783   1.023   3.473  16.572  0.3915  0.0940  0.6096
  729MPD2    H710784   1.002   3.527  16.488  2.8476  1.4322  0.8432
  730TMC3    C110785   1.163   3.426  17.219  0.6581 -0.6542 -0.0228
  730TMC3    C210786   1.288   3.381  17.226  0.6195 -0.9013 -0.2225
  730TMC3    C310787   1.387   3.473  17.244 -0.0291 -0.3561  0.0258
  730TMC3    C410788   1.135   3.548  17.267  0.0110  0.2900  0.1786
  730TMC3    C510789   1.233   3.635  17.291 -0.2313 -0.2760  0.3477
  730TMC3    C610790   1.360   3.602  17.287 -0.2461 -0.3312  0.6459
  730TMC3     C10791   1.108   3.398  17.085  0.3634  0.0324 -0.3793
  730TMC3     O10792   1.171   3.323  17.014  0.6404  0.3494  0.0065
  730TMC3     H10793   1.325   3.292  17.176 -2.1547 -1.8673 -0.5401
  730TMC3    H110794   1.032   3.583  17.271 -0.5192 -0.7866 -3.6926
  730TMC3    H210795   1.438   3.677  17.295 -0.4473  0.5688 -5.2422
  730TMC3    C710796   1.211   3.760  17.229  0.2742 -0.4637 -0.3599
  730TMC3    C810797   1.491   3.466  17.148  0.2502  0.0914  0.8586
  730TMC3    O110798   1.268   3.781  17.125 -0.1573  0.0748  0.3168
  730TMC3    O210799   1.593   3.522  17.184 -0.3267  0.2464 -0.2858
  731MPD2     C10800   0.815   1.285  12.019  0.7490 -0.4691  0.0590
  731MPD2    C110801   0.946   1.247  12.024  0.1180 -0.2459  0.0021
  731MPD2    C210802   1.005   1.205  12.140  0.4969 -0.7959 -0.1668
  731MPD2    C310803   0.938   1.209  12.260 -0.8521  0.1248  0.2574
  731MPD2    C410804   0.810   1.270  12.260  0.8767  0.5221  0.0455
  731MPD2    C510805   0.753   1.295  12.139 -0.6672 -1.2200 -0.1335
  731MPD2     H10806   1.106   1.169  12.154  1.0228  1.5369  2.0771
  731MPD2    H110807   0.754   1.287  12.350  2.0367 -0.2629  0.9230
  731MPD2    H210808   0.760   1.319  11.932  2.6713  3.5857  0.4297
  731MPD2    H310809   0.647   1.319  12.141 -0.5319 -0.8858  3.1375
  731MPD2     N10810   1.000   1.156  12.373 -0.3564  0.0386 -0.1711
  731MPD2    H510811   1.098   1.130  12.362 -1.5312 -3.6089 -1.8953
  731MPD2    N110812   1.011   1.233  11.900  0.1618  0.3893  0.3146
  731MPD2    H710813   0.953   1.258  11.821  0.5848  0.7817  0.1258
  732TMC3    C110814   1.171   1.219  11.736 -0.5582 -0.4230 -0.4582
  732TMC3    C210815   1.075   1.202  11.637 -0.4946 -0.1093 -0.5022
  732TMC3    C310816   1.112   1.228  11.510  0.4244  0.2729  0.3846
  732TMC3    C410817   1.292   1.263  11.710 -0.1557  0.6074 -0.3801
  732TMC3    C510818   1.325   1.296  11.583 -0.5245 -0.2670  0.3681
  732TMC3    C610819   1.236   1.278  11.473  0.3568  0.0374  0.1820
  732TMC3     C10820   1.140   1.213  11.878 -0.2016 -0.6221 -0.0393
  732TMC3     O10821   1.236   1.203  11.958  0.2079  0.0395  0.8764
  732TMC3     H10822   0.982   1.150  11.659 -0.1164 -0.4606  0.2505
  732TMC3    H110823   1.359   1.270  11.795 -0.7546  1.1560  0.0485
  732TMC3    H210824   1.252   1.289  11.367 -1.9898  3.1513  0.1808
  732TMC3    C710825   1.458   1.298  11.546  0.5721  0.1349  0.1907
  732TMC3    C810826   1.013   1.276  11.421  0.5622 -0.2239  0.0900
  732TMC3    O110827   1.492   1.243  11.437  0.1218 -0.4489 -0.4044
  732TMC3    O210828   1.044   1.344  11.322 -0.6105  0.0402 -0.0037
  733TMC3    C110829   1.631   0.479  12.827  0.7358  0.0083 -0.1730
  733TMC3    C210830   1.700   0.361  12.824 -0.8548  0.4537 -0.0060
  733TMC3    C310831   1.809   0.351  12.739  1.3505 -0.4346  0.1059
  733TMC3    C410832   1.681   0.588  12.761 -0.1006  0.9294  0.6136
  733TMC3    C510833   1.780   0.569  12.675  0.8279 -0.0471 -0.4537
  733TMC3    C610834   1.850   0.454  12.663 -0.3696 -0.1434  0.5475
  733TMC3     C10835   1.532   0.499  12.925  1.1841 -0.4300  0.2443
  733TMC3     O10836   1.460   0.405  12.957  0.0341 -0.2201 -0.0168
  733TMC3     H10837   1.663   0.272  12.874 -1.8459  0.1542 -1.2917
  733TMC3    H110838   1.628   0.683  12.761 -1.2523  0.2723 -0.0689
  733TMC3    H210839   1.945   0.450  12.612  0.7318  0.4073  2.5792
  733TMC3    C710840   1.809   0.668  12.574  0.1897 -0.5932  0.5105
  733TMC3    C810841   1.875   0.223  12.732  0.8305 -0.4159 -0.5770
  733TMC3    O110842   1.770   0.783  12.581 -0.0114  0.1699  0.0640
  733TMC3    O210843   1.855   0.138  12.820  0.5656 -0.8045 -0.0994
  734MPD2     C10844   3.939   2.848  11.564 -0.3601  0.1682 -0.1415
  734MPD2    C110845   3.884   2.733  11.510  0.5388 -0.4922  0.1136
  734MPD2    C210846   3.912   2.715  11.377  0.0497 -0.4766 -0.1787
  734MPD2    C310847   4.013   2.789  11.311  0.7452 -0.1220 -0.1326
  734MPD2    C410848   4.071   2.900  11.372 -0.3878  0.1724 -0.1809
  734MPD2    C510849   4.035   2.925  11.500  0.6508 -0.4317  0.6758
  734MPD2     H10850   3.887   2.619  11.334 -0.3010 -0.2369 -0.5032
  734MPD2    H110851   4.160   2.952  11.340  0.8665 -0.9843  1.4740
  734MPD2    H210852   3.909   2.870  11.666  0.7156  1.0627 -0.0191
  734MPD2    H310853   4.079   3.004  11.559 -1.2492 -0.7038  2.4534
  734MPD2     N10854   4.052   2.742  11.188  0.0902 -0.1881  0.4692
  734MPD2    H510855   4.004   2.656  11.162  0.3805 -0.5131  1.0049
  734MPD2    N110856   3.799   2.651  11.594  0.3365  0.8042  0.1907
  734MPD2    H710857   3.781   2.679  11.690  1.7256  1.1214  0.3714
  735TMC3    C110858   3.715   2.438  11.650 -0.6456 -0.4989 -0.1203
  735TMC3    C210859   3.684   2.319  11.599  0.1303  0.1436 -0.1517
  735TMC3    C310860   3.713   2.200  11.658 -0.0777  0.3747  0.0515
  735TMC3    C410861   3.783   2.448  11.766 -0.0415  0.1681  0.3372
  735TMC3    C510862   3.823   2.332  11.829  0.1311  0.1887  0.0652
  735TMC3    C610863   3.784   2.202  11.772 -0.0505  0.8529 -0.4831
  735TMC3     C10864   3.741   2.535  11.549 -0.0154 -0.1613 -0.1336
  735TMC3     O10865   3.729   2.498  11.436  0.1416  0.4479  0.0089
  735TMC3     H10866   3.617   2.309  11.515  1.5750 -0.2770 -1.2599
  735TMC3    H110867   3.814   2.545  11.803  0.0763  0.0970  0.4235
  735TMC3    H210868   3.833   2.110  11.801 -2.0486 -0.1873 -0.4091
  735TMC3    C710869   3.972   2.337  11.845 -0.0651 -0.2384  0.0564
  735TMC3    C810870   3.770   2.107  11.558 -0.1338  0.7901  0.3254
  735TMC3    O110871   4.027   2.432  11.794 -0.0334  0.0836 -0.5881
  735TMC3    O210872   3.767   1.986  11.580  0.1792  0.4809  0.9586
  736MPD2     C10873   4.163   2.040  11.981  0.2981 -0.3714 -0.4116
  736MPD2    C110874   4.144   2.156  11.907  0.6068 -0.5622  0.2342
  736MPD2    C210875   4.247   2.194  11.820  0.0322 -0.1268 -0.1038
  736MPD2    C310876   4.358   2.111  11.796  0.1790  0.6393 -0.7884
  736MPD2    C410877   4.374   2.008  11.875 -0.2326  0.8515 -0.2019
  736MPD2    C510878   4.286   1.970  11.973  0.6847 -0.5603  0.5985
  736MPD2     H10879   4.233   2.283  11.759  0.1180 -0.3212 -0.4053
  736MPD2    H110880   4.456   1.938  11.861 -0.5440  0.2608  0.8893
  736MPD2    H210881   4.088   1.999  12.048  1.4513 -1.5896  0.1350
  736MPD2    H310882   4.296   1.877  12.028  1.0372 -0.0977  1.3164
  736MPD2     N10883   4.444   2.129  11.688 -0.1534 -0.2539  0.2209
  736MPD2    H510884   4.495   2.049  11.654  0.5263  0.2393  0.0764
  736MPD2    N110885   4.017   2.222  11.912  0.2058 -0.0255 -0.0570
  736MPD2    H710886   3.945   2.175  11.967  1.4080  0.1081  1.6302
  737TMC3    C110887   4.462   2.209  11.473 -0.3055 -0.0176 -0.0452
  737TMC3    C210888   4.533   2.299  11.403 -0.4691  0.3178 -0.9041
  737TMC3    C310889   4.566   2.268  11.274  0.8002  0.3182 -0.6589
  737TMC3    C410890   4.457   2.081  11.432  0.0265 -0.2396 -0.6178
  737TMC3    C510891   4.499   2.049  11.301 -0.1280 -0.5916  0.7558
  737TMC3    C610892   4.552   2.146  11.223  0.3149 -0.1986  0.5783
  737TMC3     C10893   4.447   2.242  11.610  0.9000  0.5619 -0.9655
  737TMC3     O10894   4.422   2.361  11.639 -0.0374  0.1955  0.1117
  737TMC3     H10895   4.565   2.395  11.443  0.2065 -1.1576  2.1424
  737TMC3    H110896   4.395   2.008  11.483  0.2464 -0.4556 -0.6550
  737TMC3    H210897   4.575   2.130  11.118  0.9385 -0.4121  0.7453
  737TMC3    C710898   4.474   1.915  11.252 -0.1958 -0.4981 -0.0059
  737TMC3    C810899   4.615   2.369  11.186  0.0974 -0.6504 -0.3016
  737TMC3    O110900   4.388   1.850  11.305 -0.7960 -0.9643 -0.3455
  737TMC3    O210901   4.675   2.330  11.088 -0.0623 -0.1743  0.2624
  738MPD2     C10902   4.635   0.846  15.506  0.1702 -0.3775 -0.0021
  738MPD2    C110903   4.619   0.768  15.387 -0.5780  0.0725 -0.5744
  738MPD2    C210904   0.006   0.765  15.299  0.0584  0.3730 -0.2863
  738MPD2    C310905   0.122   0.838  15.317 -0.0048 -0.4462 -0.1134
  738MPD2    C410906   0.130   0.914  15.434  0.1753 -0.7595 -0.4211
  738MPD2    C510907   0.023   0.925  15.516 -0.9570  0.2272 -0.4722
  738MPD2     H10908   4.720   0.709  15.206 -0.1975  0.3350 -0.2397
  738MPD2    H110909   0.214   0.983  15.441  1.2242 -1.9797 -1.0608
  738MPD2    H210910   4.564   0.878  15.582  1.1268  1.2073  0.2295
  738MPD2    H310911   0.025   0.990  15.602  2.2001 -0.1822 -0.2247
  738MPD2     N10912   0.232   0.847  15.228 -0.4998 -0.4680  0.2648
  738MPD2    H510913   0.300   0.919  15.248  0.0760 -0.5551 -1.3586
  738MPD2    N110914   4.499   0.691  15.361 -0.5412 -0.1829 -0.2840
  738MPD2    H710915   4.514   0.628  15.282  3.4499 -0.5234  0.7485
  739TMC3    C110916   0.342   0.840  15.011  0.2648  0.1235 -0.8561
  739TMC3    C210917   0.312   0.836  14.875 -0.4061  0.7240  0.0506
  739TMC3    C310918   0.390   0.908  14.788  0.1866  0.5714  1.1236
  739TMC3    C410919   0.440   0.918  15.062  0.0395 -0.1326  0.2248
  739TMC3    C510920   0.514   0.990  14.971 -0.5271 -0.0321  0.3317
  739TMC3    C610921   0.497   0.987  14.832  1.0130  0.2058  0.3948
  739TMC3     C10922   0.230   0.799  15.099  0.1202  0.0046 -0.4398
  739TMC3     O10923   0.142   0.739  15.041  0.5186  0.2235 -0.4533
  739TMC3     H10924   0.234   0.771  14.838  0.5045  1.8380 -3.7924
  739TMC3    H110925   0.472   0.908  15.165  0.3045 -1.0881  0.0511
  739TMC3    H210926   0.543   1.066  14.774 -2.7453  1.5007 -0.8349
  739TMC3    C710927   0.620   1.082  15.018 -0.5419  0.2320  0.3680
  739TMC3    C810928   0.345   0.912  14.650 -0.1237 -0.4720  1.0728
  739TMC3    O110929   0.706   1.101  14.934  0.3097  0.1552 -0.1717
  739TMC3    O210930   0.265   0.825  14.620  0.1251  0.5702 -0.6902
  740TMC3    C110931   0.804   2.202  14.104  0.2019  0.3715 -0.0935
  740TMC3    C210932   0.850   2.140  14.218 -0.1026 -0.5851  0.0586
  740TMC3    C310933   0.980   2.086  14.227 -0.0184 -0.2978  1.4030
  740TMC3    C410934   0.887   2.202  13.994 -0.1842  0.3238 -0.2896
  740TMC3    C510935   1.015   2.160  14.013  0.4232  0.1856 -0.3645
  740TMC3    C610936   1.060   2.107  14.123 -0.3476  0.3098  0.3614
  740TMC3     C10937   0.661   2.237  14.089  0.1346 -0.6962 -0.3675
  740TMC3     O10938   0.617   2.261  13.977 -0.2530  0.3792 -0.6197
  740TMC3     H10939   0.793   2.149  14.309 -0.4618  2.0705 -0.4344
  740TMC3    H110940   0.848   2.246  13.903 -1.1952 -0.2330 -0.1196
  740TMC3    H210941   1.163   2.078  14.134 -0.6427 -0.7562  0.3515
  740TMC3    C710942   1.092   2.122  13.891 -0.0845 -0.3196 -0.3043
  740TMC3    C810943   1.027   2.036  14.353 -0.4716  0.1281  0.5542
  740TMC3    O110944   1.187   2.050  13.897  0.1296  0.4221 -0.0344
  740TMC3    O210945   1.147   2.022  14.379 -0.5561 -0.2903 -0.5351
  741TMC3    C110946   0.345   1.328  13.499 -0.3655  0.0274 -0.0769
  741TMC3    C210947   0.284   1.379  13.611 -0.8127 -0.0319 -0.2913
  741TMC3    C310948   0.227   1.504  13.595 -0.5359  0.7102 -0.0406
  741TMC3    C410949   0.322   1.372  13.377  0.3244  0.2569 -0.9741
  741TMC3    C510950   0.253   1.491  13.366 -0.8770  0.3789  0.4031
  741TMC3    C610951   0.210   1.565  13.475  0.1150  0.0211  0.7242
  741TMC3     C10952   0.369   1.185  13.525  0.2894 -0.4723 -0.2127
  741TMC3     O10953   0.451   1.150  13.609  0.5646 -0.0021  1.1164
  741TMC3     H10954   0.298   1.323  13.702 -2.0400 -2.2490 -1.4573
  741TMC3    H110955   0.352   1.303  13.300  1.1663  1.6521 -1.9103
  741TMC3    H210956   0.156   1.659  13.471 -1.6439 -1.1015 -1.9764
  741TMC3    C710957   0.215   1.544  13.238  0.2333 -0.0558 -0.1042
  741TMC3    C810958   0.144   1.545  13.708 -0.5625 -0.3777  0.2056
  741TMC3    O110959   0.147   1.643  13.241  0.0106 -0.5403 -0.2528
  741TMC3    O210960   0.040   1.601  13.682  0.2674 -0.1241 -0.5333
  742TMC3    C110961   4.595   4.349  15.403  0.7047 -0.3122 -0.0765
  742TMC3    C210962   4.521   4.392  15.294  0.3014 -0.2985 -0.2932
  742TMC3    C310963   4.582   4.371  15.164 -0.1487 -0.0152 -0.2457
  742TMC3    C410964   0.001   4.300  15.393 -0.1049  0.3884 -0.4628
  742TMC3    C510965   0.047   4.285  15.265  0.4625  0.1071 -0.3229
  742TMC3    C610966   4.712   4.328  15.156 -0.0052  0.5453  0.1198
  742TMC3     C10967   4.546   4.392  15.529  0.5728  0.1171  0.2975
  742TMC3     O10968   4.465   4.482  15.538 -0.7448  0.1860  0.0425
  742TMC3     H10969   4.413   4.396  15.309  0.0738  0.6313 -2.1704
  742TMC3    H110970   0.060   4.271  15.479 -1.4852 -0.6290  0.1505
  742TMC3    H210971   0.046   4.316  15.065  0.8210 -0.8905  0.8273
  742TMC3    C710972   0.179   4.228  15.242 -0.1862 -0.1384  0.7162
  742TMC3    C810973   4.532   4.420  15.040  0.2462  0.7343  0.1303
  742TMC3    O110974   0.246   4.261  15.145  0.0893  0.2140 -0.0378
  742TMC3    O210975   4.584   4.363  14.945  0.3286  0.0701 -0.3383
  743MPD2     C10976   4.458   1.768   1.981 -0.2840 -0.3290 -0.0301
  743MPD2    C110977   4.410   1.694   1.877  0.0736 -0.1520 -0.3769
  743MPD2    C210978   4.497   1.663   1.776  0.0567 -0.2981  0.0207
  743MPD2    C310979   4.624   1.709   1.768  0.0315  0.6369 -0.2300
  743MPD2    C410980   4.666   1.788   1.869  0.2176  0.2838  0.5724
  743MPD2    C510981   4.589   1.815   1.979  0.1840  0.1387  0.4448
  743MPD2     H10982   4.457   1.608   1.692 -1.6194 -0.9343  1.2246
  743MPD2    H110983   0.041   1.835   1.861  0.2970 -0.2448 -1.5220
  743MPD2    H210984   4.394   1.803   2.061 -2.4107 -1.0869 -1.3939
  743MPD2    H310985   4.622   1.866   2.069 -0.0915  2.4656 -0.7789
  743MPD2     N10986   4.706   1.674   1.658 -0.6607  0.2249  0.1453
  743MPD2    H510987   4.663   1.616   1.587 -1.8432  1.0508  0.1909
  743MPD2    N110988   4.280   1.682   1.854 -0.3245  0.6089 -0.1559
  743MPD2    H710989   4.223   1.742   1.912 -3.1324 -2.0781 -0.1220
  744TMC3    C110990   4.074   1.620   1.765 -0.2555  0.2398  0.2366
  744TMC3    C210991   4.017   1.741   1.793 -0.2499  1.0393  0.2943
  744TMC3    C310992   3.889   1.760   1.746 -0.3227  1.0953 -0.4560
  744TMC3    C410993   4.004   1.525   1.690 -0.2340  0.6019 -0.1037
  744TMC3    C510994   3.876   1.547   1.647 -0.2716  0.1318 -0.5021
  744TMC3    C610995   3.821   1.666   1.673  0.2848  0.0363  0.5677
  744TMC3     C10996   4.216   1.606   1.758  0.2221  0.0312 -0.4514
  744TMC3     O10997   4.262   1.512   1.694  0.5436 -0.1341  0.1664
  744TMC3     H10998   4.061   1.811   1.862 -1.6297 -0.4666  2.7002
  744TMC3    H110999   4.051   1.433   1.659 -0.1126 -0.4934  3.3441
  744TMC3    H211000   3.728   1.688   1.621  0.0048 -1.9070  0.2660
  744TMC3    C711001   3.857   1.498   1.515 -0.2705 -0.5205 -0.3230
  744TMC3    C811002   3.819   1.887   1.762  0.5599 -0.6466 -0.0667
  744TMC3    O111003   3.957   1.465   1.449 -0.0461  0.6539 -0.0889
  744TMC3    O211004   3.697   1.886   1.749  0.2427  0.9611  0.4910
  745TMC3    C111005   0.557   4.303  13.212 -0.2957 -0.7309  0.6423
  745TMC3    C211006   0.469   4.224  13.280  0.2231  0.6785  0.3739
  745TMC3    C311007   0.337   4.217  13.234  0.1330  0.3776  0.3128
  745TMC3    C411008   0.517   4.375  13.105 -0.6580  0.5541 -0.5208
  745TMC3    C511009   0.388   4.368  13.065  0.6694 -0.2303 -0.1600
  745TMC3    C611010   0.296   4.286  13.128 -0.6513 -0.2555 -1.0531
  745TMC3     C11011   0.642   4.378  13.302 -0.6832  0.0292  0.8250
  745TMC3     O11012   0.588   4.400  13.412 -0.1470 -0.1759 -0.0492
  745TMC3     H11013   0.497   4.177  13.374  1.1611 -1.3955 -0.9354
  745TMC3    H111014   0.588   4.423  13.038 -0.6628 -2.5552 -2.7747
  745TMC3    H211015   0.191   4.290  13.099 -2.0882  0.9913  4.4043
  745TMC3    C711016   0.338   4.460  12.954  0.4079 -0.2136  0.1355
  745TMC3    C811017   0.240   4.237  13.338  0.4028 -0.2745 -0.0671
  745TMC3    O111018   0.235   4.426  12.897  0.1458  0.7798  0.2426
  745TMC3    O211019   0.128   4.190  13.325  0.5200 -0.6304  0.4097
  746TMC3    C111020   2.832   1.787  10.998  0.5726  0.4427  1.1662
  746TMC3    C211021   2.971   1.780  10.979  0.6543 -0.2712  0.8753
  746TMC3    C311022   3.027   1.654  10.964  0.5454 -0.2739 -0.3043
  746TMC3    C411023   2.758   1.673  11.007  0.2253  0.0416  0.2679
  746TMC3    C511024   2.813   1.553  10.997  0.3929  0.1441  0.7720
  746TMC3    C611025   2.947   1.542  10.970 -0.8313  0.1446  0.0091
  746TMC3     C11026   2.770   1.916  10.973 -0.4383 -0.3968  0.2767
  746TMC3     O11027   2.646   1.919  10.966 -0.6875  0.3853  0.2239
  746TMC3     H11028   3.044   1.860  10.981  1.5919 -1.0508 -1.3404
  746TMC3    H111029   2.652   1.676  11.031 -0.2998  1.8511 -2.2773
  746TMC3    H211030   2.990   1.449  10.936 -0.0963  1.2010 -1.9444
  746TMC3    C711031   2.737   1.451  10.938 -0.4183  0.2066  0.2655
  746TMC3    C811032   3.145   1.645  10.879  0.4902 -0.0181 -0.4221
  746TMC3    O111033   2.663   1.493  10.849  0.3977 -0.1753 -0.1707
  746TMC3    O211034   3.234   1.570  10.908  0.3364 -0.4721  0.2738
  747TMC3    C111035   0.342   1.499  10.529 -0.2695  0.2290 -0.6179
  747TMC3    C211036   0.220   1.453  10.578 -0.0910 -0.6376  0.1569
  747TMC3    C311037   0.210   1.454  10.710 -0.4984  0.0020 -0.4829
  747TMC3    C411038   0.443   1.531  10.617  0.7411 -0.3512  0.1813
  747TMC3    C511039   0.432   1.507  10.748  0.1784 -0.6822 -0.3361
  747TMC3    C611040   0.317   1.475  10.803 -0.4522  0.3432  0.4496
  747TMC3     C11041   0.351   1.569  10.402  0.2459 -0.2130 -0.1039
  747TMC3     O11042   0.446   1.647  10.384 -0.7824 -0.3255 -0.1490
  747TMC3     H11043   0.129   1.455  10.519  1.1520  1.5403 -1.6726
  747TMC3    H111044   0.534   1.576  10.580  0.5783  0.6720  1.0307
  747TMC3    H211045   0.298   1.464  10.909 -1.3098 -0.3979  0.2192
  747TMC3    C711046   0.535   1.537  10.846  0.2872  0.5167 -0.1641
  747TMC3    C811047   0.072   1.472  10.761 -0.7184  0.9078  0.2445
  747TMC3    O111048   0.495   1.559  10.959  0.5160  0.1640  0.9364
  747TMC3    O211049   4.709   1.398  10.712 -0.3037 -0.3960  0.0416
  748MPD2     C11050   2.385   2.547   1.748 -0.4281 -0.1401 -0.5915
  748MPD2    C111051   2.373   2.671   1.691 -0.1428  0.3330  0.2214
  748MPD2    C211052   2.468   2.712   1.599  0.5191  0.5957  0.2984
  748MPD2    C311053   2.582   2.632   1.575 -0.1435  0.6247  0.0367
  748MPD2    C411054   2.592   2.508   1.631  0.3506 -0.1486 -0.1035
  748MPD2    C511055   2.495   2.468   1.716  0.1882  0.5255 -0.2179
  748MPD2     H11056   2.464   2.814   1.564 -0.3496  0.3699 -0.2833
  748MPD2    H111057   2.678   2.443   1.624 -0.1845 -0.8129 -0.5551
  748MPD2    H211058   2.316   2.504   1.818 -0.0464  0.4019  0.1180
  748MPD2    H311059   2.508   2.380   1.778 -0.6642  1.0624  0.7136
  748MPD2     N11060   2.686   2.690   1.510 -0.2359  0.1785 -0.0819
  748MPD2    H511061   2.672   2.774   1.456 -0.2734 -1.3528 -2.4421
  748MPD2    N111062   2.270   2.752   1.740 -0.2234  0.0199  0.5952
  748MPD2    H711063   2.218   2.719   1.820  1.5974  2.9775  3.0009
  749TMC3    C111064   2.908   2.725   1.446 -0.2870 -0.2735  0.0413
  749TMC3    C211065   3.039   2.716   1.499 -0.3671  0.6602 -0.1402
  749TMC3    C311066   3.141   2.730   1.412 -0.3033 -0.1279 -0.8201
  749TMC3    C411067   2.895   2.768   1.317 -0.2069 -0.0280  1.4026
  749TMC3    C511068   3.000   2.805   1.247 -0.1299 -1.4965  0.0819
  749TMC3    C611069   3.127   2.778   1.291  0.4361 -0.3708 -0.8211
  749TMC3     C11070   2.814   2.637   1.508 -0.7892  0.0126 -0.3546
  749TMC3     O11071   2.872   2.538   1.556  0.2001  0.6441 -0.4845
  749TMC3     H11072   3.055   2.679   1.600 -1.4948  1.8976  0.4834
  749TMC3    H111073   2.796   2.784   1.275  1.3221  1.1359 -1.6939
  749TMC3    H211074   3.210   2.815   1.232  1.2432  0.8965  1.0938
  749TMC3    C711075   2.989   2.834   1.110 -0.1476 -0.2478 -0.1075
  749TMC3    C811076   3.265   2.756   1.483  0.1005 -0.8364 -0.3847
  749TMC3    O111077   3.080   2.900   1.059 -0.2346  0.0624  0.0917
  749TMC3    O211078   3.251   2.803   1.594 -0.0764  0.3588  0.1572
  750MPD2     C11079   1.657   3.375  11.456  1.0767  0.1196  0.7551
  750MPD2    C111080   1.781   3.382  11.396 -0.1770  0.1837  0.7478
  750MPD2    C211081   1.805   3.314  11.276 -0.4691  0.6822 -0.2982
  750MPD2    C311082   1.707   3.239  11.222 -0.0170  0.0432  0.2064
  750MPD2    C411083   1.580   3.240  11.281  0.2239  0.3477  0.8572
  750MPD2    C511084   1.554   3.303  11.400 -0.6647 -0.1601  0.5140
  750MPD2     H11085   1.899   3.319  11.222 -1.0629  0.3763 -1.3586
  750MPD2    H111086   1.496   3.194  11.231  0.6681  0.6229 -0.1313
  750MPD2    H211087   1.641   3.413  11.556 -2.4250  2.4986 -0.7075
  750MPD2    H311088   1.456   3.299  11.446 -1.8055 -1.2379 -1.9735
  750MPD2     N11089   1.723   3.159  11.103  0.6765 -0.0961 -0.6329
  750MPD2    H511090   1.640   3.115  11.064  2.0113 -1.3316 -2.0987
  750MPD2    N111091   1.883   3.440  11.465  0.7182  0.3767  0.3200
  750MPD2    H711092   1.862   3.463  11.561 -1.7885 -0.7684  0.0365
  751TMC3    C111093   1.823   3.047  10.929 -0.3363 -0.7503 -0.2559
  751TMC3    C211094   1.701   2.983  10.893 -0.3605  0.8495  0.3209
  751TMC3    C311095   1.703   2.908  10.775  0.3673 -0.4017  0.4583
  751TMC3    C411096   1.939   3.028  10.861  0.3964 -0.3753 -0.1783
  751TMC3    C511097   1.938   2.944  10.749  0.7291 -0.2307  0.0249
  751TMC3    C611098   1.820   2.894  10.702  0.2700 -0.7676 -0.1546
  751TMC3     C11099   1.838   3.145  11.035  0.7136  0.1117 -0.3564
  751TMC3     O11100   1.949   3.196  11.054  0.0831 -0.3497  0.5668
  751TMC3     H11101   1.616   2.980  10.959 -1.1700  0.3171 -0.7456
  751TMC3    H111102   2.035   3.069  10.891  0.6951 -1.0282 -0.2414
  751TMC3    H211103   1.819   2.823  10.620 -0.7788  1.8163 -2.3900
  751TMC3    C711104   2.054   2.856  10.739  0.6127  0.0188  0.0262
  751TMC3    C811105   1.660   2.772  10.783 -0.2672  0.9042 -0.8762
  751TMC3    O111106   2.165   2.911  10.755 -0.4405 -0.1500  0.9348
  751TMC3    O211107   1.624   2.708  10.684 -0.1642  0.3010 -0.2731
  752TMC3    C111108   1.882   2.709  16.719  0.2087 -0.1143 -0.0145
  752TMC3    C211109   1.949   2.594  16.696  0.6954 -1.4001 -0.1412
  752TMC3    C311110   1.919   2.490  16.779 -0.9281  0.0453  0.1009
  752TMC3    C411111   1.797   2.733  16.824 -0.7122  0.1128 -0.4864
  752TMC3    C511112   1.770   2.626  16.908 -0.5246 -0.2571  0.4974
  752TMC3    C611113   1.834   2.503  16.889  0.1740  0.4078 -0.0566
  752TMC3     C11114   1.912   2.820  16.632  0.0867 -0.1316 -0.0613
  752TMC3     O11115   2.020   2.814  16.572  0.1566  0.5704  0.1164
  752TMC3     H11116   2.029   2.588  16.623 -0.7716 -0.5608 -1.8174
  752TMC3    H111117   1.742   2.825  16.845  0.5626  0.6456  0.4698
  752TMC3    H211118   1.800   2.425  16.957 -1.9176  0.5547 -0.9546
  752TMC3    C711119   1.690   2.639  17.029 -0.5212  0.3953 -0.8099
  752TMC3    C811120   1.986   2.366  16.752  0.3938 -0.2171 -0.4341
  752TMC3    O111121   1.664   2.533  17.078  0.1740 -0.3969 -0.3827
  752TMC3    O211122   2.095   2.373  16.700 -0.2728 -0.3288  0.2672
  753TMC3    C111123   3.657   0.106  13.371  0.2689 -0.3887 -0.1702
  753TMC3    C211124   3.702   0.072  13.500  0.2820 -0.0086  0.4145
  753TMC3    C311125   3.733   4.655  13.513  0.2229 -0.3529  0.6065
  753TMC3    C411126   3.646   0.019  13.268  0.9142  0.0608 -0.5012
  753TMC3    C511127   3.667   4.611  13.292  0.4910 -0.0190  0.5045
  753TMC3    C611128   3.709   4.566  13.413 -0.1423  0.2727 -0.7705
  753TMC3     C11129   3.622   0.241  13.347  0.3989 -0.4853 -0.1042
  753TMC3     O11130   3.549   0.257  13.252  0.3354  0.2002  0.5208
  753TMC3     H11131   3.718   0.148  13.575 -0.1381 -0.7649  1.2647
  753TMC3    H111132   3.612   0.045  13.168 -0.6033  1.3507  0.3663
  753TMC3    H211133   3.752   4.468  13.426  2.2161  1.0325 -2.6566
  753TMC3    C711134   3.637   4.518  13.187  0.3663 -0.4644  0.6887
  753TMC3    C811135   3.789   4.602  13.644  0.2307 -0.3742 -0.0286
  753TMC3    O111136   3.639   4.565  13.074  0.1588 -0.1948 -0.2065
  753TMC3    O211137   3.765   4.485  13.670  0.0051  0.4236 -1.0922
  754MPD2     C11138   2.744   3.364  12.722  0.4566 -0.8770  0.1587
  754MPD2    C111139   2.686   3.244  12.692 -0.5152  0.3278  0.1032
  754MPD2    C211140   2.551   3.249  12.679  0.0241  0.1068  0.2391
  754MPD2    C311141   2.483   3.366  12.707  0.1814  0.0146  0.2858
  754MPD2    C411142   2.546   3.486  12.728  0.5174 -0.6174  0.2084
  754MPD2    C511143   2.674   3.481  12.739 -0.1831 -0.0479 -0.1946
  754MPD2     H11144   2.495   3.158  12.667  0.5383  0.0737 -1.8853
  754MPD2    H111145   2.494   3.581  12.734 -0.5356 -1.2321  0.7048
  754MPD2    H211146   2.850   3.364  12.749 -0.1570 -0.2019  2.5841
  754MPD2    H311147   2.736   3.569  12.752  0.9743 -0.7732 -0.8018
  754MPD2     N11148   2.342   3.364  12.719  0.6393  0.1443  0.1637
  754MPD2    H511149   2.299   3.454  12.741  3.6506  1.7394 -0.5516
  754MPD2    N111150   2.770   3.130  12.684  0.0969 -0.5537 -0.2202
  754MPD2    H711151   2.869   3.149  12.679 -0.4226  1.5088 -3.1910
  755MPD2     C11152   1.876   3.968  13.091 -0.6522  0.1524  0.7936
  755MPD2    C111153   1.866   3.860  13.170  0.7844  0.4701 -0.3408
  755MPD2    C211154   1.901   3.737  13.120 -0.1794  0.5619 -0.6612
  755MPD2    C311155   1.938   3.716  12.990 -0.1666  0.8168  0.4492
  755MPD2    C411156   1.929   3.829  12.914 -0.2349 -0.4257 -0.0624
  755MPD2    C511157   1.916   3.952  12.965  0.5157  0.4276 -0.2534
  755MPD2     H11158   1.919   3.668  13.201 -1.7796 -1.9337 -2.4439
  755MPD2    H111159   1.963   3.823  12.811 -0.3283  6.0566 -0.4840
  755MPD2    H211160   1.854   4.064  13.135 -2.6653  0.1136 -0.1236
  755MPD2    H311161   1.925   4.031  12.892 -0.2971  0.2329 -0.5681
  755MPD2     N11162   1.967   3.593  12.933  0.0064 -0.0546  0.0011
  755MPD2    H511163   1.989   3.578  12.835  0.5321 -0.1139  0.1269
  755MPD2    N111164   1.846   3.866  13.309  0.9888 -0.0447 -0.0723
  755MPD2    H711165   1.861   3.781  13.363  1.8940 -0.5975 -1.2148
  756MPD2     C11166   1.708   4.610   9.698  0.3686  0.3423  0.2432
  756MPD2    C111167   1.701   4.536   9.815  0.7426 -0.3573  0.2142
  756MPD2    C211168   1.587   4.537   9.891  0.4081 -0.3484  0.3714
  756MPD2    C311169   1.477   4.605   9.845  0.2251  0.1179 -0.0786
  756MPD2    C411170   1.483   4.670   9.728  0.8206 -0.3972  0.0365
  756MPD2    C511171   1.594   4.668   9.652  0.3235  0.8607  0.6293
  756MPD2     H11172   1.585   4.483   9.985 -2.0252  2.4362  1.9401
  756MPD2    H111173   1.399   0.006   9.690  0.5736 -0.6632  0.1698
  756MPD2    H211174   1.795   4.609   9.634  0.3064 -0.1501  0.1669
  756MPD2    H311175   1.578   4.714   9.555  0.0953  0.6912  0.5844
  756MPD2     N11176   1.354   4.597   9.917 -0.6280  0.5149 -0.5726
  756MPD2    H511177   1.353   4.559  10.011  2.1180 -0.6577 -0.9990
  756MPD2    N111178   1.807   4.453   9.869 -0.0193 -0.1355  0.0959
  756MPD2    H711179   1.788   4.400   9.953  1.2000  1.4099  1.3577
  757MPD2     C11180   1.154   4.016  10.466 -0.4254  0.0657 -0.6652
  757MPD2    C111181   1.156   3.996  10.334 -0.1773 -0.1484 -0.0572
  757MPD2    C211182   1.151   4.101  10.245 -0.7894 -1.0458 -0.2835
  757MPD2    C311183   1.091   4.216  10.290  0.4218 -0.1028 -0.3072
  757MPD2    C411184   1.056   4.222  10.423  0.3206 -0.0621 -0.4639
  757MPD2    C511185   1.101   4.128  10.515  0.0098 -0.7663  0.9442
  757MPD2     H11186   1.159   4.083  10.138 -1.3505  1.2802 -0.7113
  757MPD2    H111187   1.024   4.310  10.478 -0.5314 -0.6785  0.0358
  757MPD2    H211188   1.176   3.930  10.529 -4.3968 -0.9407 -0.5846
  757MPD2    H311189   1.078   4.135  10.621 -0.8194  0.6389  0.6672
  757MPD2     N11190   1.073   4.319  10.205 -0.1038  0.4498  0.2398
  757MPD2    H511191   1.123   4.319  10.117 -0.4806  0.8546  0.0254
  757MPD2    N111192   1.190   3.867  10.293 -0.6782  0.2116 -0.2994
  757MPD2    H711193   1.213   3.806  10.370 -1.1775 -1.2967 -1.3410
  758MPD2     C11194   2.212   2.711  16.034  0.2901  0.6215 -0.1267
  758MPD2    C111195   2.308   2.637  16.095 -0.2718  0.9833 -0.5135
  758MPD2    C211196   2.353   2.682  16.217 -0.1055  0.0157 -0.0086
  758MPD2    C311197   2.302   2.795  16.277  0.0433  0.2911  0.3762
  758MPD2    C411198   2.207   2.871  16.215 -0.2957 -0.3397 -0.1613
  758MPD2    C511199   2.164   2.828  16.087 -0.1558 -0.6359  0.1967
  758MPD2     H11200   2.442   2.632  16.253 -0.1689 -0.7487 -0.9121
  758MPD2    H111201   2.177   2.969  16.251  0.0380 -0.3606  0.1757
  758MPD2    H211202   2.174   2.673  15.941 -1.2753  1.1728  0.2934
  758MPD2    H311203   2.102   2.890  16.023  1.2322 -1.4190 -1.9074
  758MPD2     N11204   2.368   2.842  16.394  0.2183  0.5973  0.4939
  758MPD2    H511205   2.339   2.932  16.432  1.6964  0.3063  2.3134
  758MPD2    N111206   2.374   2.532  16.019  0.1609  0.1936  0.0366
  758MPD2    H711207   2.344   2.521  15.922 -1.0367  0.3594  0.3845
  759MPD2     C11208   1.028   1.158   9.630  0.0162  0.3209  0.4409
  759MPD2    C111209   0.913   1.185   9.556 -0.5752 -0.2006  0.9317
  759MPD2    C211210   0.919   1.179   9.421 -0.2355 -0.4280 -0.1487
  759MPD2    C311211   1.035   1.151   9.354  0.0261 -0.2617  0.2897
  759MPD2    C411212   1.147   1.131   9.430  0.3980  0.0041  0.9061
  759MPD2    C511213   1.145   1.142   9.562  0.5188  0.2489 -0.4356
  759MPD2     H11214   0.831   1.197   9.361 -0.6001 -0.4545  0.3747
  759MPD2    H111215   1.243   1.108   9.385 -0.1568  0.1771 -0.3570
  759MPD2    H211216   1.043   1.170   9.736  2.2227  0.8295  0.0539
  759MPD2    H311217   1.237   1.125   9.617 -0.0401 -1.2868  0.0096
  759MPD2     N11218   1.038   1.154   9.213  0.0147 -0.4032 -0.4085
  759MPD2    H511219   0.947   1.182   9.179  0.4470 -1.1386 -2.1775
  759MPD2    N111220   0.789   1.218   9.612 -0.0489  0.4258 -0.3193
  759MPD2    H711221   0.703   1.247   9.565  0.7381  4.1844  0.5745
  760MPD2     C11222   0.859   3.877  11.697 -0.2547  0.1312 -0.4889
  760MPD2    C111223   0.956   3.793  11.646  0.1729 -0.1519  0.2333
  760MPD2    C211224   0.962   3.660  11.687  0.6131  0.5432  0.2068
  760MPD2    C311225   0.879   3.614  11.783  0.1381 -0.1116  0.4606
  760MPD2    C411226   0.793   3.698  11.848 -0.1179 -0.0641  0.0560
  760MPD2    C511227   0.787   3.830  11.800 -0.4408 -0.2174 -0.3432
  760MPD2     H11228   1.038   3.599  11.639 -0.1010  1.0447 -1.5451
  760MPD2    H111229   0.727   3.664  11.927 -0.1429 -0.7963 -0.2786
  760MPD2    H211230   0.859   3.984  11.679 -0.7477  0.3872  0.9925
  760MPD2    H311231   0.723   3.899  11.854  0.9447  2.0192 -1.5808
  760MPD2     N11232   0.855   3.475  11.807 -0.1899  0.1701  0.8274
  760MPD2    H511233   0.786   3.451  11.877 -0.7193 -0.9871 -0.1029
  760MPD2    N111234   1.054   3.828  11.542 -0.1720  0.7471 -0.6261
  760MPD2    H711235   1.132   3.767  11.521 -0.3427  0.3247 -0.0290
  761MPD2     C11236   1.764   2.335  11.026 -0.7375  0.0806  0.6330
  761MPD2    C111237   1.762   2.364  10.889 -0.6707 -0.7727  0.1469
  761MPD2    C211238   1.720   2.493  10.852 -0.1480  0.4133  0.0730
  761MPD2    C311239   1.691   2.592  10.941  0.1243  0.0458 -0.0129
  761MPD2    C411240   1.692   2.556  11.071  0.0767 -0.0759  0.0965
  761MPD2    C511241   1.721   2.432  11.116  0.5789 -0.7783 -0.4040
  761MPD2     H11242   1.726   2.515  10.746  0.0671 -1.8213 -0.3651
  761MPD2    H111243   1.671   2.628  11.149 -0.0137 -0.3563  0.3300
  761MPD2    H211244   1.801   2.240  11.064  0.8601  1.7710  3.3402
  761MPD2    H311245   1.719   2.408  11.221  1.0382 -2.2110 -0.7153
  761MPD2     N11246   1.659   2.732  10.913  0.0288 -0.0981 -0.0312
  761MPD2    H511247   1.662   2.804  10.985 -1.1050  1.8635 -1.9540
  761MPD2    N111248   1.814   2.264  10.797  0.9609  0.6725 -0.0570
  761MPD2    H711249   1.868   2.193  10.845 -1.7739 -1.5674 -0.3229
  762MPD2     C11250   2.206   2.199  10.057 -0.2441  0.0490 -0.2270
  762MPD2    C111251   2.255   2.155  10.181 -0.5458 -0.0724 -0.0845
  762MPD2    C211252   2.395   2.142  10.195 -0.0836  0.0448 -0.4065
  762MPD2    C311253   2.480   2.164  10.089 -0.3341  0.3894 -0.6967
  762MPD2    C411254   2.423   2.202   9.969 -0.6670 -0.4605 -0.2158
  762MPD2    C511255   2.288   2.213   9.955  0.1616 -0.2851  0.1104
  762MPD2     H11256   2.444   2.113  10.287  0.7638  1.1628 -0.4972
  762MPD2    H111257   2.482   2.203   9.878 -2.8938 -2.6699 -1.7145
  762MPD2    H211258   2.100   2.204  10.036 -0.0477  1.9837 -0.7908
  762MPD2    H311259   2.245   2.230   9.857 -2.2159 -1.8029  0.8845
  762MPD2     N11260   2.612   2.150  10.105 -0.7328  0.5629  0.1205
  762MPD2    H511261   2.650   2.128  10.197  0.9540  0.5853 -0.5887
  762MPD2    N111262   2.175   2.118  10.295 -0.6361  1.0265  0.2523
  762MPD2    H711263   2.222   2.086  10.379  0.1029 -1.4740 -1.0919
  763MPD2     C11264   0.157   2.573  15.906  0.2418 -0.6053 -0.6015
  763MPD2    C111265   0.052   2.661  15.894  0.3875 -0.1918  0.0508
  763MPD2    C211266   0.036   2.766  15.981 -0.1258 -0.4895  1.4883
  763MPD2    C311267   0.122   2.767  16.093 -0.2738 -0.5403  0.0954
  763MPD2    C411268   0.232   2.684  16.098 -0.3358 -0.3142 -0.7809
  763MPD2    C511269   0.257   2.584  16.005 -0.2636 -0.0062  0.2321
  763MPD2     H11270   4.678   2.837  15.973 -1.4675 -2.1892  0.0221
  763MPD2    H111271   0.287   2.687  16.191 -0.4944 -0.0668 -0.6938
  763MPD2    H211272   0.178   2.496  15.833  1.3012  0.1210 -1.0633
  763MPD2    H311273   0.333   2.510  16.030 -2.4273 -1.6106  2.1637
  763MPD2     N11274   0.107   2.857  16.206 -0.2078 -0.2935 -0.5369
  763MPD2    H511275   0.184   2.843  16.270  1.3338  1.6069 -1.9677
  763MPD2    N111276   4.686   2.645  15.790  0.1646  0.1924 -0.3290
  763MPD2    H711277   4.618   2.719  15.780 -1.0795 -1.2126 -2.3651
  764MPD2     C11278   1.790   4.163  17.315  0.3394  0.1736  0.2533
  764MPD2    C111279   1.898   4.141  17.226 -0.4808 -0.1264 -0.0196
  764MPD2    C211280   2.015   4.089  17.278 -0.0176  0.4980 -0.3110
  764MPD2    C311281   2.031   4.063  17.413  0.3303  0.4129  1.4493
  764MPD2    C411282   1.921   4.082  17.495 -0.2429 -0.3997  0.1650
  764MPD2    C511283   1.807   4.137  17.453  0.1221 -1.1490  0.4586
  764MPD2     H11284   2.103   4.088  17.214  0.5870  2.4305  0.4965
  764MPD2    H111285   1.923   4.068  17.602 -0.9211 -0.0535  0.2237
  764MPD2    H211286   1.693   4.205  17.288 -1.1752 -3.3860  0.1584
  764MPD2    H311287   1.723   4.150  17.520 -0.2520 -1.4701  0.0528
  764MPD2     N11288   2.160   4.013  17.449 -0.1826  0.0235  0.0200
  764MPD2    H511289   2.237   4.031  17.385 -1.2845 -0.9079 -1.5752
  764MPD2    N111290   1.895   4.175  17.091 -0.0855 -0.2215  0.1912
  764MPD2    H711291   1.977   4.155  17.036  0.5896  0.9862  0.7678
  765MPD2     C11292   2.113   2.269  16.003  0.2676 -0.0328 -0.1997
  765MPD2    C111293   2.164   2.310  15.881  0.1989  0.2039 -0.2033
  765MPD2    C211294   2.269   2.232  15.829  0.1956 -0.7234  0.3058
  765MPD2    C311295   2.317   2.115  15.891 -0.3250 -0.1857  0.0826
  765MPD2    C411296   2.257   2.079  16.008  0.1076  0.3443 -0.1017
  765MPD2    C511297   2.156   2.155  16.062 -0.2020 -0.1490  0.6887
  765MPD2     H11298   2.313   2.265  15.735  0.8236 -1.9039  0.1934
  765MPD2    H111299   2.301   2.008  16.077 -0.9231 -0.2903 -0.0977
  765MPD2    H211300   2.037   2.326  16.055  0.1855 -0.3426  0.0206
  765MPD2    H311301   2.111   2.116  16.153 -0.3366 -0.8701  0.3118
  765MPD2     N11302   2.419   2.046  15.833 -0.3565 -0.2326  0.5220
  765MPD2    H511303   2.446   2.071  15.739 -2.8716 -0.5087 -0.2516
  765MPD2    N111304   2.117   2.433  15.824  1.0541 -0.2848  0.2760
  765MPD2    H711305   2.024   2.466  15.849  0.5995 -0.9076 -0.6006
  766MPD2     C11306   1.621   2.575  15.291 -0.0871  0.5662 -0.3597
  766MPD2    C111307   1.729   2.498  15.333 -0.3760  0.4518  0.3169
  766MPD2    C211308   1.777   2.397  15.244  0.0060 -0.3037 -0.7816
  766MPD2    C311309   1.716   2.378  15.126 -0.0567  0.9837 -0.6917
  766MPD2    C411310   1.610   2.454  15.089 -0.0962 -0.7347  0.1756
  766MPD2    C511311   1.559   2.547  15.173 -0.3252 -0.6065 -0.9723
  766MPD2     H11312   1.874   2.352  15.265  1.1159  1.2363 -2.7118
  766MPD2    H111313   1.556   2.448  14.995  0.4799  1.1129 -0.2711
  766MPD2    H211314   1.588   2.663  15.344 -1.8013 -0.6421  0.5729
  766MPD2    H311315   1.480   2.612  15.138 -0.0656 -0.5641 -1.4899
  766MPD2     N11316   1.767   2.306  15.009  0.0771  0.2730 -0.2776
  766MPD2    H511317   1.725   2.333  14.920 -0.3000  4.4814  1.2095
  766MPD2    N111318   1.794   2.516  15.461  0.3544 -0.0174 -0.3598
  766MPD2    H711319   1.881   2.468  15.480 -0.7542 -2.0468 -0.4059
  767MPD2     C11320   1.383   2.722  14.826 -0.2926  0.3957  0.4425
  767MPD2    C111321   1.510   2.664  14.796  0.3231 -0.3152 -0.8043
  767MPD2    C211322   1.518   2.566  14.699 -0.2712 -0.3806 -0.1449
  767MPD2    C311323   1.402   2.522  14.633  0.4998  0.3338  0.5131
  767MPD2    C411324   1.278   2.569  14.675 -1.1226 -0.4086  0.1892
  767MPD2    C511325   1.265   2.674  14.768  0.3168  0.3255  0.5917
  767MPD2     H11326   1.614   2.525  14.670 -0.2680 -1.4238  1.3597
  767MPD2    H111327   1.181   2.548  14.631 -1.2616  2.0526 -0.7001
  767MPD2    H211328   1.365   2.809  14.888 -0.0161  0.7848 -0.0243
  767MPD2    H311329   1.167   2.713  14.792  0.5030  1.8232 -1.1376
  767MPD2     N11330   1.421   2.435  14.521 -0.4267 -0.3537  0.6396
  767MPD2    H511331   1.516   2.404  14.502 -0.1489  0.1090  1.2988
  767MPD2    N111332   1.623   2.728  14.858 -0.0493  0.0593 -0.0363
  767MPD2    H711333   1.615   2.798  14.931 -2.3856 -0.5425  0.2621
  768MPD2     C11334   3.036   1.356  10.452 -0.2193  0.8385  0.0482
  768MPD2    C111335   2.960   1.277  10.535  0.2647  1.0664  0.6290
  768MPD2    C211336   3.005   1.233  10.664 -0.6266 -0.5023  0.0316
  768MPD2    C311337   3.129   1.286  10.706 -0.6043  0.3427 -0.1867
  768MPD2    C411338   3.206   1.358  10.618 -0.1277  0.4993  0.4230
  768MPD2    C511339   3.164   1.387  10.489  0.3140  0.8767  0.0704
  768MPD2     H11340   2.943   1.170  10.727  0.3922 -1.9144 -0.3527
  768MPD2    H111341   3.308   1.386  10.643 -0.2196  0.1392  1.1854
  768MPD2    H211342   3.006   1.388  10.353 -3.2083 -3.7896 -0.5266
  768MPD2    H311343   3.227   1.436  10.416  0.9857 -0.3246 -0.1495
  768MPD2     N11344   3.181   1.264  10.832  0.1742  0.1491  0.0973
  768MPD2    H511345   3.266   1.315  10.855 -1.4222  3.3005 -0.8963
  768MPD2    N111346   2.829   1.231  10.495 -0.3784 -1.1420  0.8021
  768MPD2    H711347   2.783   1.159  10.550 -1.3423 -0.3014  1.0910
  769MPD2     C11348   3.338   3.826  14.848  0.5705  0.0391  0.2126
  769MPD2    C111349   3.286   3.738  14.947  0.1055 -0.0680 -0.5321
  769MPD2    C211350   3.361   3.723  15.071  0.0733  0.8002 -0.2817
  769MPD2    C311351   3.466   3.808  15.101  0.2074  0.1194 -0.0151
  769MPD2    C411352   3.516   3.884  14.996 -0.9301  0.0213  0.0671
  769MPD2    C511353   3.448   3.891  14.877  0.2941  0.3938  0.5510
  769MPD2     H11354   3.328   3.645  15.138 -0.3205  0.3218 -1.0342
  769MPD2    H111355   3.599   3.953  15.006 -0.8629 -0.2703  1.4773
  769MPD2    H211356   3.295   3.844  14.751  0.4322 -2.3378 -0.1768
  769MPD2    H311357   3.490   3.956  14.801  0.9038  0.0779  0.6122
  769MPD2     N11358   3.513   3.816  15.232  0.4141  0.0901 -0.1683
  769MPD2    H511359   3.445   3.785  15.301  3.0255 -0.1556  2.3129
  769MPD2    N111360   3.184   3.646  14.907 -0.7337 -0.1036  0.1556
  769MPD2    H711361   3.169   3.643  14.806  0.3635 -2.0340  0.0575
  770MPD2     C11362   2.567   2.789  15.127  0.4055 -0.1395 -0.6515
  770MPD2    C111363   2.640   2.769  15.012  0.0654 -0.6921 -0.3425
  770MPD2    C211364   2.711   2.877  14.957 -0.1656 -0.3853 -0.5414
  770MPD2    C311365   2.683   3.002  15.004  0.3050  0.2083 -0.0477
  770MPD2    C411366   2.583   3.024  15.096 -0.1774  0.0176  0.1556
  770MPD2    C511367   2.537   2.914  15.168  0.2987  0.1692 -0.4312
  770MPD2     H11368   2.782   2.873  14.875 -0.1557 -1.1906 -0.4936
  770MPD2    H111369   2.554   3.121  15.136  1.3877  0.8695 -0.7722
  770MPD2    H211370   2.533   2.704  15.185  0.4316 -0.8988 -1.7573
  770MPD2    H311371   2.481   2.918  15.260 -2.3557  1.9878 -2.1291
  770MPD2     N11372   2.752   3.107  14.950  0.4616  0.4829 -0.4290
  770MPD2    H511373   2.820   3.085  14.877  0.8852 -0.6295  0.3001
  770MPD2    N111374   2.656   2.634  14.971  0.0996 -0.0314 -0.8294
  770MPD2    H711375   2.634   2.563  15.040  1.3051 -0.5952 -1.0290
  771MPD2     C11376   4.082   1.581  13.676  0.2354  0.6512  0.2356
  771MPD2    C111377   4.028   1.699  13.629 -0.1946  0.3031  0.3441
  771MPD2    C211378   3.933   1.691  13.530 -0.1389 -0.3427 -0.1715
  771MPD2    C311379   3.891   1.569  13.478 -0.1723 -0.3187  0.9459
  771MPD2    C411380   3.958   1.454  13.529 -0.8792  0.3305  0.1516
  771MPD2    C511381   4.057   1.460  13.624  0.3161  0.2950 -0.1072
  771MPD2     H11382   3.887   1.781  13.490  0.2269 -0.5700 -1.1006
  771MPD2    H111383   3.941   1.353  13.493  0.9765 -0.4475  1.5008
  771MPD2    H211384   4.155   1.590  13.756  0.2656 -0.5827  0.3393
  771MPD2    H311385   4.101   1.368  13.659  1.7466  0.5055 -1.3704
  771MPD2     N11386   3.796   1.569  13.376 -0.4964  0.0221 -0.2426
  771MPD2    H511387   3.770   1.656  13.330 -0.3340 -0.4962 -1.3093
  771MPD2    N111388   4.062   1.829  13.672  0.1823  0.4314 -0.2499
  771MPD2    H711389   3.997   1.905  13.654  1.8212  1.9270  0.1441
  772MPD2     C11390   3.704   2.436  13.854  0.1829  0.0325  0.0491
  772MPD2    C111391   3.720   2.306  13.808  0.2423 -0.1308 -0.2353
  772MPD2    C211392   3.614   2.234  13.763 -0.0261 -0.5227 -0.4502
  772MPD2    C311393   3.483   2.275  13.786 -0.3968 -0.2760 -0.7165
  772MPD2    C411394   3.467   2.404  13.827  0.1897 -0.2820 -0.6838
  772MPD2    C511395   3.576   2.481  13.863  0.1793  0.1989 -0.0815
  772MPD2     H11396   3.631   2.146  13.701 -0.5988 -1.3768  0.5921
  772MPD2    H111397   3.369   2.450  13.829 -0.1605 -1.0406 -0.7390
  772MPD2    H211398   3.795   2.487  13.883 -0.3823  1.1470 -0.1402
  772MPD2    H311399   3.551   2.584  13.887  0.9739  0.5868 -0.9320
  772MPD2     N11400   3.362   2.212  13.739 -0.4565  0.3865 -0.1240
  772MPD2    H511401   3.274   2.257  13.760 -1.4404 -2.2586  1.4817
  772MPD2    N111402   3.845   2.248  13.779  0.2536 -0.3918 -0.4379
  772MPD2    H711403   3.832   2.154  13.742  0.6507  0.3848 -2.5541
  773MPD2     C11404   3.556   3.169   0.282  0.1418  0.1541  0.6960
  773MPD2    C111405   3.524   3.093   0.166  0.7588 -0.0350  0.1861
  773MPD2    C211406   3.564   2.960   0.178  0.0730 -0.4635  0.3074
  773MPD2    C311407   3.615   2.902   0.286 -0.2921  0.2283  0.1450
  773MPD2    C411408   3.643   2.983   0.395  0.0634  0.1373 -0.5631
  773MPD2    C511409   3.619   3.121   0.390  0.8732 -0.0115 -0.1547
  773MPD2     H11410   3.543   2.908   0.085  0.4477  0.2041 -0.1561
  773MPD2    H111411   3.702   2.955   0.481 -0.1643  0.6984 -0.2209
  773MPD2    H211412   3.535   3.275   0.287 -3.1022 -0.3783 -1.6266
  773MPD2    H311413   3.635   3.179   0.481 -2.3177  2.9001 -1.4519
  773MPD2     N11414   3.637   2.763   0.280 -0.0034  0.3017  0.1132
  773MPD2    H511415   3.640   2.718   0.189 -0.0466 -0.6813  0.6000
  773MPD2    N111416   3.470   3.139   0.046 -0.1915  0.7172 -0.1909
  773MPD2    H711417   3.449   3.073  17.666 -0.7634  1.9335 -1.1070
  774MPD2     C11418   2.545   2.155  12.942 -0.7159  0.7453  0.4362
  774MPD2    C111419   2.421   2.204  12.971 -0.0920 -0.3489  0.5589
  774MPD2    C211420   2.392   2.329  12.925  0.4715 -0.2678 -0.0415
  774MPD2    C311421   2.476   2.396  12.839 -0.0193  0.6049  0.5589
  774MPD2    C411422   2.602   2.345  12.808 -0.2131 -0.8593  0.0583
  774MPD2    C511423   2.632   2.222  12.861  0.0493 -0.2237 -0.7020
  774MPD2     H11424   2.293   2.365  12.949  0.3512 -1.0898  0.6961
  774MPD2    H111425   2.669   2.391  12.736 -0.2968  1.3434  1.3708
  774MPD2    H211426   2.579   2.057  12.973  0.7058  0.9161 -0.5844
  774MPD2    H311427   2.724   2.167  12.845  1.1411  0.8156  1.9188
  774MPD2     N11428   2.449   2.532  12.797 -0.2983  0.4491 -0.0441
  774MPD2    H511429   2.360   2.557  12.841  0.5165  0.5766  1.5324
  774MPD2    N111430   2.338   2.124  13.054  0.5033  0.3674 -0.0794
  774MPD2    H711431   2.376   2.031  13.072 -1.9097 -0.5223  0.4127
  775MPD2     C11432   3.921   3.392  16.001 -0.6511 -0.0658 -0.4358
  775MPD2    C111433   3.850   3.502  16.020  0.4699 -0.0186  0.0928
  775MPD2    C211434   3.894   3.630  15.978 -0.4835 -0.6040 -1.0213
  775MPD2    C311435   4.014   3.643  15.906  0.1111 -0.2927  0.4608
  775MPD2    C411436   4.085   3.530  15.891 -0.5879 -0.7959 -0.4115
  775MPD2    C511437   4.040   3.408  15.937 -0.5060 -0.1642 -0.1614
  775MPD2     H11438   3.837   3.719  16.002  2.2367  0.3370  1.8577
  775MPD2    H111439   4.172   3.532  15.827 -1.7929 -1.6905 -2.0569
  775MPD2    H211440   3.871   3.299  16.029 -1.6349  0.6210  0.0928
  775MPD2    H311441   4.090   3.315  15.915 -0.3257 -0.4309  1.4010
  775MPD2     N11442   4.071   3.763  15.861 -0.2161  0.3942  0.1923
  775MPD2    H511443   4.162   3.754  15.818  0.1945 -0.6938  1.2927
  775MPD2    N111444   3.728   3.489  16.090 -0.1386 -0.5242  0.4329
  775MPD2    H711445   3.716   3.399  16.136  0.2493 -0.9874 -0.3584
  776MPD2     C11446   2.748   3.740  11.705  0.2547  0.0212  0.7085
  776MPD2    C111447   2.652   3.746  11.602  0.3269 -0.4309 -0.7460
  776MPD2    C211448   2.675   3.825  11.494 -0.0053  0.8518 -0.3571
  776MPD2    C311449   2.789   3.911  11.484  0.0768 -0.2021 -0.3172
  776MPD2    C411450   2.880   3.902  11.583 -0.2571  0.0958  0.0515
  776MPD2    C511451   2.859   3.818  11.695 -0.2878 -0.2013  0.2567
  776MPD2     H11452   2.610   3.823  11.407 -0.4884  0.2659  0.0180
  776MPD2    H111453   2.969   3.964  11.574 -1.5303  1.7059 -1.4522
  776MPD2    H211454   2.735   3.680  11.794  1.0679 -0.5644  0.4249
  776MPD2    H311455   2.941   3.820  11.766 -0.7603  0.6628  0.7666
  776MPD2     N11456   2.802   4.001  11.381  0.1317 -0.2381 -0.2385
  776MPD2    H511457   2.878   4.068  11.385 -0.1923  0.2704 -2.6864
  776MPD2    N111458   2.539   3.668  11.612 -0.3516 -0.1703 -0.4755
  776MPD2    H711459   2.524   3.646  11.710  1.4400 -3.4080 -0.9642
  777MPD2     C11460   4.001   2.187   0.696 -0.4793 -0.3986  0.1302
  777MPD2    C111461   4.027   2.119   0.811  0.0578  0.3054  0.2720
  777MPD2    C211462   4.048   1.983   0.805  0.2130  0.7204 -0.3973
  777MPD2    C311463   4.039   1.915   0.684 -0.8330 -0.1796  0.4086
  777MPD2    C411464   3.998   1.988   0.568  1.1444  0.7017 -0.3027
  777MPD2    C511465   3.988   2.122   0.575  0.2022  0.0301  0.1534
  777MPD2     H11466   4.064   1.921   0.892  0.8364 -0.2997 -1.2288
  777MPD2    H111467   3.988   1.946   0.468 -0.6542 -1.3440  0.7457
  777MPD2    H211468   3.963   2.287   0.711 -0.1753 -0.7470  3.2546
  777MPD2    H311469   3.957   2.176   0.487  2.2367  1.0086  0.0488
  777MPD2     N11470   4.055   1.776   0.689  0.1466  0.8179 -0.2384
  777MPD2    H511471   4.087   1.735   0.777 -3.6973  1.2064  1.3731
  777MPD2    N111472   4.044   2.192   0.927 -0.0132  0.0293  0.5582
  777MPD2    H711473   4.034   2.293   0.927  2.6428  0.2760 -0.1545
  778MPD2     C11474   4.390   1.850  14.707 -0.5883 -0.0875  0.1720
  778MPD2    C111475   4.431   1.720  14.687  0.2645 -0.7756 -1.1860
  778MPD2    C211476   4.521   1.700  14.587  0.3896  0.7823  0.0093
  778MPD2    C311477   4.570   1.809  14.510 -0.6773  0.2042  0.1181
  778MPD2    C411478   4.527   1.936  14.529 -0.4772 -0.0719 -0.0071
  778MPD2    C511479   4.435   1.959  14.627  0.5853  0.2401 -0.4608
  778MPD2     H11480   4.552   1.599  14.563 -1.4196  0.3268 -0.3781
  778MPD2    H111481   4.570   2.017  14.471  1.2303  0.5262  2.0636
  778MPD2    H211482   4.309   1.872  14.775 -1.5638  0.5489 -1.1996
  778MPD2    H311483   4.387   2.056  14.638 -1.9358 -1.0096 -0.5781
  778MPD2     N11484   4.650   1.766  14.402 -0.1725  0.1026  0.0598
  778MPD2    H511485   4.668   1.666  14.395 -0.4884  0.0232  0.3882
  778MPD2    N111486   4.375   1.615  14.753  0.1850  0.0170 -0.4096
  778MPD2    H711487   4.381   1.527  14.702  0.5772 -0.9619  1.3266
  779MPD2     C11488   3.920   0.829  13.992  0.5058 -0.3549 -0.1301
  779MPD2    C111489   4.000   0.849  14.103  0.5607 -0.2977 -0.6250
  779MPD2    C211490   4.047   0.975  14.133  0.2944 -0.4270  0.5863
  779MPD2    C311491   4.000   1.080  14.052  0.0354 -0.3592 -0.6375
  779MPD2    C411492   3.912   1.061  13.948  0.2846 -0.1018  0.0612
  779MPD2    C511493   3.864   0.929  13.920 -0.4243  0.7744 -0.0890
  779MPD2     H11494   4.122   0.978  14.211 -0.5944  2.4964  1.3460
  779MPD2    H111495   3.884   1.132  13.872  0.0077 -0.9485 -0.6283
  779MPD2    H211496   3.916   0.732  13.944 -2.7715 -0.5778  0.6380
  779MPD2    H311497   3.821   0.907  13.823 -0.6322  2.3544 -0.3575
  779MPD2     N11498   4.052   1.207  14.081  0.0423 -0.0691  0.1284
  779MPD2    H511499   4.123   1.207  14.154 -1.3400  1.6860  1.4793
  779MPD2    N111500   4.048   0.735  14.172 -0.8817  0.1303  0.6601
  779MPD2    H711501   3.987   0.657  14.150 -1.0683  0.4873 -0.0917
  780MPD2     C11502   3.071   0.703   0.538 -0.1914 -0.0407 -0.1168
  780MPD2    C111503   3.125   0.590   0.592  0.6411  0.9393  0.1889
  780MPD2    C211504   3.253   0.557   0.554 -0.1736  0.1855 -0.1594
  780MPD2    C311505   3.329   0.647   0.478 -0.6848 -0.7160 -0.3711
  780MPD2    C411506   3.268   0.752   0.420 -0.0540 -0.9547 -0.2515
  780MPD2    C511507   3.139   0.787   0.456  0.5555 -0.5779  0.3644
  780MPD2     H11508   3.307   0.473   0.596 -1.3044  1.3212  3.5340
  780MPD2    H111509   3.319   0.808   0.342  0.6341  0.2102  1.0428
  780MPD2    H211510   2.967   0.731   0.550 -0.3120 -1.5788  2.4144
  780MPD2    H311511   3.090   0.871   0.408 -0.2863 -1.0592  0.3870
  780MPD2     N11512   3.457   0.604   0.434 -0.1579 -0.2218 -0.2540
  780MPD2    H511513   3.485   0.510   0.460 -2.0823 -0.1757  1.9715
  780MPD2    N111514   3.050   0.504   0.673  0.1601 -0.2531  0.0897
  780MPD2    H711515   2.950   0.520   0.683 -0.1169 -1.7363 -0.3869
  781MPD2     C11516   0.653   2.445  11.706  0.1061 -0.4299 -0.0947
  781MPD2    C111517   0.637   2.342  11.794 -0.0483 -0.1788 -0.6571
  781MPD2    C211518   0.659   2.210  11.761 -0.0526 -0.0158 -0.3121
  781MPD2    C311519   0.706   2.180  11.635  0.0574  0.5183  0.2223
  781MPD2    C411520   0.727   2.284  11.545 -0.5427  0.4056  0.1310
  781MPD2    C511521   0.695   2.415  11.576 -0.0787 -0.9107 -0.0131
  781MPD2     H11522   0.644   2.126  11.828  1.5755 -0.1772 -0.1555
  781MPD2    H111523   0.761   2.263  11.444  1.0219  0.5336  0.6266
  781MPD2    H211524   0.628   2.547  11.730  0.2264  0.0484 -2.0038
  781MPD2    H311525   0.716   2.498  11.510  1.4235 -1.0313  0.3021
  781MPD2     N11526   0.735   2.047  11.589 -0.5106 -0.3213  0.1758
  781MPD2    H511527   0.765   2.041  11.492 -0.6519 -2.1176  0.2433
  781MPD2    N111528   0.602   2.363  11.932  0.3560 -0.4187 -0.3193
  781MPD2    H711529   0.577   2.284  11.990 -1.7664 -0.1109 -0.8116
  782MPD2     C11530   2.753   3.132  10.288 -0.0241  0.7323 -0.3598
  782MPD2    C111531   2.789   3.093  10.417  0.1127  0.4008 -0.3404
  782MPD2    C211532   2.801   3.187  10.513  0.3114  0.2831 -0.5013
  782MPD2    C311533   2.820   3.316  10.480  0.2975 -0.4832 -0.3125
  782MPD2    C411534   2.795   3.354  10.353  0.1733  0.2748 -0.5948
  782MPD2    C511535   2.758   3.266  10.255 -0.6762  0.8775  0.7678
  782MPD2     H11536   2.786   3.170  10.619 -0.5081 -0.1815 -0.6887
  782MPD2    H111537   2.779   3.460  10.335 -1.5529 -0.3300 -2.6767
  782MPD2    H211538   2.702   3.066  10.219  1.7996 -0.4663 -0.5560
  782MPD2    H311539   2.722   3.302  10.159  1.6385 -0.5167 -0.6335
  782MPD2     N11540   2.856   3.403  10.585 -0.9551 -0.0244  0.0691
  782MPD2    H511541   2.876   3.353  10.672 -1.5065  0.1824  0.3159
  782MPD2    N111542   2.780   2.958  10.452 -0.5404 -0.2631 -0.5166
  782MPD2    H711543   2.765   2.894  10.375 -1.1708  2.3009 -2.5357
  783MPD2     C11544   2.061   2.500  10.693  0.3879  0.0816 -0.2004
  783MPD2    C111545   2.115   2.622  10.699  0.6401  0.0778  0.4497
  783MPD2    C211546   2.249   2.645  10.690 -0.1803 -0.3578 -0.0268
  783MPD2    C311547   2.342   2.535  10.676 -0.8554 -0.0052  0.5915
  783MPD2    C411548   2.284   2.406  10.672 -0.0239  0.3073  0.6063
  783MPD2    C511549   2.146   2.391  10.681 -0.2351 -0.8052  0.6466
  783MPD2     H11550   2.291   2.745  10.687 -0.1902 -0.3839 -1.4490
  783MPD2    H111551   2.344   2.317  10.654 -2.4021 -1.1349 -0.2984
  783MPD2    H211552   1.953   2.489  10.692  0.4613 -0.6092 -0.0862
  783MPD2    H311553   2.101   2.297  10.650 -0.1455 -1.2840  1.9602
  783MPD2     N11554   2.483   2.570  10.658  0.3004 -0.0315 -0.0068
  783MPD2    H511555   2.511   2.668  10.662  1.6006 -0.3407 -1.8462
  783MPD2    N111556   2.022   2.724  10.718  0.0001  0.1536 -0.3648
  783MPD2    H711557   1.922   2.707  10.707  0.6839 -3.5558 -0.7450
  784MPD2     C11558   1.722   3.305   0.484  1.0962 -0.5188  0.7373
  784MPD2    C111559   1.646   3.369   0.581 -0.2176  0.3211 -0.1193
  784MPD2    C211560   1.512   3.401   0.560 -0.4538 -0.1666  0.3014
  784MPD2    C311561   1.457   3.385   0.435  0.2082  0.1433 -0.0690
  784MPD2    C411562   1.538   3.336   0.337 -0.4094  0.3377 -0.4622
  784MPD2    C511563   1.667   3.288   0.363  0.6978  0.9015  0.1806
  784MPD2     H11564   1.454   3.449   0.638 -1.2100 -1.5733  0.6242
  784MPD2    H111565   1.513   3.339   0.232 -0.2589  1.2679 -0.4672
  784MPD2    H211566   1.823   3.274   0.509  1.3719 -1.3236 -1.3838
  784MPD2    H311567   1.724   3.251   0.278  1.8612  1.4352  0.7249
  784MPD2     N11568   1.324   3.422   0.402 -0.9010 -0.0692 -0.0041
  784MPD2    H511569   1.293   3.408   0.306 -0.1272 -3.2062  0.2073
  784MPD2    N111570   1.688   3.402   0.711 -0.1295 -0.0075  0.1611
  784MPD2    H711571   1.616   3.458   0.756 -1.4341 -1.0134 -0.6805
  785MPD2     C11572   1.076   1.938   9.040 -0.2219 -0.0917  0.0918
  785MPD2    C111573   1.025   1.862   9.140 -0.0558  0.1126  0.1770
  785MPD2    C211574   0.891   1.827   9.133  0.6765  0.2579 -0.5331
  785MPD2    C311575   0.814   1.868   9.022  0.2263 -0.0971  0.1646
  785MPD2    C411576   0.871   1.947   8.922  0.0467  0.1737 -0.0010
  785MPD2    C511577   0.998   1.978   8.933 -0.1506 -0.1008 -0.1303
  785MPD2     H11578   0.836   1.778   9.213  0.7520  0.5729 -0.2918
  785MPD2    H111579   0.818   1.974   8.831 -0.0932 -0.4671 -0.1165
  785MPD2    H211580   1.180   1.969   9.034 -0.1445 -0.6726 -1.5467
  785MPD2    H311581   1.045   2.032   8.852 -0.7922  1.2761  0.4033
  785MPD2     N11582   0.681   1.838   9.034  0.7578  0.2011 -0.5263
  785MPD2    H511583   0.642   1.784   9.111  2.3714  2.6074  1.9799
  785MPD2    N111584   1.107   1.824   9.244  0.2098  0.1999 -0.5465
  785MPD2    H711585   1.201   1.861   9.242  0.3881 -0.1740  0.7635
  786MPD2     C11586   4.156   4.564  14.740 -0.1355 -0.2862 -0.3629
  786MPD2    C111587   4.268   4.489  14.719  0.4748 -0.0616  0.1062
  786MPD2    C211588   4.351   4.465  14.824 -0.4405  0.9452 -0.1557
  786MPD2    C311589   4.332   4.518  14.949 -0.3278 -0.6080 -0.6286
  786MPD2    C411590   4.216   4.586  14.970  0.1142  0.0839  0.3495
  786MPD2    C511591   4.137   4.613  14.867 -0.3395 -0.1076 -0.2885
  786MPD2     H11592   4.430   4.396  14.795 -0.6142  0.9751 -0.7006
  786MPD2    H111593   4.193   4.635  15.065  1.8856 -0.0126  0.8219
  786MPD2    H211594   4.096   4.589  14.654 -1.1579 -1.7984 -0.0889
  786MPD2    H311595   4.047   4.672  14.883  0.1000  0.5366 -0.1888
  786MPD2     N11596   4.415   4.486  15.054  0.0525 -0.0989  0.7611
  786MPD2    H511597   4.382   4.514  15.146 -0.1831  1.0280  0.3306
  786MPD2    N111598   4.305   4.429  14.593  0.1410  0.3492  0.0989
  786MPD2    H711599   4.397   4.387  14.592 -1.0064 -2.1565  0.2506
  787MPD2     C11600   4.502   3.895  14.806  0.1495  0.2644 -0.1357
  787MPD2    C111601   4.551   3.922  14.678  0.5567 -0.0689 -0.0013
  787MPD2    C211602   4.676   3.895  14.640  0.5210  0.1334 -0.4666
  787MPD2    C311603   0.047   3.847  14.732  0.2140 -0.3822 -0.0796
  787MPD2    C411604   0.007   3.828  14.863 -0.3146  0.0306  0.5444
  787MPD2    C511605   4.596   3.850  14.892 -0.4567 -0.6450  0.1601
  787MPD2     H11606   4.707   3.907  14.537  2.9121  1.7218  0.4376
  787MPD2    H111607   0.075   3.814  14.947  0.1411  0.1715  0.2018
  787MPD2    H211608   4.398   3.909  14.830 -0.0778 -1.0800 -0.3716
  787MPD2    H311609   4.573   3.829  14.996 -1.5839  0.8508  0.2111
  787MPD2     N11610   0.176   3.824  14.677  0.3854  0.3885 -0.4451
  787MPD2    H511611   0.186   3.828  14.576  1.5886 -0.5192 -0.3483
  787MPD2    N111612   4.453   3.992  14.598 -0.3605  0.1151  0.0847
  787MPD2    H711613   4.374   4.038  14.642 -0.5067 -0.3493  0.3096
  788MPD2     C11614   1.988   2.631   1.019 -0.1058 -0.4211 -0.0660
  788MPD2    C111615   1.965   2.554   0.902 -0.6153  0.7494 -0.3511
  788MPD2    C211616   1.967   2.624   0.781 -0.4826  0.4615  0.2766
  788MPD2    C311617   2.006   2.755   0.774 -0.1627  0.6592 -0.0573
  788MPD2    C411618   2.058   2.816   0.892  0.1996 -0.0280  0.2215
  788MPD2    C511619   2.035   2.756   1.014 -0.1077 -0.3584 -0.2958
  788MPD2     H11620   1.932   2.575   0.690  1.2374 -1.3085  0.5694
  788MPD2    H111621   2.094   2.918   0.892 -2.6042  0.9755 -2.3873
  788MPD2    H211622   1.973   2.593   1.119 -0.8409 -1.1069 -0.4319
  788MPD2    H311623   2.055   2.804   1.109  2.7494 -0.9979 -0.5718
  788MPD2     N11624   2.005   2.833   0.662  0.3688 -0.3881  0.1090
  788MPD2    H511625   2.059   2.920   0.661 -1.0594  0.5174  1.9076
  788MPD2    N111626   1.929   2.417   0.903  0.0799 -0.2024 -0.2204
  788MPD2    H711627   1.898   2.374   0.817 -0.5841  0.4512 -0.3169
  789MPD2     C11628   2.261   2.321  16.453 -0.3955 -0.6476  0.6387
  789MPD2    C111629   2.163   2.231  16.427  0.1396 -0.1912 -0.8414
  789MPD2    C211630   2.035   2.272  16.397 -0.1009  0.6877  0.2007
  789MPD2    C311631   2.007   2.403  16.400 -0.1413 -1.8525 -0.4370
  789MPD2    C411632   2.109   2.497  16.414  0.9216 -0.5158 -0.4387
  789MPD2    C511633   2.238   2.455  16.435  0.2539 -0.2871  0.3760
  789MPD2     H11634   1.958   2.199  16.377  0.0767  0.9293 -1.4184
  789MPD2    H111635   2.096   2.604  16.426 -6.5432 -1.3309 -0.9521
  789MPD2    H211636   2.363   2.292  16.476 -0.1992  1.1834  2.0800
  789MPD2    H311637   2.320   2.522  16.460 -0.0268 -0.6433  2.2449
  789MPD2     N11638   1.870   2.453  16.387  0.0810  0.4600  0.3674
  789MPD2    H511639   1.865   2.554  16.381  1.7176  0.4754 -0.9690
  789MPD2    N111640   2.178   2.087  16.432 -0.1710  0.2551 -0.0002
  789MPD2    H711641   2.095   2.032  16.414  1.1489 -1.9351  0.6569
  790MPD2     C11642   3.304   4.703  13.235 -0.3698 -0.0193  0.2423
  790MPD2    C111643   3.312   4.599  13.320  0.4242 -0.3079 -0.5356
  790MPD2    C211644   3.265   4.469  13.282 -0.3330  0.9287  0.1291
  790MPD2    C311645   3.215   4.454  13.156 -0.6756  0.4616  0.5172
  790MPD2    C411646   3.209   4.569  13.074 -0.2083 -0.0438 -0.2679
  790MPD2    C511647   3.248   4.696  13.112  0.2047  0.4271  0.4501
  790MPD2     H11648   3.285   4.383  13.345  1.6891  0.7875 -0.7411
  790MPD2    H111649   3.164   4.573  12.975  0.3438  1.8026 -0.4482
  790MPD2    H211650   3.334   0.079  13.265  1.9924 -0.6654  0.0275
  790MPD2    H311651   3.240   0.054  13.041 -1.0010  1.7813  2.1166
  790MPD2     N11652   3.175   4.332  13.100 -0.5977 -0.0031  0.2412
  790MPD2    H511653   3.189   4.254  13.163 -0.4299 -0.3720 -0.2514
  790MPD2    N111654   3.349   4.634  13.448  0.0448  0.2432  0.6505
  790MPD2    H711655   3.376   0.008  13.457 -0.1361  0.3151  0.4428
  791MPD2     C11656   2.709   4.266  12.477 -0.6771  0.0766  0.3529
  791MPD2    C111657   2.692   4.165  12.568  0.3855 -0.1025 -0.0907
  791MPD2    C211658   2.582   4.082  12.556  0.1164  0.2146  0.2608
  791MPD2    C311659   2.487   4.104  12.462  0.5955  0.4075 -0.4548
  791MPD2    C411660   2.499   4.206  12.372 -0.5908  0.2314  0.0043
  791MPD2    C511661   2.616   4.286  12.376 -0.0613  0.3316 -0.2448
  791MPD2     H11662   2.570   3.997  12.622  2.2165 -0.1546  0.1863
  791MPD2    H111663   2.427   4.222  12.293 -0.6832 -0.8669 -0.1373
  791MPD2    H211664   2.788   4.338  12.492 -1.2989  0.8453 -0.0553
  791MPD2    H311665   2.635   4.361  12.300 -2.6903 -1.9732 -3.1701
  791MPD2     N11666   2.381   4.012  12.454  0.0536  0.4783  0.1168
  791MPD2    H511667   2.369   3.953  12.536 -2.1714 -0.2333 -0.7040
  791MPD2    N111668   2.795   4.141  12.666  0.5586  0.6439  0.3473
  791MPD2    H711669   2.856   4.220  12.685  1.6795 -0.3575  0.8759
  792MPD2     C11670   3.225   3.948  11.224  0.0889 -0.1400 -0.4622
  792MPD2    C111671   3.220   3.997  11.093  0.3215  0.7432  0.3751
  792MPD2    C211672   3.113   3.952  11.017 -0.1507 -0.1421 -0.6780
  792MPD2    C311673   3.015   3.867  11.067 -0.1658  0.4151  0.0352
  792MPD2    C411674   3.019   3.825  11.197 -0.6082  0.1855 -0.5666
  792MPD2    C511675   3.128   3.865  11.269  0.3051  0.7870  0.1652
  792MPD2     H11676   3.106   3.989  10.915 -1.4397 -1.7395 -1.1774
  792MPD2    H111677   2.935   3.765  11.230 -0.6892  0.6805  0.1273
  792MPD2    H211678   3.304   3.974  11.294 -1.3930 -0.0309  1.1735
  792MPD2    H311679   3.141   3.845  11.374 -2.3135  1.1329  0.5292
  792MPD2     N11680   2.896   3.836  10.998 -0.0748  0.6642  0.0068
  792MPD2    H511681   2.834   3.773  11.048 -0.8661  0.9291 -0.6471
  792MPD2    N111682   3.315   4.094  11.053 -0.1900  0.4351 -0.3751
  792MPD2    H711683   3.390   4.119  11.117  0.6396 -0.5231 -0.9773
  793MPD2     C11684   1.997   3.967  10.381 -0.7257  0.3393  0.2957
  793MPD2    C111685   2.118   4.035  10.374  0.2642 -0.0105 -0.6413
  793MPD2    C211686   2.220   3.992  10.451  0.0933  0.5469  0.1628
  793MPD2    C311687   2.213   3.884  10.529  0.6798  0.2590  0.5380
  793MPD2    C411688   2.092   3.821  10.545 -1.1633  0.1422 -0.4955
  793MPD2    C511689   1.979   3.866  10.473  0.0100 -0.1940  0.0803
  793MPD2     H11690   2.315   4.043  10.452  0.1194  0.5106 -0.4688
  793MPD2    H111691   2.096   3.750  10.627  1.9086  0.0084 -0.7770
  793MPD2    H211692   1.906   4.002  10.334 -1.1515  0.0860  0.9393
  793MPD2    H311693   1.882   3.817  10.482 -0.4033  0.6437  0.1592
  793MPD2     N11694   2.316   3.845  10.613 -0.2633 -0.6467  0.1214
  793MPD2    H511695   2.310   3.760  10.668  0.8155 -0.7876  0.0065
  793MPD2    N111696   2.143   4.136  10.276 -0.4986  0.2195 -0.1361
  793MPD2    H711697   2.242   4.157  10.261  0.2591 -2.0363  1.6981
  794MPD2     C11698   2.976   3.741  17.317  0.2715  0.2328 -0.4547
  794MPD2    C111699   2.976   3.614  17.258 -0.6169  0.7466  0.6349
  794MPD2    C211700   2.920   3.601  17.134 -0.3276 -0.9758  0.0054
  794MPD2    C311701   2.844   3.699  17.072 -0.4354  0.4468  0.7723
  794MPD2    C411702   2.840   3.823  17.132 -0.0423 -0.0772  0.3301
  794MPD2    C511703   2.905   3.839  17.254 -0.2890  0.4369  0.2191
  794MPD2     H11704   2.924   3.500  17.094 -2.2600 -0.2733 -2.0064
  794MPD2    H111705   2.777   3.907  17.104  1.4501  0.0952 -2.4758
  794MPD2    H211706   3.012   3.763  17.417  4.0456  1.2162 -2.0387
  794MPD2    H311707   2.877   3.922  17.318 -0.8571 -0.1800  0.7759
  794MPD2     N11708   2.771   3.681  16.947 -0.0959 -0.3142 -0.0505
  794MPD2    H511709   2.709   3.754  16.912 -3.0956 -2.1058  1.4803
  794MPD2    N111710   3.034   3.501  17.307 -0.1933 -0.4374 -0.1394
  794MPD2    H711711   3.016   3.416  17.254  2.4246 -1.4360  0.5689
  795MPD2     C11712   0.220   0.761  13.926 -0.6108  0.0496 -0.2354
  795MPD2    C111713   0.205   0.678  13.817  0.2653 -0.1926 -0.3831
  795MPD2    C211714   0.296   0.581  13.786 -0.2189 -1.2981  0.3427
  795MPD2    C311715   0.402   0.558  13.875 -0.0782  0.0763 -0.5768
  795MPD2    C411716   0.412   0.638  13.994  0.0341  0.1079  0.3759
  795MPD2    C511717   0.320   0.738  14.016  1.3746  0.4359  0.5228
  795MPD2     H11718   0.290   0.530  13.691 -2.6181 -1.1148  0.3854
  795MPD2    H111719   0.474   0.615  14.080  1.5005 -1.6503 -1.1519
  795MPD2    H211720   0.163   0.851  13.948 -0.5974 -0.0249  0.1004
  795MPD2    H311721   0.325   0.793  14.110  1.3942  1.0781  0.1444
  795MPD2     N11722   0.507   0.477  13.831  0.4476  0.0843 -0.2384
  795MPD2    H511723   0.507   0.434  13.739 -1.5791 -0.0704 -0.1574
  795MPD2    N111724   0.091   0.699  13.735  0.2276 -0.4412  0.3070
  795MPD2    H711725   0.087   0.629  13.661 -0.1616 -2.7812  2.5341
  796MPD2     C11726   0.221   2.440  15.434  0.3500 -0.1264  0.4367
  796MPD2    C111727   0.310   2.457  15.540 -0.7630  0.1877  0.0546
  796MPD2    C211728   0.329   2.584  15.584  0.1735 -0.7822  0.2558
  796MPD2    C311729   0.250   2.686  15.540 -0.5066  0.0194  0.4063
  796MPD2    C411730   0.164   2.663  15.441 -0.5783  0.2562  0.0651
  796MPD2    C511731   0.161   2.544  15.383  0.5981 -0.9228 -1.7765
  796MPD2     H11732   0.388   2.593  15.674  0.2636 -0.0006  0.1166
  796MPD2    H111733   0.115   2.747  15.393 -0.7559  0.7005  1.0285
  796MPD2    H211734   0.211   2.345  15.383 -0.5163  0.4938 -0.5637
  796MPD2    H311735   0.097   2.529  15.296  0.5207 -0.4745 -1.7972
  796MPD2     N11736   0.255   2.816  15.594 -1.0223 -0.1563  0.3979
  796MPD2    H511737   0.326   2.834  15.664 -0.3922  0.8493 -0.5092
  796MPD2    N111738   0.371   2.341  15.603  0.0842  0.1716  0.2300
  796MPD2    H711739   0.343   2.249  15.571 -0.5692 -0.7090  3.4077
  797MPD2     C11740   0.893   1.602  17.162 -0.2238  0.4492  0.8854
  797MPD2    C111741   0.896   1.733  17.202 -0.4528 -0.6337 -0.2828
  797MPD2    C211742   0.973   1.829  17.130  0.7241  0.2981 -0.3575
  797MPD2    C311743   1.047   1.790  17.021 -0.2109 -0.4992  0.1979
  797MPD2    C411744   1.062   1.656  16.995  0.3270 -0.8506  1.3015
  797MPD2    C511745   0.982   1.564  17.064 -0.2559 -0.5747 -0.1423
  797MPD2     H11746   0.966   1.936  17.143 -2.3292  0.2214 -1.3669
  797MPD2    H111747   1.117   1.618  16.910 -3.1913 -1.1203 -0.8560
  797MPD2    H211748   0.832   1.526  17.210  0.4781 -1.2092 -0.8814
  797MPD2    H311749   0.988   1.460  17.037 -2.0514 -0.3572 -1.3879
  797MPD2     N11750   1.122   1.892  16.958 -0.5199 -0.2105 -0.6356
  797MPD2    H511751   1.117   1.983  17.002  0.3723 -0.0091 -0.9705
  797MPD2    N111752   0.824   1.788  17.315  0.3652 -0.3187  0.1905
  797MPD2    H711753   0.851   1.881  17.346 -1.7408  0.1702  0.5597
  798MPD2     C11754   0.835   2.487  17.072  0.9009  0.2296 -0.1674
  798MPD2    C111755   0.915   2.372  17.088 -0.7094  0.1341  0.3502
  798MPD2    C211756   0.889   2.281  17.192 -0.6809  0.3266  0.0409
  798MPD2    C311757   0.771   2.297  17.267 -0.0886  0.4473 -0.0177
  798MPD2    C411758   0.687   2.406  17.238  0.4741  0.0773 -0.1016
  798MPD2    C511759   0.715   2.498  17.140  0.2158 -0.2742  0.3964
  798MPD2     H11760   0.939   2.185  17.198 -0.2278  0.4616 -1.4828
  798MPD2    H111761   0.590   2.411  17.286  0.7169 -0.5340  0.4421
  798MPD2    H211762   0.855   2.546  16.984  0.9129 -1.3329 -1.2026
  798MPD2    H311763   0.645   2.579  17.127 -1.7195 -1.9603  0.2399
  798MPD2     N11764   0.729   2.198  17.357 -0.4952 -0.0898  0.3692
  798MPD2    H511765   0.796   2.122  17.360 -0.5647 -0.1592  0.1722
  798MPD2    N111766   1.021   2.350  16.996 -0.3572  0.1151 -0.6498
  798MPD2    H711767   1.033   2.417  16.920  0.4454  0.9044  0.1605
  799MPD2     C11768   0.199   3.719  14.196  0.3221 -0.0037  0.2086
  799MPD2    C111769   0.072   3.729  14.239 -0.5765  1.0739  0.6188
  799MPD2    C211770   4.698   3.777  14.156 -0.1796  0.1949 -0.4727
  799MPD2    C311771   0.007   3.830  14.029 -0.4057 -0.2130  0.3466
  799MPD2    C411772   0.139   3.823  13.988 -0.6167 -0.3215 -0.7100
  799MPD2    C511773   0.233   3.772  14.076 -0.6140  0.2861  0.4465
  799MPD2     H11774   4.604   3.796  14.207  0.2269  0.8895  0.0150
  799MPD2    H111775   0.177   3.880  13.904 -0.4626 -0.1194 -0.5031
  799MPD2    H211776   0.283   3.683  14.254  1.3013 -1.5694 -2.2371
  799MPD2    H311777   0.339   3.781  14.054 -1.5437  2.4703 -3.1327
  799MPD2     N11778   4.638   3.893  13.937 -0.1881 -1.1242  0.0621
  799MPD2    H511779   4.669   3.923  13.845  1.6667 -2.3403  0.2988
  799MPD2    N111780   0.024   3.689  14.363 -0.8457 -0.5835  0.5560
  799MPD2    H711781   4.657   3.726  14.393 -0.4906  1.4306 -0.8327
  800MPD2     C11782   0.132   4.471  13.775  0.5122 -0.4348 -0.0509
  800MPD2    C111783   0.266   4.471  13.756  0.0656  0.0900 -0.2817
  800MPD2    C211784   0.320   4.414  13.648  0.1470 -0.3530  0.0770
  800MPD2    C311785   0.236   4.349  13.559  0.1783 -0.2650  1.1319
  800MPD2    C411786   0.095   4.344  13.579 -0.4581  0.1660  0.4490
  800MPD2    C511787   0.045   4.411  13.690  0.8008  0.3853  0.6379
  800MPD2     H11788   0.428   4.404  13.639  0.3006  1.8635 -0.6816
  800MPD2    H111789   0.020   4.306  13.510 -0.3020  2.5353 -1.0403
  800MPD2    H211790   0.098   4.513  13.869  0.1777  0.5487 -0.6122
  800MPD2    H311791   4.660   4.424  13.697  0.5850 -2.3884  2.5042
  800MPD2     N11792   0.297   4.305  13.442  0.3551  0.1561  0.6976
  800MPD2    H511793   0.398   4.315  13.435  0.3297 -1.0291 -1.2349
  800MPD2    N111794   0.336   4.548  13.854 -0.4371  0.1893  0.8583
  800MPD2    H711795   0.274   4.601  13.914 -0.7129 -0.7669  1.4197
  801MPD2     C11796   0.126   0.455  14.162  0.4233  0.0946 -0.0649
  801MPD2    C111797   0.214   0.366  14.218 -0.0485  0.3578 -0.2136
  801MPD2    C211798   0.189   0.322  14.348  0.2363  0.0900  0.0335
  801MPD2    C311799   0.071   0.358  14.412  0.8168 -0.4408 -0.2132
  801MPD2    C411800   4.720   0.462  14.363  0.1677  0.1812 -0.1041
  801MPD2    C511801   0.028   0.517  14.242  0.0878  0.4903  0.7534
  801MPD2     H11802   0.255   0.246  14.388 -0.2685 -0.2961  0.1357
  801MPD2    H111803   4.638   0.494  14.426  1.0188 -0.2544  1.2208
  801MPD2    H211804   0.153   0.491  14.064  3.1298 -3.1255 -0.4892
  801MPD2    H311805   4.692   0.593  14.192  1.7523 -0.0380 -2.0224
  801MPD2     N11806   0.021   0.284  14.521 -0.2941 -0.5572  0.1617
  801MPD2    H511807   4.647   0.304  14.545  0.1344  2.7421 -0.9169
  801MPD2    N111808   0.330   0.314  14.157 -0.3146 -0.5264 -0.1432
  801MPD2    H711809   0.398   0.262  14.211  1.6786  0.2976 -1.8807
  802MPD2     C11810   0.213   4.711  17.323 -0.4650  0.1360  0.2208
  802MPD2    C111811   0.170   0.107  17.274 -0.0858 -0.3870 -0.0087
  802MPD2    C211812   0.177   0.149  17.139  0.1547 -0.2141  0.0950
  802MPD2    C311813   0.234   0.064  17.049 -0.3761  0.5939  0.0278
  802MPD2    C411814   0.275   4.666  17.093 -0.1498  0.2359  0.0905
  802MPD2    C511815   0.269   4.621  17.227  0.2397 -0.0844 -0.5199
  802MPD2     H11816   0.147   0.250  17.111  0.9223  0.4459  1.6507
  802MPD2    H111817   0.305   4.600  17.012  0.4677  2.9563 -1.9134
  802MPD2    H211818   0.196   4.676  17.423  0.5151  1.3592  0.8263
  802MPD2    H311819   0.283   4.518  17.259  1.9475  0.5343  0.7785
  802MPD2     N11820   0.257   0.116  16.922  0.3141  0.7387  0.2810
  802MPD2    H511821   0.198   0.191  16.887 -2.1129 -0.5423  1.6883
  802MPD2    N111822   0.118   0.205  17.362 -0.2921  0.2991 -0.3551
  802MPD2    H711823   0.108   0.294  17.314 -0.0644 -0.6930 -2.2301
  803MPD2     C11824   1.169   4.411  11.663  0.0864  0.6880 -0.3944
  803MPD2    C111825   1.128   4.451  11.789  0.1415  0.1193 -0.9158
  803MPD2    C211826   1.071   4.361  11.879 -0.3569  0.4939  0.4444
  803MPD2    C311827   1.069   4.227  11.850 -0.0662 -0.4067  0.7432
  803MPD2    C411828   1.111   4.193  11.724  0.2918 -0.1853  0.3040
  803MPD2    C511829   1.158   4.275  11.628 -0.0727  0.1880  0.7185
  803MPD2     H11830   1.033   4.386  11.977 -0.0020 -0.1228  0.7378
  803MPD2    H111831   1.105   4.090  11.692 -0.3611 -0.5101  1.4863
  803MPD2    H211832   1.207   4.482  11.590 -1.0250  0.2072 -1.4478
  803MPD2    H311833   1.188   4.239  11.530 -0.5621  1.0747  0.2406
  803MPD2     N11834   1.030   4.136  11.955  0.3998  0.2444  0.8392
  803MPD2    H511835   0.994   4.181  12.039 -1.4698 -2.0696  1.2583
  803MPD2    N111836   1.173   4.577  11.827  0.1710  0.0168 -1.0509
  803MPD2    H711837   1.233   4.629  11.764 -0.0940  0.3078 -1.0610
  804MPD2     C11838   0.622   0.650  16.945 -0.2635 -0.2112  0.2497
  804MPD2    C111839   0.642   0.610  17.074  0.3410  0.1062 -0.7170
  804MPD2    C211840   0.679   0.706  17.163  0.2767 -0.0399  0.0577
  804MPD2    C311841   0.697   0.837  17.122 -0.3378  0.2631 -0.5467
  804MPD2    C411842   0.695   0.867  16.990  0.0735  0.1878 -0.3085
  804MPD2    C511843   0.644   0.779  16.909  0.1649  0.0518 -0.4271
  804MPD2     H11844   0.690   0.689  17.270 -1.3025  0.6236  0.3317
  804MPD2    H111845   0.685   0.967  16.950  1.5393  1.0110  1.3337
  804MPD2    H211846   0.584   0.580  16.871 -0.3351 -0.1240  0.2036
  804MPD2    H311847   0.632   0.804  16.804  0.6874  0.4805 -0.3863
  804MPD2     N11848   0.734   0.941  17.211 -0.5452 -0.0555  0.0405
  804MPD2    H511849   0.760   1.029  17.167 -1.7566  0.5825  0.6045
  804MPD2    N111850   0.617   0.479  17.128  0.2287 -0.1949  0.5416
  804MPD2    H711851   0.646   0.471  17.225 -0.3189  0.5600  0.7665
  805MPD2     C11852   4.676   3.392  15.454  0.2210  0.5747 -0.4120
  805MPD2    C111853   4.646   3.517  15.495  0.2743 -0.2502  0.1511
  805MPD2    C211854   4.719   3.583  15.592 -0.6111 -0.6813  0.2859
  805MPD2    C311855   0.113   3.523  15.641  0.0268 -0.6778 -0.6369
  805MPD2    C411856   0.139   3.392  15.607 -0.2803  0.8576  0.6843
  805MPD2    C511857   0.056   3.329  15.517  0.8838 -0.1990  0.3482
  805MPD2     H11858   4.702   3.686  15.624  0.6934  0.4855 -2.7622
  805MPD2    H111859   0.226   3.334  15.635 -1.9591 -2.2514 -0.6050
  805MPD2    H211860   4.617   3.344  15.377 -0.4396 -0.4208  0.7032
  805MPD2    H311861   0.089   3.230  15.487 -2.1031 -0.6499 -1.4446
  805MPD2     N11862   0.196   3.601  15.720  0.8053  0.0819 -0.6087
  805MPD2    H511863   0.158   3.695  15.731  2.7543  0.6873  1.0210
  805MPD2    N111864   4.539   3.573  15.427  0.5639 -0.4882  0.0585
  805MPD2    H711865   4.510   3.543  15.334 -1.3308  0.9083  0.2063
  806MPD2     C11866   0.562   3.435   0.699 -0.4254  0.1717 -0.4821
  806MPD2    C111867   0.676   3.356   0.715  0.4584 -0.3982  0.4984
  806MPD2    C211868   0.719   3.292   0.595 -0.3771  0.6154  0.4381
  806MPD2    C311869   0.652   3.318   0.476 -0.1313 -0.2471 -0.4486
  806MPD2    C411870   0.541   3.401   0.467  0.0723 -0.0950  0.2025
  806MPD2    C511871   0.491   3.456   0.582  0.0693 -0.2329 -0.0710
  806MPD2     H11872   0.815   3.241   0.597 -0.3717  0.4769 -2.5461
  806MPD2    H111873   0.489   3.414   0.373 -2.6340 -3.6855  1.1781
  806MPD2    H211874   0.526   3.491   0.785 -2.5780 -3.0709  0.7558
  806MPD2    H311875   0.411   3.528   0.574  2.3402  2.4005  0.7533
  806MPD2     N11876   0.694   3.270   0.350  0.2913  0.7988  0.2639
  806MPD2    H511877   0.645   3.295   0.264 -1.7301  1.0036  1.4841
  806MPD2    N111878   0.744   3.360   0.840  0.5204 -0.3016  0.2483
  806MPD2    H711879   0.694   3.413   0.911  1.1128 -0.0647  0.4826
  807MPD2     C11880   1.125   3.200   1.624  0.0157  0.0681 -0.3485
  807MPD2    C111881   1.009   3.189   1.547  0.1808 -0.4880  0.6292
  807MPD2    C211882   0.897   3.123   1.600  0.3201 -0.1615 -0.6715
  807MPD2    C311883   0.914   3.050   1.719  0.3819  0.1376  0.8337
  807MPD2    C411884   1.032   3.062   1.794 -1.2668  0.0331  0.1715
  807MPD2    C511885   1.134   3.138   1.738 -0.9932  0.5704 -0.0810
  807MPD2     H11886   0.806   3.114   1.543 -1.2584 -0.8826  1.9834
  807MPD2    H111887   1.042   3.028   1.896 -0.8097  0.5587  0.3040
  807MPD2    H211888   1.209   3.246   1.573  1.8453 -3.0668 -0.1576
  807MPD2    H311889   1.224   3.150   1.797 -1.6377  1.5155  0.7032
  807MPD2     N11890   0.807   2.965   1.753  0.0047 -0.5746 -0.6767
  807MPD2    H511891   0.732   2.958   1.685 -0.0448 -2.1382 -0.4603
  807MPD2    N111892   1.016   3.244   1.411 -0.5436  0.4862  0.2037
  807MPD2    H711893   1.105   3.292   1.398  0.0848 -0.5189  0.7634
  808MPD2     C11894   4.319   0.568   8.445  0.7218  0.5649  0.2197
  808MPD2    C111895   4.282   0.572   8.578  0.0408  0.2765  0.4419
  808MPD2    C211896   4.352   0.643   8.675  0.7260  0.4668 -0.4965
  808MPD2    C311897   4.465   0.709   8.634 -0.6301 -0.1897 -0.8023
  808MPD2    C411898   4.512   0.697   8.504 -0.3770  0.1877  0.3732
  808MPD2    C511899   4.437   0.628   8.411  0.1829  0.8190  0.5523
  808MPD2     H11900   4.329   0.646   8.781 -2.3441  0.5599 -1.1655
  808MPD2    H111901   4.588   0.761   8.460 -0.3145  0.7859  1.3522
  808MPD2    H211902   4.261   0.530   8.362 -1.3687 -0.1203  1.9756
  808MPD2    H311903   4.445   0.646   8.304  0.2429  1.5526  0.6804
  808MPD2     N11904   4.551   0.774   8.719  0.6193  0.5097 -0.0756
  808MPD2    H511905   4.644   0.795   8.685  0.7813  0.0836  0.1077
  808MPD2    N111906   4.158   0.509   8.622  0.1632 -0.8012  0.4661
  808MPD2    H711907   4.128   0.528   8.717  0.0185 -0.2367  0.3038
  809MPD2     C11908   0.606   0.599   8.557 -0.0394  0.4858  0.6793
  809MPD2    C111909   0.623   0.612   8.692 -0.3616 -0.2075  0.4829
  809MPD2    C211910   0.529   0.687   8.761 -0.4365 -0.1750  0.0126
  809MPD2    C311911   0.418   0.729   8.689 -0.1227  0.2111  0.5600
  809MPD2    C411912   0.406   0.731   8.555 -0.7152  0.4237 -0.5599
  809MPD2    C511913   0.499   0.662   8.491  0.2048 -0.2620  0.2626
  809MPD2     H11914   0.529   0.689   8.869  1.4704 -1.5453  0.0440
  809MPD2    H111915   0.316   0.767   8.506 -1.9353 -0.6943  0.8441
  809MPD2    H211916   0.668   0.541   8.491 -0.5799  0.0118  0.5851
  809MPD2    H311917   0.477   0.643   8.387  1.4933 -1.0497  0.1261
  809MPD2     N11918   0.301   0.786   8.759 -0.1094  0.4803  0.4404
  809MPD2    H511919   0.226   0.818   8.699  0.0249  1.9213  1.0437
  809MPD2    N111920   0.722   0.550   8.771 -0.2454  0.1687 -0.4625
  809MPD2    H711921   0.702   0.544   8.870  0.6725 -1.4381 -0.3706
  810MPD2     C11922   4.515   3.485  10.164  0.2784  0.0417  0.4909
  810MPD2    C111923   4.450   3.603  10.138  0.0561 -0.2017 -0.3697
  810MPD2    C211924   4.508   3.718  10.196  0.1471  0.1955 -0.1585
  810MPD2    C311925   4.621   3.726  10.272  0.0221 -0.1485  0.4626
  810MPD2    C411926   4.683   3.597  10.301 -0.2652 -0.0293  0.0969
  810MPD2    C511927   4.622   3.487  10.249 -0.2243 -0.2878  0.0387
  810MPD2     H11928   4.466   3.811  10.159  0.2544 -0.3208 -1.5551
  810MPD2    H111929   0.046   3.586  10.367 -0.6409 -1.7197  0.3017
  810MPD2    H211930   4.479   3.390  10.127  3.6934 -0.9768 -0.2321
  810MPD2    H311931   4.658   3.388  10.273 -1.0303 -0.7328 -0.5596
  810MPD2     N11932   4.669   3.848  10.329  0.1496 -0.3538 -0.1256
  810MPD2    H511933   0.038   3.845  10.372 -0.2451  1.3107  0.8126
  810MPD2    N111934   4.328   3.595  10.072  0.4093 -0.3078  0.1398
  810MPD2    H711935   4.289   3.504  10.052  3.1973 -2.0550  2.7488
  811MPD2     C11936   3.523   3.919   9.730 -0.0242  0.2736  0.5434
  811MPD2    C111937   3.655   3.947   9.737  0.1523 -0.5431 -0.3827
  811MPD2    C211938   3.693   4.082   9.699 -0.5332 -0.3117  0.1100
  811MPD2    C311939   3.603   4.180   9.662 -0.8332 -0.8025  0.0867
  811MPD2    C411940   3.476   4.146   9.643  0.0477 -0.4033 -0.0163
  811MPD2    C511941   3.433   4.017   9.680 -0.0825 -0.0302  0.7454
  811MPD2     H11942   3.797   4.114   9.705 -0.3979 -0.2951 -2.2720
  811MPD2    H111943   3.408   4.222   9.606  0.0473 -0.3317  0.1301
  811MPD2    H211944   3.493   3.816   9.744  0.7256 -0.2342 -1.6514
  811MPD2    H311945   3.328   3.992   9.676 -0.3651  1.0446  1.2757
  811MPD2     N11946   3.658   4.304   9.630  0.0193  0.6623 -0.4331
  811MPD2    H511947   3.752   4.322   9.662 -0.0499 -0.0646  0.1606
  811MPD2    N111948   3.739   3.849   9.791 -0.5321 -0.2298 -1.0202
  811MPD2    H711949   3.694   3.760   9.811 -2.0490  1.0082  1.1993
  812MPD2     C11950   3.444   3.761  11.955 -0.5347  0.4118 -0.1330
  812MPD2    C111951   3.536   3.859  11.998  0.1295  0.5306 -1.0713
  812MPD2    C211952   3.631   3.825  12.089  0.0943  0.2248  0.1633
  812MPD2    C311953   3.648   3.697  12.134 -0.0121 -0.6165 -0.2458
  812MPD2    C411954   3.555   3.603  12.098  0.1431 -0.1929 -0.3527
  812MPD2    C511955   3.451   3.634  12.013 -0.5803  0.9995  0.2717
  812MPD2     H11956   3.709   3.893  12.120  0.4770 -0.4201  0.6290
  812MPD2    H111957   3.567   3.505  12.141  1.6802  1.8801  3.9237
  812MPD2    H211958   3.366   3.784  11.884  0.6572  1.9368 -0.9342
  812MPD2    H311959   3.385   3.550  11.996  0.8012 -0.2262  1.0807
  812MPD2     N11960   3.764   3.677  12.218  0.4368  0.4615 -0.8091
  812MPD2    H511961   3.829   3.754  12.227 -0.1015  0.8619 -0.3176
  812MPD2    N111962   3.523   3.990  11.942  0.1394  0.1473 -0.3527
  812MPD2    H711963   3.432   3.998  11.897  0.1295 -1.2175 -0.5561
  813MPD2     C11964   2.091   1.328  12.603  0.6109  0.0574  0.1960
  813MPD2    C111965   2.198   1.308  12.683  0.3731 -0.1646  0.5624
  813MPD2    C211966   2.168   1.292  12.821  0.4397 -0.3320 -0.4243
  813MPD2    C311967   2.045   1.279  12.875  0.9806  0.3567 -0.3655
  813MPD2    C411968   1.934   1.278  12.787 -0.4857 -0.4277  0.2533
  813MPD2    C511969   1.965   1.316  12.657  0.6409  0.0001  0.6939
  813MPD2     H11970   2.252   1.308  12.888  2.4248 -2.2480 -2.4809
  813MPD2    H111971   1.838   1.274  12.837 -0.1525  1.9138  1.0429
  813MPD2    H211972   2.103   1.344  12.496  1.2657  1.4794  0.4875
  813MPD2    H311973   1.881   1.330  12.590  1.0426  0.8867  0.3838
  813MPD2     N11974   2.036   1.267  13.013  0.8241  0.3087 -0.4275
  813MPD2    H511975   2.128   1.265  13.057 -0.2695  2.0346  1.9436
  813MPD2    N111976   2.332   1.320  12.633 -0.0661 -0.5725  0.4354
  813MPD2    H711977   2.343   1.348  12.536 -0.9503  0.6503  0.6945
  814MPD2     C11978   2.818   2.623  11.910 -0.2651  0.2184 -0.1922
  814MPD2    C111979   2.913   2.613  11.813  0.1650  0.1081  0.0213
  814MPD2    C211980   3.021   2.698  11.820 -0.5143  0.0270 -0.0543
  814MPD2    C311981   3.046   2.775  11.928 -0.1760  0.0030 -0.6721
  814MPD2    C411982   2.948   2.785  12.026  0.0903 -0.0934 -0.4318
  814MPD2    C511983   2.839   2.703  12.023 -0.0367 -0.0737 -0.5911
  814MPD2     H11984   3.085   2.714  11.734 -0.8301  2.1720  0.1067
  814MPD2    H111985   2.970   2.843  12.115  0.1189  0.9916 -1.1594
  814MPD2    H211986   2.724   2.569  11.909  0.8840 -1.7925 -0.1315
  814MPD2    H311987   2.762   2.710  12.099  0.3133  0.9870 -0.3414
  814MPD2     N11988   3.169   2.845  11.951  0.4022  0.5305 -0.3355
  814MPD2    H511989   3.175   2.885  12.044 -0.1279  0.9463 -0.4774
  814MPD2    N111990   2.902   2.521  11.703 -0.5091 -0.5928  0.3204
  814MPD2    H711991   2.959   2.527  11.619 -1.0625  1.6403  0.1255
  815MPD2     C11992   3.809   1.206  11.712 -0.1233  0.2415  0.4038
  815MPD2    C111993   3.878   1.088  11.728  0.1496 -0.4036  0.7103
  815MPD2    C211994   3.843   1.001  11.827 -0.5439 -0.1184  0.4394
  815MPD2    C311995   3.731   1.029  11.906 -0.1274 -0.3851 -0.6805
  815MPD2    C411996   3.668   1.149  11.894 -0.2455  0.0410 -0.2087
  815MPD2    C511997   3.705   1.233  11.795 -0.1651 -0.0961  0.0238
  815MPD2     H11998   3.899   0.910  11.842 -1.0850 -0.0515  2.8637
  815MPD2    H111999   3.592   1.176  11.966  0.5896 -0.0112  0.6914
  815MPD2    H212000   3.824   1.272  11.627 -1.7756 -0.8359 -0.7334
  815MPD2    H312001   3.642   1.321  11.791 -0.8868 -0.6446 -0.5856
  815MPD2     N12002   3.688   0.925  11.991 -0.4099  0.1876 -0.5870
  815MPD2    H512003   3.726   0.832  11.977 -3.7535 -1.5425  1.7887
  815MPD2    N112004   3.990   1.053  11.644 -0.7146  0.1435 -0.4034
  815MPD2    H712005   4.020   1.125  11.579  1.2246  1.2647  1.7143
  816MPD2     C12006   3.641   4.626  17.144 -0.0064  0.6585  0.1828
  816MPD2    C112007   3.714   0.014  17.184  0.6269 -0.5582  0.3855
  816MPD2    C212008   3.845   0.028  17.145 -0.2295  0.1443  0.0743
  816MPD2    C312009   3.899   4.651  17.058  0.8956 -0.2251  0.1433
  816MPD2    C412010   3.826   4.538  17.026  0.1792  0.4890  0.3748
  816MPD2    C512011   3.701   4.518  17.080 -1.2746 -0.4670  0.7335
  816MPD2     H12012   3.903   0.116  17.168 -0.9230  1.1042 -1.9277
  816MPD2    H112013   3.870   4.456  16.970 -0.0704  1.6941 -1.5733
  816MPD2    H212014   3.538   4.614  17.177 -0.3838  0.9577 -0.8914
  816MPD2    H312015   3.650   4.428  17.049  0.7620 -1.5894  0.6308
  816MPD2     N12016   4.029   4.676  17.011  0.5724  0.1062  0.9046
  816MPD2    H512017   4.068   0.042  17.042 -1.2208  0.4879  2.0656
  816MPD2    N112018   3.653   0.115  17.255 -0.0180  0.4905 -0.3361
  816MPD2    H712019   3.552   0.105  17.255  0.1395 -1.0717 -0.3641
  817MPD2     C12020   2.962   1.735   9.805 -0.0592  0.4696  0.4102
  817MPD2    C112021   2.986   1.678   9.679  0.0680 -0.6381 -0.0752
  817MPD2    C212022   2.920   1.735   9.570 -0.7885 -0.2505  0.2683
  817MPD2    C312023   2.828   1.836   9.588  0.2183 -0.4430  0.0395
  817MPD2    C412024   2.815   1.894   9.711  0.1421 -0.4598  0.5691
  817MPD2    C512025   2.878   1.840   9.818 -0.7618 -0.4823 -0.4607
  817MPD2     H12026   2.937   1.691   9.472 -1.0705 -0.7258  0.4309
  817MPD2    H112027   2.740   1.971   9.722  0.6915 -0.1562  2.2615
  817MPD2    H212028   3.017   1.703   9.893 -0.2401 -0.3039  0.2460
  817MPD2    H312029   2.849   1.890   9.910 -1.1223 -0.1992 -0.7272
  817MPD2     N12030   2.745   1.878   9.470 -0.5023 -0.2186 -0.2126
  817MPD2    H512031   2.747   1.821   9.385  3.8686  1.1319 -0.9822
  817MPD2    N112032   3.073   1.567   9.652 -0.2822  0.7271  0.2694
  817MPD2    H712033   3.064   1.529   9.558 -1.1080 -0.3465  0.7808
  818MPD2     C12034   1.348   1.472   9.923  0.0439 -0.0664  0.3808
  818MPD2    C112035   1.458   1.488   9.845  0.2141  0.2511  0.3223
  818MPD2    C212036   1.526   1.377   9.805  0.5432  0.3575  0.2235
  818MPD2    C312037   1.483   1.251   9.846 -0.7034 -0.1325  0.9400
  818MPD2    C412038   1.372   1.231   9.924 -0.1788  0.2958  0.3300
  818MPD2    C512039   1.303   1.348   9.956  0.1799  0.1032 -0.6138
  818MPD2     H12040   1.626   1.392   9.766  0.0108 -0.3482 -1.4156
  818MPD2    H112041   1.348   1.134   9.967  0.0343 -0.4874 -1.3125
  818MPD2    H212042   1.294   1.559   9.960 -0.3645  0.1917 -0.8314
  818MPD2    H312043   1.214   1.338  10.017  1.6499  0.2294  1.5452
  818MPD2     N12044   1.548   1.133   9.806  0.3905 -0.5504 -0.6440
  818MPD2    H512045   1.520   1.052   9.861  0.3142 -0.6189 -0.7833
  818MPD2    N112046   1.526   1.607   9.836 -0.0082  0.4535 -0.2463
  818MPD2    H712047   1.608   1.595   9.778 -0.0644  0.4789 -0.3311
  819MPD2     C12048   0.463   3.375  15.485 -0.5184 -0.2265 -0.6915
  819MPD2    C112049   0.491   3.244  15.451 -0.2578  0.7856 -0.6721
  819MPD2    C212050   0.612   3.191  15.490 -0.9618 -0.4321 -0.0945
  819MPD2    C312051   0.704   3.261  15.566 -0.1424 -0.6605 -0.2228
  819MPD2    C412052   0.676   3.391  15.604 -0.1476  0.1753  0.3948
  819MPD2    C512053   0.556   3.444  15.561 -0.1696 -0.3209 -0.4484
  819MPD2     H12054   0.643   3.091  15.462 -1.4324 -0.3035 -1.0756
  819MPD2    H112055   0.748   3.455  15.653  1.1431  0.2755 -1.6239
  819MPD2    H212056   0.377   3.430  15.448 -1.4946 -1.1649  0.1993
  819MPD2    H312057   0.531   3.548  15.578  2.2148 -0.1784  2.2154
  819MPD2     N12058   0.825   3.203  15.604  0.2520  0.0361 -0.2690
  819MPD2    H512059   0.857   3.121  15.554 -1.2026 -0.6045 -0.1358
  819MPD2    N112060   0.395   3.179  15.367  0.1853 -0.5003  0.1304
  819MPD2    H712061   0.327   3.237  15.319 -0.6621 -1.1550  0.5383
  820MPD2     C12062   4.226   3.215  14.931  1.4052  0.6282 -0.1077
  820MPD2    C112063   4.319   3.285  14.998  0.3343  0.8235  0.0886
  820MPD2    C212064   4.433   3.217  15.045 -0.5265 -0.3414 -0.4865
  820MPD2    C312065   4.460   3.081  15.019  1.6158  0.3020 -0.3605
  820MPD2    C412066   4.358   3.015  14.949  0.1675  0.1442 -0.5644
  820MPD2    C512067   4.242   3.083  14.915  0.6246 -0.7174  0.4732
  820MPD2     H12068   4.508   3.275  15.098 -0.1936  0.9878 -2.3906
  820MPD2    H112069   4.367   2.912  14.916  0.2881 -0.2780  0.7721
  820MPD2    H212070   4.128   3.258  14.911  0.5419 -1.2754  0.0666
  820MPD2    H312071   4.162   3.029  14.866 -0.1776  0.2686  0.6865
  820MPD2     N12072   4.577   3.016  15.066 -0.2503 -0.2763 -0.0644
  820MPD2    H512073   4.581   2.915  15.057 -1.8526 -0.1439 -2.2357
  820MPD2    N112074   4.298   3.424  15.029 -0.0768 -0.5885  0.3157
  820MPD2    H712075   4.214   3.467  14.992  1.2892  1.6054 -0.2234
  821MPD2     C12076   0.310   4.695  12.771 -0.1386  0.0813  0.2803
  821MPD2    C112077   0.404   4.680  12.862  0.2455  0.4044  0.4344
  821MPD2    C212078   0.493   0.064  12.879  0.7545 -0.5384  0.1758
  821MPD2    C312079   0.476   0.185  12.815  0.9664  0.2806  0.1265
  821MPD2    C412080   0.365   0.195  12.730 -0.2037 -0.1453  0.0230
  821MPD2    C512081   0.282   0.090  12.703 -0.5089  0.6388 -0.4818
  821MPD2     H12082   0.572   0.054  12.953  1.0825  0.9393  0.0298
  821MPD2    H112083   0.331   0.290  12.691  0.9736 -0.2820 -1.2998
  821MPD2    H212084   0.244   4.611  12.753  2.3999 -1.2775 -2.8180
  821MPD2    H312085   0.189   0.096  12.646 -1.0219 -0.0264  0.2830
  821MPD2     N12086   0.558   0.302  12.837 -0.3576  0.1469 -0.3591
  821MPD2    H512087   0.544   0.380  12.773  3.0643  1.3045  0.3128
  821MPD2    N112088   0.419   4.569  12.950 -0.5950 -0.2204 -0.8893
  821MPD2    H712089   0.476   4.599  13.029 -1.9070 -0.6008  0.1958
  822MPD2     C12090   0.971   0.212  15.516 -0.4114 -0.6332 -0.6122
  822MPD2    C112091   0.976   0.148  15.641  0.3845 -0.5595  0.5978
  822MPD2    C212092   0.945   0.222  15.753  0.1803  0.3892 -0.1934
  822MPD2    C312093   0.900   0.353  15.746 -0.1300  0.0450  0.9233
  822MPD2    C412094   0.885   0.409  15.622 -0.5939  0.2418 -0.0553
  822MPD2    C512095   0.924   0.338  15.509 -1.1259  1.2135  0.5672
  822MPD2     H12096   0.965   0.180  15.851 -0.3625 -0.7828 -0.5875
  822MPD2    H112097   0.845   0.509  15.613 -1.2164  0.0635  0.7716
  822MPD2    H212098   1.002   0.162  15.425  1.2229  1.3753 -1.1670
  822MPD2    H312099   0.922   0.403  15.422  0.1221  1.2252  0.5439
  822MPD2     N12100   0.872   0.419  15.873  0.2711  0.6889  0.3656
  822MPD2    H512101   0.885   0.367  15.959  0.4360 -1.3465 -0.8862
  822MPD2    N112102   1.039   0.026  15.661  0.7252  0.0173 -0.3444
  822MPD2    H712103   1.054   0.002  15.759 -2.8630 -0.9217 -0.0061
  823MPD2     C12104   0.791   0.404  16.695 -0.3844  0.3759  0.2778
  823MPD2    C112105   0.806   0.344  16.575  0.4650  0.5410 -0.7144
  823MPD2    C212106   0.849   0.210  16.571  0.1273 -0.1876  0.4343
  823MPD2    C312107   0.886   0.152  16.690  0.2230 -0.4665 -0.2043
  823MPD2    C412108   0.877   0.218  16.811 -0.1697 -0.2060 -0.3043
  823MPD2    C512109   0.824   0.346  16.814  0.7623  0.0828  0.0623
  823MPD2     H12110   0.856   0.143  16.485 -0.8742  2.0586 -1.4026
  823MPD2    H112111   0.915   0.183  16.906 -0.5887  2.1143  0.7252
  823MPD2    H212112   0.761   0.508  16.690 -1.9923 -0.0741  0.5933
  823MPD2    H312113   0.823   0.405  16.905 -0.2758  2.3818 -1.4508
  823MPD2     N12114   0.952   0.025  16.706  0.5333 -0.1882  0.0635
  823MPD2    H512115   0.986   0.009  16.800  0.7764 -0.9847 -0.1658
  823MPD2    N112116   0.799   0.425  16.460  0.3436 -0.1587  0.0376
  823MPD2    H712117   0.786   0.525  16.474 -1.3393 -0.3711 -0.0791
  824MPD2     C12118   1.266   3.938  15.434 -0.5230 -0.6347 -0.3569
  824MPD2    C112119   1.362   4.022  15.467 -0.0093 -0.7088 -0.5423
  824MPD2    C212120   1.493   4.008  15.431  0.4156 -0.3404 -0.2499
  824MPD2    C312121   1.531   3.901  15.364  0.0852 -0.1878  0.3879
  824MPD2    C412122   1.437   3.813  15.318 -0.0087  0.2370  0.5260
  824MPD2    C512123   1.304   3.843  15.350  0.3186  0.4521 -0.4994
  824MPD2     H12124   1.570   4.081  15.453 -1.2024  0.7353  1.7827
  824MPD2    H112125   1.444   3.732  15.246  0.4008 -0.1109  0.9610
  824MPD2    H212126   1.161   3.951  15.459 -0.3467 -1.8986  1.0573
  824MPD2    H312127   1.224   3.778  15.316  0.9921 -0.2116 -0.8335
  824MPD2     N12128   1.667   3.884  15.353 -0.4296 -0.2184 -0.0940
  824MPD2    H512129   1.723   3.959  15.393 -0.0517 -0.9682  0.7745
  824MPD2    N112130   1.326   4.138  15.542  0.4918  0.0447 -0.1629
  824MPD2    H712131   1.407   4.185  15.582 -0.8054  1.9865  0.1669
  825MPD2     C12132   2.495   4.098  15.277 -0.1878 -0.3592  0.5241
  825MPD2    C112133   2.364   4.124  15.257 -0.5845 -0.0667 -0.4568
  825MPD2    C212134   2.333   4.255  15.214  0.2542 -0.1384  0.3849
  825MPD2    C312135   2.431   4.341  15.190  0.0329 -0.9855  0.4877
  825MPD2    C412136   2.564   4.301  15.203 -0.7523 -0.1133  0.7905
  825MPD2    C512137   2.598   4.184  15.258  0.2188 -0.0813  0.5511
  825MPD2     H12138   2.228   4.281  15.212  0.3754  0.3420  0.1579
  825MPD2    H112139   2.642   4.373  15.180 -0.7304  0.0334  1.3171
  825MPD2    H212140   2.530   4.002  15.314 -0.8770 -0.8305 -0.0388
  825MPD2    H312141   2.701   4.166  15.285  1.6106  4.0763 -1.9093
  825MPD2     N12142   2.408   4.478  15.156  0.5024 -0.4727 -0.1600
  825MPD2    H512143   2.488   4.538  15.173 -1.7586  3.0250 -2.0173
  825MPD2    N112144   2.269   4.024  15.277  0.2053  0.0629 -0.2708
  825MPD2    H712145   2.305   3.945  15.329 -3.6904 -1.9867 -0.6867
  826MPD2     C12146   2.179   4.043  13.646 -0.1838  0.5222 -0.1655
  826MPD2    C112147   2.124   4.067  13.528 -0.1792 -0.5278 -0.0766
  826MPD2    C212148   2.027   4.172  13.520 -0.0445  0.3370 -0.0039
  826MPD2    C312149   2.017   4.265  13.629  0.3613  0.4327  0.1732
  826MPD2    C412150   2.091   4.244  13.745  0.0186 -0.0027  0.1365
  826MPD2    C512151   2.170   4.130  13.751 -0.1439 -0.1536  0.7933
  826MPD2     H12152   1.970   4.207  13.434  0.2738  1.9048  0.4169
  826MPD2    H112153   2.099   4.314  13.826 -1.4826 -0.2376  0.4948
  826MPD2    H212154   2.249   3.961  13.663  0.6977  1.1546 -0.7191
  826MPD2    H312155   2.207   4.123  13.852  4.3746  1.9608 -0.7227
  826MPD2     N12156   1.924   4.374  13.624 -0.1367  0.5004 -0.0949
  826MPD2    H512157   1.859   4.379  13.546  0.8374  3.0082 -0.7593
  826MPD2    N112158   2.162   3.987  13.419  0.2725 -0.2887  0.6882
  826MPD2    H712159   2.219   3.904  13.431 -1.2296 -1.4680 -0.3292
  827MPD2     C12160   3.124   0.904   9.843  0.2893  0.4300  0.0065
  827MPD2    C112161   3.072   0.795   9.909  0.4192  0.9790 -0.3175
  827MPD2    C212162   2.946   0.749   9.862  0.1333 -0.6600  0.6817
  827MPD2    C312163   2.880   0.816   9.763  0.3386 -0.3033  0.0247
  827MPD2    C412164   2.928   0.934   9.719  0.5606  0.0688 -0.7675
  827MPD2    C512165   3.048   0.983   9.760  0.3460 -0.4181 -0.6409
  827MPD2     H12166   2.903   0.656   9.897  1.4351 -0.3137  3.2313
  827MPD2    H112167   2.870   1.000   9.655 -0.2917  1.8155  1.8204
  827MPD2    H212168   3.226   0.933   9.862  0.1650  1.8987 -1.5378
  827MPD2    H312169   3.101   1.070   9.723 -0.3553  0.2194 -0.1396
  827MPD2     N12170   2.754   0.771   9.717  0.3420 -0.0393 -0.3570
  827MPD2    H512171   2.732   0.683   9.763 -1.6395  0.6504 -0.0048
  827MPD2    N112172   3.142   0.743  10.014 -0.9615 -0.0671 -0.3191
  827MPD2    H712173   3.242   0.761  10.011 -0.9815 -0.0812 -1.1961
  828MPD2     C12174   0.956   0.424  12.491 -0.1926 -0.2764  0.0996
  828MPD2    C112175   0.973   0.448  12.351 -0.1944 -0.7140  1.4369
  828MPD2    C212176   1.102   0.462  12.292  0.4877  0.3873 -0.1745
  828MPD2    C312177   1.214   0.455  12.373  0.1308  0.1739  0.2427
  828MPD2    C412178   1.194   0.427  12.506  0.4921 -0.5698  0.1461
  828MPD2    C512179   1.072   0.416  12.568  0.3571  0.2397 -0.1659
  828MPD2     H12180   1.108   0.468  12.184  0.4991  1.2178 -0.1225
  828MPD2    H112181   1.278   0.441  12.572  1.1519  3.0883 -1.5103
  828MPD2    H212182   0.866   0.415  12.550 -1.8670 -0.0074 -2.4219
  828MPD2    H312183   1.054   0.410  12.674  2.3990  1.2124  0.2394
  828MPD2     N12184   1.344   0.454  12.321  0.0853  0.4560 -0.1451
  828MPD2    H512185   1.418   0.423  12.383  1.0484  0.6362 -1.2131
  828MPD2    N112186   0.857   0.461  12.259  0.1631 -0.8342  0.1358
  828MPD2    H712187   0.880   0.477  12.162 -0.8549  1.3484  0.2634
  829MPD2     C12188   0.966   0.571  11.467 -0.3408 -0.0729 -0.0136
  829MPD2    C112189   0.831   0.585  11.451  0.4870 -0.1882  0.4759
  829MPD2    C212190   0.744   0.558  11.557 -0.0893 -0.1061  0.0380
  829MPD2    C312191   0.799   0.544  11.682  0.4090 -0.2465  0.0265
  829MPD2    C412192   0.933   0.538  11.695 -0.5380  0.7327  0.3013
  829MPD2    C512193   1.021   0.547  11.592 -0.1819 -0.0289  0.2005
  829MPD2     H12194   0.637   0.553  11.541  0.3187 -0.9526 -2.4274
  829MPD2    H112195   0.971   0.534  11.797 -0.6343 -0.4018  0.2842
  829MPD2    H212196   1.031   0.572  11.380  1.2357 -2.3762  1.1220
  829MPD2    H312197   1.127   0.553  11.612 -0.2567  0.3386  0.4799
  829MPD2     N12198   0.733   0.511  11.803  0.3653 -0.2448  0.3030
  829MPD2    H512199   0.805   0.499  11.874 -1.7059 -1.3138  2.2341
  829MPD2    N112200   0.800   0.607  11.314 -0.0888  0.2884  0.0775
  829MPD2    H712201   0.884   0.617  11.259  0.4909 -2.6090  0.4330
  830MPD2     C12202   1.662   3.130  15.521  0.0541 -0.0783  0.1147
  830MPD2    C112203   1.542   3.134  15.455 -1.2456 -0.4567 -0.0165
  830MPD2    C212204   1.544   3.169  15.315 -0.4160 -0.3089  0.0579
  830MPD2    C312205   1.660   3.214  15.257  0.0294  0.2899  0.6751
  830MPD2    C412206   1.767   3.238  15.338 -0.1489  0.0673 -0.1934
  830MPD2    C512207   1.772   3.198  15.469  0.1192 -0.5984  0.1591
  830MPD2     H12208   1.448   3.165  15.265 -1.5508  0.2780  2.1470
  830MPD2    H112209   1.862   3.277  15.304  0.3186  1.2529  2.4537
  830MPD2    H212210   1.663   3.105  15.627  1.8747  1.1155  0.3862
  830MPD2    H312211   1.853   3.232  15.533 -1.3223  2.7322  0.2423
  830MPD2     N12212   1.677   3.249  15.119 -0.2406 -0.1474 -0.3031
  830MPD2    H512213   1.771   3.281  15.101 -0.2275 -0.1944 -0.3183
  830MPD2    N112214   1.427   3.090  15.525  0.7977  0.5408  0.3917
  830MPD2    H712215   1.444   3.045  15.615 -1.0958 -2.0412 -0.5451
  831MPD2     C12216   1.236   0.350  16.171 -0.1577  0.2656 -0.0533
  831MPD2    C112217   1.216   0.282  16.056 -0.1030 -0.3337 -0.3478
  831MPD2    C212218   1.133   0.172  16.057  0.5078 -0.2045  0.3978
  831MPD2    C312219   1.073   0.129  16.171 -0.2814  0.8410  0.1033
  831MPD2    C412220   1.091   0.203  16.285 -0.1124  0.2040 -0.0464
  831MPD2    C512221   1.173   0.312  16.287  0.9101  0.0630  0.1961
  831MPD2     H12222   1.121   0.126  15.959 -1.1310 -0.0151  0.5012
  831MPD2    H112223   1.048   0.168  16.378 -1.5803 -0.6076 -1.0432
  831MPD2    H212224   1.295   0.441  16.174 -0.8675  0.7814 -1.5522
  831MPD2    H312225   1.188   0.370  16.377 -1.2743  0.4385  0.3227
  831MPD2     N12226   0.978   0.019  16.168 -0.4542 -0.2124 -0.6036
  831MPD2    H512227   0.950   4.701  16.256  0.6544 -0.8383 -0.5445
  831MPD2    N112228   1.279   0.326  15.938 -0.2499  0.3348 -0.2948
  831MPD2    H712229   1.298   0.425  15.930  0.3841  0.2410  0.0235
  832MPD2     C12230   0.023   0.978  17.315 -0.8028 -0.4252  0.3328
  832MPD2    C112231   4.704   1.098  17.372 -0.2527 -0.1241 -0.2791
  832MPD2    C212232   4.575   1.144  17.335  0.0485  0.4023  0.3246
  832MPD2    C312233   4.492   1.069  17.258 -0.5701  0.4020  0.2929
  832MPD2    C412234   4.539   0.948  17.214  0.1632 -0.0996 -0.2253
  832MPD2    C512235   4.665   0.901  17.245  0.5589  0.0560 -0.3685
  832MPD2     H12236   4.542   1.235  17.385  2.5140 -1.0882  4.7078
  832MPD2    H112237   4.476   0.890  17.147  1.9263 -0.2787 -1.7338
  832MPD2    H212238   0.116   0.930  17.342 -0.5517  0.0873  0.3672
  832MPD2    H312239   4.696   0.803  17.210  1.1212  0.3351 -0.6530
  832MPD2     N12240   4.362   1.116  17.209 -0.5546  0.4354  0.2643
  832MPD2    H512241   4.309   1.059  17.144  1.5760 -2.2288  0.8195
  832MPD2    N112242   0.072   1.156  17.459 -0.2239  0.3806  0.6101
  832MPD2    H712243   0.155   1.107  17.490 -1.2952  0.2849  3.3337
  833MPD2     C12244   1.780   2.841  12.434  0.1659  0.0007 -0.4818
  833MPD2    C112245   1.721   2.847  12.307 -0.6731 -0.2531 -0.1976
  833MPD2    C212246   1.686   2.726  12.249  0.5784  0.0646 -0.0612
  833MPD2    C312247   1.706   2.598  12.318 -0.5156  0.5207 -0.3110
  833MPD2    C412248   1.764   2.597  12.440 -0.0948 -0.4420  0.0295
  833MPD2    C512249   1.805   2.721  12.497  0.1852  0.4517 -0.3207
  833MPD2     H12250   1.625   2.726  12.160  2.1545 -0.8287 -1.1338
  833MPD2    H112251   1.788   2.506  12.494  1.5295  0.2526  0.4864
  833MPD2    H212252   1.800   2.934  12.485  0.1824 -0.9691  1.2619
  833MPD2    H312253   1.850   2.715  12.596 -1.1090 -1.8850  0.1302
  833MPD2     N12254   1.662   2.476  12.258  0.0075 -0.3709 -0.0340
  833MPD2    H512255   1.690   2.392  12.307  0.8550  0.9405  1.7381
  833MPD2    N112256   1.697   2.980  12.257 -0.5100  0.1701 -0.3657
  833MPD2    H712257   1.741   3.058  12.306  2.2524 -2.0739  0.7132
  834MPD2     C12258   1.961   1.676  11.663 -0.6843 -0.1535 -0.9135
  834MPD2    C112259   1.861   1.721  11.583  0.0614  0.5096 -0.4540
  834MPD2    C212260   1.783   1.828  11.624 -0.0704 -0.0355  0.2521
  834MPD2    C312261   1.796   1.889  11.747 -0.3636 -0.6866 -0.7764
  834MPD2    C412262   1.908   1.846  11.821 -0.0254  0.7453  0.2904
  834MPD2    C512263   1.983   1.739  11.777 -0.0116  1.2075  0.0710
  834MPD2     H12264   1.695   1.864  11.571 -0.9113 -2.0536  0.3073
  834MPD2    H112265   1.946   1.891  11.912  1.8562 -0.0764 -0.0863
  834MPD2    H212266   2.015   1.585  11.642  2.5317  1.8219 -1.2067
  834MPD2    H312267   2.064   1.696  11.835 -0.4706  0.8103  0.4126
  834MPD2     N12268   1.709   1.990  11.797  0.9640  0.5774  0.2627
  834MPD2    H512269   1.635   2.026  11.738 -1.0220 -0.6526  1.9944
  834MPD2    N112270   1.839   1.649  11.459  0.0668  0.0488 -0.4286
  834MPD2    H712271   1.898   1.568  11.445 -0.3659 -0.2609 -0.4845
  835MPD2     C12272   1.601   0.293  10.795 -0.2227  0.2715 -0.0466
  835MPD2    C112273   1.537   0.415  10.794  0.1737  0.4872 -0.5323
  835MPD2    C212274   1.466   0.456  10.902  0.5026 -0.1982 -0.7974
  835MPD2    C312275   1.463   0.385  11.018  0.2586 -0.1083 -0.5411
  835MPD2    C412276   1.532   0.266  11.024 -1.1077 -0.1610 -0.0327
  835MPD2    C512277   1.600   0.224  10.908 -0.0373  0.1771 -0.4718
  835MPD2     H12278   1.429   0.558  10.903  0.3962 -0.2251 -1.7955
  835MPD2    H112279   1.529   0.207  11.114  1.5856 -0.5355 -0.1897
  835MPD2    H212280   1.652   0.264  10.704  2.5387  2.0004  0.9404
  835MPD2    H312281   1.664   0.137  10.915 -0.8014 -0.2529  1.2127
  835MPD2     N12282   1.427   0.445  11.143  0.1312  0.2750  0.6479
  835MPD2    H512283   1.464   0.397  11.224  1.1245  0.3155  0.2230
  835MPD2    N112284   1.530   0.507  10.683 -0.2086 -0.6919 -0.1916
  835MPD2    H712285   1.473   0.590  10.695 -0.5166 -1.3925  3.1025
  836MPD2     C12286   0.877   0.958  11.259 -0.4137 -0.5342  1.0676
  836MPD2    C112287   0.948   0.935  11.373  0.0887  0.0901  0.1042
  836MPD2    C212288   0.866   0.936  11.488 -0.2177  0.2010 -0.1949
  836MPD2    C312289   0.732   0.973  11.492 -0.3128 -0.0564  0.1897
  836MPD2    C412290   0.669   1.003  11.374  0.0918 -0.7244  0.5679
  836MPD2    C512291   0.743   0.984  11.259 -0.9460 -0.4123 -0.0099
  836MPD2     H12292   0.916   0.902  11.578 -1.4658  1.4783  0.9677
  836MPD2    H112293   0.566   1.036  11.365  1.2681  3.0993  1.2644
  836MPD2    H212294   0.925   0.952  11.162 -0.3875 -0.6057  1.0851
  836MPD2    H312295   0.692   0.986  11.164 -1.4758 -0.5274  0.2688
  836MPD2     N12296   0.655   0.980  11.611 -0.1915 -0.3896 -0.0249
  836MPD2    H512297   0.560   1.013  11.600 -0.2293 -0.1457  0.9980
  836MPD2    N112298   1.082   0.890  11.366 -0.0873  0.2751 -0.1438
  836MPD2    H712299   1.120   0.884  11.271  1.6373 -0.5472  0.6024
  837MPD2     C12300   4.035   0.224   9.915 -0.0850 -0.0929 -0.3217
  837MPD2    C112301   3.937   0.238   9.824  0.3524  0.2377 -0.3968
  837MPD2    C212302   3.881   0.360   9.797 -0.0969  1.1124 -0.0429
  837MPD2    C312303   3.907   0.466   9.873 -0.6196 -0.0201 -0.5969
  837MPD2    C412304   3.997   0.455   9.975  0.2122  0.3393 -0.2876
  837MPD2    C512305   4.059   0.337   9.996 -0.1138 -0.6698  0.1836
  837MPD2     H12306   3.820   0.374   9.709 -1.1027  0.0590  0.4963
  837MPD2    H112307   4.029   0.534  10.043  2.6169  0.0992 -1.1345
  837MPD2    H212308   4.084   0.131   9.938  1.7204  1.1121  0.7524
  837MPD2    H312309   4.131   0.333  10.077 -1.9036  0.1781  1.8472
  837MPD2     N12310   3.860   0.588   9.834 -0.1833  0.0147  0.3915
  837MPD2    H512311   3.800   0.588   9.752 -0.6613 -3.5474  0.7380
  837MPD2    N112312   3.886   0.133   9.750 -0.2333 -0.2768 -0.0191
  837MPD2    H712313   3.805   0.154   9.692 -0.0676  3.1237  0.9719
  838MPD2     C12314   2.205   3.166  11.451 -0.5759  0.1432 -0.4802
  838MPD2    C112315   2.249   3.080  11.559  0.1021 -0.9901  0.5422
  838MPD2    C212316   2.182   2.961  11.593  0.2869 -0.3925  0.4692
  838MPD2    C312317   2.071   2.923  11.511 -0.6667  0.2661 -0.4124
  838MPD2    C412318   2.032   2.997  11.398 -0.3353  0.6599 -0.2490
  838MPD2    C512319   2.089   3.126  11.381 -0.1256  0.4577 -0.0741
  838MPD2     H12320   2.214   2.900  11.676  2.2224  1.3143  0.9746
  838MPD2    H112321   1.958   2.966  11.326 -0.1241  2.0590 -1.0744
  838MPD2    H212322   2.237   3.265  11.421  1.9638 -0.4711  0.2362
  838MPD2    H312323   2.050   3.189  11.302  0.0728 -0.9156 -1.2782
  838MPD2     N12324   2.002   2.801  11.537 -0.4277 -0.1615  0.2434
  838MPD2    H512325   1.997   2.765  11.632 -1.9713 -0.7820 -0.0682
  838MPD2    N112326   2.366   3.109  11.631  0.2837 -0.5797  0.4770
  838MPD2    H712327   2.379   3.064  11.721 -1.7991  0.0170  1.0738
  839MPD2     C12328   2.249   2.580  11.667  0.9642  0.3838  1.1485
  839MPD2    C112329   2.320   2.633  11.557 -0.3022 -0.0010 -0.5874
  839MPD2    C212330   2.428   2.720  11.590  0.2634 -0.4285  0.7264
  839MPD2    C312331   2.470   2.746  11.717  0.1892  0.3839  0.3607
  839MPD2    C412332   2.393   2.695  11.819 -0.0639  0.2674  0.4289
  839MPD2    C512333   2.291   2.609  11.797 -0.0649 -0.3396 -0.0139
  839MPD2     H12334   2.476   2.775  11.510  0.7651 -0.3994  1.0468
  839MPD2    H112335   2.412   2.729  11.920  0.3094  0.5576  0.2625
  839MPD2    H212336   2.162   2.517  11.652  1.5307 -0.2605  0.5908
  839MPD2    H312337   2.236   2.571  11.882  1.3112  3.6221  2.6184
  839MPD2     N12338   2.573   2.838  11.744 -0.7526 -0.4971  0.5701
  839MPD2    H512339   2.586   2.867  11.841 -1.3407 -0.8661  0.7567
  839MPD2    N112340   2.290   2.618  11.415  0.2528 -0.3584 -0.3976
  839MPD2    H712341   2.361   2.658  11.353 -0.3972  0.6863 -0.4681
  840MPD2     C12342   3.388   1.240  10.309 -0.1341 -0.5103 -0.2575
  840MPD2    C112343   3.408   1.141  10.401 -0.4425  0.2068  0.7685
  840MPD2    C212344   3.493   1.164  10.509 -0.1426  0.8939  0.1622
  840MPD2    C312345   3.557   1.285  10.526 -0.4544 -1.2334  0.0132
  840MPD2    C412346   3.546   1.373  10.424 -0.6700 -0.1101 -0.1775
  840MPD2    C512347   3.458   1.359  10.324  0.6501  0.5882 -0.0457
  840MPD2     H12348   3.521   1.093  10.586 -1.7321 -1.8328 -1.8107
  840MPD2    H112349   3.608   1.462  10.428  1.1736 -1.3337 -1.6140
  840MPD2    H212350   3.325   1.235  10.221  1.6176  2.2555 -1.6979
  840MPD2    H312351   3.451   1.438  10.250 -1.1621  0.2923 -0.1964
  840MPD2     N12352   3.645   1.309  10.639  0.0249 -0.0529  0.4083
  840MPD2    H512353   3.647   1.242  10.715 -0.2731  0.8075  1.1650
  840MPD2    N112354   3.344   1.022  10.367 -0.5522  0.1385  0.4905
  840MPD2    H712355   3.285   1.019  10.284 -1.1979  1.0814  0.9178
  841MPD2     C12356   2.777   0.185  14.620  0.4997 -0.5564  0.3804
  841MPD2    C112357   2.896   0.152  14.555  0.0378 -0.1656 -0.3892
  841MPD2    C212358   2.987   0.256  14.539 -0.3326 -0.4587  0.5350
  841MPD2    C312359   2.964   0.381  14.600  0.3332 -0.2222 -0.5599
  841MPD2    C412360   2.839   0.407  14.658  0.0089  0.0026  0.0342
  841MPD2    C512361   2.742   0.312  14.669  0.2270 -0.2924 -0.2222
  841MPD2     H12362   3.078   0.234  14.484  0.0513 -1.2071  1.4601
  841MPD2    H112363   2.823   0.504  14.704  0.4008 -0.3844  0.9655
  841MPD2    H212364   2.706   0.105  14.636 -0.0599 -0.2157 -0.4244
  841MPD2    H312365   2.660   0.329  14.738  0.4522 -2.3292  0.5226
  841MPD2     N12366   3.074   0.473  14.624 -0.1542 -0.5623  0.1394
  841MPD2    H512367   3.166   0.446  14.590  0.2160  0.4910  0.3177
  841MPD2    N112368   2.923   0.025  14.508  0.0857 -0.0391  0.4114
  841MPD2    H712369   3.011   0.026  14.457 -0.0641 -3.5947  0.0696
  842MPD2     C12370   3.106   0.955  16.840  0.1557  0.2539 -0.3802
  842MPD2    C112371   3.183   1.066  16.835  0.5078  0.0237  0.0265
  842MPD2    C212372   3.257   1.104  16.945  0.4447  0.1567  0.8236
  842MPD2    C312373   3.267   1.025  17.052  0.3764 -0.9767  0.8644
  842MPD2    C412374   3.197   0.901  17.057  0.3925 -0.5384 -0.3036
  842MPD2    C512375   3.111   0.869  16.952 -0.1272  0.5711 -0.8708
  842MPD2     H12376   3.327   1.186  16.932 -0.5106  0.6195 -1.4256
  842MPD2    H112377   3.199   0.847  17.151  0.9589  0.8694  0.5001
  842MPD2    H212378   3.050   0.911  16.758  2.6470  1.5084 -2.7326
  842MPD2    H312379   3.058   0.774  16.950  0.2904  0.3481 -1.2562
  842MPD2     N12380   3.342   1.059  17.168  0.0909 -0.3613  0.1402
  842MPD2    H512381   3.346   0.984  17.235 -1.9395  1.2512  2.0726
  842MPD2    N112382   3.190   1.144  16.715 -0.4455 -0.0323  0.1541
  842MPD2    H712383   3.130   1.115  16.639  0.2104 -0.7182 -0.0998
  843MPD2     C12384   1.807   1.571   0.507 -0.3217  0.0169 -0.0343
  843MPD2    C112385   1.670   1.612   0.505 -0.7956 -0.0952  0.3497
  843MPD2    C212386   1.631   1.657   0.374  0.9625  0.4760 -0.1464
  843MPD2    C312387   1.710   1.635   0.258  0.8311 -0.1111 -1.2377
  843MPD2    C412388   1.832   1.583   0.270  0.1340 -0.3289  0.0381
  843MPD2    C512389   1.883   1.554   0.395  0.2659  0.3779  0.5536
  843MPD2     H12390   1.536   1.709   0.361  0.1189 -0.3674  2.6401
  843MPD2    H112391   1.901   1.566   0.188  0.0996 -1.5968  0.2779
  843MPD2    H212392   1.851   1.549   0.604 -1.2010  1.5770  0.7140
  843MPD2    H312393   1.982   1.511   0.402  0.2437  0.2647  0.1631
  843MPD2     N12394   1.682   1.677   0.127 -0.0072 -0.3473 -0.0734
  843MPD2    H512395   1.757   1.661   0.060  1.2234 -0.1809  1.2637
  843MPD2    N112396   1.596   1.627   0.617 -0.0833 -0.5596  0.3517
  843MPD2    H712397   1.641   1.587   0.699 -1.1895 -0.2844  1.0922
  844MPD2     C12398   4.234   1.324  16.698 -0.0336  0.1018 -0.1743
  844MPD2    C112399   4.295   1.197  16.683  0.1676  0.0250  0.2372
  844MPD2    C212400   4.388   1.156  16.777  0.2419  0.2386 -0.9126
  844MPD2    C312401   4.430   1.236  16.872 -0.1391 -0.0801 -0.2174
  844MPD2    C412402   4.368   1.355  16.893  0.2314 -0.5907 -0.3805
  844MPD2    C512403   4.274   1.398  16.809  0.0853 -0.5211  0.0594
  844MPD2     H12404   4.438   1.063  16.754  0.6677  0.4943 -1.0114
  844MPD2    H112405   4.397   1.429  16.966  0.7244 -0.0777 -1.0894
  844MPD2    H212406   4.166   1.370  16.628 -1.2006  2.0410  2.2469
  844MPD2    H312407   4.235   1.498  16.820  1.0774 -0.3485  1.9595
  844MPD2     N12408   4.546   1.197  16.935  0.0559  0.0569  0.1210
  844MPD2    H512409   4.582   1.103  16.929 -1.6507 -0.5627 -0.2942
  844MPD2    N112410   4.267   1.114  16.572 -0.3530  0.1440 -0.3708
  844MPD2    H712411   4.306   1.020  16.565 -0.1116  0.5196 -3.8522
  845MPD2     C12412   0.422   1.936  17.136  0.5157  0.2379  0.0074
  845MPD2    C112413   0.288   1.911  17.170 -0.7755  0.2029  0.6281
  845MPD2    C212414   0.238   1.781  17.162  0.0052  0.0528  0.0362
  845MPD2    C312415   0.317   1.677  17.120 -0.7441  0.4956 -0.2159
  845MPD2    C412416   0.448   1.704  17.091 -0.5142 -0.2697 -0.5130
  845MPD2    C512417   0.499   1.829  17.096  0.6918  0.9228  0.1037
  845MPD2     H12418   0.136   1.747  17.177 -0.0633 -0.8348 -2.4732
  845MPD2    H112419   0.518   1.631  17.050 -1.6546 -1.9483  0.5454
  845MPD2    H212420   0.466   2.034  17.148  0.3109  0.4095 -0.6406
  845MPD2    H312421   0.603   1.854  17.077  0.2466  0.5898 -2.7778
  845MPD2     N12422   0.258   1.545  17.111 -0.4545 -0.2799 -0.4008
  845MPD2    H512423   0.157   1.546  17.100 -0.4825  1.3325 -0.0188
  845MPD2    N112424   0.201   2.020  17.185  0.2362  0.2205 -0.4180
  845MPD2    H712425   0.240   2.109  17.156 -0.8428  0.5401 -0.8930
  846MPD2     C12426   1.220   2.168  13.399 -0.4757 -0.1264  0.3649
  846MPD2    C112427   1.163   2.287  13.438 -0.0116  0.0429  0.1437
  846MPD2    C212428   1.106   2.296  13.560 -0.2315 -0.7646  0.0346
  846MPD2    C312429   1.103   2.185  13.643 -0.0879 -0.3104 -0.1271
  846MPD2    C412430   1.152   2.065  13.600  0.1709 -0.5168  0.4436
  846MPD2    C512431   1.215   2.060  13.480  0.1381 -0.2674 -0.4054
  846MPD2     H12432   1.066   2.390  13.598 -2.2557 -1.6935  0.2088
  846MPD2    H112433   1.155   1.980  13.667 -0.8969 -0.3910  0.6518
  846MPD2    H212434   1.284   2.153  13.313  1.1202  0.9919  1.3749
  846MPD2    H312435   1.281   1.982  13.443  1.9218  1.4912 -0.8826
  846MPD2     N12436   1.048   2.198  13.777 -0.5059  0.1202  0.0204
  846MPD2    H512437   0.997   2.284  13.793 -1.9459 -0.7237 -0.0922
  846MPD2    N112438   1.164   2.404  13.355  0.0475 -0.6037 -0.3855
  846MPD2    H712439   1.134   2.495  13.390  1.8481 -1.0661  2.3026
  847MPD2     C12440   1.604   4.223  13.842 -0.3202  0.1387  0.1112
  847MPD2    C112441   1.569   4.205  13.976 -0.2869 -0.1531  0.4171
  847MPD2    C212442   1.653   4.128  14.055  0.0142 -0.0731  0.2656
  847MPD2    C312443   1.768   4.079  14.007  0.0327  0.2392 -0.2356
  847MPD2    C412444   1.804   4.094  13.873 -0.0709  0.6683 -0.3262
  847MPD2    C512445   1.719   4.168  13.791 -0.5199 -0.3297  0.2087
  847MPD2     H12446   1.620   4.115  14.158  1.6664  2.4638  1.1221
  847MPD2    H112447   1.889   4.045  13.828  0.0210  0.3995  0.1345
  847MPD2    H212448   1.541   4.280  13.774 -0.7207 -0.5849 -0.1248
  847MPD2    H312449   1.747   4.185  13.688 -0.6098  0.2260  0.2762
  847MPD2     N12450   1.847   4.005  14.101 -0.4142 -0.4082 -0.3829
  847MPD2    H512451   1.833   4.022  14.200 -0.0771 -0.0984 -0.3871
  847MPD2    N112452   1.454   4.265  14.038  0.6640  0.1412  0.2719
  847MPD2    H712453   1.455   4.257  14.140  1.7751 -0.1017  0.2462
  848MPD2     C12454   3.758   1.812  17.067  0.2883 -0.4400 -0.2373
  848MPD2    C112455   3.866   1.749  17.012 -0.1884 -1.0140  0.3727
  848MPD2    C212456   3.947   1.819  16.920 -0.4684  0.2784 -0.6556
  848MPD2    C312457   3.903   1.940  16.875  0.9787 -0.7307 -0.1494
  848MPD2    C412458   3.779   1.995  16.923 -0.4937 -0.5568  0.4568
  848MPD2    C512459   3.709   1.931  17.023  0.3658 -0.1687 -0.0455
  848MPD2     H12460   4.026   1.770  16.865 -0.7787 -0.8325 -0.1381
  848MPD2    H112461   3.735   2.091  16.901  1.3773  0.0117 -0.7779
  848MPD2    H212462   3.703   1.776  17.153  0.2672 -1.3293 -0.6183
  848MPD2    H312463   3.616   1.965  17.067  0.0755  0.5686 -1.2205
  848MPD2     N12464   3.965   2.015  16.767 -0.7234 -0.1596  0.0045
  848MPD2    H512465   3.929   2.105  16.735  1.6914  1.0038  0.5716
  848MPD2    N112466   3.901   1.628  17.076 -0.2040  0.4567  0.7273
  848MPD2    H712467   3.837   1.573  17.132 -0.9720  0.7990  0.1830
  849MPD2     C12468   2.928   1.129  14.245 -0.9795  0.8768 -0.0712
  849MPD2    C112469   3.003   1.210  14.166  0.5914 -0.2234  0.4088
  849MPD2    C212470   3.137   1.219  14.187 -0.4461 -0.0606 -0.4589
  849MPD2    C312471   3.206   1.154  14.286  0.5094 -0.1965 -0.3082
  849MPD2    C412472   3.128   1.071  14.369  0.2934  0.0000  0.2168
  849MPD2    C512473   2.993   1.066  14.348  0.5437  0.3256 -0.0308
  849MPD2     H12474   3.195   1.288  14.126  1.2372 -1.4006 -0.3925
  849MPD2    H112475   3.175   1.016  14.450 -1.8750  0.0618  1.5218
  849MPD2    H212476   2.821   1.110  14.238 -0.4023 -1.6522 -2.1223
  849MPD2    H312477   2.928   1.010  14.415 -1.3153 -0.0413 -2.1629
  849MPD2     N12478   3.348   1.155  14.297  0.2721  0.0296 -0.0196
  849MPD2    H512479   3.393   1.195  14.216  0.8705 -1.5350 -0.4585
  849MPD2    N112480   2.956   1.266  14.051  0.0117  0.3263 -0.8049
  849MPD2    H712481   3.038   1.306  14.006  0.8610  2.1892  2.4278
  850MPD2     C12482   0.954   4.505  14.678 -1.2139 -0.5562  0.3854
  850MPD2    C112483   1.060   4.428  14.723 -0.4472  0.7199 -0.3282
  850MPD2    C212484   1.186   4.460  14.682  0.6954 -0.3732  0.3061
  850MPD2    C312485   1.213   4.561  14.594  0.2747 -0.5076 -0.0326
  850MPD2    C412486   1.105   4.652  14.561 -0.0115  0.9187  0.0964
  850MPD2    C512487   0.982   4.619  14.600  0.3940  0.3149 -0.0804
  850MPD2     H12488   1.272   4.414  14.729 -0.8019  0.8048  4.1915
  850MPD2    H112489   1.124   0.019  14.504 -0.4189  1.2690  0.5093
  850MPD2    H212490   0.850   4.479  14.694 -1.0709 -0.6316  1.2066
  850MPD2    H312491   0.897   4.682  14.577  1.6463  2.1233  0.2881
  850MPD2     N12492   1.342   4.610  14.555 -0.3907 -0.3020 -0.2112
  850MPD2    H512493   1.351   4.696  14.503  0.8029  0.3594  1.1065
  850MPD2    N112494   1.045   4.320  14.808  0.1034 -0.1856 -0.2311
  850MPD2    H712495   1.132   4.284  14.844 -0.1299 -0.1564  0.3693
  851MPD2     C12496   1.568   4.060  14.973  0.0056  0.7861 -0.2042
  851MPD2    C112497   1.469   3.965  14.986 -0.4462  0.2210  0.1414
  851MPD2    C212498   1.503   3.833  14.970  0.8339  0.5239  0.4335
  851MPD2    C312499   1.630   3.799  14.934  0.0924 -0.3959  0.1235
  851MPD2    C412500   1.723   3.900  14.918  0.1269 -0.1373  0.2823
  851MPD2    C512501   1.696   4.027  14.948 -0.8649 -0.2597  0.2470
  851MPD2     H12502   1.424   3.759  14.977  0.2372  1.1185  0.0394
  851MPD2    H112503   1.822   3.875  14.881 -0.4960 -1.2954 -0.6275
  851MPD2    H212504   1.554   4.164  15.000 -0.1564  0.5337  0.7203
  851MPD2    H312505   1.773   4.103  14.935 -1.7013  0.6882  0.8543
  851MPD2     N12506   1.644   3.665  14.888 -0.3546 -0.4280 -0.5315
  851MPD2    H512507   1.575   3.603  14.930 -3.4603  4.4815  1.6451
  851MPD2    N112508   1.336   4.011  14.994 -0.4148 -0.9335  0.2646
  851MPD2    H712509   1.320   4.110  15.006  2.5591 -0.4542  0.1888
  852MPD2     C12510   0.258   2.376   9.306 -0.0337  0.5320  0.1393
  852MPD2    C112511   0.341   2.284   9.371  0.2160  0.7244  0.1817
  852MPD2    C212512   0.389   2.330   9.492 -0.0741  1.2930 -0.1513
  852MPD2    C312513   0.387   2.460   9.539 -0.3999  0.3161 -0.4478
  852MPD2    C412514   0.323   2.553   9.459  0.0362  0.2115  0.3758
  852MPD2    C512515   0.269   2.508   9.342  0.0902  0.5196  0.7193
  852MPD2     H12516   0.435   2.257   9.558 -1.5171 -0.4326 -1.0482
  852MPD2    H112517   0.332   2.660   9.474  2.4881  0.1510 -0.7059
  852MPD2    H212518   0.196   2.353   9.220  0.4801 -0.4446  0.0363
  852MPD2    H312519   0.220   2.579   9.276 -0.9140 -3.1562 -2.4596
  852MPD2     N12520   0.462   2.486   9.656  0.1337  0.4050  0.1438
  852MPD2    H512521   0.491   2.404   9.709 -2.3868 -0.8416 -0.4129
  852MPD2    N112522   0.360   2.154   9.320 -0.4645 -0.0247 -0.3038
  852MPD2    H712523   0.426   2.092   9.367 -0.7421  2.1620  2.9312
  853MPD2     C12524   2.660   1.635  12.239  0.4201 -0.3864 -0.5669
  853MPD2    C112525   2.550   1.715  12.211 -0.0068  0.4075 -0.6796
  853MPD2    C212526   2.523   1.728  12.074 -0.3766  0.1141  0.3164
  853MPD2    C312527   2.595   1.661  11.975  0.1303  0.6641 -0.5445
  853MPD2    C412528   2.697   1.577  12.011  0.1143 -0.0664  0.0168
  853MPD2    C512529   2.725   1.564  12.142 -0.0722  0.3893  0.3231
  853MPD2     H12530   2.448   1.799  12.042  0.0890  0.2698 -0.4600
  853MPD2    H112531   2.748   1.512  11.941 -0.3447 -1.2368  0.7628
  853MPD2    H212532   2.699   1.622  12.339 -0.4283 -0.0340 -0.1921
  853MPD2    H312533   2.805   1.494  12.164  0.1814  0.7861  0.6681
  853MPD2     N12534   2.568   1.680  11.838 -0.0994 -0.1361  0.1722
  853MPD2    H512535   2.629   1.634  11.772  1.1498  2.0590 -0.2255
  853MPD2    N112536   2.487   1.779  12.324 -0.3015 -0.4042 -0.2424
  853MPD2    H712537   2.509   1.752  12.420 -2.4914 -2.6946 -0.3845
  854MPD2     C12538   4.260   1.945  12.725 -0.1831  0.3726  0.1147
  854MPD2    C112539   4.364   1.873  12.664  0.3272  0.4696 -0.6696
  854MPD2    C212540   4.427   1.771  12.725  0.2689  0.2230 -0.0234
  854MPD2    C312541   4.385   1.723  12.848 -0.7337  0.2597 -0.1525
  854MPD2    C412542   4.280   1.788  12.908 -0.4405 -0.3301 -0.6193
  854MPD2    C512543   4.213   1.892  12.841 -0.1053  0.3001 -0.0997
  854MPD2     H12544   4.516   1.727  12.683  2.1771  1.4688  2.7379
  854MPD2    H112545   4.236   1.745  12.998  0.2383  2.3471  0.9866
  854MPD2    H212546   4.195   2.019  12.680 -0.6629 -0.2697 -0.2547
  854MPD2    H312547   4.124   1.934  12.887  0.3220  0.7799  0.2882
  854MPD2     N12548   4.448   1.614  12.917  0.4582  0.3057  0.0119
  854MPD2    H512549   4.415   1.594  13.011  1.3235  0.4280  0.3454
  854MPD2    N112550   4.394   1.924  12.527  0.2519  0.3819  0.1253
  854MPD2    H712551   4.337   2.000  12.491  0.0537 -0.9776 -2.4166
  855MPD2     C12552   4.448   1.428  13.734  0.3142  0.0240 -0.5051
  855MPD2    C112553   4.536   1.322  13.702 -0.9298  0.5265  0.5397
  855MPD2    C212554   4.602   1.319  13.572 -0.5147 -0.4369  0.3346
  855MPD2    C312555   4.567   1.414  13.480 -0.4047 -0.0268  0.4139
  855MPD2    C412556   4.477   1.514  13.519  0.0615 -0.2458  0.4045
  855MPD2    C512557   4.425   1.521  13.643 -0.7230  0.6831  0.2195
  855MPD2     H12558   4.660   1.232  13.545 -0.7195 -0.7488  0.9034
  855MPD2    H112559   4.444   1.595  13.455  0.1995 -1.1509 -0.8129
  855MPD2    H212560   4.386   1.447  13.820  0.9444  0.1228 -0.0714
  855MPD2    H312561   4.370   1.612  13.667 -0.6010  0.5790  0.9104
  855MPD2     N12562   4.607   1.412  13.342 -0.2321  0.3841 -0.5931
  855MPD2    H512563   4.550   1.468  13.280 -0.1187  2.2624  1.0014
  855MPD2    N112564   4.552   1.216  13.795 -0.0280 -0.4314  0.6961
  855MPD2    H712565   4.631   1.153  13.787  0.4368  0.3985 -1.3348
  856MPD2     C12566   2.085   2.500  14.078 -0.3883  0.3259  0.0808
  856MPD2    C112567   2.187   2.586  14.073  0.3630  0.5570  0.4875
  856MPD2    C212568   2.196   2.679  13.976  0.1221 -0.1599 -0.4155
  856MPD2    C312569   2.086   2.708  13.899 -0.5940 -0.6260  0.0946
  856MPD2    C412570   1.974   2.631  13.920  0.1100 -0.2020  0.6475
  856MPD2    C512571   1.974   2.521  14.002  0.2628  0.2055  0.7489
  856MPD2     H12572   2.292   2.728  13.989 -0.9957  1.8428  0.3589
  856MPD2    H112573   1.881   2.638  13.866  0.2773 -4.2514 -0.1516
  856MPD2    H212574   2.079   2.422  14.153  1.1179 -0.5630 -0.7132
  856MPD2    H312575   1.885   2.466  14.029 -0.4227  1.0297  0.1762
  856MPD2     N12576   2.078   2.822  13.816  0.3137  0.1384 -0.8426
  856MPD2    H512577   1.985   2.845  13.784  0.4338  0.2838 -1.0823
  856MPD2    N112578   2.293   2.581  14.163 -0.5720 -0.4529  0.3945
  856MPD2    H712579   2.371   2.645  14.157 -0.4527 -0.6211  0.1439
  857MPD2     C12580   3.515   4.689  12.357 -0.3026  0.0573 -0.0478
  857MPD2    C112581   3.622   4.659  12.435  0.7335  0.7424  0.5867
  857MPD2    C212582   3.641   0.009  12.553  0.4416 -1.2989  0.2647
  857MPD2    C312583   3.547   0.106  12.591 -0.9337  0.7873 -0.5610
  857MPD2    C412584   3.436   0.123  12.513  0.5533  0.4960  0.4326
  857MPD2    C512585   3.416   0.049  12.401 -0.1329  0.0006  0.3135
  857MPD2     H12586   3.731   4.717  12.612  0.6300 -0.6865  0.1361
  857MPD2    H112587   3.357   0.194  12.536  1.1654  0.9824  1.0140
  857MPD2    H212588   3.483   4.629  12.273  0.1192 -2.2348  1.4206
  857MPD2    H312589   3.332   0.059  12.333  1.1952 -1.1303 -1.5061
  857MPD2     N12590   3.575   0.194  12.697 -0.2398 -0.1359 -1.0607
  857MPD2    H512591   3.664   0.171  12.741 -1.9980 -2.0562  1.5109
  857MPD2    N112592   3.711   4.564  12.380 -0.4319 -0.1478  0.8392
  857MPD2    H712593   3.699   4.529  12.286  0.5501 -2.4139  1.5392
  858MPD2     C12594   4.369   3.468  16.567 -0.0850 -0.5538 -0.2665
  858MPD2    C112595   4.501   3.486  16.539  0.0133  0.4353 -0.1145
  858MPD2    C212596   4.554   3.609  16.575  0.3151 -0.1747  0.7237
  858MPD2    C312597   4.475   3.708  16.636  0.1879 -0.5616  0.0094
  858MPD2    C412598   4.340   3.682  16.656  0.1024 -0.0979  0.1545
  858MPD2    C512599   4.287   3.565  16.619  0.5521 -0.4467 -0.1466
  858MPD2     H12600   4.649   3.632  16.529  0.9817 -1.1642  1.5865
  858MPD2    H112601   4.274   3.759  16.695 -1.2468 -0.3333 -1.6823
  858MPD2    H212602   4.327   3.370  16.550 -2.4669  0.6975 -1.6386
  858MPD2    H312603   4.184   3.537  16.640 -0.2356  1.3219 -1.6978
  858MPD2     N12604   4.525   3.827  16.699  0.5809 -0.3162 -0.3485
  858MPD2    H512605   4.463   3.893  16.745  0.6778 -0.7576  0.3998
  858MPD2    N112606   4.576   3.378  16.485  0.2235 -0.2437  0.4409
  858MPD2    H712607   4.527   3.290  16.472 -0.3001  0.2225 -0.6849
  859MPD2     C12608   2.949   1.361  15.559 -0.0439  0.5386  0.2820
  859MPD2    C112609   3.074   1.331  15.503  0.8043 -0.7122 -0.4360
  859MPD2    C212610   3.154   1.241  15.570  0.1913  0.0152 -0.2233
  859MPD2    C312611   3.111   1.174  15.686  0.2623 -0.4782  0.0878
  859MPD2    C412612   2.978   1.193  15.727  0.2612  0.2204 -0.1609
  859MPD2    C512613   2.902   1.289  15.663 -0.3896  0.6356  0.8452
  859MPD2     H12614   3.249   1.211  15.528 -0.0566 -2.5356  1.0360
  859MPD2    H112615   2.939   1.128  15.804  1.3779 -0.2550  0.0029
  859MPD2    H212616   2.889   1.439  15.514 -0.2609  0.1663 -0.0709
  859MPD2    H312617   2.802   1.316  15.694 -1.3236 -2.3796  0.4814
  859MPD2     N12618   3.182   1.072  15.753  0.1907 -0.5826 -0.0515
  859MPD2    H512619   3.146   1.033  15.839 -2.4108 -0.8462 -1.2464
  859MPD2    N112620   3.118   1.395  15.385 -0.2543  0.2166 -0.7127
  859MPD2    H712621   3.206   1.367  15.344 -0.7377 -0.8331 -1.0390
  860MPD2     C12622   0.753   1.445  11.358  0.1061  0.6168 -0.3167
  860MPD2    C112623   0.775   1.353  11.458 -0.4087  0.2070 -0.8028
  860MPD2    C212624   0.674   1.344  11.556 -0.1294 -0.6910 -0.0729
  860MPD2    C312625   0.571   1.433  11.565 -0.1459  0.0846 -0.0260
  860MPD2    C412626   0.549   1.521  11.464 -0.5876  0.0707 -0.1720
  860MPD2    C512627   0.641   1.520  11.364  0.2790 -0.3378 -0.2750
  860MPD2     H12628   0.688   1.267  11.631  0.4305 -0.3785  0.1415
  860MPD2    H112629   0.465   1.589  11.460 -2.0461 -1.5748  2.4100
  860MPD2    H212630   0.827   1.444  11.278  0.2148 -2.5631 -0.1674
  860MPD2    H312631   0.609   1.577  11.277 -2.4679 -3.4590 -1.3128
  860MPD2     N12632   0.489   1.438  11.686  0.2427 -0.1409  0.2561
  860MPD2    H512633   0.428   1.519  11.694  1.8812  1.1904 -0.7487
  860MPD2    N112634   0.890   1.269  11.480 -0.2716 -0.2807  0.1763
  860MPD2    H712635   0.879   1.209  11.561  0.1688  0.2366  0.6200
  861MPD2     C12636   4.293   4.606  10.600 -0.2677 -0.0401  0.0949
  861MPD2    C112637   4.274   4.694  10.703 -0.0284  0.2856  0.5381
  861MPD2    C212638   4.152   0.037  10.722  0.2668 -0.6214  0.2365
  861MPD2    C312639   4.047   0.014  10.633 -0.4257 -0.5574 -0.0283
  861MPD2    C412640   4.071   4.650  10.532  0.1448  1.1258 -0.5580
  861MPD2    C512641   4.192   4.587  10.513  0.0055 -0.9130  0.1954
  861MPD2     H12642   4.147   0.114  10.799 -2.2315  0.1082 -0.6593
  861MPD2    H112643   3.990   4.621  10.466  2.3340 -2.4098 -1.7206
  861MPD2    H212644   4.389   4.557  10.587 -0.7080 -1.2938  1.5195
  861MPD2    H312645   4.202   4.513  10.434 -0.5474 -1.0428  0.2424
  861MPD2     N12646   3.924   0.085  10.630  0.5182 -0.0276  0.0820
  861MPD2    H512647   3.860   0.044  10.562  0.2782  1.0916 -0.3669
  861MPD2    N112648   4.378   0.001  10.800  0.1070 -0.3135 -0.3132
  861MPD2    H712649   4.348   0.061  10.875  0.9412  1.8080 -1.6927
  862MPD2     C12650   3.354   0.308  10.253 -0.1239 -0.3090  0.5403
  862MPD2    C112651   3.407   0.214  10.339 -0.8596  0.7558 -0.5406
  862MPD2    C212652   3.366   0.083  10.330 -0.0542 -0.1269 -0.2414
  862MPD2    C312653   3.284   0.039  10.230 -0.1426 -0.6813  0.4329
  862MPD2    C412654   3.235   0.127  10.141 -0.7906 -0.2956 -0.2916
  862MPD2    C512655   3.273   0.259  10.153  0.0308 -0.1685 -0.6073
  862MPD2     H12656   3.395   0.016  10.410  1.3766  1.7064  0.7950
  862MPD2    H112657   3.169   0.110  10.057  1.5070 -0.3705 -2.0851
  862MPD2    H212658   3.383   0.412  10.247 -0.2488 -0.5138 -3.6674
  862MPD2    H312659   3.248   0.329  10.075 -2.6855 -0.5927 -0.1513
  862MPD2     N12660   3.231   4.633  10.224 -0.3549 -0.7177 -0.6422
  862MPD2    H512661   3.146   4.618  10.172 -0.5226  1.1482 -0.9207
  862MPD2    N112662   3.508   0.247  10.433 -0.4687 -0.0450  0.4709
  862MPD2    H712663   3.540   0.168  10.488  1.3151  0.6050  0.3736
  863MPD2     C12664   2.792   2.481  16.774 -0.3701  0.5595  1.0089
  863MPD2    C112665   2.816   2.603  16.823 -0.3528 -0.4000 -0.1691
  863MPD2    C212666   2.918   2.615  16.916 -0.2692  0.1747  0.2088
  863MPD2    C312667   2.985   2.500  16.960  0.1139 -0.1437  0.2763
  863MPD2    C412668   2.941   2.378  16.916  0.3435  0.1293 -0.4384
  863MPD2    C512669   2.850   2.365  16.818 -0.7046  0.7163  0.3400
  863MPD2     H12670   2.949   2.712  16.953 -1.5548  1.4438 -2.0443
  863MPD2    H112671   2.991   2.291  16.956  1.9866  0.6305 -1.3803
  863MPD2    H212672   2.715   2.472  16.697 -1.4949 -0.5398  2.2494
  863MPD2    H312673   2.832   2.264  16.782  0.4678  0.6209  0.0373
  863MPD2     N12674   3.095   2.499  17.047  0.4495  0.1630  0.2090
  863MPD2    H512675   3.137   2.409  17.068 -1.8815 -0.9967 -0.1328
  863MPD2    N112676   2.755   2.719  16.765  0.1572  0.1123  0.4554
  863MPD2    H712677   2.692   2.708  16.686 -0.3856  1.0600  0.7571
  864MPD2     C12678   3.128   4.074  17.176  0.0863 -0.3626 -0.3667
  864MPD2    C112679   3.220   3.995  17.113 -0.1608 -0.8068  0.2908
  864MPD2    C212680   3.236   4.004  16.975 -0.2532 -0.1795  0.3620
  864MPD2    C312681   3.166   4.102  16.911 -0.5944  0.1480 -0.7625
  864MPD2    C412682   3.079   4.186  16.977 -0.4225  0.1180 -0.0144
  864MPD2    C512683   3.056   4.166  17.108  0.0339 -0.4321 -0.2301
  864MPD2     H12684   3.306   3.931  16.937 -0.7248  0.9269 -2.6065
  864MPD2    H112685   3.020   4.255  16.919 -0.3662  0.7293  0.6571
  864MPD2    H212686   3.107   4.073  17.282  1.2911  1.8865 -0.1199
  864MPD2    H312687   2.984   4.229  17.160  1.4677 -0.8372  2.2670
  864MPD2     N12688   3.179   4.123  16.772 -0.5797  0.2591  0.7548
  864MPD2    H512689   3.124   4.192  16.723 -3.9181 -2.8498  0.0987
  864MPD2    N112690   3.284   3.893  17.187  0.2931  0.3922  0.0264
  864MPD2    H712691   3.330   3.816  17.139  0.9046  0.9978 -0.3569
  865MPD2     C12692   2.903   3.748  16.396  0.1341  0.4004 -0.6468
  865MPD2    C112693   3.031   3.798  16.365 -0.0058 -0.1277  0.3783
  865MPD2    C212694   3.042   3.935  16.342  0.2836  0.1547 -0.1158
  865MPD2    C312695   2.939   4.026  16.355 -0.0379  0.6060 -0.2644
  865MPD2    C412696   2.816   3.970  16.394  0.2186  0.3168  0.6412
  865MPD2    C512697   2.802   3.838  16.412 -0.5144  0.6823  0.8170
  865MPD2     H12698   3.132   3.983  16.305  1.0306 -2.7601 -2.0698
  865MPD2    H112699   2.733   4.037  16.410  0.5267  0.9509 -0.4487
  865MPD2    H212700   2.884   3.643  16.413  2.3546  0.3455  1.3870
  865MPD2    H312701   2.707   3.806  16.453  0.7459 -0.3282  2.9385
  865MPD2     N12702   2.943   4.165  16.331  0.2896 -0.2597  0.9184
  865MPD2    H512703   2.852   4.206  16.315  0.1103 -1.1504 -0.3849
  865MPD2    N112704   3.139   3.703  16.360 -0.1602 -0.3916 -0.4306
  865MPD2    H712705   3.124   3.606  16.384  0.8961 -0.7582 -1.2420
  866MPD2     C12706   0.184   0.447  11.096  0.5274  0.9429  0.0573
  866MPD2    C112707   0.117   0.404  10.982 -0.4748  0.7608 -0.8047
  866MPD2    C212708   4.716   0.460  10.961  0.2293 -0.3673  1.1106
  866MPD2    C312709   4.643   0.534  11.060  0.3614  0.4099  0.3528
  866MPD2    C412710   4.710   0.567  11.180  0.2651  0.3047  0.2590
  866MPD2    C512711   0.121   0.522  11.196  0.0909  0.9944  0.3765
  866MPD2     H12712   4.661   0.439  10.870  1.2978  0.6638  0.2182
  866MPD2    H112713   4.671   0.622  11.265  2.5306  4.4767 -1.4071
  866MPD2    H212714   0.275   0.399  11.130 -0.4643 -0.0359  1.2957
  866MPD2    H312715   0.177   0.553  11.284  0.2350 -0.1344  0.6877
  866MPD2     N12716   4.508   0.571  11.045  0.5884 -0.1264  0.5045
  866MPD2    H512717   4.466   0.596  11.135  1.2842 -0.5865  0.9601
  866MPD2    N112718   0.178   0.317  10.892 -0.5703 -0.4447 -0.3910
  866MPD2    H712719   0.274   0.291  10.912 -0.4128 -0.5999 -1.3277
  867MPD2     C12720   2.234   3.769  16.270 -0.0771  0.1920  0.4353
  867MPD2    C112721   2.249   3.758  16.409 -0.3634  0.3854 -0.1698
  867MPD2    C212722   2.172   3.845  16.487  0.0622  0.7150 -0.3887
  867MPD2    C312723   2.082   3.933  16.434 -0.2570 -0.7872  0.1296
  867MPD2    C412724   2.063   3.933  16.295  0.0343 -0.5536  0.3087
  867MPD2    C512725   2.135   3.845  16.217  0.6160 -0.3124  0.0193
  867MPD2     H12726   2.180   3.855  16.594 -1.1789  2.2465 -0.4382
  867MPD2    H112727   1.992   4.005  16.257 -0.4221 -1.8529 -1.3234
  867MPD2    H212728   2.280   3.702  16.198 -0.4570  1.9208 -1.4223
  867MPD2    H312729   2.120   3.854  16.110 -0.0589 -2.1403 -0.0378
  867MPD2     N12730   2.006   4.028  16.505 -0.1421  0.1507 -0.1738
  867MPD2    H512731   1.929   4.066  16.451 -0.7776 -0.1350  0.5384
  867MPD2    N112732   2.359   3.684  16.462 -0.1291 -0.2340  0.3699
  867MPD2    H712733   2.424   3.649  16.392  0.8989  0.0885  1.1501
  868MPD2     C12734   3.655   2.510  12.835  0.2470  0.0996  0.3118
  868MPD2    C112735   3.700   2.642  12.849  0.8377  0.3657 -0.9918
  868MPD2    C212736   3.610   2.743  12.868 -0.6727  0.5824  0.6760
  868MPD2    C312737   3.475   2.705  12.874  0.0093  0.1245  0.7480
  868MPD2    C412738   3.435   2.576  12.852 -0.2186  0.6808 -0.0810
  868MPD2    C512739   3.521   2.477  12.831  0.5331  0.0590 -0.3392
  868MPD2     H12740   3.657   2.841  12.877 -0.1550  0.2639  1.4351
  868MPD2    H112741   3.331   2.546  12.860  0.8313 -2.0274  3.1432
  868MPD2    H212742   3.731   2.433  12.829  0.3208  0.1766  0.2733
  868MPD2    H312743   3.488   2.374  12.835  2.2172 -0.4280  1.1534
  868MPD2     N12744   3.386   2.815  12.889  0.0559 -0.5475 -0.3535
  868MPD2    H512745   3.421   2.909  12.906 -0.0885 -0.7785  1.2517
  868MPD2    N112746   3.839   2.660  12.857  0.1951  0.2549  0.3334
  868MPD2    H712747   3.903   2.581  12.856 -1.5826 -1.2003  2.2331
  869MPD2     C12748   0.836   2.477   2.010  0.4795 -0.0009 -0.6098
  869MPD2    C112749   0.737   2.380   1.998  0.1203  0.2061  0.8471
  869MPD2    C212750   0.700   2.334   1.872 -0.3268  0.0790 -0.0879
  869MPD2    C312751   0.754   2.387   1.756 -0.2827 -0.0750  0.1586
  869MPD2    C412752   0.865   2.466   1.778 -0.6524  0.0370  0.0766
  869MPD2    C512753   0.908   2.512   1.899 -0.3492  0.8690 -0.0964
  869MPD2     H12754   0.620   2.263   1.858  0.0257 -0.0750 -1.3513
  869MPD2    H112755   0.912   2.504   1.688 -0.7278 -1.2642 -0.5128
  869MPD2    H212756   0.859   2.517   2.108  2.3294 -0.9795 -0.6420
  869MPD2    H312757   0.993   2.579   1.908  0.0100  0.3899  0.1075
  869MPD2     N12758   0.722   2.352   1.626 -0.4326  0.1936 -0.5077
  869MPD2    H512759   0.790   2.397   1.566  2.2514 -1.1367  1.5833
  869MPD2    N112760   0.673   2.337   2.113 -0.2400  0.6898 -0.4203
  869MPD2    H712761   0.729   2.350   2.196  0.7238 -0.6713 -0.8627
  870MPD2     C12762   0.376   0.421   1.960  0.2206 -0.0945  0.5684
  870MPD2    C112763   0.300   0.376   1.859 -0.2905  0.6055 -0.6324
  870MPD2    C212764   0.338   0.258   1.794  0.7478  0.2388 -0.2093
  870MPD2    C312765   0.463   0.195   1.825 -0.1188 -0.6652  0.0547
  870MPD2    C412766   0.535   0.240   1.929  0.2093 -0.6009  0.2023
  870MPD2    C512767   0.490   0.357   1.993  0.1499 -0.7385 -1.1469
  870MPD2     H12768   0.284   0.211   1.713  1.3315  1.9847 -1.6325
  870MPD2    H112769   0.614   0.177   1.968 -0.5918 -2.9577 -2.0502
  870MPD2    H212770   0.356   0.512   2.015  2.2149  1.0678 -0.6113
  870MPD2    H312771   0.543   0.398   2.078 -1.3596  0.1317 -0.6176
  870MPD2     N12772   0.503   0.083   1.746 -0.4670 -0.0196 -0.4717
  870MPD2    H512773   0.443   0.049   1.671 -1.9421  0.6816  0.3913
  870MPD2    N112774   0.192   0.449   1.813  0.8852 -0.1316  0.0338
  870MPD2    H712775   0.177   0.535   1.864  0.2064  0.5584 -1.3372
  871MPD2     C12776   1.074   4.164  16.162 -0.1207  0.2800  0.4144
  871MPD2    C112777   1.073   4.117  16.289 -0.4813  0.7780 -0.2118
  871MPD2    C212778   1.079   3.981  16.310 -0.5858 -0.4079 -0.7147
  871MPD2    C312779   1.110   3.894  16.203 -0.3158 -0.9661  0.3645
  871MPD2    C412780   1.121   3.938  16.072 -0.4171  0.4484  0.0720
  871MPD2    C512781   1.092   4.073  16.058  0.4875 -0.7471 -0.1848
  871MPD2     H12782   1.075   3.930  16.405 -0.4266  1.2377  0.1757
  871MPD2    H112783   1.137   3.874  15.987 -2.2138 -0.6240  0.5469
  871MPD2    H212784   1.071   4.268  16.131  0.4023 -0.9265 -3.7345
  871MPD2    H312785   1.095   4.115  15.958  0.4620 -1.7929 -0.6281
  871MPD2     N12786   1.146   3.758  16.241 -0.1594  0.6301  0.1973
  871MPD2    H512787   1.139   3.733  16.339  2.8282 -0.5995  0.0717
  871MPD2    N112788   1.073   4.210  16.391 -0.1279  0.4538 -0.0869
  871MPD2    H712789   1.066   4.309  16.368 -1.5004  0.4524  0.3363
  872MPD2     C12790   1.633   2.143  13.512 -0.2176 -0.5764 -0.1146
  872MPD2    C112791   1.696   2.028  13.557  0.2958 -0.2687  0.3508
  872MPD2    C212792   1.651   1.958  13.675 -0.4773 -0.6520  0.1194
  872MPD2    C312793   1.537   2.009  13.736  0.1174 -0.0096 -0.4599
  872MPD2    C412794   1.463   2.106  13.677  0.3685 -0.3302 -0.0167
  872MPD2    C512795   1.515   2.178  13.573 -0.1390 -0.7824  0.4394
  872MPD2     H12796   1.702   1.866  13.700  2.1123  0.1057 -2.3420
  872MPD2    H112797   1.377   2.144  13.729  1.2153  0.9798  0.4188
  872MPD2    H212798   1.666   2.198  13.425 -0.9580  0.9640  0.5638
  872MPD2    H312799   1.456   2.266  13.552 -0.6312 -1.1859  0.1412
  872MPD2     N12800   1.480   1.952  13.852 -0.0549  0.1442 -0.0537
  872MPD2    H512801   1.381   1.971  13.870 -0.0545 -1.1583  1.3966
  872MPD2    N112802   1.811   1.978  13.484  0.2912 -0.0259 -1.3328
  872MPD2    H712803   1.868   1.913  13.537 -1.7598 -0.0982  0.7564
  873MPD2     C12804   4.484   2.461   1.277  0.1353  0.3658 -0.1134
  873MPD2    C112805   4.382   2.502   1.195  0.2980 -0.3874 -0.4048
  873MPD2    C212806   4.362   2.435   1.079 -0.1593  0.1160 -0.5331
  873MPD2    C312807   4.441   2.327   1.049 -0.0089 -0.0260 -0.2683
  873MPD2    C412808   4.543   2.285   1.129  0.0117  0.1076 -0.2246
  873MPD2    C512809   4.563   2.354   1.246  0.9453  0.3145 -0.6153
  873MPD2     H12810   4.288   2.467   1.006 -1.2135  0.8471  0.8514
  873MPD2    H112811   4.598   2.192   1.114 -0.4857 -0.4048  1.0521
  873MPD2    H212812   4.511   2.517   1.366 -0.7440  0.2561  0.2275
  873MPD2    H312813   4.634   2.306   1.312 -0.0797  0.3609  0.5240
  873MPD2     N12814   4.424   2.248   0.931 -0.4649 -0.2864  0.0798
  873MPD2    H512815   4.478   2.162   0.936 -0.2244 -0.1902 -0.7794
  873MPD2    N112816   4.306   2.612   1.237  0.1755 -0.9059 -0.1944
  873MPD2    H712817   4.324   2.661   1.324  3.1825 -0.1504 -1.2272
  874MPD2     C12818   3.500   1.766  16.096  0.0420 -0.2542  0.6615
  874MPD2    C112819   3.502   1.755  16.235 -0.0131 -0.2626  0.8183
  874MPD2    C212820   3.599   1.823  16.300 -0.0872  0.9965 -0.4181
  874MPD2    C312821   3.689   1.912  16.242  1.1624  0.1750  0.3778
  874MPD2    C412822   3.689   1.920  16.099 -0.4199  0.1202 -0.1273
  874MPD2    C512823   3.592   1.849  16.029 -0.2684 -0.3424  0.6829
  874MPD2     H12824   3.613   1.810  16.407 -0.1628  0.8305 -0.4279
  874MPD2    H112825   3.768   1.978  16.052 -0.7062  0.5931 -0.0321
  874MPD2    H212826   3.430   1.712  16.034 -1.5549  2.9306 -0.3297
  874MPD2    H312827   3.583   1.846  15.921  0.6168  0.5285  0.5824
  874MPD2     N12828   3.783   1.976  16.323 -0.0172 -0.3256  0.1816
  874MPD2    H512829   3.779   1.955  16.422  2.5779  1.0509  0.5719
  874MPD2    N112830   3.406   1.669  16.294  0.3597  0.5371 -0.2547
  874MPD2    H712831   3.345   1.627  16.225  1.3732  1.3309 -1.6180
  875MPD2     C12832   4.385   0.195  14.683  0.6735  0.8767 -0.0061
  875MPD2    C112833   4.373   0.333  14.690  0.2053  0.2431  0.6951
  875MPD2    C212834   4.347   0.385  14.813  0.0784  0.7611  0.0019
  875MPD2    C312835   4.341   0.306  14.928  0.0459  0.6218  0.4284
  875MPD2    C412836   4.361   0.170  14.922  0.0216  0.1609 -0.4788
  875MPD2    C512837   4.386   0.116  14.799 -0.2039  0.3388  0.4354
  875MPD2     H12838   4.340   0.493  14.819 -0.1778  0.8276 -1.7255
  875MPD2    H112839   4.377   0.108  15.009  0.1496 -1.3270 -1.5678
  875MPD2    H212840   4.386   0.139  14.590 -2.3137  0.5907  0.1246
  875MPD2    H312841   4.377   0.009  14.788 -0.8697  0.1846  2.3627
  875MPD2     N12842   4.305   0.359  15.055 -0.0610  0.6842  0.0831
  875MPD2    H512843   4.276   0.456  15.064  1.8003  1.1204  1.2864
  875MPD2    N112844   4.365   0.416  14.575 -0.6521 -0.4354  0.3967
  875MPD2    H712845   4.339   0.514  14.584 -0.7069 -0.2716 -1.5297
  876MPD2     C12846   3.216   1.600  15.747  0.8294 -0.2343 -0.1952
  876MPD2    C112847   3.349   1.571  15.762  0.0795  0.3323 -0.1881
  876MPD2    C212848   3.391   1.477  15.850 -0.1274  0.9039  0.4988
  876MPD2    C312849   3.298   1.405  15.922  0.3790 -0.8230  0.3548
  876MPD2    C412850   3.164   1.422  15.895  0.1836  0.5517  0.1466
  876MPD2    C512851   3.127   1.520  15.811 -0.5603  0.2353  0.4022
  876MPD2     H12852   3.496   1.453  15.861 -0.5084 -0.3213  1.5072
  876MPD2    H112853   3.082   1.369  15.942 -0.0532  1.1037  0.3560
  876MPD2    H212854   3.169   1.676  15.685  0.4226  0.5071  1.0078
  876MPD2    H312855   3.023   1.537  15.787 -0.5588  0.5939  0.6563
  876MPD2     N12856   3.350   1.308  16.012  0.0750 -0.2373 -0.1285
  876MPD2    H512857   3.450   1.286  16.015  0.3625  1.1268  0.2541
  876MPD2    N112858   3.437   1.649  15.684  0.2267 -0.0888  0.1702
  876MPD2    H712859   3.400   1.726  15.629  0.2571  0.0254  0.3082
  877MPD2     C12860   3.288   2.033  15.188  0.6203 -0.4277  0.6021
  877MPD2    C112861   3.425   2.018  15.162  0.5711 -0.6573  0.6580
  877MPD2    C212862   3.459   2.036  15.029  0.2960 -0.1259 -0.3706
  877MPD2    C312863   3.361   2.064  14.931  0.0933 -0.6181 -0.4303
  877MPD2    C412864   3.229   2.069  14.956 -0.7175 -0.3361 -0.6224
  877MPD2    C512865   3.192   2.062  15.088 -0.2325 -0.0266 -0.5511
  877MPD2     H12866   3.567   2.032  15.014  0.2324 -0.5986 -0.6812
  877MPD2    H112867   3.154   2.085  14.880 -1.5747  0.8060  0.4686
  877MPD2    H212868   3.261   2.015  15.292  1.8543 -0.6319  0.8876
  877MPD2    H312869   3.086   2.064  15.113 -0.0662  0.3887  0.0862
  877MPD2     N12870   3.401   2.076  14.793 -0.3614  0.0217  0.2465
  877MPD2    H512871   3.331   2.098  14.723  0.1077  1.8575  0.3636
  877MPD2    N112872   3.526   1.988  15.256 -0.3459  0.4966 -0.0287
  877MPD2    H712873   3.613   1.954  15.218 -0.8065 -1.7251  0.8709
  878MPD2     C12874   2.775   0.971  13.073  0.2024 -0.6946  0.5512
  878MPD2    C112875   2.813   1.103  13.059 -0.3901 -0.7037  0.6165
  878MPD2    C212876   2.850   1.178  13.171  0.8458 -0.3932 -0.6570
  878MPD2    C312877   2.861   1.111  13.295 -0.5897 -0.1842  1.0284
  878MPD2    C412878   2.835   0.977  13.303  0.0990  0.2624 -0.3164
  878MPD2    C512879   2.783   0.910  13.198 -0.0252  0.0863  0.1118
  878MPD2     H12880   2.864   1.286  13.171  0.6304 -0.3467  2.0296
  878MPD2    H112881   2.837   0.926  13.399 -0.9993  1.1350  0.1765
  878MPD2    H212882   2.749   0.911  12.987  0.7665  1.4669 -1.1461
  878MPD2    H312883   2.761   0.804  13.205 -2.1018  0.4742 -0.3393
  878MPD2     N12884   2.875   1.187  13.411  0.0928  0.1218  0.3382
  878MPD2    H512885   2.877   1.287  13.390 -0.8412 -0.4118 -2.3062
  878MPD2    N112886   2.807   1.156  12.923 -0.6179 -0.5492 -0.2108
  878MPD2    H712887   2.787   1.089  12.850 -1.9711 -1.2411  0.8171
  879MPD2     C12888   3.793   2.625  16.547  0.0622  0.5979  0.2456
  879MPD2    C112889   3.837   2.520  16.620 -0.5025  0.4142 -0.1661
  879MPD2    C212890   3.772   2.396  16.602 -0.6857  0.2902  0.3700
  879MPD2    C312891   3.660   2.386  16.527  0.4918  0.3100 -0.7945
  879MPD2    C412892   3.622   2.495  16.449  0.0873  0.7351 -0.6962
  879MPD2    C512893   3.686   2.611  16.466 -0.5662 -0.1285  0.2430
  879MPD2     H12894   3.796   2.315  16.670  1.6298 -0.4424 -1.2888
  879MPD2    H112895   3.550   2.494  16.369 -2.3847  0.5569  1.5377
  879MPD2    H212896   3.840   2.722  16.548  0.3684  0.4295  2.2521
  879MPD2    H312897   3.649   2.703  16.421 -1.9407  0.0945  1.8713
  879MPD2     N12898   3.579   2.264  16.525 -0.3112 -0.0642 -0.3200
  879MPD2    H512899   3.493   2.269  16.470 -0.3128  0.2745 -0.2886
  879MPD2    N112900   3.944   2.551  16.708  0.6844  0.2245  0.1679
  879MPD2    H712901   3.975   2.647  16.713 -0.2656  0.5128  0.4540
  880MPD2     C12902   0.930   4.199   0.111 -0.3728  0.5045 -0.1163
  880MPD2    C112903   0.864   4.155   0.223 -0.7566  0.5262 -0.2185
  880MPD2    C212904   0.859   4.021   0.256  0.1126 -0.2710  0.5324
  880MPD2    C312905   0.928   3.929   0.180 -0.1759 -0.5912 -0.7881
  880MPD2    C412906   0.993   3.972   0.068 -0.1274  0.0265  0.0961
  880MPD2    C512907   0.982   4.103   0.037  0.0086  0.6501 -0.0680
  880MPD2     H12908   0.803   3.981   0.340  0.6965 -3.0877 -0.4075
  880MPD2    H112909   1.055   3.903   0.012 -0.4226  0.9502 -1.3596
  880MPD2    H212910   0.936   4.300   0.072  2.0488  0.5175  0.3138
  880MPD2    H312911   1.029   4.132  17.637  0.0486  0.1896 -0.1910
  880MPD2     N12912   0.917   3.790   0.217  0.2220 -0.9262 -0.1190
  880MPD2    H512913   0.872   3.767   0.305 -0.4408 -0.1562 -0.2555
  880MPD2    N112914   0.801   4.257   0.294 -0.5083 -0.2842 -0.2337
  880MPD2    H712915   0.813   4.344   0.243  0.3976  1.3775  2.8163
  881MPD2     C12916   0.512   0.381   0.016 -0.2315 -0.7955  0.1695
  881MPD2    C112917   0.510   0.255  17.664 -0.4195  0.1947  0.0086
  881MPD2    C212918   0.516   0.153   0.063  0.8048  0.6193  0.0270
  881MPD2    C312919   0.523   0.175   0.203  0.5467 -0.5049  0.8663
  881MPD2    C412920   0.511   0.300   0.251 -0.4461  0.8840 -0.1498
  881MPD2    C512921   0.502   0.405   0.154  0.5561 -0.6101  0.6177
  881MPD2     H12922   0.518   0.051   0.024 -0.7458  0.8082 -0.5270
  881MPD2    H112923   0.492   0.324   0.355 -0.9396 -1.8981  0.4010
  881MPD2    H212924   0.500   0.469  17.648 -1.6366 -1.0993  0.0049
  881MPD2    H312925   0.476   0.502   0.193 -1.2536 -0.1809 -1.6981
  881MPD2     N12926   0.536   0.067   0.286  0.1550  0.1597 -0.8571
  881MPD2    H512927   0.568   0.090   0.380 -0.3623 -2.5535 -0.0342
  881MPD2    N112928   0.540   0.230  17.531 -0.5518 -0.5297  0.0932
  881MPD2    H712929   0.544   0.309  17.466 -3.3787 -1.2251 -0.9272
  882MPD2     C12930   3.433   1.793  14.051  0.0942 -0.4465 -0.3479
  882MPD2    C112931   3.349   1.872  14.130 -0.3419  0.2971  0.0821
  882MPD2    C212932   3.224   1.898  14.081 -0.1615 -0.1203 -0.1619
  882MPD2    C312933   3.174   1.842  13.969  0.6623  0.1169  0.2111
  882MPD2    C412934   3.252   1.754  13.892  0.9170  0.0968 -0.9781
  882MPD2    C512935   3.381   1.736  13.936  0.7639  0.0671 -0.6674
  882MPD2     H12936   3.162   1.958  14.147  0.6946  0.7117 -0.1086
  882MPD2    H112937   3.213   1.700  13.807 -0.7328 -0.9794  0.4737
  882MPD2    H212938   3.537   1.773  14.071  0.5925  0.3403 -2.1051
  882MPD2    H312939   3.445   1.669  13.879  2.1229  0.2006  0.7000
  882MPD2     N12940   3.041   1.850  13.930 -0.2540 -0.4170 -0.5925
  882MPD2    H512941   3.006   1.794  13.852  0.3116  1.5085 -2.2209
  882MPD2    N112942   3.405   1.937  14.244 -0.2914  0.7463 -0.0589
  882MPD2    H712943   3.490   1.893  14.279 -0.9065 -0.5668 -0.2208
  883MPD2     C12944   0.519   1.634  15.979  0.6874 -0.6832  0.1483
  883MPD2    C112945   0.615   1.663  15.887 -0.2022 -0.4852  0.2793
  883MPD2    C212946   0.739   1.704  15.934 -0.1444  0.0441 -0.2896
  883MPD2    C312947   0.758   1.727  16.069 -0.6105  0.4743  0.1250
  883MPD2    C412948   0.658   1.711  16.158 -0.7401  0.2243 -0.3410
  883MPD2    C512949   0.543   1.663  16.111 -0.2630 -0.2018 -0.2706
  883MPD2     H12950   0.817   1.726  15.862  1.1522  0.7473  1.3339
  883MPD2    H112951   0.658   1.733  16.264  0.9618 -0.9922 -0.0920
  883MPD2    H212952   0.429   1.581  15.951  1.1668 -0.8952 -1.0028
  883MPD2    H312953   0.474   1.634  16.190  1.8154 -1.7100  0.9969
  883MPD2     N12954   0.883   1.778  16.108  0.1581 -0.1212 -0.6246
  883MPD2    H512955   0.956   1.789  16.038 -0.6575  2.2859 -1.0904
  883MPD2    N112956   0.597   1.634  15.745 -0.3636 -0.1209 -0.2169
  883MPD2    H712957   0.683   1.642  15.691 -0.0022 -0.5087  0.3050
  884MPD2     C12958   2.384   2.310  15.300 -0.1253 -0.4363  0.1913
  884MPD2    C112959   2.360   2.335  15.164 -0.9264 -0.4654  1.0824
  884MPD2    C212960   2.257   2.418  15.122  0.3188  0.8490 -0.0128
  884MPD2    C312961   2.174   2.484  15.217  0.5508 -0.6076 -0.4129
  884MPD2    C412962   2.198   2.456  15.354 -0.5374  0.3105 -0.0465
  884MPD2    C512963   2.295   2.362  15.391 -0.9049  0.3699  0.3388
  884MPD2     H12964   2.262   2.461  15.022 -0.8294 -0.0872 -0.4723
  884MPD2    H112965   2.136   2.504  15.429  0.6519  1.0731  0.4476
  884MPD2    H212966   2.469   2.256  15.340  0.9411  0.0810 -1.3843
  884MPD2    H312967   2.312   2.349  15.497 -0.7536 -0.1383  0.2559
  884MPD2     N12968   2.091   2.591  15.168  0.2270  0.0600  0.3349
  884MPD2    H512969   2.100   2.601  15.068 -1.4607 -4.1923 -0.2599
  884MPD2    N112970   2.451   2.286  15.067 -0.2493 -0.4794 -0.2086
  884MPD2    H712971   2.427   2.294  14.968  0.1846 -0.9656 -0.3574
  885MPD2     C12972   0.768   2.807   0.054  0.3276 -0.1487 -0.4355
  885MPD2    C112973   0.892   2.852   0.028  0.1376  0.7567 -0.2650
  885MPD2    C212974   0.924   2.920  17.609  0.2393  0.2638 -0.2645
  885MPD2    C312975   0.818   2.966  17.536 -0.1471  0.0310 -0.5420
  885MPD2    C412976   0.691   2.929  17.568 -0.0545  0.1111 -0.0452
  885MPD2    C512977   0.668   2.843  17.671 -0.2093 -0.4743 -1.3017
  885MPD2     H12978   1.024   2.947  17.580 -0.7870 -0.1620 -4.1116
  885MPD2    H112979   0.598   2.967  17.526  0.3673 -0.3441 -1.3796
  885MPD2    H212980   0.738   2.760   0.147 -1.1145 -0.7422 -1.2100
  885MPD2    H312981   0.567   2.820   0.009 -0.2068  0.4363 -0.6221
  885MPD2     N12982   0.845   3.044  17.420  0.0808 -0.0525 -0.0762
  885MPD2    H512983   0.942   3.050  17.390  0.3445 -0.5466  0.6748
  885MPD2    N112984   1.000   2.806   0.107  0.5696 -0.2678  0.1788
  885MPD2    H712985   0.981   2.721   0.158 -0.4620 -0.8352 -1.1523
  886MPD2     C12986   1.721   1.259  15.245 -0.4492 -0.2040 -0.3757
  886MPD2    C112987   1.856   1.275  15.272 -0.1407 -0.1850  0.0170
  886MPD2    C212988   1.920   1.386  15.226 -0.6847  0.2481  0.1783
  886MPD2    C312989   1.856   1.483  15.145  0.3853 -0.2732  0.4685
  886MPD2    C412990   1.718   1.475  15.127 -0.2491  0.2603 -0.4852
  886MPD2    C512991   1.657   1.360  15.177  0.4757 -0.0795  0.5108
  886MPD2     H12992   2.021   1.404  15.262 -1.3945 -1.8337  3.1477
  886MPD2    H112993   1.662   1.548  15.070  0.0209  0.9666  0.1503
  886MPD2    H212994   1.658   1.187  15.296 -2.4189  1.5334 -0.3413
  886MPD2    H312995   1.551   1.357  15.154  0.2366  0.8788  1.4561
  886MPD2     N12996   1.916   1.601  15.098  0.6943 -0.1751 -0.3776
  886MPD2    H512997   1.856   1.656  15.037  1.2507  1.1897  0.3000
  886MPD2    N112998   1.928   1.195  15.362 -0.3240  0.0173  0.4777
  886MPD2    H712999   2.023   1.225  15.381 -0.9063  2.4613 -0.4624
  887MPD2     C13000   2.478   1.244  15.526 -0.8523  0.0689  0.2941
  887MPD2    C113001   2.400   1.321  15.610  0.8635 -0.4906 -0.1677
  887MPD2    C213002   2.434   1.452  15.630 -0.2954  0.0051  0.1882
  887MPD2    C313003   2.540   1.513  15.567  0.3689  0.8080  0.2407
  887MPD2    C413004   2.622   1.433  15.489  0.6342  0.3327  1.0157
  887MPD2    C513005   2.588   1.300  15.471 -0.0587  0.0156  0.7676
  887MPD2     H13006   2.374   1.500  15.707 -0.8073  0.9075 -0.7722
  887MPD2    H113007   2.711   1.458  15.433  0.1833  0.4776  0.3688
  887MPD2    H213008   2.460   1.140  15.498  1.6812 -0.2961 -0.0178
  887MPD2    H313009   2.655   1.243  15.406 -2.4025  1.8720 -3.2999
  887MPD2     N13010   2.564   1.654  15.582  0.5584  0.7536  0.2222
  887MPD2    H513011   2.497   1.711  15.633  1.1288  2.9330 -1.4544
  887MPD2    N113012   2.272   1.273  15.661  0.1375 -0.3981 -0.2528
  887MPD2    H713013   2.205   1.343  15.690  1.0272  0.0595  0.7270
  888MPD2     C13014   4.620   1.198  14.556 -0.0240 -0.3972 -0.5864
  888MPD2    C113015   4.573   1.242  14.675 -0.3285  0.3287  0.2001
  888MPD2    C213016   4.625   1.353  14.741  1.0988 -0.3634  0.0428
  888MPD2    C313017   0.007   1.413  14.677  0.2354 -0.4374  0.0204
  888MPD2    C413018   0.052   1.369  14.556 -0.3823  0.0944  0.3732
  888MPD2    C513019   4.723   1.258  14.496 -0.1398 -0.6705 -0.3370
  888MPD2     H13020   4.585   1.388  14.835 -0.9654  0.1561 -1.0227
  888MPD2    H113021   0.136   1.423  14.513  2.5553 -3.2762  1.8327
  888MPD2    H213022   4.578   1.125  14.488  0.5297  0.2413 -1.6123
  888MPD2    H313023   0.034   1.224  14.399  0.5489  0.8185 -0.6195
  888MPD2     N13024   0.041   1.537  14.734 -0.8198 -0.9127 -0.6374
  888MPD2    H513025   0.012   1.556  14.829  0.4083 -0.1220 -0.4269
  888MPD2    N113026   4.456   1.183  14.735 -0.2381  0.1387  0.4236
  888MPD2    H713027   4.430   1.230  14.822 -1.7237 -0.4533  0.3046
  889MPD2     C13028   3.509   0.970  12.650  0.7131 -0.0043 -0.1774
  889MPD2    C113029   3.559   0.938  12.773  0.2773 -0.3612 -0.6909
  889MPD2    C213030   3.535   1.036  12.867 -0.4448 -0.1726  0.3810
  889MPD2    C313031   3.505   1.169  12.827 -0.3919 -0.6962  0.7010
  889MPD2    C413032   3.481   1.198  12.695 -0.1205 -0.1790 -0.6260
  889MPD2    C513033   3.488   1.101  12.602 -0.7276 -0.6024  0.4471
  889MPD2     H13034   3.564   1.008  12.968  0.0313  0.2789  0.3681
  889MPD2    H113035   3.477   1.301  12.660 -0.0021 -0.1123 -0.4472
  889MPD2    H213036   3.513   0.891  12.576  1.1390 -1.5283  1.4957
  889MPD2    H313037   3.477   1.120  12.495 -1.7968 -1.1208  0.4637
  889MPD2     N13038   3.493   1.261  12.934 -0.3214  0.3401  0.1694
  889MPD2    H513039   3.524   1.223  13.023  1.5845  0.2927 -0.5062
  889MPD2    N113040   3.576   0.800  12.803  0.1096 -0.0565 -0.0860
  889MPD2    H713041   3.562   0.730  12.731  2.2249 -0.6036  0.0349
  890MPD2     C13042   3.456   2.646  14.875 -0.5977  0.0837  0.4791
  890MPD2    C113043   3.448   2.693  15.011 -0.7978 -0.1547  0.2139
  890MPD2    C213044   3.493   2.607  15.115 -0.4874  0.7312  0.0879
  890MPD2    C313045   3.533   2.476  15.087  0.0363 -0.3269 -0.0155
  890MPD2    C413046   3.523   2.430  14.961  0.1193  0.3643 -0.0639
  890MPD2    C513047   3.488   2.516  14.860  0.9498 -0.2467 -0.1673
  890MPD2     H13048   3.504   2.646  15.215  2.0859 -1.4491  0.6638
  890MPD2    H113049   3.542   2.325  14.939 -0.5630  0.0106  1.0440
  890MPD2    H213050   3.444   2.708  14.787 -1.0554 -0.0116  0.4717
  890MPD2    H313051   3.466   2.494  14.757  1.1033 -1.2225  0.0139
  890MPD2     N13052   3.573   2.388  15.193  0.3258 -0.2176  1.4290
  890MPD2    H513053   3.615   2.300  15.165  0.6731  0.3350  0.2658
  890MPD2    N113054   3.408   2.826  15.042 -0.1683  0.0048  0.0863
  890MPD2    H713055   3.389   2.892  14.966  2.1691  1.4035  0.6995
  891MPD2     C13056   1.325   1.117  16.476  0.5831  0.1739 -0.6918
  891MPD2    C113057   1.305   1.231  16.552  1.1573 -0.0162 -0.4527
  891MPD2    C213058   1.374   1.244  16.672  0.6238 -0.1006  0.1019
  891MPD2    C313059   1.476   1.161  16.710  0.4055 -1.2133 -0.4079
  891MPD2    C413060   1.505   1.060  16.623 -0.3214  0.2713 -0.1971
  891MPD2    C513061   1.425   1.035  16.516  0.1730 -0.7495  0.1995
  891MPD2     H13062   1.347   1.326  16.737 -3.2562  0.1974 -1.8526
  891MPD2    H113063   1.594   0.999  16.627 -0.5748 -0.0036  1.3894
  891MPD2    H213064   1.265   1.105  16.387 -0.3220 -0.9884  0.0563
  891MPD2    H313065   1.458   0.958  16.447 -0.3987  0.5643 -1.5223
  891MPD2     N13066   1.559   1.189  16.825 -0.5207  0.1267  0.6821
  891MPD2    H513067   1.526   1.270  16.878  0.8468  0.6081  0.8087
  891MPD2    N113068   1.199   1.313  16.507 -0.4605  0.0099  0.2122
  891MPD2    H713069   1.166   1.293  16.413 -0.5405  1.4785 -0.0705
  892MPD2     C13070   2.545   2.305  14.595 -0.3637  0.4097  0.2430
  892MPD2    C113071   2.442   2.260  14.517 -0.8536  0.6101 -0.3888
  892MPD2    C213072   2.465   2.212  14.391 -0.0709 -0.3468 -0.0323
  892MPD2    C313073   2.594   2.201  14.346  0.9246 -0.1677 -1.0297
  892MPD2    C413074   2.696   2.247  14.424  0.7858  0.4704  0.1453
  892MPD2    C513075   2.671   2.306  14.548  0.3936 -0.2438  0.2549
  892MPD2     H13076   2.384   2.172  14.331 -1.4085  0.6561  1.0827
  892MPD2    H113077   2.799   2.225  14.399  0.5361 -0.6350  0.0794
  892MPD2    H213078   2.527   2.358  14.688 -3.0502  0.9453 -0.5675
  892MPD2    H313079   2.756   2.350  14.598 -0.0868 -0.0481  0.8877
  892MPD2     N13080   2.624   2.117  14.236  0.0442 -0.2890  0.2161
  892MPD2    H513081   2.725   2.110  14.233  0.0479  0.3739 -1.1982
  892MPD2    N113082   2.310   2.254  14.566  0.2036  0.4424  0.4322
  892MPD2    H713083   2.242   2.229  14.494  0.8873  0.4168 -0.2067
  893MPD2     C13084   0.053   0.899   1.388 -0.0662 -0.3551  0.0494
  893MPD2    C113085   0.048   1.036   1.428  0.4128 -0.2299 -0.3761
  893MPD2    C213086   4.696   1.127   1.346 -0.2026 -0.1799  0.1632
  893MPD2    C313087   4.631   1.078   1.234 -0.3481  0.1881  0.2036
  893MPD2    C413088   4.622   0.938   1.210  0.4511  0.1871 -0.3429
  893MPD2    C513089   4.705   0.857   1.276  0.2634  0.2168  0.6825
  893MPD2     H13090   4.702   1.232   1.371 -0.3853 -0.3052  0.7353
  893MPD2    H113091   4.558   0.899   1.132  0.5896 -0.4384 -0.1355
  893MPD2    H213092   0.106   0.820   1.441 -0.5890 -0.2846  0.6783
  893MPD2    H313093   4.722   0.758   1.236  0.5640  0.8330 -0.7073
  893MPD2     N13094   4.554   1.159   1.146 -0.1634  0.4744  0.0218
  893MPD2    H513095   4.498   1.118   1.072 -0.0602 -0.0848  0.2588
  893MPD2    N113096   0.127   1.074   1.534  0.4438  0.2208  0.0698
  893MPD2    H713097   0.194   1.008   1.573 -0.8651 -1.7219 -0.9997
  894MPD2     C13098   2.315   2.630   0.805  0.3259 -0.2937  1.0349
  894MPD2    C113099   2.354   2.683   0.926  0.1859 -0.0311 -0.5949
  894MPD2    C213100   2.397   2.814   0.933  0.4738 -0.6539  0.3451
  894MPD2    C313101   2.399   2.887   0.818  0.1341  0.5800 -0.0937
  894MPD2    C413102   2.366   2.841   0.698  0.1093  0.2177  0.0915
  894MPD2    C513103   2.324   2.707   0.694 -0.5876  0.3893  0.2528
  894MPD2     H13104   2.424   2.858   1.028 -2.7044  2.0617 -0.0314
  894MPD2    H113105   2.380   2.892   0.604  3.3056  2.4827  1.7734
  894MPD2    H213106   2.282   2.528   0.792  1.9394 -0.9361  1.9904
  894MPD2    H313107   2.306   2.667   0.595  0.0476  1.7818 -0.4341
  894MPD2     N13108   2.448   3.017   0.840 -0.0980 -0.2877  0.5805
  894MPD2    H513109   2.494   3.027   0.930 -0.1195  1.4578  0.3989
  894MPD2    N113110   2.343   2.615   1.048 -0.3773 -0.2915  0.2911
  894MPD2    H713111   2.383   2.665   1.127 -0.6627  0.9223 -0.3228
  895MPD2     C13112   1.855   1.410  13.629 -0.2593 -0.1047 -0.5107
  895MPD2    C113113   1.760   1.375  13.538  0.2042  0.4349  0.0628
  895MPD2    C213114   1.725   1.237  13.527  0.4119 -0.4950 -0.0857
  895MPD2    C313115   1.783   1.143  13.612 -0.1916  0.0397  0.2457
  895MPD2    C413116   1.884   1.187  13.696  0.1578 -0.4577 -0.3417
  895MPD2    C513117   1.919   1.321  13.701  0.0597  0.0412  0.3149
  895MPD2     H13118   1.645   1.215  13.458 -1.1254  1.6073  1.0116
  895MPD2    H113119   1.933   1.120  13.767  1.8290  3.5875  2.3029
  895MPD2    H213120   1.871   1.517  13.641 -1.1303 -0.3378  2.5368
  895MPD2    H313121   1.993   1.343  13.776 -1.3276  1.6360  1.2339
  895MPD2     N13122   1.751   1.005  13.612  0.1149 -0.3400 -0.0728
  895MPD2    H513123   1.802   0.954  13.683  0.9957 -1.6373 -1.6431
  895MPD2    N113124   1.682   1.461  13.462 -0.6273  0.1109  0.2337
  895MPD2    H713125   1.626   1.416  13.390 -0.2086 -0.1177  0.0497
  896MPD2     C13126   3.682   4.373   1.458  0.3978 -0.9537 -0.3585
  896MPD2    C113127   3.762   4.292   1.380 -0.3003 -0.2789  0.2902
  896MPD2    C213128   3.710   4.178   1.327 -0.0689 -0.2543  0.2445
  896MPD2    C313129   3.576   4.146   1.338  0.5249 -0.4883  0.3380
  896MPD2    C413130   3.496   4.224   1.416 -0.6125 -0.2774 -0.3114
  896MPD2    C513131   3.553   4.336   1.471 -0.5252 -0.7346  0.5088
  896MPD2     H13132   3.776   4.113   1.271 -0.9174 -1.4949  0.6973
  896MPD2    H113133   3.394   4.197   1.437 -1.0686  1.9574  0.3822
  896MPD2    H213134   3.727   4.467   1.489 -0.9590 -1.0884  1.9697
  896MPD2    H313135   3.491   4.406   1.527  2.1906 -0.7684  3.5555
  896MPD2     N13136   3.531   4.029   1.270 -0.0396 -0.3275 -0.2421
  896MPD2    H513137   3.596   3.972   1.217  0.2138  0.4327 -0.7508
  896MPD2    N113138   3.891   4.346   1.348 -0.4643 -0.4484 -0.1955
  896MPD2    H713139   3.919   4.431   1.395  1.9384 -1.6981  0.6630
  897MPD2     C13140   4.254   0.891   9.706  0.1007 -0.6077 -0.7587
  897MPD2    C113141   4.308   0.986   9.789 -0.3980 -0.2569 -0.7304
  897MPD2    C213142   4.325   0.961   9.926  0.0248 -0.0065 -0.1198
  897MPD2    C313143   4.298   0.836   9.964 -0.2799 -0.3805  0.3690
  897MPD2    C413144   4.240   0.743   9.877 -0.0779 -0.4778 -0.4132
  897MPD2    C513145   4.222   0.769   9.747 -0.3527 -0.7889 -0.1826
  897MPD2     H13146   4.371   1.030   9.996 -0.2865 -1.3233  1.3908
  897MPD2    H113147   4.204   0.644   9.902 -1.5422  0.4706  1.2531
  897MPD2    H213148   4.255   0.916   9.601  0.9408  2.3392 -0.0669
  897MPD2    H313149   4.178   0.696   9.680 -0.1062 -1.5293  0.4495
  897MPD2     N13150   4.332   0.803  10.101 -0.2959  0.4972 -0.1252
  897MPD2    H513151   4.378   0.878  10.152  0.6117 -0.3022  0.2289
  897MPD2    N113152   4.356   1.101   9.719 -0.2031  0.3090 -0.3059
  897MPD2    H713153   4.348   1.101   9.618 -0.0516  0.5403 -0.3190
  898MPD2     C13154   3.074   1.013  17.545  0.2758  0.1209  0.3903
  898MPD2    C113155   3.059   1.146  17.515  0.2289 -0.1223 -0.5742
  898MPD2    C213156   3.003   1.176  17.390  0.6246 -0.3533  0.2791
  898MPD2    C313157   2.951   1.077  17.306  0.4058  0.1029  0.6897
  898MPD2    C413158   2.953   0.943  17.346 -0.0168 -0.8479  0.0239
  898MPD2    C513159   3.009   0.917  17.467 -0.5715  0.2493 -0.8640
  898MPD2     H13160   2.997   1.275  17.345  1.2335 -0.0061  0.9627
  898MPD2    H113161   2.916   0.860  17.287  0.9894  1.0008 -3.1965
  898MPD2    H213162   3.129   0.976  17.631  0.0144  0.0018  0.5085
  898MPD2    H313163   3.023   0.816  17.503 -0.1106  1.3671  2.0960
  898MPD2     N13164   2.883   1.120  17.187 -0.1997 -0.2156 -0.2238
  898MPD2    H513165   2.888   1.219  17.165  1.2861 -0.5762 -1.5052
  898MPD2    N113166   3.096   1.251  17.598  0.2350  0.1981  0.1157
  898MPD2    H713167   3.063   1.340  17.562  0.2916  0.2115  0.0980
  899MPD2     C13168   3.365   2.103  17.636 -0.6663 -0.8117 -0.8949
  899MPD2    C113169   3.384   2.240  17.646 -0.5754  0.0800 -0.2382
  899MPD2    C213170   3.384   2.302   0.072  0.9178 -0.3373  0.0763
  899MPD2    C313171   3.343   2.233   0.183  0.2300  0.8076 -0.2121
  899MPD2    C413172   3.321   2.098   0.184  0.2375 -0.3030 -0.4451
  899MPD2    C513173   3.328   2.040   0.057  0.6870 -0.1543 -0.0591
  899MPD2     H13174   3.417   2.405   0.076 -0.0887 -0.0890  2.3570
  899MPD2    H113175   3.297   2.039   0.272  1.2770  2.1609  1.4828
  899MPD2    H213176   3.363   2.041  17.547 -1.0056  0.6927 -1.9362
  899MPD2    H313177   3.292   1.938   0.053 -1.5468  0.6601 -0.6921
  899MPD2     N13178   3.308   2.318   0.296 -0.5718  0.0711 -0.0088
  899MPD2    H513179   3.237   2.270   0.350  0.3322 -0.0699  1.0452
  899MPD2    N113180   3.406   2.323  17.529  0.5401  0.0242  0.3371
  899MPD2    H713181   3.417   2.423  17.546  1.2171 -0.0304  0.2183
  900MPD2     C13182   2.758   4.026  12.181  0.2066 -0.4169 -0.7441
  900MPD2    C113183   2.661   3.934  12.157  0.0583  0.0279  0.1024
  900MPD2    C213184   2.607   3.915  12.035 -0.0460 -0.6109 -0.6935
  900MPD2    C313185   2.632   4.005  11.938 -0.3772  0.0143 -0.0389
  900MPD2    C413186   2.718   4.113  11.962 -0.5579 -1.0655  0.0887
  900MPD2    C513187   2.783   4.119  12.082 -0.7125 -0.8355  0.1596
  900MPD2     H13188   2.538   3.834  12.013 -0.2406 -0.6556  0.0744
  900MPD2    H113189   2.730   4.183  11.880 -0.9416 -2.3186 -1.0337
  900MPD2    H213190   2.809   4.026  12.277 -0.0924 -0.7342 -0.5833
  900MPD2    H313191   2.845   4.200  12.118  0.0713 -0.7785 -1.3406
  900MPD2     N13192   2.548   3.991  11.822  0.0515  0.5574  0.3080
  900MPD2    H513193   2.484   3.913  11.814  0.7814 -0.1795  1.6919
  900MPD2    N113194   2.631   3.840  12.260 -0.0809 -0.2657 -0.1250
  900MPD2    H713195   2.697   3.837  12.338  1.1270 -0.0910 -1.1386
  901MPD2     C13196   2.159   2.850  12.356 -0.0935 -0.0596 -0.0445
  901MPD2    C113197   2.294   2.837  12.338 -0.7308  0.0716 -0.0649
  901MPD2    C213198   2.373   2.949  12.332 -1.0827  0.5539 -0.0992
  901MPD2    C313199   2.324   3.078  12.340  0.4093  0.6736 -0.2157
  901MPD2    C413200   2.182   3.090  12.360  0.6063  0.6077  0.0542
  901MPD2    C513201   2.103   2.975  12.363 -0.2612  0.6682  0.6550
  901MPD2     H13202   2.480   2.940  12.318 -0.9440  0.6562  0.8812
  901MPD2    H113203   2.126   3.183  12.355 -0.0433  0.2320  0.3568
  901MPD2    H213204   2.094   2.764  12.363  0.1764 -0.2895 -0.3587
  901MPD2    H313205   1.995   2.980  12.374 -0.5395 -1.7905 -0.8022
  901MPD2     N13206   2.416   3.188  12.340  0.5873  0.3636 -0.3188
  901MPD2    H513207   2.515   3.164  12.331  0.4424  0.4403 -2.1286
  901MPD2    N113208   2.353   2.712  12.337 -0.0373 -0.7029  1.1346
  901MPD2    H713209   2.292   2.631  12.346 -1.8362  0.4866 -0.3394
  902MPD2     C13210   1.844   2.095  12.813 -0.6619  0.6992 -0.1435
  902MPD2    C113211   1.789   2.113  12.689  0.2630  0.2553 -0.0166
  902MPD2    C213212   1.834   2.023  12.592 -0.4190  0.2793 -0.1387
  902MPD2    C313213   1.924   1.911  12.618 -0.6837 -0.7773 -0.4438
  902MPD2    C413214   1.985   1.909  12.736  0.1616  0.5675 -0.0137
  902MPD2    C513215   1.953   2.004  12.834  0.0848  0.7601 -0.0524
  902MPD2     H13216   1.792   2.025  12.492 -2.1076  0.4433  0.5825
  902MPD2    H113217   2.065   1.840  12.760  0.5129  1.2603  0.8557
  902MPD2    H213218   1.834   2.171  12.889  1.2947  1.2530 -0.4377
  902MPD2    H313219   2.010   1.985  12.924 -2.9649  2.3146  2.2083
  902MPD2     N13220   1.962   1.815  12.518  0.4671 -0.2568 -0.2640
  902MPD2    H513221   2.037   1.749  12.536 -1.1661 -1.8297  0.8314
  902MPD2    N113222   1.698   2.223  12.669  0.0691 -0.1574  0.8979
  902MPD2    H713223   1.679   2.277  12.753 -1.6836 -0.2464  0.5498
  903MPD2     C13224   1.956   1.310  11.709 -0.1907 -0.0099  0.6672
  903MPD2    C113225   1.879   1.383  11.796  0.4707  0.1019  0.2259
  903MPD2    C213226   1.737   1.396  11.772  0.7797 -0.1706  0.0488
  903MPD2    C313227   1.676   1.328  11.668 -0.0800 -0.2739  0.1120
  903MPD2    C413228   1.755   1.256  11.586 -0.0981 -0.2748  0.2853
  903MPD2    C513229   1.890   1.234  11.610  0.1664  0.6671  0.0731
  903MPD2     H13230   1.669   1.448  11.838  0.7884  0.4258 -0.4084
  903MPD2    H113231   1.722   1.204  11.496  0.2733 -3.1697  1.8061
  903MPD2    H213232   2.061   1.294  11.733  0.2881  0.1815 -1.3167
  903MPD2    H313233   1.950   1.183  11.536 -2.3038 -0.6576 -0.9948
  903MPD2     N13234   1.534   1.334  11.655  0.1371  0.0160  0.3607
  903MPD2    H513235   1.485   1.372  11.736 -1.1347 -0.8221 -0.0200
  903MPD2    N113236   1.937   1.450  11.907 -0.4349 -0.0409 -0.3773
  903MPD2    H713237   2.038   1.458  11.915 -0.6702  0.4408  2.0103
  904MPD2     C13238   1.212   0.747  13.911  0.2416 -0.3027  0.7250
  904MPD2    C113239   1.235   0.738  14.047 -0.2635  0.4565  0.1238
  904MPD2    C213240   1.359   0.766  14.101 -0.9777 -0.1587 -0.1798
  904MPD2    C313241   1.465   0.806  14.016  0.1061  0.3692  0.3647
  904MPD2    C413242   1.437   0.807  13.882  0.3357 -0.1032 -0.0979
  904MPD2    C513243   1.307   0.789  13.832 -0.3260  0.0667 -1.0628
  904MPD2     H13244   1.365   0.759  14.209  0.3800  3.5946 -0.0200
  904MPD2    H113245   1.516   0.830  13.812  1.7648 -1.8348  0.9452
  904MPD2    H213246   1.123   0.712  13.859 -0.9393 -0.9466  3.1747
  904MPD2    H313247   1.294   0.784  13.725  2.0904  0.7237 -1.3762
  904MPD2     N13248   1.595   0.817  14.079 -0.3327  0.1141  0.1048
  904MPD2    H513249   1.600   0.806  14.180 -1.2686  1.2775  0.2764
  904MPD2    N113250   1.132   0.710  14.143  0.0376 -0.4888 -0.0723
  904MPD2    H713251   1.167   0.677  14.232 -1.4066  1.3632  1.1602
  905MPD2     C13252   0.917   0.598  13.549 -0.6053 -0.0436 -0.2970
  905MPD2    C113253   0.972   0.722  13.568 -0.1877  0.5885 -0.4651
  905MPD2    C213254   1.094   0.752  13.508 -0.4247  0.6387 -0.7443
  905MPD2    C313255   1.170   0.647  13.453 -1.0308  0.7813  0.3356
  905MPD2    C413256   1.107   0.532  13.422  0.3567 -0.0849 -0.1664
  905MPD2    C513257   0.979   0.509  13.460  0.2556  0.2980  0.0672
  905MPD2     H13258   1.138   0.850  13.524  0.4267  0.0318  0.6371
  905MPD2    H113259   1.152   0.447  13.373  1.8667  2.0766 -2.5249
  905MPD2    H213260   0.817   0.570  13.579 -0.4596 -1.7462 -1.3622
  905MPD2    H313261   0.939   0.409  13.455 -1.2722  0.7996  2.1288
  905MPD2     N13262   1.308   0.662  13.435  0.4193  0.3284 -0.7292
  905MPD2    H513263   1.345   0.754  13.459  0.1867  0.1540  0.2931
  905MPD2    N113264   0.912   0.826  13.642  0.2544 -0.9032 -0.2354
  905MPD2    H713265   0.963   0.914  13.649 -2.7481  0.8893 -1.1772
  906MPD2     C13266   3.629   1.340  11.368 -0.4071  0.2328  0.3908
  906MPD2    C113267   3.710   1.247  11.316  0.9573 -0.7096 -0.1574
  906MPD2    C213268   3.715   1.122  11.374 -0.6655 -0.0053  0.2760
  906MPD2    C313269   3.613   1.073  11.453  0.8124  0.5021  0.1268
  906MPD2    C413270   3.534   1.172  11.508 -0.7235 -0.6610 -0.5588
  906MPD2    C513271   3.547   1.300  11.471 -0.0145  0.8515 -0.3917
  906MPD2     H13272   3.787   1.054  11.330  0.8301 -0.1098  2.8542
  906MPD2    H113273   3.447   1.150  11.570 -0.2347 -1.2145 -0.0661
  906MPD2    H213274   3.625   1.443  11.333 -1.9452  0.1489  0.3461
  906MPD2    H313275   3.486   1.370  11.528  1.5321 -0.8488  3.3685
  906MPD2     N13276   3.586   0.942  11.494  0.7836 -0.0673  0.0397
  906MPD2    H513277   3.497   0.929  11.541  1.2699 -2.9001  0.1784
  906MPD2    N113278   3.790   1.263  11.200 -0.0795  0.6049  0.6892
  906MPD2    H713279   3.869   1.201  11.183 -1.2505 -0.5470 -0.5574
  907MPD2     C13280   2.862   0.244  15.039  0.2280 -0.1290 -0.0495
  907MPD2    C113281   2.807   0.161  15.132 -0.2403 -0.2150 -0.0298
  907MPD2    C213282   2.889   0.088  15.209 -0.6346  0.0394 -0.1140
  907MPD2    C313283   3.026   0.099  15.199  0.4187 -0.0245 -0.9102
  907MPD2    C413284   3.078   0.178  15.100 -0.0996  0.6431 -0.0416
  907MPD2    C513285   2.999   0.257  15.024  0.2099 -0.3301  0.4108
  907MPD2     H13286   2.839   0.024  15.281  0.9947 -0.7362  0.3354
  907MPD2    H113287   3.183   0.199  15.084  1.0144 -5.5989 -1.1355
  907MPD2    H213288   2.798   0.300  14.971 -0.1631 -0.4743  0.0358
  907MPD2    H313289   3.050   0.334  14.966 -0.0053 -1.0745 -0.7777
  907MPD2     N13290   3.106   0.041  15.298  0.7569  0.3032 -0.1088
  907MPD2    H513291   3.055   4.713  15.369  0.7291 -1.5774 -1.4751
  907MPD2    N113292   2.665   0.146  15.147 -0.3215  0.4881 -0.8261
  907MPD2    H713293   2.640   0.070  15.210  1.1485  1.3330  0.7982
  908MPD2     C13294   4.368   1.222   8.874  0.3566  0.0370 -0.2777
  908MPD2    C113295   4.296   1.148   8.974 -1.0149  0.0900 -0.5459
  908MPD2    C213296   4.323   1.170   9.112  0.7671 -0.2689 -0.0237
  908MPD2    C313297   4.420   1.262   9.147 -0.2741  0.0566 -0.8801
  908MPD2    C413298   4.481   1.337   9.045 -0.0993 -0.2967  0.2534
  908MPD2    C513299   4.458   1.316   8.912 -0.2553  0.2836 -0.1525
  908MPD2     H13300   4.252   1.131   9.184  1.9208 -2.1172  0.1163
  908MPD2    H113301   4.547   1.419   9.071  0.5273 -0.5047 -0.6758
  908MPD2    H213302   4.355   1.212   8.767 -0.5373  2.7529 -0.4178
  908MPD2    H313303   4.498   1.380   8.833 -1.2861  0.7668 -0.2830
  908MPD2     N13304   4.441   1.295   9.285 -0.6508 -0.0059 -0.0277
  908MPD2    H513305   4.392   1.229   9.345 -1.1582  0.0981 -0.3277
  908MPD2    N113306   4.185   1.067   8.941  0.5642  0.6025  0.2562
  908MPD2    H713307   4.146   1.006   9.012  0.2686  1.7176  1.0506
  909MPD2     C13308   0.232   3.733  11.921 -0.7885 -0.6152 -0.1588
  909MPD2    C113309   0.224   3.824  11.816 -0.9390 -0.5070  0.3108
  909MPD2    C213310   0.123   3.910  11.801 -0.1234  0.5653 -0.0154
  909MPD2    C313311   0.025   3.919  11.897 -0.9392 -0.2599 -0.3299
  909MPD2    C413312   0.027   3.826  12.005  0.3223  0.3550  0.2017
  909MPD2    C513313   0.123   3.734  12.007 -0.2440 -0.1333  0.3352
  909MPD2     H13314   0.128   3.988  11.726  3.4691 -2.0251 -2.4736
  909MPD2    H113315   4.676   3.818  12.083  1.5410 -1.3568  1.2020
  909MPD2    H213316   0.312   3.661  11.935 -0.0341  0.1489 -0.5220
  909MPD2    H313317   0.128   3.664  12.090 -1.2388 -0.2034  0.3310
  909MPD2     N13318   4.656   4.034  11.884  0.0406 -0.5133 -0.2012
  909MPD2    H513319   4.656   4.087  11.798 -2.8151 -1.2480 -0.6618
  909MPD2    N113320   0.322   3.827  11.715 -0.0605  0.2079 -0.3757
  909MPD2    H713321   0.312   3.910  11.658 -1.9261  0.0409 -0.2712
  910MPD2     C13322   1.565   0.610  15.959 -0.0930  0.3733  0.1456
  910MPD2    C113323   1.664   0.583  15.865  0.6711 -0.1869 -0.4014
  910MPD2    C213324   1.664   0.649  15.739  0.3198 -0.4831  0.9454
  910MPD2    C313325   1.555   0.739  15.708 -0.1844  0.0636 -0.3858
  910MPD2    C413326   1.468   0.767  15.810 -0.0665  0.0786 -0.5825
  910MPD2    C513327   1.471   0.697  15.931  0.1921  0.4524 -0.2568
  910MPD2     H13328   1.734   0.619  15.663 -1.6627 -2.4337 -0.1114
  910MPD2    H113329   1.388   0.836  15.786  1.6586  1.9323 -0.9728
  910MPD2    H213330   1.555   0.553  16.050 -0.8845 -1.1648 -0.9206
  910MPD2    H313331   1.391   0.713  16.002 -2.3112 -4.3429 -1.9156
  910MPD2     N13332   1.531   0.807  15.581 -0.2314 -0.4635 -0.7901
  910MPD2    H513333   1.451   0.870  15.579  0.4488  0.5133  2.4067
  910MPD2    N113334   1.775   0.493  15.894 -0.1949  0.5315 -0.1003
  910MPD2    H713335   1.841   0.493  15.817  1.1398 -0.1071  1.0382
  911MPD2     C13336   4.446   1.314  16.015  0.2780  0.5420 -0.2944
  911MPD2    C113337   4.454   1.395  16.129  0.2002 -0.7457 -0.2313
  911MPD2    C213338   4.424   1.528  16.109 -0.2407 -0.2081  0.0019
  911MPD2    C313339   4.384   1.580  15.987 -0.3737  0.0645 -0.3746
  911MPD2    C413340   4.375   1.502  15.879  0.6865 -0.5144 -0.6614
  911MPD2    C513341   4.400   1.368  15.901 -0.3640  0.0217  0.3127
  911MPD2     H13342   4.419   1.586  16.201  0.5429  0.1149 -0.1570
  911MPD2    H113343   4.347   1.531  15.778 -1.3412  0.1079  0.0885
  911MPD2    H213344   4.488   1.214  16.018  0.9442  0.8356  0.1866
  911MPD2    H313345   4.383   1.305  15.815  0.8312  0.0981  0.0215
  911MPD2     N13346   4.348   1.717  15.959  0.0822  1.2440 -0.3178
  911MPD2    H513347   4.341   1.742  15.861 -0.6642 -0.6097 -0.7428
  911MPD2    N113348   4.499   1.342  16.255  0.0644 -0.1697  0.0744
  911MPD2    H713349   4.519   1.243  16.253  0.2776 -0.1492  1.1848
  912MPD2     C13350   4.019   1.458  15.661 -0.3983 -0.1859 -0.0916
  912MPD2    C113351   4.002   1.518  15.788  0.3440 -0.2468 -0.0257
  912MPD2    C213352   4.000   1.444  15.904  0.4144  0.4197  0.2499
  912MPD2    C313353   4.014   1.311  15.901  0.1521 -0.3825  0.0282
  912MPD2    C413354   4.029   1.251  15.775 -0.0020  0.2027 -0.4736
  912MPD2    C513355   4.024   1.319  15.655 -0.5423 -0.0155  0.3125
  912MPD2     H13356   3.990   1.500  15.997  1.6461  0.4843  0.3371
  912MPD2    H113357   4.037   1.143  15.768 -1.6396  0.0954 -0.7575
  912MPD2    H213358   4.032   1.519  15.573 -1.4564  2.4140  1.5621
  912MPD2    H313359   4.034   1.262  15.564  1.1059  2.6083 -1.1557
  912MPD2     N13360   4.013   1.234  16.023 -0.0117  0.4285  0.7191
  912MPD2    H513361   4.010   1.285  16.110 -0.4865  1.3507  0.1609
  912MPD2    N113362   3.993   1.660  15.784  0.8466 -0.3933 -0.0707
  912MPD2    H713363   4.008   1.705  15.694 -0.2008 -1.4552 -0.7818
  913MPD2     C13364   4.381   2.009   9.658 -0.0384  0.0115  0.4985
  913MPD2    C113365   4.474   2.079   9.724  0.2744  0.4141  0.3714
  913MPD2    C213366   4.468   2.219   9.715 -0.6070  0.4302  0.0007
  913MPD2    C313367   4.366   2.280   9.641 -0.2227  0.6611  0.1917
  913MPD2    C413368   4.280   2.200   9.575 -0.8024 -0.1892  0.6758
  913MPD2    C513369   4.284   2.063   9.584 -0.0576 -0.3037 -0.2894
  913MPD2     H13370   4.540   2.284   9.763 -1.5380  2.3254 -1.1480
  913MPD2    H113371   4.204   2.243   9.510 -1.2414 -2.4514 -0.2880
  913MPD2    H213372   4.373   1.902   9.672  1.5272 -0.4941 -2.4196
  913MPD2    H313373   4.214   2.002   9.528  0.0774 -1.2276  0.5491
  913MPD2     N13374   4.358   2.423   9.618  0.3107 -0.6019 -0.1954
  913MPD2    H513375   4.283   2.455   9.557  0.9498  0.5886 -0.3556
  913MPD2    N113376   4.556   2.011   9.805 -0.2122 -0.0040 -0.4518
  913MPD2    H713377   4.547   1.910   9.813 -0.1368  0.1287  1.4166
  914MPD2     C13378   2.005   2.154  11.836 -0.8405 -0.1651 -0.2015
  914MPD2    C113379   1.991   2.284  11.883  1.7778 -0.1608 -0.7136
  914MPD2    C213380   2.081   2.329  11.979 -0.2440 -0.7147  0.1409
  914MPD2    C313381   2.192   2.257  12.011  0.8236  0.4853  0.3756
  914MPD2    C413382   2.205   2.131  11.958 -0.1194  0.3361  0.5510
  914MPD2    C513383   2.110   2.077  11.879 -0.0258 -0.5718  0.6094
  914MPD2     H13384   2.081   2.433  12.007 -2.2503 -0.0630 -2.3702
  914MPD2    H113385   2.295   2.077  11.984 -0.5128 -1.0445 -1.0163
  914MPD2    H213386   1.940   2.114  11.759 -1.5753  0.5159  0.0594
  914MPD2    H313387   2.136   1.977  11.846 -4.6247 -2.4487  2.6999
  914MPD2     N13388   2.290   2.315  12.101 -0.4071  0.0815  0.3762
  914MPD2    H513389   2.259   2.393  12.159  0.7354  2.6180 -2.4278
  914MPD2    N113390   1.903   2.368  11.819  1.0082  0.4231 -0.0168
  914MPD2    H713391   1.861   2.337  11.731  1.2267 -1.2458  0.4646
  915MPD2     C13392   1.205   2.727  15.454  0.3064  0.4261  0.1951
  915MPD2    C113393   1.090   2.792  15.469  0.6386 -0.6644 -0.3170
  915MPD2    C213394   1.030   2.803  15.594  0.6054  0.3710 -0.2040
  915MPD2    C313395   1.099   2.746  15.704 -0.4392 -0.1714  0.4350
  915MPD2    C413396   1.221   2.683  15.695 -0.4422  0.3445 -0.4805
  915MPD2    C513397   1.275   2.676  15.568  0.3523  0.4428  0.8790
  915MPD2     H13398   0.927   2.836  15.604  0.4973  0.2695 -0.9410
  915MPD2    H113399   1.269   2.655  15.788 -2.3421 -1.2192  0.0359
  915MPD2    H213400   1.255   2.715  15.358  0.5873 -1.3974  0.5728
  915MPD2    H313401   1.375   2.632  15.564  0.0382  0.0185 -1.9847
  915MPD2     N13402   1.036   2.765  15.826 -0.2711  0.1059  0.0852
  915MPD2    H513403   0.950   2.819  15.832 -0.2337  0.3620 -1.4994
  915MPD2    N113404   1.031   2.848  15.353 -0.2934 -0.1095  0.1637
  915MPD2    H713405   1.073   2.811  15.268 -3.2161 -2.5633 -0.2296
  916MPD2     C13406   3.724   1.044  15.672  0.8533 -0.1713  0.4129
  916MPD2    C113407   3.708   0.951  15.771  0.5307 -0.3386  0.3362
  916MPD2    C213408   3.718   0.822  15.736 -0.7126 -0.4042 -0.1912
  916MPD2    C313409   3.761   0.781  15.616 -0.4092 -0.0764  0.3027
  916MPD2    C413410   3.757   0.872  15.513  0.3312 -0.3251 -0.5186
  916MPD2    C513411   3.740   1.005  15.546  0.0614  0.0580  0.0613
  916MPD2     H13412   3.701   0.749  15.815 -2.0675  0.3067  0.1776
  916MPD2    H113413   3.774   0.848  15.408 -1.5471  2.1654 -1.4014
  916MPD2    H213414   3.703   1.150  15.683 -0.4639 -0.3579 -0.3840
  916MPD2    H313415   3.746   1.080  15.469  0.5537  1.0897  1.0932
  916MPD2     N13416   3.760   0.648  15.589 -0.3619  0.4342 -0.3505
  916MPD2    H513417   3.747   0.580  15.663  3.2444 -0.9266 -0.9385
  916MPD2    N113418   3.664   0.994  15.891  0.0176  0.1326  0.0151
  916MPD2    H713419   3.655   1.095  15.890 -2.3656 -0.0824 -1.1522
  917MPD2     C13420   3.901   2.948  10.861  0.6054 -0.4878  0.1721
  917MPD2    C113421   3.853   3.056  10.932 -0.6338  0.3265 -0.0615
  917MPD2    C213422   3.874   3.185  10.885 -0.7850 -0.4167 -0.3737
  917MPD2    C313423   3.950   3.204  10.772 -0.2153 -0.6045 -0.3384
  917MPD2    C413424   4.002   3.097  10.703 -0.0392 -0.3648 -0.1869
  917MPD2    C513425   3.982   2.969  10.749  0.6849 -0.7815  0.0934
  917MPD2     H13426   3.825   3.266  10.937  1.9809  0.1943  1.2746
  917MPD2    H113427   4.064   3.111  10.616 -1.5397  2.8617 -0.7369
  917MPD2    H213428   3.880   2.846  10.894 -1.4236  0.1469  0.8332
  917MPD2    H313429   4.030   2.883  10.705  0.9648 -0.0139 -1.0893
  917MPD2     N13430   3.973   3.335  10.722 -0.7688 -0.2888 -0.4373
  917MPD2    H513431   4.018   3.346  10.632 -2.4814 -0.6664 -1.3375
  917MPD2    N113432   3.795   3.038  11.062 -0.0657 -0.3366  0.1022
  917MPD2    H713433   3.750   2.948  11.077  0.8814 -0.9347 -0.6195
  918MPD2     C13434   3.961   3.356  11.995 -0.0802  0.0316  0.0749
  918MPD2    C113435   4.041   3.298  11.897  0.1962  0.2821  0.3706
  918MPD2    C213436   3.983   3.226  11.790 -0.2109  0.3765 -0.8436
  918MPD2    C313437   3.846   3.220  11.778  0.3397  0.3253  0.0231
  918MPD2    C413438   3.767   3.275  11.874  0.6719  0.2308  0.4555
  918MPD2    C513439   3.823   3.352  11.978  0.9032 -0.0880  0.5394
  918MPD2     H13440   4.044   3.173  11.718  2.9697  1.6991  0.8759
  918MPD2    H113441   3.660   3.276  11.859  0.4754 -0.7692  1.7595
  918MPD2    H213442   3.997   3.410  12.082 -0.1656  0.3268 -0.0765
  918MPD2    H313443   3.757   3.400  12.050 -0.0025 -2.1006  1.0576
  918MPD2     N13444   3.795   3.172  11.655  0.2630 -0.4667 -0.5337
  918MPD2    H513445   3.870   3.162  11.588  0.3508  1.3623 -0.7179
  918MPD2    N113446   4.187   3.290  11.900 -0.0878 -0.2677 -0.4341
  918MPD2    H713447   4.234   3.230  11.833  0.5693  0.1241 -0.3251
  919MPD2     C13448   4.544   2.739  11.177  0.0753 -0.2534 -0.5081
  919MPD2    C113449   4.591   2.613  11.127 -0.0017 -0.0072  0.3272
  919MPD2    C213450   4.656   2.619  11.012 -0.1059 -0.0983  0.2598
  919MPD2    C313451   4.671   2.735  10.942  0.2262 -0.1170  0.0599
  919MPD2    C413452   4.617   2.850  10.982  0.3406 -0.0211  0.2744
  919MPD2    C513453   4.567   2.856  11.112 -0.1152 -0.6384  0.6172
  919MPD2     H13454   4.704   2.530  10.971  0.5146  0.8268 -1.0278
  919MPD2    H113455   4.634   2.944  10.932 -0.9569 -1.4584 -2.8749
  919MPD2    H213456   4.486   2.752  11.269  2.8659 -0.0239  1.2130
  919MPD2    H313457   4.519   2.946  11.149  2.0130  0.2665  1.1620
  919MPD2     N13458   4.723   2.744  10.811  0.0215  1.1847  0.1877
  919MPD2    H513459   4.697   2.830  10.765 -1.0797  0.8142  0.1188
  919MPD2    N113460   4.555   2.496  11.201 -0.0461  0.0169 -0.1055
  919MPD2    H713461   4.503   2.510  11.287 -0.3930 -1.6842 -0.0393
  920MPD2     C13462   4.177   2.717   9.932  0.2338  0.0096 -0.5039
  920MPD2    C113463   4.204   2.594   9.980  0.5798  0.3141  0.2467
  920MPD2    C213464   4.301   2.577  10.081 -0.7721  0.4045  0.5045
  920MPD2    C313465   4.371   2.683  10.133 -0.3626 -0.4634 -0.3392
  920MPD2    C413466   4.336   2.813  10.098  0.3457 -0.3462  0.6455
  920MPD2    C513467   4.242   2.823   9.996 -0.0758  1.0030  0.0927
  920MPD2     H13468   4.327   2.474  10.098 -1.2715  0.3985  1.2247
  920MPD2    H113469   4.383   2.899  10.144  2.3171 -2.3913  2.4530
  920MPD2    H213470   4.102   2.748   9.859 -0.6049  0.5320  0.5813
  920MPD2    H313471   4.218   2.925   9.967  2.0334  0.7334 -2.6471
  920MPD2     N13472   4.469   2.656  10.234 -0.0090  0.1348 -0.2039
  920MPD2    H513473   4.505   2.562  10.246 -0.6629  0.0439  1.0373
  920MPD2    N113474   4.152   2.474   9.931 -0.5150 -0.2434  0.6833
  920MPD2    H713475   4.181   2.393   9.985  1.2279 -0.0426  0.0404
  921MPD2     C13476   0.486   1.728  16.752  0.3288 -0.4015 -0.4539
  921MPD2    C113477   0.495   1.613  16.675 -0.0436  0.0169 -0.2875
  921MPD2    C213478   0.381   1.551  16.635  0.1520 -0.3490  0.2016
  921MPD2    C313479   0.264   1.585  16.701 -0.1229  0.2190 -0.1113
  921MPD2    C413480   0.251   1.703  16.776 -0.0086  0.7285 -0.2633
  921MPD2    C513481   0.367   1.776  16.792  0.0838  0.2143  0.3250
  921MPD2     H13482   0.386   1.464  16.571  1.3052 -1.0114  1.1876
  921MPD2    H113483   0.166   1.740  16.832  0.1591  0.6527  0.0395
  921MPD2    H213484   0.577   1.782  16.777  0.3377 -0.2971 -0.7183
  921MPD2    H313485   0.349   1.863  16.853 -0.2847  0.9666 -0.8701
  921MPD2     N13486   0.149   1.504  16.688  0.2902 -0.0445  0.2378
  921MPD2    H513487   0.063   1.541  16.726 -0.1027  0.2241 -0.8985
  921MPD2    N113488   0.621   1.579  16.630 -0.3694  0.0282  0.8553
  921MPD2    H713489   0.697   1.640  16.658  2.2363 -2.7899 -0.1061
  922MPD2     C13490   1.623   3.429  16.655 -0.1431  0.7580 -0.1183
  922MPD2    C113491   1.704   3.440  16.764 -0.1526 -0.0886  0.2334
  922MPD2    C213492   1.646   3.436  16.892  0.0823  0.9572 -0.4636
  922MPD2    C313493   1.509   3.432  16.902  0.2799 -0.4263  0.4023
  922MPD2    C413494   1.430   3.420  16.790  0.0185  0.2580 -0.0148
  922MPD2    C513495   1.488   3.428  16.668  0.5551  0.0076  0.0474
  922MPD2     H13496   1.714   3.422  16.975 -1.6166 -1.7873  0.4537
  922MPD2    H113497   1.322   3.415  16.793 -0.0443  1.7850  0.1067
  922MPD2    H213498   1.658   3.434  16.552  1.3649  1.5219  0.4402
  922MPD2    H313499   1.430   3.437  16.577  0.0602  0.8797  0.4498
  922MPD2     N13500   1.444   3.427  17.025 -0.0375  0.7994 -0.5911
  922MPD2    H513501   1.344   3.409  17.018  0.4172 -2.0486 -0.0517
  922MPD2    N113502   1.844   3.434  16.758 -0.0513  1.1357 -0.0359
  922MPD2    H713503   1.888   3.403  16.844 -0.3769  2.0271  0.4591
  923MPD2     C13504   2.450   0.656   8.862 -0.1095 -1.2183  0.2480
  923MPD2    C113505   2.460   0.790   8.846 -0.6367  0.7518 -0.1207
  923MPD2    C213506   2.557   0.857   8.916  0.0752  0.7919 -0.5058
  923MPD2    C313507   2.638   0.796   9.012 -0.2721 -0.4110  0.0667
  923MPD2    C413508   2.620   0.662   9.033  0.0653 -0.0763 -1.0443
  923MPD2    C513509   2.533   0.595   8.952  0.2113 -0.6063  0.6324
  923MPD2     H13510   2.580   0.959   8.887 -0.7818  0.4192 -2.5370
  923MPD2    H113511   2.666   0.593   9.102  0.2549  0.6033 -0.4939
  923MPD2    H213512   2.363   0.610   8.815  0.3373  0.3041 -2.0330
  923MPD2    H313513   2.523   0.488   8.966 -1.1478 -0.3574  1.5844
  923MPD2     N13514   2.719   0.867   9.095 -1.0019  0.3158 -0.2206
  923MPD2    H513515   2.765   0.810   9.165 -1.1380  1.4727  0.8122
  923MPD2    N113516   2.362   0.857   8.766  0.1677 -0.0388 -0.7067
  923MPD2    H713517   2.293   0.799   8.719 -0.7391 -0.9469  1.7959
  924MPD2     C13518   3.057   3.994  15.416 -0.3893  0.1397 -0.0283
  924MPD2    C113519   3.041   4.075  15.522  0.2981 -0.1890 -0.2228
  924MPD2    C213520   3.129   4.179  15.555  0.2312  0.2316 -0.0611
  924MPD2    C313521   3.236   4.209  15.471 -0.3206  0.5950 -0.1542
  924MPD2    C413522   3.253   4.125  15.364 -0.0097  0.4223  0.3808
  924MPD2    C513523   3.166   4.021  15.336  0.0798  0.9686 -0.6098
  924MPD2     H13524   3.088   4.243  15.633 -2.4773 -0.5296 -0.8602
  924MPD2    H113525   3.334   4.136  15.292  1.3313  0.4564  1.9018
  924MPD2    H213526   2.988   3.919  15.378 -0.3700  0.3101 -0.3997
  924MPD2    H313527   3.176   3.959  15.248  0.0272  1.4483 -0.9554
  924MPD2     N13528   3.321   4.316  15.484  0.6052 -0.4842 -0.5294
  924MPD2    H513529   3.398   4.318  15.418  1.8938  0.0603  0.9807
  924MPD2    N113530   2.930   4.061  15.610 -0.1114  0.2532 -0.1218
  924MPD2    H713531   2.934   4.107  15.700  0.0635 -0.9202  0.4695
  925MPD2     C13532   1.549   1.947  14.687  0.0862  0.4843  0.3839
  925MPD2    C113533   1.434   1.980  14.621 -0.2875 -0.4288  0.3907
  925MPD2    C213534   1.343   2.067  14.676 -0.1842  0.2850 -0.1932
  925MPD2    C313535   1.371   2.115  14.808 -0.1515  0.7908 -0.1652
  925MPD2    C413536   1.490   2.083  14.870 -0.3603 -0.2939 -0.4218
  925MPD2    C513537   1.579   2.003  14.807 -0.2272  0.1368  0.2457
  925MPD2     H13538   1.257   2.107  14.624 -0.6948 -0.2842  0.2181
  925MPD2    H113539   1.521   2.120  14.967  0.2488  0.2837 -0.8322
  925MPD2    H213540   1.632   1.890  14.646 -2.5069 -2.9300 -0.0768
  925MPD2    H313541   1.679   1.980  14.840  0.3106 -0.0510 -1.5699
  925MPD2     N13542   1.299   2.211  14.883  0.0024 -0.0281  0.5253
  925MPD2    H513543   1.333   2.218  14.978  1.9867  1.4260 -0.3005
  925MPD2    N113544   1.403   1.940  14.489  0.2249  0.0199  0.0724
  925MPD2    H713545   1.312   1.970  14.457 -1.3974 -2.1555  2.6201
  926MPD2     C13546   4.697   4.589  13.282 -0.1202  0.2498  0.7860
  926MPD2    C113547   4.605   4.689  13.299 -0.3652 -0.9120 -0.9112
  926MPD2    C213548   4.626   0.081  13.228 -0.2938  0.4047  0.1583
  926MPD2    C313549   0.005   0.087  13.141 -0.0029  0.1074  0.8106
  926MPD2    C413550   0.083   4.703  13.116 -0.1586  0.1753 -0.2237
  926MPD2    C513551   0.065   4.587  13.183  0.3789 -0.2714  0.3812
  926MPD2     H13552   4.554   0.162  13.232 -1.6032 -0.6256 -2.1710
  926MPD2    H113553   0.167   4.708  13.048 -1.3259  0.4812 -1.6573
  926MPD2    H213554   4.686   4.493  13.332  0.1826  0.7478  1.8250
  926MPD2    H313555   0.131   4.503  13.162  0.8371  0.9197 -2.9226
  926MPD2     N13556   0.041   0.202  13.072  0.5388  0.3114 -0.0201
  926MPD2    H513557   0.132   0.201  13.027 -0.6266 -1.1701 -2.3660
  926MPD2    N113558   4.500   4.687  13.399 -0.4004  0.4622  0.0677
  926MPD2    H713559   4.436   0.042  13.406 -0.1325  0.3363  4.0846
  927MPD2     C13560   0.147   2.614   0.983  0.4195  0.1588  0.2175
  927MPD2    C113561   0.172   2.646   0.850  0.3143  0.2920 -0.1847
  927MPD2    C213562   0.247   2.562   0.777  0.3080  0.4796 -0.4145
  927MPD2    C313563   0.301   2.444   0.827 -0.6365 -0.1417 -0.0826
  927MPD2    C413564   0.269   2.406   0.951 -0.4267  0.5763  0.2543
  927MPD2    C513565   0.186   2.483   1.031  0.3454  0.4636  0.0830
  927MPD2     H13566   0.273   2.590   0.676  0.0278  1.6658 -0.1550
  927MPD2    H113567   0.294   2.306   0.984 -2.4173  0.5330  1.6618
  927MPD2    H213568   0.094   2.680   1.050  1.0059 -0.4123  1.2508
  927MPD2    H313569   0.137   2.441   1.118 -0.2225  0.0013 -0.4557
  927MPD2     N13570   0.392   2.382   0.742 -0.0466 -0.0468  0.3749
  927MPD2    H513571   0.398   2.411   0.645  0.9504 -0.1741  0.3936
  927MPD2    N113572   0.114   2.767   0.809  0.4748  0.3607  0.5446
  927MPD2    H713573   0.060   2.826   0.872  1.2885  1.4459  0.2407
  928MPD2     C13574   3.539   1.393   1.355  0.4346  0.3150  0.6482
  928MPD2    C113575   3.670   1.431   1.357  0.3484 -0.6688 -0.1866
  928MPD2    C213576   3.738   1.420   1.238  0.2714  0.2463 -0.0240
  928MPD2    C313577   3.680   1.389   1.117 -0.4410 -0.1296 -0.4408
  928MPD2    C413578   3.547   1.369   1.119  0.5176  0.5131  0.4459
  928MPD2    C513579   3.475   1.355   1.237 -0.0065  0.0641  0.4767
  928MPD2     H13580   3.844   1.444   1.239  0.5081 -0.7497 -2.1816
  928MPD2    H113581   3.491   1.365   1.026 -0.8253 -2.5680  1.3986
  928MPD2    H213582   3.477   1.401   1.443 -1.2403  0.6335 -0.5587
  928MPD2    H313583   3.367   1.351   1.235  0.0652 -1.0953 -0.8963
  928MPD2     N13584   3.747   1.390   0.989  0.4560  0.1997  0.3400
  928MPD2    H513585   3.689   1.380   0.906  0.7754 -2.5882  0.4703
  928MPD2    N113586   3.721   1.490   1.475 -0.4787 -0.7132 -0.1739
  928MPD2    H713587   3.654   1.498   1.551  0.2863  2.0306  0.2230
  929MPD2     C13588   2.526   1.159   9.702  0.0993 -0.3082  0.2838
  929MPD2    C113589   2.495   1.072   9.804 -0.9019 -0.6406  0.2677
  929MPD2    C213590   2.369   1.020   9.820 -0.1129  0.3993 -0.2403
  929MPD2    C313591   2.280   1.034   9.714  0.0280  0.1981  0.3658
  929MPD2    C413592   2.313   1.121   9.607 -0.5783 -0.1687 -0.1163
  929MPD2    C513593   2.426   1.191   9.614  0.0849  0.7730 -0.1645
  929MPD2     H13594   2.345   0.951   9.900 -0.6339 -0.0262 -0.7636
  929MPD2    H113595   2.246   1.146   9.525 -0.9762  1.0946  0.6111
  929MPD2    H213596   2.629   1.192   9.703 -0.1159  0.4273 -2.1107
  929MPD2    H313597   2.448   1.259   9.533  0.8530  0.8688  0.1252
  929MPD2     N13598   2.145   0.998   9.709 -0.1476  0.4493  0.0515
  929MPD2    H513599   2.088   1.040   9.636 -0.2988  2.8914  1.5378
  929MPD2    N113600   2.605   1.041   9.886 -0.2236  0.0243 -0.5371
  929MPD2    H713601   2.695   1.084   9.864  0.7287 -0.6596  2.0385
  930MPD2     C13602   4.019   3.077  14.069  0.0206  0.7010  0.6497
  930MPD2    C113603   4.154   3.087  14.040 -0.4061  0.3492 -1.1856
  930MPD2    C213604   4.196   3.049  13.911 -0.1628  0.1234  0.3885
  930MPD2    C313605   4.098   3.020  13.816 -0.2603 -0.9834  0.0264
  930MPD2    C413606   3.966   3.006  13.852  0.3170 -0.0560  0.4244
  930MPD2    C513607   3.928   3.038  13.981  0.2356 -0.2746  0.4822
  930MPD2     H13608   4.300   3.068  13.886  0.4468 -3.6194  0.0858
  930MPD2    H113609   3.890   2.979  13.781  0.0040  1.3437  0.2235
  930MPD2    H213610   3.981   3.107  14.166 -0.8418 -0.2345  0.5993
  930MPD2    H313611   3.821   3.029  14.001  0.0643  3.5188  1.2287
  930MPD2     N13612   4.129   2.991  13.679  0.0390 -0.0591 -0.1359
  930MPD2    H513613   4.047   2.989  13.620  0.0087  0.7102 -0.1179
  930MPD2    N113614   4.237   3.155  14.125  0.4677 -0.0162 -0.0265
  930MPD2    H713615   4.197   3.224  14.188  1.2319  0.0357  0.4002
  931MPD2     C13616   0.058   3.615   0.837 -0.0860 -0.2343  0.4582
  931MPD2    C113617   0.130   3.497   0.855  0.5458 -0.3690 -0.4249
  931MPD2    C213618   0.248   3.500   0.922  0.5378 -0.6520  0.0409
  931MPD2    C313619   0.310   3.615   0.963  0.3716 -0.4732  0.3502
  931MPD2    C413620   0.243   3.734   0.939  0.3180 -0.0889 -0.7854
  931MPD2    C513621   0.123   3.733   0.870 -0.4480 -0.3980  0.0853
  931MPD2     H13622   0.304   3.407   0.912  1.4080  0.1574 -2.7418
  931MPD2    H113623   0.291   3.827   0.965 -0.4964 -0.6627  2.6979
  931MPD2    H213624   4.681   3.617   0.794  0.8133  0.9758 -1.5992
  931MPD2    H313625   0.074   3.830   0.865 -0.6778 -0.4664  0.9794
  931MPD2     N13626   0.439   3.623   1.034 -0.6403 -0.6658 -0.0249
  931MPD2    H513627   0.477   3.713   1.004 -1.8932 -0.0710  0.1484
  931MPD2    N113628   0.063   3.382   0.808 -0.0954  0.4905  0.1904
  931MPD2    H713629   4.694   3.393   0.767  1.4654  2.9835 -2.6953
  932MPD2     C13630   1.925   0.991  11.148 -0.5743  1.2374 -0.0897
  932MPD2    C113631   1.967   1.095  11.222  0.1025  0.6344 -0.7883
  932MPD2    C213632   2.082   1.068  11.306  0.3770  0.4095  0.2131
  932MPD2    C313633   2.145   0.949  11.322  0.0470 -0.7476  0.8772
  932MPD2    C413634   2.101   0.847  11.248  0.1235 -0.9041 -0.1829
  932MPD2    C513635   2.000   0.871  11.153  0.7439 -0.3685 -0.0067
  932MPD2     H13636   2.130   1.157  11.344  1.1356 -0.8340  2.2069
  932MPD2    H113637   2.154   0.754  11.228 -2.2985 -2.8158  2.3507
  932MPD2    H213638   1.842   0.999  11.078  1.4951 -0.5791 -2.7481
  932MPD2    H313639   1.964   0.793  11.088 -0.2092 -1.5532  1.9397
  932MPD2     N13640   2.256   0.936  11.413  0.3190 -0.5966  0.0044
  932MPD2    H513641   2.304   0.847  11.415  3.2009  1.0223  2.0258
  932MPD2    N113642   1.902   1.221  11.222 -0.5279 -0.4277  0.4182
  932MPD2    H713643   1.936   1.298  11.279  0.6148  0.6792 -1.7623
  933MPD2     C13644   3.972   2.222   1.800  0.7882 -0.4103 -0.1221
  933MPD2    C113645   3.871   2.135   1.795 -0.1174  0.0085  0.5317
  933MPD2    C213646   3.740   2.185   1.792  0.7207 -0.1100 -0.3415
  933MPD2    C313647   3.710   2.319   1.822 -0.9112 -0.2937 -0.1375
  933MPD2    C413648   3.819   2.397   1.856 -0.1189 -0.1727 -0.0265
  933MPD2    C513649   3.943   2.349   1.843 -0.1186  0.1874 -0.6023
  933MPD2     H13650   3.660   2.114   1.777  1.2161  0.4246 -5.3635
  933MPD2    H113651   3.803   2.502   1.878  2.5350 -0.0777  1.4190
  933MPD2    H213652   4.079   2.204   1.800  0.8964  0.2866  2.1425
  933MPD2    H313653   4.031   2.412   1.852 -1.2974  1.7895 -0.3319
  933MPD2     N13654   3.575   2.369   1.801 -0.1787 -0.5797  0.0952
  933MPD2    H513655   3.515   2.295   1.766  0.4033 -0.7395 -0.5854
  933MPD2    N113656   3.902   1.993   1.781  0.2037  0.2888 -0.1664
  933MPD2    H713657   4.001   1.974   1.769  0.2682  0.1955  0.4818
  934MPD2     C13658   3.402   4.196   1.912 -0.4376  0.1979 -0.3943
  934MPD2    C113659   3.512   4.171   1.839  0.2258  0.1267 -0.3688
  934MPD2    C213660   3.523   4.056   1.764 -0.0119 -0.5791 -0.4897
  934MPD2    C313661   3.421   3.970   1.751  0.6711  0.4966  0.3212
  934MPD2    C413662   3.303   4.003   1.816 -0.2741 -0.0427  0.2873
  934MPD2    C513663   3.293   4.118   1.896 -0.0227 -0.9433  0.1665
  934MPD2     H13664   3.608   4.047   1.698 -1.2290  0.8684 -2.2553
  934MPD2    H113665   3.215   3.939   1.807 -0.9562  0.9164  0.0946
  934MPD2    H213666   3.395   4.265   1.995 -3.2075  0.2273 -0.6562
  934MPD2    H313667   3.204   4.142   1.953  0.8103 -2.0093  1.9292
  934MPD2     N13668   3.429   3.855   1.668 -0.3116 -0.1082 -0.6533
  934MPD2    H513669   3.342   3.812   1.639 -1.1406  2.1040 -1.4530
  934MPD2    N113670   3.624   4.256   1.836  0.5126 -0.2040 -0.0481
  934MPD2    H713671   3.710   4.218   1.799  0.2789  0.8056 -1.6545
  935MPD2     C13672   4.233   3.372   1.270 -0.1026 -1.1541  0.2962
  935MPD2    C113673   4.118   3.302   1.227 -0.2797 -0.2608  0.2261
  935MPD2    C213674   3.994   3.335   1.279  0.0037 -0.2650  0.2598
  935MPD2    C313675   3.984   3.445   1.365  0.1038 -0.7293  0.2257
  935MPD2    C413676   4.101   3.519   1.391  0.2738 -0.0650  0.0781
  935MPD2    C513677   4.228   3.472   1.351 -0.0838 -0.3111 -0.0657
  935MPD2     H13678   3.908   3.282   1.238 -0.5010  1.0357 -0.3682
  935MPD2    H113679   4.100   3.594   1.468 -2.4884  1.0783 -1.0735
  935MPD2    H213680   4.327   3.350   1.221 -1.4570 -2.7690 -1.5467
  935MPD2    H313681   4.309   3.535   1.384 -2.3443  0.3995  4.0924
  935MPD2     N13682   3.852   3.487   1.414  0.2385  0.0235 -0.0267
  935MPD2    H513683   3.855   3.573   1.467 -0.2321  1.0738 -1.7169
  935MPD2    N113684   4.117   3.189   1.139 -0.8918 -0.7958 -0.2492
  935MPD2    H713685   4.027   3.178   1.095 -0.7315 -0.7111 -0.5977
  936MPD2     C13686   1.896   0.793  12.310 -0.4831  0.1949 -0.0872
  936MPD2    C113687   1.922   0.667  12.354 -0.4562  0.3649 -0.2060
  936MPD2    C213688   1.993   0.587  12.270  0.5349 -0.4110 -0.2505
  936MPD2    C313689   2.051   0.624  12.150  0.6310 -0.1811  0.0262
  936MPD2    C413690   2.021   0.750  12.107  0.1227 -0.6184  0.0032
  936MPD2    C513691   1.948   0.832  12.187 -0.5839  0.7437  0.2159
  936MPD2     H13692   2.000   0.485  12.305  2.2430 -0.4033 -0.5813
  936MPD2    H113693   2.063   0.787  12.015  1.2056  0.4295  0.9145
  936MPD2    H213694   1.827   0.863  12.357  1.8973  0.5841  2.8157
  936MPD2    H313695   1.920   0.931  12.151  1.6587  1.8451  1.4984
  936MPD2     N13696   2.140   0.543  12.078 -0.1374 -0.1199 -0.5677
  936MPD2    H513697   2.178   0.583  11.993 -1.5560 -1.3127 -1.7604
  936MPD2    N113698   1.865   0.605  12.468  0.0923 -0.3538  0.5428
  936MPD2    H713699   1.876   0.504  12.475  2.4181 -0.2141 -1.1357
  937MPD2     C13700   4.448   1.712  11.055 -0.3988  0.6472  0.0988
  937MPD2    C113701   4.570   1.756  11.101 -0.4381  0.0314 -0.1597
  937MPD2    C213702   4.683   1.708  11.024  0.0617 -0.1805 -0.5445
  937MPD2    C313703   4.674   1.608  10.931 -0.4921 -0.3901 -0.0656
  937MPD2    C413704   4.562   1.538  10.917 -0.2920  0.2013  0.3897
  937MPD2    C513705   4.452   1.597  10.984 -0.2382 -0.4137 -0.1827
  937MPD2     H13706   0.054   1.761  11.014 -0.7890  1.2914 -0.6988
  937MPD2    H113707   4.547   1.456  10.847 -2.4157  1.4206 -0.5764
  937MPD2    H213708   4.360   1.770  11.082 -1.8281 -1.9140  0.9799
  937MPD2    H313709   4.356   1.551  10.959 -0.8955  0.4119  0.8022
  937MPD2     N13710   0.065   1.570  10.861 -0.8161  0.0556 -0.2891
  937MPD2    H513711   0.150   1.624  10.874 -1.4703  1.3631 -1.3660
  937MPD2    N113712   4.568   1.882  11.168 -0.5279  0.2917  0.3556
  937MPD2    H713713   4.659   1.927  11.162  0.4592 -1.9096 -1.4904
  938MPD2     C13714   2.728   2.851   0.652 -0.3827 -0.3706 -0.0875
  938MPD2    C113715   2.838   2.921   0.691  0.4050 -0.0083  0.2817
  938MPD2    C213716   2.885   2.901   0.825 -0.2883  0.7711  0.3914
  938MPD2    C313717   2.836   2.808   0.912 -0.7045 -0.1455  0.6040
  938MPD2    C413718   2.721   2.738   0.868 -0.2710  0.3515  0.2254
  938MPD2    C513719   2.672   2.763   0.740  0.4036 -0.1988  0.0169
  938MPD2     H13720   2.980   2.946   0.853 -1.4328  1.6137  2.9366
  938MPD2    H113721   2.673   2.654   0.917 -1.6647  0.9224 -0.1607
  938MPD2    H213722   2.675   2.860   0.558  0.2093 -0.5484 -0.4388
  938MPD2    H313723   2.589   2.701   0.709 -0.1075 -0.2926  1.5808
  938MPD2     N13724   2.878   2.779   1.048 -0.0742  0.0317  0.5102
  938MPD2    H513725   2.821   2.711   1.098  1.3570 -1.5337 -0.0085
  938MPD2    N113726   2.914   3.001   0.605  0.3954  0.6175  0.3289
  938MPD2    H713727   3.008   3.020   0.637  0.6734 -0.1877 -0.0031
  939MPD2     C13728   4.149   4.064   0.871 -0.6694  0.1316 -0.4023
  939MPD2    C113729   4.125   4.185   0.819  0.0138 -0.3184 -0.0988
  939MPD2    C213730   4.198   4.228   0.710  0.4520 -0.2846  0.2446
  939MPD2    C313731   4.299   4.148   0.650  0.1204  0.4381 -0.2948
  939MPD2    C413732   4.339   4.036   0.718  0.3935  0.3456  0.0845
  939MPD2    C513733   4.254   3.993   0.819  0.3461  0.0893  0.5031
  939MPD2     H13734   4.180   4.324   0.662 -1.3808 -0.5981  0.3219
  939MPD2    H113735   4.411   3.964   0.683 -0.6124 -0.9002  0.6051
  939MPD2    H213736   4.093   4.018   0.952 -0.9704  1.7928  0.3232
  939MPD2    H313737   4.267   3.894   0.861 -2.0067 -0.4422 -0.0247
  939MPD2     N13738   4.383   4.208   0.546 -0.5567 -0.9132  1.0576
  939MPD2    H513739   4.369   4.304   0.516 -0.1770 -1.1757  0.0387
  939MPD2    N113740   4.025   4.259   0.881 -0.7837 -0.1641 -0.7037
  939MPD2    H713741   3.975   4.205   0.951 -1.7151  0.2390 -1.0500
  940MPD2     C13742   2.590   4.516  12.825  0.0406 -0.1440  0.7707
  940MPD2    C113743   2.715   4.576  12.851 -0.2086  0.1485  0.5234
  940MPD2    C213744   2.767   4.659  12.747 -0.0579 -0.1007 -0.0349
  940MPD2    C313745   2.705   4.656  12.623  0.5156 -0.3701  0.2300
  940MPD2    C413746   2.583   4.597  12.604  0.3100 -0.1747  0.7721
  940MPD2    C513747   2.529   4.525  12.708  0.1535 -0.2517  0.6499
  940MPD2     H13748   2.851   0.002  12.766  0.3806 -0.3473 -1.1474
  940MPD2    H113749   2.524   4.620  12.517  2.3554 -0.5679 -0.7275
  940MPD2    H213750   2.544   4.466  12.910 -2.1674 -3.2179 -2.2236
  940MPD2    H313751   2.429   4.485  12.695 -0.5469  1.7043  0.0361
  940MPD2     N13752   2.734   0.017  12.514  1.0993  0.0093  0.2086
  940MPD2    H513753   2.666   0.007  12.439  0.6863  1.7747  0.3536
  940MPD2    N113754   2.769   4.571  12.978  0.3586  0.2890  0.2931
  940MPD2    H713755   2.837   4.642  13.003 -0.8348  0.1655  3.9869
  941MPD2     C13756   1.661   4.125  10.657  0.2874 -0.8307  0.3916
  941MPD2    C113757   1.709   4.149  10.524  0.4323 -0.4693 -0.1141
  941MPD2    C213758   1.663   4.069  10.425 -0.3740  0.5833  0.1322
  941MPD2    C313759   1.577   3.960  10.459  0.3099  0.6695 -0.3228
  941MPD2    C413760   1.523   3.949  10.583  0.3368 -0.3065 -0.1596
  941MPD2    C513761   1.555   4.039  10.681 -0.1703 -0.1637 -0.3664
  941MPD2     H13762   1.705   4.097  10.330 -1.6673 -1.4427 -1.0330
  941MPD2    H113763   1.455   3.868  10.607  0.5219 -0.6505 -0.8073
  941MPD2    H213764   1.704   4.186  10.736  1.8229 -0.8290 -0.4531
  941MPD2    H313765   1.516   4.044  10.782  2.5187 -1.4737  0.7428
  941MPD2     N13766   1.562   3.848  10.371 -0.3334  0.3347  0.8104
  941MPD2    H513767   1.492   3.780  10.399  0.7866 -1.3139 -0.3849
  941MPD2    N113768   1.798   4.252  10.491  1.1116  0.2962 -0.7017
  941MPD2    H713769   1.851   4.241  10.405  0.6101  1.4127 -1.1593
  942MPD2     C13770   0.942   0.820   8.989 -0.2015 -0.9059  0.6513
  942MPD2    C113771   1.042   0.763   9.072  0.2728 -0.5626  0.1396
  942MPD2    C213772   1.145   0.689   9.016  0.2969  0.0437  0.1311
  942MPD2    C313773   1.150   0.670   8.878 -0.6052  0.1870  0.3822
  942MPD2    C413774   1.056   0.731   8.797 -0.0442 -0.9331 -0.0276
  942MPD2    C513775   0.958   0.805   8.851 -0.2351 -0.0191  0.3353
  942MPD2     H13776   1.233   0.659   9.072  0.4169  0.5353  0.2120
  942MPD2    H113777   1.062   0.713   8.690  1.4488 -1.9799  0.2270
  942MPD2    H213778   0.864   0.885   9.025 -0.5732 -0.4320 -0.9904
  942MPD2    H313779   0.886   0.851   8.783 -0.1895  0.3858  0.5608
  942MPD2     N13780   1.241   0.580   8.822 -0.0485 -0.3266 -0.1445
  942MPD2    H513781   1.236   0.562   8.722 -0.6348 -0.6425 -0.0536
  942MPD2    N113782   1.018   0.762   9.215 -0.0420 -0.7157  0.0142
  942MPD2    H713783   1.087   0.720   9.276 -0.4370 -2.0463 -0.4492
  943MPD2     C13784   4.396   3.919   9.784  0.4782 -0.4158 -0.2061
  943MPD2    C113785   4.508   3.962   9.849 -0.6710  0.6950 -0.1784
  943MPD2    C213786   4.523   4.096   9.879 -0.2978  0.3656  0.7453
  943MPD2    C313787   4.420   4.181   9.841 -0.5323 -0.4437  1.2686
  943MPD2    C413788   4.305   4.132   9.791 -0.1822 -0.0761  0.2351
  943MPD2    C513789   4.294   4.001   9.771 -0.3022 -0.3981  0.4270
  943MPD2     H13790   4.611   4.140   9.926  0.1961 -1.2520  1.3669
  943MPD2    H113791   4.223   4.198   9.765  2.2335  2.5159 -0.8211
  943MPD2    H213792   4.381   3.816   9.754 -2.1978  0.1339 -0.7742
  943MPD2    H313793   4.201   3.957   9.737 -0.9654  1.9754 -0.8080
  943MPD2     N13794   4.427   4.324   9.864  0.2420 -0.3561  0.4871
  943MPD2    H513795   4.341   4.375   9.844  0.0258 -0.6035  0.7927
  943MPD2    N113796   4.615   3.873   9.870  0.3628  0.0161 -0.0546
  943MPD2    H713797   4.605   3.779   9.833 -1.3542  0.6387 -1.2240
  944MPD2     C13798   0.466   2.683  10.479 -0.3045  0.0170  0.6244
  944MPD2    C113799   0.400   2.804  10.455  0.0993  0.0395  0.3008
  944MPD2    C213800   0.345   2.870  10.564  0.0291  0.2801  0.2034
  944MPD2    C313801   0.363   2.824  10.694  0.8889  0.4300 -0.0788
  944MPD2    C413802   0.415   2.703  10.708  0.1561  0.4145  0.7249
  944MPD2    C513803   0.481   2.641  10.605 -0.1758 -0.2323  0.1545
  944MPD2     H13804   0.300   2.968  10.553  0.7986  0.6515  0.3156
  944MPD2    H113805   0.413   2.642  10.798  3.7048 -1.9226 -0.7394
  944MPD2    H213806   0.513   2.628  10.398 -2.1460 -0.1556 -0.3252
  944MPD2    H313807   0.523   2.543  10.625 -1.0065  0.0309  3.1627
  944MPD2     N13808   0.325   2.903  10.805 -0.8264  0.3343 -0.6300
  944MPD2    H513809   0.283   2.992  10.780  1.1528  1.0333 -1.4608
  944MPD2    N113810   0.385   2.848  10.322  0.6046 -0.3556 -0.1407
  944MPD2    H713811   0.411   2.778  10.253  0.1970 -2.2312  1.6167
    1TCq1    O113812   4.314   3.333  13.775  0.4898  0.0210  0.4809
    1TCq1    C113813   4.223   3.358  13.677  0.1754  0.5184  0.1978
    1TCq1    O213814   4.219   3.312  13.563 -0.1104  0.0571 -0.3636
    1TCq1    C213815   4.100   3.395  13.742  0.3089  0.7333 -0.5431
    1TCq1    C313816   3.994   3.327  13.690  0.2088 -0.3560  0.2567
    1TCq1    C413817   3.878   3.320  13.767 -0.2763  0.1174  0.1129
    1TCq1    C513818   3.870   3.383  13.886  0.2279  0.2237 -0.0184
    1TCq1    C613819   3.981   3.444  13.934 -0.2834 -0.8803 -0.1083
    1TCq1    C713820   4.103   3.436  13.873  0.4307 -0.2597 -0.6134
    1TCq1    C813821   3.988   3.491  14.072  0.0977 -0.7162 -0.7609
    1TCq1    O413822   4.097   3.498  14.129  0.8204 -0.0033 -0.1718
    1TCq1    C913823   3.767   3.242  13.728 -0.3413 -0.3082 -0.3904
    1TCq1    O513824   3.784   3.178  13.620  0.1622 -0.0914  0.2502
    1TCq1    O613825   3.655   3.261  13.791 -0.0610 -0.1944  0.2756
    1TCq1    H113826   4.332   3.412  13.830  1.1070 -0.6808  1.2920
    1TCq1    H213827   4.010   3.271  13.599 -1.1391 -0.5672  0.1415
    1TCq1    H313828   3.779   3.381  13.946  0.2127 -1.6347 -0.1146
    1TCq1    H413829   4.193   3.478  13.917  0.6516 -2.5039  1.0879
    2MPD2     C13830   3.850   3.756  14.481 -0.6260  1.2548  0.5817
    2MPD2    C113831   3.764   3.793  14.384  0.5412 -0.2211  0.1264
    2MPD2    C213832   3.770   3.716  14.270  0.4172  0.3737  0.7840
    2MPD2    C313833   3.861   3.616  14.244 -0.1963  0.4741  0.3907
    2MPD2    C413834   3.949   3.587  14.342 -0.7980  0.0493  0.5243
    2MPD2    C513835   3.938   3.658  14.455 -0.2842  0.5569  0.0990
    2MPD2     H13836   3.699   3.734  14.190  1.5035  0.3543 -0.1778
    2MPD2    H113837   4.019   3.504  14.337 -0.7272  0.2691 -2.3497
    2MPD2    H213838   3.867   3.806  14.576  1.2326  0.8295  0.4725
    2MPD2    H313839   4.014   3.638  14.530 -0.6896 -1.9522 -0.1499
    2MPD2     N13840   3.873   3.558  14.114 -0.1789 -0.2738 -0.0155
    2MPD2    H513841   3.795   3.568  14.049 -0.1262  1.1384  0.1464
    2MPD2    N113842   3.673   3.897  14.397 -0.4593  0.2624 -0.1316
    2MPD2    H713843   3.619   3.912  14.312  0.0413  0.8167 -0.3589
    3TMC2    C113844   3.535   4.077  14.488  0.3923 -0.1804  0.1368
    3TMC2    C213845   3.511   4.168  14.590 -0.6634 -0.6227  0.3658
    3TMC2    C313846   3.426   4.272  14.570  0.5539  0.0961 -0.0893
    3TMC2    C413847   3.485   4.105  14.361  0.2206 -0.0030  0.5752
    3TMC2    C513848   3.400   4.213  14.350  0.3003  0.1601  0.5014
    3TMC2    C613849   3.353   4.291  14.454 -0.6499  0.4174 -0.1363
    3TMC2     C13850   3.644   3.977  14.506 -0.4399 -0.2334 -0.1643
    3TMC2     O13851   3.702   3.971  14.612 -0.1058 -0.3407  0.0089
    3TMC2     H13852   3.569   4.158  14.681 -0.2746 -1.3012  0.0515
    3TMC2    H113853   3.511   4.032  14.285  0.7750  0.2721  0.4992
    3TMC2    H213854   3.270   4.361  14.452 -1.3217 -0.3362  1.3710
    3TMC2    C713855   3.350   4.247  14.221  0.9170  0.8538 -0.1382
    3TMC2    C813856   3.346   4.308  14.684 -0.1324  0.5359  0.6551
    3TMC2    O113857   3.363   4.161  14.137  0.0636 -0.0515  0.7934
    3TMC2    O213858   3.225   4.320  14.688  0.1197  0.5342  0.2006
    3TMC2    O513859   3.427   4.317  14.792 -0.2241 -0.1857 -0.4936
    3TMC2    H513860   3.517   4.352  14.778 -0.9057  1.5477 -0.6148
    4MPD2     C13861   2.316   0.627  14.049  0.0968  0.0299  0.6201
    4MPD2    C113862   2.401   0.630  13.940  0.1621 -0.3330  0.3312
    4MPD2    C213863   2.535   0.612  13.959  0.3748  0.3007 -0.2964
    4MPD2    C313864   2.579   0.597  14.091  0.3026  0.8631  0.5976
    4MPD2    C413865   2.492   0.598  14.198  0.1581  0.2783 -0.3486
    4MPD2    C513866   2.364   0.619  14.177  0.1346 -0.0905  0.1253
    4MPD2     H13867   2.605   0.614  13.876  1.3380  0.4395  0.5193
    4MPD2    H113868   2.532   0.593  14.298 -1.5936 -1.4500  0.2684
    4MPD2    H213869   2.209   0.635  14.037  0.2986  1.4431 -0.2356
    4MPD2    H313870   2.297   0.651  14.257  0.2265  0.5300 -0.0437
    4MPD2     N13871   2.714   0.548  14.101 -0.4255 -0.6824 -0.3541
    4MPD2    H513872   2.775   0.563  14.021 -0.0098  2.9597  0.6275
    4MPD2    N113873   2.346   0.625  13.808  0.2303 -0.3050 -0.1047
    4MPD2    H713874   2.249   0.597  13.809  0.8600 -2.4794 -1.5939
    5TCq2    C113875   2.768   0.488  14.218 -0.5273  0.4855 -0.1428
    5TCq2    O213876   2.708   0.438  14.311 -0.4114  0.0938  0.7557
    5TCq2    C213877   2.915   0.457  14.192 -0.4406  0.2236 -0.7399
    5TCq2    C313878   2.965   0.527  14.082 -0.4207 -0.1104 -0.6728
    5TCq2    C413879   3.056   0.462  14.007 -0.0653 -0.0459 -0.3137
    5TCq2    C513880   3.096   0.334  14.028 -0.6129  0.2702 -0.3148
    5TCq2    C613881   3.034   0.261  14.131 -0.5791 -1.0600  0.0309
    5TCq2    C713882   2.944   0.322  14.204  0.3782  0.0958  0.3331
    5TCq2    C813883   3.081   0.127  14.166  0.2525 -0.3142  0.3588
    5TCq2    O413884   3.101   0.091  14.281 -0.0993 -0.0449 -0.1533
    5TCq2    C913885   3.121   0.530  13.896 -0.0529  0.1476  0.0304
    5TCq2    O513886   3.067   0.636  13.850 -0.4424 -0.1195  0.8779
    5TCq2    O613887   3.206   0.467  13.828  0.2215 -0.0320 -0.1727
    5TCq2    H213888   2.950   0.633  14.064  0.3153  0.1662  0.3263
    5TCq2    H313889   3.177   0.290  13.971 -0.6009  0.3644 -0.3712
    5TCq2    H413890   2.902   0.266  14.287 -0.1510 -1.6028 -1.0954
    6MPD1     C13891   2.208   1.019  11.843 -1.5787 -0.2749  0.1229
    6MPD1    C113892   2.101   1.045  11.917  0.1309  0.1167 -0.2944
    6MPD1    C213893   2.117   1.064  12.048 -0.4443 -0.6648  0.1141
    6MPD1    C313894   2.234   1.038  12.114 -0.1734  0.0609 -0.6007
    6MPD1    C413895   2.341   0.987  12.041  0.0576 -0.1650  0.3788
    6MPD1    C513896   2.327   0.988  11.903 -0.4641 -0.2052 -0.2748
    6MPD1     H13897   2.028   1.085  12.105 -0.2745 -0.2459  0.2221
    6MPD1    H113898   2.440   0.962  12.076  0.6381  0.3306 -0.9006
    6MPD1    H213899   2.195   1.003  11.737 -2.8028  1.9231 -0.0623
    6MPD1    H313900   2.411   0.960  11.841 -1.2752  0.6069 -1.7681
    6MPD1     N13901   2.243   1.044  12.258 -0.2917 -0.1508 -0.4776
    6MPD1    H513902   2.323   0.991  12.292 -0.9900 -1.8712 -1.5310
    6MPD1    N113903   1.974   1.043  11.860 -0.1487 -0.4858 -0.2338
    6MPD1    H613904   1.912   1.100  11.916 -0.5104 -2.1217  1.0291
    6MPD1    H713905   1.978   1.085  11.767  1.2966 -0.6151 -0.2294
    7MPD2     C13906   1.868   0.879  13.054 -0.0743 -0.0952  0.2735
    7MPD2    C113907   1.957   0.793  13.004 -0.4397 -0.4864 -0.2094
    7MPD2    C213908   2.002   0.692  13.088  0.5525 -0.4940 -0.3420
    7MPD2    C313909   1.984   0.683  13.222  0.0343 -0.0560  0.3795
    7MPD2    C413910   1.901   0.781  13.275  0.9886  0.0418 -0.8780
    7MPD2    C513911   1.838   0.870  13.187  0.0034 -0.5198  0.0924
    7MPD2     H13912   2.066   0.617  13.044  1.2834  0.1230 -0.3379
    7MPD2    H113913   1.876   0.787  13.381 -0.4494  2.2636 -1.3463
    7MPD2    H213914   1.835   0.967  13.000 -0.2787 -0.6907 -0.5828
    7MPD2    H313915   1.760   0.936  13.223 -0.2004 -0.2399 -0.8835
    7MPD2     N13916   2.041   0.577  13.300  0.1448 -0.2036  1.0475
    7MPD2    H513917   2.102   0.514  13.248  2.7955  1.9825  1.5072
    7MPD2    N113918   2.007   0.796  12.872 -0.3060 -0.2063  0.6767
    7MPD2    H713919   2.088   0.739  12.846 -0.6810 -0.6341  0.4448
    8TMC3    C113920   2.148   0.485  13.486 -0.7809  0.2975  0.2915
    8TMC3    C213921   2.206   0.565  13.582 -0.0256  0.3805 -0.1036
    8TMC3    C313922   2.337   0.597  13.567 -0.5296  0.0047  0.6281
    8TMC3    C413923   2.222   0.434  13.380  0.0658 -0.2600  0.1103
    8TMC3    C513924   2.343   0.482  13.361 -0.5259 -0.2924  0.4264
    8TMC3    C613925   2.408   0.562  13.451  0.9087  0.2468 -0.5526
    8TMC3     C13926   2.035   0.567  13.435  0.0633 -0.4900 -0.2846
    8TMC3     O13927   1.981   0.638  13.515 -0.2792  0.3721  0.2675
    8TMC3     H13928   2.150   0.598  13.669  1.3256 -1.1871  1.3702
    8TMC3    H113929   2.186   0.369  13.301 -0.9668  0.1209  0.2660
    8TMC3    H213930   2.512   0.589  13.435  0.8666  0.4599 -0.4750
    8TMC3    C713931   2.367   0.515  13.223 -0.3160  0.4640 -0.6148
    8TMC3    C813932   2.416   0.630  13.685 -0.6189  0.4176 -0.1584
    8TMC3    O113933   2.273   0.519  13.146 -0.4549  0.2219  0.0063
    8TMC3    O213934   2.537   0.642  13.665 -0.2447 -0.1772  0.2036
    9TMC3    C113935   2.166   1.006  12.481  0.1346 -0.1218  0.4578
    9TMC3    C213936   2.296   0.963  12.509  0.0208 -0.1274 -0.2202
    9TMC3    C313937   2.313   0.904  12.627 -0.1060 -0.3570 -0.1140
    9TMC3    C413938   2.061   0.985  12.564  0.1946 -0.1693 -0.8133
    9TMC3    C513939   2.084   0.916  12.678 -0.2000  0.1020  0.6086
    9TMC3    C613940   2.210   0.876  12.712 -0.3223 -0.8411 -0.5983
    9TMC3     C13941   2.138   1.061  12.348  0.5563  0.7079 -0.1054
    9TMC3     O13942   2.034   1.129  12.334  0.0461  0.3645 -0.1920
    9TMC3     H13943   2.376   0.959  12.436  0.5623 -0.3251  0.3809
    9TMC3    H113944   1.958   1.014  12.545 -0.4704 -1.8126  0.2814
    9TMC3    H213945   2.234   0.853  12.816  1.0355 -0.2271 -0.7710
    9TMC3    C713946   1.974   0.888  12.776  0.0054 -0.3437 -0.2009
    9TMC3    C813947   2.442   0.844  12.668  0.0134  0.4616 -0.2478
    9TMC3    O113948   1.877   0.961  12.775  0.1600  0.1237  0.5935
    9TMC3    O213949   2.541   0.905  12.634  0.5334  0.3216 -0.5342
   10MPD2     C13950   2.676   0.574  13.035  0.2910  0.1881  0.1758
   10MPD2    C113951   2.539   0.578  13.058 -0.3277  0.7963 -0.6506
   10MPD2    C213952   2.453   0.630  12.964  0.1062  0.6672  0.7581
   10MPD2    C313953   2.507   0.680  12.846 -0.1723  0.6680 -0.3691
   10MPD2    C413954   2.645   0.694  12.826 -0.6820 -0.4177 -0.4308
   10MPD2    C513955   2.733   0.636  12.922 -0.2273 -0.1535  0.0729
   10MPD2     H13956   2.348   0.643  12.985  0.0973  0.0873  1.0781
   10MPD2    H113957   2.692   0.737  12.739  1.0732 -1.5369 -0.0538
   10MPD2    H213958   2.737   0.542  13.119  0.0084 -2.4974 -0.6372
   10MPD2    H313959   2.838   0.652  12.901 -0.2256 -0.4832 -0.1775
   10MPD2     N13960   2.418   0.736  12.755  0.4016  0.3737  0.4207
   10MPD2    H513961   2.323   0.701  12.767  0.2306  0.4382 -0.6727
   10MPD2    N113962   2.498   0.532  13.183 -0.7759  0.2012  1.0644
   10MPD2    H713963   2.564   0.508  13.257  0.6184  0.7680  0.0007
   11MPD2     C13964   3.220   4.386  13.975 -0.2907 -0.3350 -0.6859
   11MPD2    C113965   3.241   4.443  14.100  0.3897  0.3214  0.2926
   11MPD2    C213966   3.201   4.573  14.126  0.3671 -0.2718  0.3479
   11MPD2    C313967   3.154   4.651  14.028  0.3918  0.3484 -0.7753
   11MPD2    C413968   3.142   4.593  13.901 -0.4446  0.7509 -0.1599
   11MPD2    C513969   3.173   4.463  13.873  0.1226  0.2008 -0.6178
   11MPD2     H13970   3.204   4.609  14.228  1.5550  0.0246  0.2032
   11MPD2    H113971   3.119   4.660  13.818 -0.0521 -1.2504 -1.8626
   11MPD2    H213972   3.264   4.293  13.942  1.7920  0.3117  0.2699
   11MPD2    H313973   3.176   4.415  13.776  3.5148 -3.8750  1.4974
   11MPD2     N13974   3.106   0.061  14.049  0.3316 -0.1347 -0.0247
   11MPD2    H513975   3.073   0.104  13.963  0.3273  0.0597  0.0754
   11MPD2    N113976   3.300   4.378  14.213  0.2907  0.3487  0.5365
   11MPD2    H713977   3.311   4.425  14.302  1.5840  1.2095 -0.0685
    1MPD1     C13978   0.291   2.077   1.461 -0.1965 -0.3931  0.9797
    1MPD1    C113979   0.224   2.163   1.379  0.3637  0.1564 -0.7694
    1MPD1    C213980   0.204   2.117   1.252  1.0000  0.4586  0.3340
    1MPD1    C313981   0.272   2.008   1.197 -0.6131  0.5318  0.0184
    1MPD1    C413982   0.334   1.929   1.285 -0.1722  0.3930 -0.1710
    1MPD1    C513983   0.355   1.965   1.418  1.0544 -0.1835 -0.2927
    1MPD1     H13984   0.145   2.179   1.185  0.2473 -1.4669 -0.7681
    1MPD1    H113985   0.383   1.836   1.258  0.7472  0.7962  0.1497
    1MPD1    H213986   0.291   2.095   1.568  1.4234 -1.7369  1.1924
    1MPD1    H313987   0.407   1.908   1.493  1.4258 -1.3071 -1.3951
    1MPD1     N13988   0.270   1.963   1.062 -0.6973 -0.6504  0.0300
    1MPD1    H513989   0.332   1.885   1.043  1.3912  0.8107  0.8956
    1MPD1    N113990   0.156   2.270   1.442 -0.0728 -0.2477  0.2925
    1MPD1    H613991   0.204   2.289   1.530 -0.3307  1.8434 -0.0146
    1MPD1    H713992   0.161   2.359   1.392  3.8476  0.0233  1.1345
    2MPD1     C13993   4.625   2.194   0.058  0.2375  0.0517  0.2924
    2MPD1    C113994   4.653   2.275   0.162  0.0099  0.2992  0.4941
    2MPD1    C213995   4.704   2.218   0.275  0.3048 -0.1509 -0.0275
    2MPD1    C313996   4.710   2.082   0.286 -0.2422 -0.6620  0.9250
    2MPD1    C413997   4.681   2.001   0.182  0.4076  0.7286  0.0644
    2MPD1    C513998   4.632   2.057   0.064  0.6178  0.3324  0.0399
    2MPD1     H13999   0.020   2.277   0.358 -2.5990  0.4456  0.9068
    2MPD1    H114000   4.684   1.894   0.199 -0.8522  0.4095 -1.6812
    2MPD1    H214001   4.580   2.230  17.660  0.1338  0.4824  0.5105
    2MPD1    H314002   4.610   1.993  17.673  1.7730  1.5391 -1.1850
    2MPD1     N14003   0.012   2.011   0.405  1.3322 -0.1797 -0.4330
    2MPD1    H514004   0.019   1.909   0.404 -0.9169 -0.3122 -2.6029
    2MPD1    N114005   4.653   2.413   0.146 -0.1884  0.5230 -0.5068
    2MPD1    H614006   4.634   2.454   0.238  3.1441 -1.9334  1.2824
    2MPD1    H714007   4.580   2.439   0.081 -0.7327  0.3250  0.0331
    3TMC3    C114008   0.099   1.979   0.624 -0.1570  0.2584 -0.2895
    3TMC3    C214009   0.160   1.859   0.587  0.3680  0.5903 -0.5726
    3TMC3    C314010   0.226   1.790   0.685  0.5212  0.5343  0.3817
    3TMC3    C414011   0.122   2.037   0.745  0.6109 -0.2707 -0.3005
    3TMC3    C514012   0.189   1.964   0.838 -0.0802 -0.3761  0.3539
    3TMC3    C614013   0.231   1.833   0.815  0.7098 -0.2572 -0.0159
    3TMC3     C14014   0.052   2.076   0.521  0.0261 -0.0388 -0.0298
    3TMC3     O14015   0.057   2.191   0.555 -0.1376  0.4399 -0.1369
    3TMC3     H14016   0.169   1.827   0.483 -1.9659  1.5034 -1.0574
    3TMC3    H114017   0.105   2.141   0.770  0.4736 -0.2424 -0.5129
    3TMC3    H214018   0.272   1.772   0.894  1.6683 -0.5516 -0.7399
    3TMC3    C714019   0.181   2.011   0.972  0.4416  0.0496  0.3788
    3TMC3    C814020   0.338   1.706   0.649  0.7876 -0.2710  0.3484
    3TMC3    O114021   0.087   2.089   0.997  0.0564 -0.3555  0.6796
    3TMC3    O214022   0.391   1.657   0.750 -0.1265  0.8535  0.1978
    4MPD1     C14023   0.676   1.468   0.357 -0.0997  0.6135  0.0421
    4MPD1    C114024   0.595   1.535   0.272 -0.1735 -0.0966  0.3997
    4MPD1    C214025   0.492   1.613   0.329  0.4319  0.2762  0.1509
    4MPD1    C314026   0.464   1.612   0.466 -0.6451 -0.4529  0.1833
    4MPD1    C414027   0.535   1.518   0.543  0.2345 -0.1225  0.1525
    4MPD1    C514028   0.637   1.443   0.487 -0.1960  0.0288 -0.6335
    4MPD1     H14029   0.445   1.691   0.272  0.9541  0.2806 -0.2737
    4MPD1    H114030   0.527   1.502   0.650  1.2479  0.3131  0.2947
    4MPD1    H214031   0.759   1.411   0.316 -1.7310 -2.1989  0.6176
    4MPD1    H314032   0.703   1.382   0.548  1.2226 -0.0553 -2.2329
    4MPD1     N14033   0.370   1.700   0.517  0.7401  0.3059  0.4359
    4MPD1    H514034   0.323   1.766   0.455 -0.3357 -0.1990  0.7087
    4MPD1    N114035   0.627   1.548   0.137  0.4011 -0.6515  0.5356
    4MPD1    H614036   0.671   1.459   0.112  0.4902 -0.3140 -0.5152
    4MPD1    H714037   0.544   1.560   0.079  0.9021 -0.9822 -0.2514
    1TCq1    O114038   2.457   1.493  11.124 -0.2533  0.5411 -0.0043
    1TCq1    C114039   2.434   1.401  11.218  0.0503 -0.4504  0.0886
    1TCq1    O214040   2.490   1.403  11.330 -1.1445  0.1592 -0.9007
    1TCq1    C214041   2.400   1.276  11.157 -0.2447 -0.4524  0.3053
    1TCq1    C314042   2.464   1.163  11.199 -0.3384  0.3595 -0.3570
    1TCq1    C414043   2.434   1.042  11.145  0.1976 -0.4409 -0.5491
    1TCq1    C514044   2.328   1.028  11.068 -0.5154 -0.1267 -0.0704
    1TCq1    C614045   2.267   1.141  11.019 -0.0174 -0.1721  0.3191
    1TCq1    C714046   2.300   1.265  11.065  0.0117  0.4277  0.3859
    1TCq1    C814047   2.199   1.122  10.888  0.3983  0.8435 -0.5950
    1TCq1    O414048   2.150   1.012  10.864 -0.4454 -0.2712 -0.5403
    1TCq1    C914049   2.497   0.923  11.190 -0.0017  0.4018  0.1863
    1TCq1    O514050   2.442   0.811  11.165  0.8413  0.2778  0.3448
    1TCq1    O614051   2.596   0.939  11.268  0.2988 -0.5021 -0.5476
    1TCq1    H114052   2.415   1.471  11.038  0.6160  0.5255 -0.4183
    1TCq1    H214053   2.549   1.176  11.265 -0.8998  2.2679 -0.0093
    1TCq1    H314054   2.292   0.927  11.056  0.1095 -0.5224  1.3420
    1TCq1    H414055   2.254   1.357  11.030  0.5788 -0.2363 -2.1409
    2MPD1     C14056   1.979   1.342  10.470 -0.2304 -0.1314  0.2560
    2MPD1    C114057   2.042   1.437  10.544 -0.2111  0.5905  0.2976
    2MPD1    C214058   2.111   1.397  10.657  0.3134 -0.5427 -0.3427
    2MPD1    C314059   2.113   1.271  10.705 -0.3549  0.1786  0.2733
    2MPD1    C414060   2.048   1.171  10.632 -0.3672  0.2372  0.3616
    2MPD1    C514061   1.984   1.205  10.514 -0.1650  1.0223  0.0385
    2MPD1     H14062   2.174   1.472  10.702  0.3633 -1.2719  0.8101
    2MPD1    H114063   2.043   1.070  10.671  1.5120 -1.0984 -2.8135
    2MPD1    H214064   1.938   1.362  10.372 -1.1951 -1.4348  0.3870
    2MPD1    H314065   1.947   1.128  10.449  0.6347 -0.2014  1.0344
    2MPD1     N14066   2.190   1.242  10.818 -0.1550 -0.3975  0.3915
    2MPD1    H514067   2.239   1.322  10.859 -0.6729  0.0774  0.0726
    2MPD1    N114068   2.062   1.547  10.463 -0.2264 -0.1243  0.1820
    2MPD1    H614069   2.077   1.630  10.520  2.5673  0.2345 -1.0669
    2MPD1    H714070   1.990   1.556  10.391  1.2552 -0.0462 -1.2896
    1TCq1    O114071   2.890   1.019   8.620  0.1245  0.4737  0.0828
    1TCq1    C114072   2.866   0.946   8.733  0.3653 -0.0876 -0.2287
    1TCq1    O214073   2.935   0.938   8.836  0.3498 -0.0192 -0.3709
    1TCq1    C214074   2.809   0.824   8.680 -0.1229  0.1645  0.4963
    1TCq1    C314075   2.713   0.836   8.576  0.1476  0.0832 -0.0184
    1TCq1    C414076   2.683   0.727   8.502  0.0886  0.0292  0.4008
    1TCq1    C514077   2.708   0.597   8.551 -0.3051 -0.3517 -0.8523
    1TCq1    C614078   2.790   0.587   8.666 -0.0944  0.1989 -0.0695
    1TCq1    C714079   2.856   0.703   8.717  0.9183  0.0263 -0.3354
    1TCq1    C814080   2.807   0.459   8.732 -0.2881  0.0931  0.5548
    1TCq1    O414081   2.913   0.432   8.786  0.2847  0.1132  0.4463
    1TCq1    C914082   2.581   0.750   8.404 -0.0754  0.7665  0.2430
    1TCq1    O514083   2.525   0.640   8.362 -0.4122  0.1129 -0.0628
    1TCq1    O614084   2.591   0.858   8.340  0.1476 -0.4951 -0.0036
    1TCq1    H114085   2.858   0.965   8.545 -2.9152  0.3140  1.4740
    1TCq1    H214086   2.692   0.932   8.530  4.0045  0.8193 -0.2182
    1TCq1    H314087   2.656   0.512   8.506 -1.2158  0.0455 -0.5513
    1TCq1    H414088   2.930   0.684   8.794  1.0600  1.4778 -0.1297
    2MPD1     C14089   2.591   0.006   8.847  0.8268  0.3336 -1.0917
    2MPD1    C114090   2.513   0.071   8.748 -0.5183 -0.1451  0.3297
    2MPD1    C214091   2.549   0.191   8.707  0.0170 -0.7717  0.3350
    2MPD1    C314092   2.665   0.254   8.750 -0.2332  0.3724  0.2127
    2MPD1    C414093   2.754   0.183   8.840 -0.1021 -0.0295  0.0974
    2MPD1    C514094   2.709   0.062   8.888 -0.9464  0.0340  0.2608
    2MPD1     H14095   2.481   0.237   8.636 -0.8141 -1.2854  0.8030
    2MPD1    H114096   2.850   0.226   8.868 -0.1969  0.1865  0.0953
    2MPD1    H214097   2.564   4.634   8.891  1.0253  0.1368 -1.3995
    2MPD1    H314098   2.769   0.011   8.963  0.0975  0.5026 -0.2530
    2MPD1     N14099   2.691   0.388   8.710  0.9271 -0.4128  0.0010
    2MPD1    H514100   2.618   0.428   8.651 -0.5298 -1.6554  0.9546
    2MPD1    N114101   2.386   0.029   8.703  1.3657 -0.4554 -0.7881
    2MPD1    H614102   2.376   0.062   8.608 -0.0893 -0.1774 -0.5469
    2MPD1    H714103   2.375   4.651   8.708 -1.1983 -0.0283  2.5729
    1MPD1     C14104   3.887   1.128  12.865 -0.7212 -0.0142 -1.0674
    1MPD1    C114105   3.896   1.037  12.763  0.3598 -0.1864 -0.0144
    1MPD1    C214106   3.897   1.087  12.634  0.7407  0.0972 -0.3816
    1MPD1    C314107   3.886   1.225  12.614  0.1226 -0.5675  0.5558
    1MPD1    C414108   3.866   1.312  12.716  0.2562 -0.7199 -0.4534
    1MPD1    C514109   3.875   1.264  12.848  0.8591 -0.6966  0.4904
    1MPD1     H14110   3.915   1.024  12.547  0.4774 -0.6560  0.1060
    1MPD1    H114111   3.877   1.419  12.705 -1.8658 -0.4340  0.2724
    1MPD1    H214112   3.905   1.089  12.965  2.0029 -0.2899 -1.6527
    1MPD1    H314113   3.883   1.340  12.926 -1.3323  1.0757 -1.0105
    1MPD1     N14114   3.914   1.267  12.483 -0.1260 -0.1452  0.4302
    1MPD1    H514115   3.916   1.193  12.414 -1.2465  0.0045  0.2359
    1MPD1    N114116   3.932   0.904  12.781 -0.3407 -0.5410  0.1336
    1MPD1    H614117   3.894   0.848  12.705 -1.5464 -0.6318  0.8161
    1MPD1    H714118   3.886   0.862  12.861 -0.6970 -0.1890  0.1139
    2MPD1     C14119   3.181   2.172  11.720  0.1940  0.3267  0.1654
    2MPD1    C114120   3.247   2.270  11.643 -0.3138 -0.0669 -0.7442
    2MPD1    C214121   3.327   2.234  11.539  0.3239  0.2570  0.0899
    2MPD1    C314122   3.352   2.103  11.507  0.2276 -0.4391  0.3590
    2MPD1    C414123   3.304   2.008  11.595  0.1142 -0.0566  0.4869
    2MPD1    C514124   3.214   2.042  11.695 -0.1034 -0.2253 -0.3651
    2MPD1     H14125   3.378   2.311  11.482  0.8196 -0.1561 -0.0202
    2MPD1    H114126   3.327   1.902  11.589 -1.8277 -0.3979 -0.8781
    2MPD1    H214127   3.117   2.192  11.806  2.4424  2.1225  1.4090
    2MPD1    H314128   3.175   1.956  11.749  0.9251 -0.8992 -0.6926
    2MPD1     N14129   3.443   2.062  11.409 -0.3504 -0.5643  0.2165
    2MPD1    H514130   3.485   1.970  11.410  3.4210  1.1712 -1.0284
    2MPD1    N114131   3.220   2.405  11.678 -0.0307  0.5840  0.3045
    2MPD1    H614132   3.217   2.433  11.776 -2.5161  0.2122  0.3541
    2MPD1    H714133   3.294   2.461  11.636 -0.3196  2.3715  2.1687
    3MPD1     C14134   3.792   2.114  10.370 -0.6584 -0.1595  0.1959
    3MPD1    C114135   3.869   2.018  10.437 -0.1430  0.4890 -0.0949
    3MPD1    C214136   3.835   2.004  10.572  0.2512 -0.3597 -0.0773
    3MPD1    C314137   3.758   2.089  10.642  0.1810 -0.4717 -0.7250
    3MPD1    C414138   3.699   2.197  10.574  0.6493  0.3042  0.1353
    3MPD1    C514139   3.721   2.207  10.439 -0.0732  0.2363 -0.2088
    3MPD1     H14140   3.879   1.922  10.629  0.7701  0.4341  0.6759
    3MPD1    H114141   3.640   2.273  10.622 -2.0825 -0.9975 -1.1433
    3MPD1    H214142   3.816   2.130  10.265 -0.3281  0.4382  0.3635
    3MPD1    H314143   3.698   2.306  10.400  1.6234  1.7404  2.5865
    3MPD1     N14144   3.748   2.073  10.783 -0.0626 -0.7571 -0.3769
    3MPD1    H514145   3.814   2.007  10.822  1.2078  1.1373  0.7137
    3MPD1    N114146   3.935   1.922  10.360 -0.4687  0.2107 -0.0054
    3MPD1    H614147   4.014   1.887  10.413  0.8905  0.6838 -1.6902
    3MPD1    H714148   3.973   1.967  10.277 -1.8425  1.1738 -0.1193
    4MPD2     C14149   4.013   1.807  11.799  0.0472  0.0231  0.6186
    4MPD2    C114150   4.071   1.689  11.835  0.2926 -0.4134  0.1781
    4MPD2    C214151   4.171   1.635  11.752 -0.5470 -0.2326 -0.6675
    4MPD2    C314152   4.231   1.719  11.649 -0.1868 -0.3020  0.1577
    4MPD2    C414153   4.179   1.842  11.618 -0.6025 -0.1998 -0.7043
    4MPD2    C514154   4.069   1.882  11.698 -0.3055  0.3978 -0.1843
    4MPD2     H14155   4.212   1.538  11.774 -1.3287 -0.8729 -2.0634
    4MPD2    H114156   4.210   1.906  11.536  0.6238  0.9506  0.6642
    4MPD2    H214157   3.932   1.842  11.862 -2.3990 -0.8211 -2.0405
    4MPD2    H314158   4.038   1.985  11.687  0.5857  0.8970  2.0482
    4MPD2     N14159   4.347   1.677  11.578  1.1949  0.8973  0.2282
    4MPD2    H514160   4.361   1.716  11.485 -2.5542  0.6217 -0.4830
    4MPD2    N114161   4.015   1.600  11.926 -0.2289 -1.0570  0.5893
    4MPD2    H714162   4.034   1.500  11.922  2.1852 -0.6299  1.7785
    5TMC3    C114163   3.884   1.509  12.092 -0.4224 -0.8778  0.1839
    5TMC3    C214164   3.895   1.513  12.228  0.2391 -0.2078 -0.3150
    5TMC3    C314165   3.943   1.400  12.286  0.2216 -0.3610 -1.1031
    5TMC3    C414166   3.899   1.398  12.018  1.0653 -0.0550  0.1058
    5TMC3    C514167   3.950   1.282  12.076  0.0117 -0.2053 -0.0387
    5TMC3    C614168   3.982   1.291  12.211  0.2095 -0.5972 -0.1671
    5TMC3     C14169   3.931   1.629  12.023 -0.6867 -0.1293  0.9215
    5TMC3     O14170   3.899   1.741  12.059 -0.2929 -0.1756  0.2825
    5TMC3     H14171   3.872   1.600  12.289 -2.2200 -2.0160  1.3366
    5TMC3    H114172   3.874   1.408  11.913  0.7344  1.4768  0.3420
    5TMC3    H214173   4.031   1.204  12.252  0.3912  0.2806  1.4749
    5TMC3    C714174   4.064   1.240  11.990 -0.0672 -0.4699  0.0163
    5TMC3    C814175   3.925   1.395  12.431  0.0132 -0.2593  0.2112
    5TMC3    O114176   4.097   1.326  11.909 -0.3677 -0.2500 -0.3294
    5TMC3    O214177   3.912   1.502  12.485 -0.3408  0.3724 -0.1778
    6TMC3    C114178   3.577   2.069  11.206  0.8532  0.0316 -0.1322
    6TMC3    C214179   3.583   2.124  11.081  0.2410 -0.7026 -0.3420
    6TMC3    C314180   3.659   2.063  10.987 -1.2043 -0.2337  0.8076
    6TMC3    C414181   3.641   1.956  11.239  0.5165  0.6000 -0.8869
    6TMC3    C514182   3.720   1.902  11.142  0.1933 -0.3463  0.1399
    6TMC3    C614183   3.727   1.948  11.012 -0.0888 -0.5325 -0.1532
    6TMC3     C14184   3.485   2.138  11.303  0.3388  0.0715  0.3254
    6TMC3     O14185   3.457   2.255  11.279  0.1901  0.3303 -0.6492
    6TMC3     H14186   3.541   2.223  11.064  1.1538 -0.1463  0.6041
    6TMC3    H114187   3.661   1.930  11.342 -3.1780 -1.0030 -0.5704
    6TMC3    H214188   3.789   1.895  10.940  1.9133  1.6130 -0.0408
    6TMC3    C714189   3.816   1.801  11.172  0.5415 -0.4826 -0.5123
    6TMC3    C814190   3.652   2.127  10.859 -1.1365 -0.1755  0.7874
    6TMC3    O114191   3.911   1.776  11.096 -0.6731 -0.1715 -0.7520
    6TMC3    O214192   3.562   2.204  10.833  0.3867 -0.2410 -0.1476
    7MPD2     C14193   4.467   0.960  11.858  0.1711  0.5278 -0.5048
    7MPD2    C114194   4.395   1.061  11.792  0.8760 -0.2797  0.2141
    7MPD2    C214195   4.284   1.112  11.852 -0.0242 -0.2200 -0.1057
    7MPD2    C314196   4.247   1.071  11.976  0.2854 -0.1332 -0.1465
    7MPD2    C414197   4.312   0.971  12.042  0.6578 -0.1495 -0.0518
    7MPD2    C514198   4.422   0.922  11.981 -0.1724 -0.4044 -0.1847
    7MPD2     H14199   4.232   1.186  11.793 -1.3671 -1.0732 -0.0074
    7MPD2    H114200   4.292   0.947  12.146  0.8163 -1.7282 -0.3931
    7MPD2    H214201   4.558   0.933  11.805  0.3742  0.5637 -0.1762
    7MPD2    H314202   4.470   0.841  12.036 -0.8510 -0.2712  0.6094
    7MPD2     N14203   4.137   1.132  12.034 -0.5081 -0.0120 -0.2356
    7MPD2    H514204   4.096   1.086  12.115 -1.4749 -1.4311 -1.5391
    7MPD2    N114205   4.456   1.119  11.677 -0.1101 -0.5306  0.2156
    7MPD2    H714206   4.547   1.087  11.646 -0.1997  0.3141 -0.9388
    8TMC3    C114207   4.461   1.274  11.494 -0.4361  0.2202 -0.2249
    8TMC3    C214208   4.391   1.294  11.383 -0.9436  0.7679 -0.2232
    8TMC3    C314209   4.383   1.416  11.317  0.0677 -0.2839  0.1044
    8TMC3    C414210   4.518   1.376  11.556  0.9713 -0.1640 -1.0005
    8TMC3    C514211   4.493   1.501  11.515 -0.2207  0.9810  0.0241
    8TMC3    C614212   4.443   1.521  11.386 -0.1015  0.2998 -0.2776
    8TMC3     C14213   4.382   1.192  11.586  0.1125 -0.7270 -0.2403
    8TMC3     O14214   4.262   1.215  11.580 -0.2889  0.2835 -0.8304
    8TMC3     H14215   4.327   1.217  11.342  0.6559 -0.3597 -0.6194
    8TMC3    H114216   4.552   1.353  11.656 -0.3313  1.8470 -0.0989
    8TMC3    H214217   4.407   1.617  11.352  1.1449  0.1986 -1.8735
    8TMC3    C714218   4.432   1.578  11.622 -0.0767  0.2294  0.3429
    8TMC3    C814219   4.248   1.452  11.276 -0.8148 -0.0300 -0.2890
    8TMC3    O114220   4.445   1.527  11.734 -0.1357  0.0734  0.3269
    8TMC3    O214221   4.228   1.496  11.165 -0.5406 -0.5998 -0.2097
    9MPD2     C14222   3.979   1.446  11.512  0.9285  0.3348 -0.2629
    9MPD2    C114223   4.039   1.481  11.398 -0.7508  0.1522  0.2764
    9MPD2    C214224   3.977   1.583  11.316 -0.4102  0.0130 -0.2235
    9MPD2    C314225   3.863   1.644  11.361 -0.2283 -0.1088  0.4871
    9MPD2    C414226   3.802   1.604  11.479 -0.0546 -0.8819  0.0520
    9MPD2    C514227   3.872   1.517  11.566  0.1604  0.5434 -0.1972
    9MPD2     H14228   4.043   1.624  11.240  0.2310  0.9270  0.8160
    9MPD2    H114229   3.712   1.654  11.513  0.5975 -0.6157  1.3780
    9MPD2    H214230   4.022   1.374  11.580 -0.1649  1.4255  1.5791
    9MPD2    H314231   3.823   1.474  11.653 -1.6728  0.2434 -1.3825
    9MPD2     N14232   3.790   1.742  11.290 -0.7997  0.1855  0.2048
    9MPD2    H514233   3.698   1.763  11.328 -1.5010  0.8163 -1.8673
    9MPD2    N114234   4.161   1.423  11.376  0.0804 -0.4921  0.2069
    9MPD2    H714235   4.192   1.370  11.457  0.6046 -1.2629 -0.5068
    1MPD1     C14236   3.765   1.234  16.550  0.9997  0.6737 -0.4877
    1MPD1    C114237   3.872   1.246  16.635  0.1146 -0.0022  0.1435
    1MPD1    C214238   3.895   1.128  16.698 -0.8053  0.5879 -0.4457
    1MPD1    C314239   3.846   1.005  16.658  0.4714 -0.1335 -0.6152
    1MPD1    C414240   3.747   0.998  16.560  0.8915 -0.4300  0.0611
    1MPD1    C514241   3.705   1.118  16.509  0.1009 -0.1255  0.2112
    1MPD1     H14242   3.960   1.131  16.785 -0.4639  1.2260 -0.7280
    1MPD1    H114243   3.700   0.909  16.519  0.7154 -0.8737  1.2336
    1MPD1    H214244   3.731   1.327  16.507 -1.7930 -0.3257 -0.4109
    1MPD1    H314245   3.627   1.126  16.434 -1.4736 -2.4076  1.6017
    1MPD1     N14246   3.873   0.880  16.721 -0.7267 -0.1223 -0.5995
    1MPD1    H514247   3.814   0.801  16.698  0.4450 -0.0860 -3.6531
    1MPD1    N114248   3.896   1.375  16.681  0.2632 -0.1947  0.4772
    1MPD1    H614249   3.995   1.375  16.706  0.5688 -1.1489 -0.7085
    1MPD1    H714250   3.885   1.441  16.604  0.7825 -0.3781  0.2455
    2MPD1     C14251   3.386   0.221  16.794 -0.2253  0.2169  0.0362
    2MPD1    C114252   3.422   0.328  16.711  0.4204 -0.0197 -0.6516
    2MPD1    C214253   3.532   0.392  16.740 -0.4169 -0.4119  0.2320
    2MPD1    C314254   3.617   0.360  16.845  0.4468  0.4198 -0.1183
    2MPD1    C414255   3.576   0.260  16.930 -0.4859 -0.0953  0.5082
    2MPD1    C514256   3.462   0.194  16.905 -0.0368  0.2129  0.6110
    2MPD1     H14257   3.552   0.479  16.677 -3.7180  0.6070  0.5411
    2MPD1    H114258   3.622   0.233  17.024 -0.0510  2.4496  1.0289
    2MPD1    H214259   3.291   0.170  16.779 -2.0336  2.9844  2.1436
    2MPD1    H314260   3.417   0.120  16.970  0.5561 -1.5435 -0.9949
    2MPD1     N14261   3.722   0.449  16.868 -0.4206 -0.0017  0.0885
    2MPD1    H514262   3.750   0.518  16.799  1.1382 -0.1805  0.5295
    2MPD1    N114263   3.360   0.343  16.592  0.0128  0.4365  0.1055
    2MPD1    H614264   3.266   0.303  16.585 -0.8194  2.1151  1.7148
    2MPD1    H714265   3.359   0.439  16.558  1.1707  0.5185  0.3108
    3TCq2    C114266   3.812   0.441  16.977  0.0226 -1.1483  0.6175
    3TCq2    O214267   3.825   0.362  17.067  0.2047 -0.1739  0.3980
    3TCq2    C214268   3.924   0.525  16.950  0.0417 -0.0465  0.1793
    3TCq2    C314269   4.052   0.488  16.985  0.1759  0.0164 -0.6031
    3TCq2    C414270   4.156   0.561  16.929 -0.1299  0.1586  0.9488
    3TCq2    C514271   4.132   0.680  16.862 -0.0784  0.2345 -1.0747
    3TCq2    C614272   4.001   0.719  16.841  0.2361 -0.5186 -0.0667
    3TCq2    C714273   3.897   0.645  16.887 -0.6055  0.3113  0.1659
    3TCq2    C814274   3.979   0.861  16.806 -0.1984  0.3649 -0.0658
    3TCq2    O414275   4.074   0.940  16.834 -0.2374  0.2137 -0.0883
    3TCq2    C914276   4.283   0.521  16.960 -0.2875  0.9850  0.1259
    3TCq2    O514277   4.380   0.593  16.914  0.3143  0.0910  0.5021
    3TCq2    O614278   4.291   0.416  17.035 -0.6312  0.4554  0.0555
    3TCq2    H214279   4.062   0.403  17.051  0.0802  1.9809  1.9395
    3TCq2    H314280   4.211   0.742  16.820 -1.2768  2.6390  0.2091
    3TCq2    H414281   3.793   0.671  16.869 -0.7776 -1.0379 -0.8139
    1TCq1    O114282   2.619   4.136  12.984 -0.1395 -0.5147  0.8369
    1TCq1    C114283   2.589   4.057  13.099  0.6639 -0.6086 -0.4347
    1TCq1    O214284   2.629   3.938  13.112  0.3280 -0.1728 -0.0470
    1TCq1    C214285   2.539   4.129  13.209 -0.5230 -0.3441 -0.3234
    1TCq1    C314286   2.457   4.242  13.186 -0.1819 -0.0203 -0.0392
    1TCq1    C414287   2.410   4.307  13.298  0.4790  0.4014 -0.2476
    1TCq1    C514288   2.445   4.257  13.422 -0.0895  0.1676 -0.6265
    1TCq1    C614289   2.525   4.143  13.442 -0.5089  0.2469  0.2528
    1TCq1    C714290   2.579   4.082  13.331  0.3268 -0.0016 -0.1526
    1TCq1    C814291   2.561   4.087  13.571  0.2323 -0.1845  0.9076
    1TCq1    O414292   2.571   3.964  13.565  0.4685  0.3736 -0.0023
    1TCq1    C914293   2.335   4.427  13.281  0.1672  0.1828 -1.0189
    1TCq1    O514294   2.282   4.449  13.168 -0.3665  0.0936  0.7819
    1TCq1    O614295   2.307   4.493  13.385  0.0452 -0.7750  0.1672
    1TCq1    H114296   2.639   4.230  13.003 -0.9620  0.2621 -2.2110
    1TCq1    H214297   2.438   4.284  13.087  0.2104 -0.9406 -0.4985
    1TCq1    H314298   2.417   4.311  13.511  0.3905 -0.4723 -0.0849
    1TCq1    H414299   2.630   3.986  13.335  0.1002 -0.0300  2.0906
    2MPD2     C14300   2.607   4.007  13.862 -0.0189  0.3576 -0.0001
    2MPD2    C114301   2.568   4.131  13.819 -0.9792 -0.2458  0.5625
    2MPD2    C214302   2.548   4.226  13.917  0.7119 -0.6751 -0.8375
    2MPD2    C314303   2.571   4.198  14.051 -0.2903  0.3841 -0.0879
    2MPD2    C414304   2.616   4.068  14.086 -0.4177  0.0666  0.3144
    2MPD2    C514305   2.625   3.967  13.991  0.4399 -0.1648 -0.7574
    2MPD2     H14306   2.527   4.326  13.881  2.6148 -0.4474 -1.3016
    2MPD2    H114307   2.639   4.050  14.190  3.4117  2.4886 -0.1274
    2MPD2    H214308   2.637   3.927  13.795  0.3375  0.0560  0.5252
    2MPD2    H314309   2.656   3.867  14.021 -1.2096 -0.2437  0.6973
    2MPD2     N14310   2.528   4.285  14.152  0.1892 -0.7257 -0.4999
    2MPD2    H514311   2.484   4.372  14.124 -0.2526  0.0535  2.6433
    2MPD2    N114312   2.554   4.168  13.680 -0.3829 -0.6156 -0.7832
    2MPD2    H714313   2.546   4.268  13.666  0.2934 -0.5561 -0.7511
    3TCq1    O114314   2.465   0.114  14.326  0.5698 -0.0982 -0.1086
    3TCq1    C114315   2.562   0.017  14.348  0.1134 -0.4060  0.1668
    3TCq1    O214316   2.661   0.010  14.274  0.0648  0.3106 -0.4440
    3TCq1    C214317   2.495   4.617  14.382  0.3925 -0.3086 -0.1254
    3TCq1    C314318   2.428   4.613  14.502  0.2032  0.3653  0.0848
    3TCq1    C414319   2.391   4.489  14.558 -0.4058 -0.1746  0.7703
    3TCq1    C514320   2.423   4.374  14.487 -0.4972  0.0489 -0.3494
    3TCq1    C614321   2.492   4.386  14.368 -0.2443 -1.0087  0.3138
    3TCq1    C714322   2.527   4.505  14.312  1.1696  0.3851  0.3315
    3TCq1    C814323   2.524   4.268  14.289  0.8217 -0.1481  0.1218
    3TCq1    O414324   2.529   4.159  14.348 -0.1960 -0.5068 -1.1121
    3TCq1    C914325   2.321   4.487  14.681 -0.3720 -0.5927 -0.0953
    3TCq1    O514326   2.340   4.591  14.749  0.7271 -0.7967 -0.8307
    3TCq1    O614327   2.267   4.383  14.723  0.6216  0.0668  0.1110
    3TCq1    H114328   2.376   0.111  14.368  0.3260  1.5335 -0.5251
    3TCq1    H214329   2.403   4.706  14.551  1.5358  1.2959 -0.9956
    3TCq1    H314330   2.389   4.277  14.523 -0.4084 -0.5007 -1.7317
    3TCq1    H414331   2.593   4.509  14.226  0.8550 -2.4022 -0.0627
    1MPD2     C14332   1.315   0.653  14.904 -0.2015  0.2606 -0.1784
    1MPD2    C114333   1.198   0.580  14.886 -0.2977  0.0013  0.4070
    1MPD2    C214334   1.204   0.440  14.878  0.8183  0.7614 -0.6900
    1MPD2    C314335   1.329   0.381  14.875 -0.3997 -0.0529  0.6261
    1MPD2    C414336   1.443   0.458  14.866  0.5946 -1.0437 -0.1862
    1MPD2    C514337   1.441   0.594  14.887  0.6368 -0.6045 -0.1475
    1MPD2     H14338   1.118   0.376  14.893  2.1665 -1.4029 -2.2727
    1MPD2    H114339   1.539   0.411  14.846 -0.7402 -3.5484 -0.6968
    1MPD2    H214340   1.306   0.760  14.918  1.1624  0.2494  0.7644
    1MPD2    H314341   1.533   0.652  14.886 -0.2591  0.8667  1.2925
    1MPD2     N14342   1.340   0.240  14.890 -0.2546  0.0743  0.3670
    1MPD2    H514343   1.438   0.216  14.901 -0.3393 -0.2482  0.4086
    1MPD2    N114344   1.076   0.650  14.895  0.3465 -0.5708  0.1993
    1MPD2    H714345   1.074   0.751  14.882  0.5544 -0.3446  1.9402
    2TMC3    C114346   0.838   0.676  14.904 -0.3082  0.6856  0.0506
    2TMC3    C214347   0.730   0.621  14.971  0.2683  0.3024 -0.0784
    2TMC3    C314348   0.610   0.598  14.903 -1.1466  0.2978 -0.8206
    2TMC3    C414349   0.828   0.733  14.782 -0.4097 -0.0143 -0.6973
    2TMC3    C514350   0.706   0.722  14.720 -0.2707  0.4680  0.3877
    2TMC3    C614351   0.600   0.650  14.779 -0.2723 -0.1266  0.4429
    2TMC3     C14352   0.952   0.591  14.911  0.4085 -0.4351 -1.0020
    2TMC3     O14353   0.925   0.479  14.950 -0.0597  0.0271 -0.0358
    2TMC3     H14354   0.741   0.599  15.076 -0.7825 -2.0367 -0.4602
    2TMC3    H114355   0.913   0.740  14.717  0.4505  0.4071  0.4661
    2TMC3    H214356   0.513   0.630  14.717  1.2723 -0.3766 -1.6149
    2TMC3    C714357   0.687   0.749  14.583 -0.1998  0.8370  0.1687
    2TMC3    C814358   0.556   0.460  14.922  0.2155  0.4841 -0.3706
    2TMC3    O114359   0.627   0.661  14.528  0.1341 -0.5520  0.0863
    2TMC3    O214360   0.441   0.443  14.884 -0.0570  0.2282 -0.2762
    3TCq1    O114361   1.036   1.488  13.707 -0.5137  0.0542  0.4227
    3TCq1    C114362   1.119   1.534  13.804  0.4205 -0.6858 -0.2767
    3TCq1    O214363   1.203   1.619  13.789 -0.5491  0.6229  0.2179
    3TCq1    C214364   1.093   1.471  13.928  0.6975 -0.9200  0.2054
    3TCq1    C314365   1.204   1.461  14.004  0.0520 -0.7912 -0.8755
    3TCq1    C414366   1.187   1.407  14.123 -0.3847  0.4519 -0.3614
    3TCq1    C514367   1.071   1.354  14.164 -0.2434 -0.2116 -0.2338
    3TCq1    C614368   0.959   1.370  14.083 -0.0743  0.0564  0.1000
    3TCq1    C714369   0.965   1.437  13.968 -0.0171 -0.2052 -0.3961
    3TCq1    C814370   0.851   1.272  14.099  0.4874  0.1722 -0.2218
    3TCq1    O414371   0.794   1.251  13.994  0.5171 -0.1449 -0.0940
    3TCq1    C914372   1.301   1.397  14.211 -0.7095  0.1251  0.9551
    3TCq1    O514373   1.291   1.315  14.305  0.0098  0.3964  0.0519
    3TCq1    O614374   1.394   1.475  14.184 -0.1460 -0.3276 -0.6267
    3TCq1    H114375   0.981   1.417  13.746 -1.3297 -0.1768 -1.1054
    3TCq1    H214376   1.308   1.485  13.981 -0.1591 -0.6250 -1.6459
    3TCq1    H314377   1.065   1.313  14.264 -3.0678 -0.0262 -0.3099
    3TCq1    H414378   0.881   1.434  13.900 -1.8208 -1.0480  1.8757
    4MPD2     C14379   0.691   1.020  14.146  0.2533 -0.2050  0.3296
    4MPD2    C114380   0.771   1.083  14.239  0.5625  0.3583 -0.2258
    4MPD2    C214381   0.785   1.021  14.363  0.7754  0.2346  0.4911
    4MPD2    C314382   0.728   0.902  14.399 -0.2092  0.3291 -0.9734
    4MPD2    C414383   0.639   0.847  14.304  0.5364 -0.5511 -0.5972
    4MPD2    C514384   0.629   0.903  14.181 -0.7268 -0.4519  0.4551
    4MPD2     H14385   0.869   1.060  14.420  0.5672  1.4354 -0.0150
    4MPD2    H114386   0.581   0.757  14.325  0.5287  0.2561  2.8664
    4MPD2    H214387   0.673   1.065  14.049  2.0085  0.2769  0.2335
    4MPD2    H314388   0.571   0.862  14.099  0.1085 -2.1732  0.7236
    4MPD2     N14389   0.760   0.853  14.530 -0.1818  0.0344  0.0580
    4MPD2    H514390   0.809   0.915  14.594 -0.3836 -1.3615  1.5582
    4MPD2    N114391   0.841   1.207  14.219  0.6911  0.4714  0.1726
    4MPD2    H714392   0.874   1.246  14.307  0.8212  3.7618 -1.3253
    5TMC2    C114393   1.126   4.591  15.046  0.5591 -0.1877  0.0736
    5TMC2    C214394   1.191   4.606  15.170 -0.1340  0.3827  1.0621
    5TMC2    C314395   1.301   4.694  15.180 -0.1566 -0.1447  0.3333
    5TMC2    C414396   1.185   4.650  14.941 -0.0540  0.0481 -0.6694
    5TMC2    C514397   1.284   0.024  14.954 -0.2094  0.3071 -0.2127
    5TMC2    C614398   1.342   0.048  15.075 -0.6689 -0.5116  0.1904
    5TMC2     C14399   0.980   4.598  15.048 -0.4042  0.2696  0.2304
    5TMC2     O14400   0.916   4.534  15.130 -0.0672 -0.3739 -0.0369
    5TMC2     H14401   1.152   4.554  15.256 -0.5644  1.6013  1.6005
    5TMC2    H114402   1.137   4.647  14.844  0.9958  0.9131 -1.2153
    5TMC2    H214403   1.434   0.103  15.089 -1.4376  0.5697  0.9689
    5TMC2    C714404   1.238   0.145  14.884 -0.1469 -0.7970 -0.6140
    5TMC2    C814405   1.366   4.697  15.311  0.1196 -0.0321  0.7904
    5TMC2    O114406   1.126   0.155  14.843 -0.3631 -0.0451  0.0734
    5TMC2    O214407   1.363   4.607  15.394  0.1601 -0.0178  0.1865
    5TMC2    O514408   1.367   0.110  15.341  0.2586 -0.0756  0.0332
    5TMC2    H514409   1.333   0.170  15.270 -0.4151 -0.1133  0.3263
    6MPD2     C14410   0.558   0.156  14.971 -0.4254  0.2697  0.3007
    6MPD2    C114411   0.665   0.238  14.945  0.0718 -0.4516  0.0043
    6MPD2    C214412   0.793   0.176  14.948 -0.3309  0.2539  0.4453
    6MPD2    C314413   0.810   0.041  14.973 -0.0024  0.2554  0.6148
    6MPD2    C414414   0.698   4.681  14.997  0.0674  0.1630 -0.0318
    6MPD2    C514415   0.579   0.023  14.996 -0.6043  1.0478  0.0641
    6MPD2     H14416   0.876   0.239  14.920  1.5699 -1.1942  2.7586
    6MPD2    H114417   0.703   4.574  15.013 -1.9993  0.1526  0.4850
    6MPD2    H214418   0.456   0.192  14.968 -1.3085 -2.1566  1.1550
    6MPD2    H314419   0.499   4.677  15.019  1.0978 -0.8681  0.2470
    6MPD2     N14420   0.938   4.712  14.974 -0.5981  0.0660 -0.2703
    6MPD2    H514421   0.995   0.058  14.925 -2.0240  1.6954  0.3393
    6MPD2    N114422   0.662   0.374  14.936 -0.3547 -0.0847  1.1999
    6MPD2    H714423   0.752   0.419  14.951  0.5867 -0.7953 -2.4129
  945NH3     N114424   2.216   0.694  10.381 -0.5823 -0.0627  0.0113
  945NH3     H214425   2.225   0.669  10.283  0.2236  0.8558 -0.1573
  945NH3     H314426   2.188   0.791  10.388  4.3081  1.3291  0.7937
  945NH3     H414427   2.314   0.703  10.408 -0.8247 -1.0045  1.1864
  946SOD     NA14428   0.256   3.910  12.948  0.1756 -0.3869 -0.7198
  947SOD     NA14429   0.345   4.384  14.973  0.0065  0.0549  0.3316
  948SOD     NA14430   0.382   3.912  10.394  0.4843  0.6173 -0.6279
  949SOD     NA14431   4.281   1.910   9.141  0.3500  0.3132  0.1022
  950SOD     NA14432   4.024   2.547  13.381  0.0811 -0.2408  0.1287
  951SOD     NA14433   0.604   3.710  10.323  0.0168  0.5049 -0.1728
  952SOD     NA14434   2.535   4.263  10.575 -0.0765  0.1258 -0.4112
  953SOD     NA14435   1.566   3.630   8.480 -0.5653 -0.4927  0.4847
  954SOD     NA14436   4.263   4.277  12.730  0.1041 -0.1828  0.1280
  955SOD     NA14437   3.740   0.206  14.889  0.4299  0.5893 -0.0166
  956SOD     NA14438   4.052   1.259   1.411 -0.1575  0.0201  0.0376
  957SOD     NA14439   1.403   0.212  13.345 -0.8440 -0.3519 -0.2664
  958SOD     NA14440   1.842   1.443   7.439  0.2536 -0.1141  0.0804
  959SOD     NA14441   2.871   3.957  14.706  0.1416  0.0664  0.5078
  960SOD     NA14442   2.662   4.240  14.766 -0.3307 -0.1827 -0.2577
  961SOD     NA14443   3.874   0.160   7.900 -0.0146  0.0187 -0.1606
  962SOD     NA14444   0.818   3.726  14.198 -0.3052  0.3256 -0.3208
  963SOD     NA14445   1.550   2.901   4.465 -0.3267 -0.4823 -0.2025
  964SOD     NA14446   3.253   0.383  13.640  0.3606  0.1807 -0.0225
  965SOD     NA14447   3.591   0.535   1.848 -0.3477 -0.0193 -0.5406
  966SOD     NA14448   0.511   0.501  14.422  0.0841  0.2249 -0.1610
  967SOD     NA14449   0.332   4.489   0.098 -0.0636  0.3365  0.1362
  968SOD     NA14450   4.396   3.548  17.104  0.1294 -0.1460  0.0974
  969SOD     NA14451   4.679   0.028  10.291 -0.0032 -0.6207 -0.2981
  970SOD     NA14452   3.044   3.340   7.729 -0.2841  0.2264 -0.1153
  971SOD     NA14453   1.719   1.634  14.377 -0.1092  0.2029  0.0619
  972SOD     NA14454   3.411   0.450  13.876  0.0331 -0.1234  0.3350
  973SOD     NA14455   4.241   3.601  12.210  0.1126 -0.2439 -0.0104
  974SOD     NA14456   2.651   3.540  13.070  0.3349  0.4204 -0.3147
  975SOD     NA14457   2.962   2.232  17.509 -0.1492 -0.0986  0.3446
  976SOD     NA14458   2.870   0.161  11.209  0.2228 -0.2375  0.3405
  977SOD     NA14459   2.310   4.157  10.797  0.0190  0.2697  0.1311
  978SOD     NA14460   0.344   4.417  10.033 -0.4497 -0.1882  0.5009
  979SOD     NA14461   1.351   0.957  14.592 -0.7818  0.0428  0.2761
  980SOD     NA14462   0.032   2.578  14.790  0.0611 -0.2084 -0.1151
  981SOD     NA14463   0.596   3.493  10.131  0.1096 -0.1585 -0.7803
  982SOD     NA14464   3.431   0.205  16.120 -0.0483  0.0995  0.8063
  983SOD     NA14465   3.137   1.850   2.295  0.3545 -0.5985  0.0646
  984SOD     NA14466   2.721   3.382  11.184  0.1127  0.4981 -0.1765
  985SOD     NA14467   2.300   0.386  11.020 -0.5524  0.4182  0.1486
  986SOD     NA14468   0.623   1.211   9.064 -0.3606  0.3295  0.4935
  987SOD     NA14469   0.508   4.029  10.120  0.3992 -0.6203 -0.1828
  988SOD     NA14470   4.468   2.545   0.732 -0.1929 -0.2979 -0.0694
  989SOD     NA14471   2.393   3.264   0.252  0.2991 -0.4039  0.2895
  990SOD     NA14472   1.281   0.973   1.142 -0.1401 -0.6594  0.3242
  991SOD     NA14473   0.366   1.122   5.637 -0.3250 -0.0080 -0.1699
  992SOD     NA14474   2.874   0.832  16.154  0.3461 -0.3989  0.4588
  993SOD     NA14475   4.031   3.184   1.917 -0.3636 -0.3393  0.3983
  994SOD     NA14476   2.369   4.351  11.093  0.3216  0.5428 -0.3259
  995SOD     NA14477   4.144   2.650  16.020 -0.0964  0.2968 -0.2183
  996SOD     NA14478   2.632   1.193   6.941 -0.2620  0.4447  0.4422
  997SOD     NA14479   3.900   0.862  17.378  0.1136  0.0148 -0.3690
  998SOD     NA14480   4.121   1.822   1.112  0.3027  0.3625 -0.1682
  999SOD     NA14481   0.910   2.356   2.475  0.2138 -0.3839 -0.0784
 1000SOD     NA14482   3.627   0.149   0.649  0.0958 -0.5234 -0.2896
 1001SOD     NA14483   4.273   3.961  10.240 -0.4533  0.0538  0.6655
 1002SOD     NA14484   1.394   1.043  11.965 -0.3429 -0.2262  0.0411
 1003SOD     NA14485   0.791   3.392  12.863  0.0984  0.1563 -0.0775
 1004SOD     NA14486   0.442   4.482  10.308  0.1779  0.3154 -0.0565
 1005SOD     NA14487   1.779   4.529  12.185  0.2132 -0.0227 -0.3600
 1006SOD     NA14488   3.798   1.880   8.549  0.8762  0.1629 -0.1502
 1007SOD     NA14489   1.377   1.866  12.254 -0.2992  0.2924 -0.2160
 1008SOD     NA14490   4.697   2.159  13.814  0.0299 -0.1662 -0.0048
 1009SOD     NA14491   0.571   2.796   1.352 -0.3364 -0.8042  0.2496
 1010SOD     NA14492   1.837   2.494   2.443  0.4138  0.3185 -0.3293
 1011SOD     NA14493   0.774   1.355   6.156 -0.0983 -0.4595  0.3707
 1012SOL     OW14494   2.774   2.183   8.566 -0.3816 -0.4046  0.4033
 1012SOL    HW114495   2.729   2.264   8.590  0.7551  0.0753  0.9101
 1012SOL    HW214496   2.852   2.219   8.524 -0.1039 -2.5446 -0.9656
 1013SOL     OW14497   2.421   2.667   2.739  0.3669  0.0024 -0.0780
 1013SOL    HW114498   2.496   2.609   2.747  0.2662 -0.0766  0.3215
 1013SOL    HW214499   2.384   2.666   2.828  2.7414 -0.0835  0.9201
 1014SOL     OW14500   0.907   2.201   6.310 -0.6402  0.3993  0.9016
 1014SOL    HW114501   0.855   2.208   6.230 -1.7248  0.3709  1.6060
 1014SOL    HW214502   0.845   2.254   6.361 -0.3000  0.8730  0.8295
 1015SOL     OW14503   3.092   2.951   4.357  0.4438  0.4822  0.0016
 1015SOL    HW114504   3.100   2.910   4.271 -0.4563 -0.1241  0.2021
 1015SOL    HW214505   3.172   2.920   4.399  0.3134  1.0181  0.6587
 1016SOL     OW14506   4.270   2.353   7.645 -0.3157  0.2392 -0.5644
 1016SOL    HW114507   4.275   2.447   7.662 -4.3722  0.6762 -1.8467
 1016SOL    HW214508   4.344   2.343   7.586  1.4940 -2.5254  2.1542
 1017SOL     OW14509   0.188   4.475   6.318  0.0475 -0.6363  0.2135
 1017SOL    HW114510   0.188   4.444   6.408  0.7037  0.0088  0.4346
 1017SOL    HW214511   0.264   4.533   6.312  0.2316 -1.0848 -1.7645
 1018SOL     OW14512   3.120   1.606   6.184 -0.1012 -0.5499 -0.1505
 1018SOL    HW114513   3.055   1.565   6.240 -1.8904  3.9423  1.1283
 1018SOL    HW214514   3.179   1.654   6.242 -1.6816  0.9425  0.2375
 1019SOL     OW14515   1.977   1.555   3.454  0.5367  0.3728 -0.2149
 1019SOL    HW114516   2.001   1.593   3.369 -1.2470  0.5555 -0.6293
 1019SOL    HW214517   2.055   1.569   3.508  0.9885 -1.7301 -0.3221
 1020SOL     OW14518   2.158   2.482   8.612  0.7335  0.0576  0.2411
 1020SOL    HW114519   2.226   2.549   8.618  1.4637 -0.5413 -1.4448
 1020SOL    HW214520   2.126   2.482   8.702 -0.3578 -0.2403 -0.1465
 1021SOL     OW14521   2.937   0.847   3.439  0.0352 -0.1362 -0.6012
 1021SOL    HW114522   3.020   0.862   3.484  0.6519  0.9690 -2.1111
 1021SOL    HW214523   2.954   0.756   3.416 -1.5069 -0.7624  0.7626
 1022SOL     OW14524   3.781   2.428   3.842  0.6292 -0.0226 -0.0422
 1022SOL    HW114525   3.823   2.449   3.925  0.5599 -2.1330  0.5304
 1022SOL    HW214526   3.795   2.338   3.812  0.9027 -0.1970  0.6206
 1023SOL     OW14527   4.132   2.696  15.470 -0.6360 -0.2307 -0.2997
 1023SOL    HW114528   4.124   2.772  15.413  2.2831  0.8794  0.8138
 1023SOL    HW214529   4.044   2.659  15.479 -0.7463 -0.4668 -2.3504
 1024SOL     OW14530   1.936   4.295   1.990  0.5771  0.1571 -0.0686
 1024SOL    HW114531   1.888   4.237   1.931  0.4819 -1.3592  1.5125
 1024SOL    HW214532   1.882   4.375   1.994 -0.0684 -0.2198 -1.1563
 1025SOL     OW14533   2.271   3.541   3.765  0.6118 -0.4442 -0.6525
 1025SOL    HW114534   2.296   3.542   3.857  1.2392 -1.6499 -0.8074
 1025SOL    HW214535   2.204   3.473   3.763  1.3267 -1.1928  1.3724
 1026SOL     OW14536   1.360   2.797  12.263 -0.5274  0.4550  0.9463
 1026SOL    HW114537   1.315   2.849  12.197  1.9249  0.7386 -0.5222
 1026SOL    HW214538   1.448   2.784  12.227 -1.0261 -1.8467  0.5551
 1027SOL     OW14539   0.922   0.212   7.901  0.2172 -0.3477  0.3669
 1027SOL    HW114540   0.943   0.133   7.951  0.8250 -1.0503 -0.9957
 1027SOL    HW214541   0.831   0.207   7.870 -0.0477  3.0319  0.5929
 1028SOL     OW14542   0.961   1.595   3.546 -0.8644  0.2929 -0.0314
 1028SOL    HW114543   0.901   1.544   3.602  0.1029 -0.2212  0.5360
 1028SOL    HW214544   0.915   1.675   3.519  1.0660  0.8001 -1.7881
 1029SOL     OW14545   3.890   2.768   6.497 -0.7017  0.0543  0.1338
 1029SOL    HW114546   3.947   2.766   6.574 -0.2767 -0.0318 -0.1855
 1029SOL    HW214547   3.866   2.860   6.484  0.6201  0.4046  0.1521
 1030SOL     OW14548   2.669   1.764   7.055  0.6612  0.7883  0.3369
 1030SOL    HW114549   2.590   1.747   7.002  0.9895  2.4983 -0.7157
 1030SOL    HW214550   2.666   1.697   7.123 -1.9436 -0.6337 -1.1828
 1031SOL     OW14551   1.834   0.795   2.137 -0.0390  0.2773 -0.0746
 1031SOL    HW114552   1.876   0.804   2.052 -1.3633 -1.8892 -0.9565
 1031SOL    HW214553   1.741   0.796   2.118 -0.5512  1.7601  2.5786
 1032SOL     OW14554   3.942   2.710   3.897  0.7612  0.1627 -0.4235
 1032SOL    HW114555   3.859   2.741   3.932 -0.6687 -3.8002 -0.2877
 1032SOL    HW214556   3.953   2.641   3.962  0.0949 -0.1967 -0.6984
 1033SOL     OW14557   1.117   3.020  13.301  0.0728 -0.2793 -0.3292
 1033SOL    HW114558   1.050   2.994  13.364 -1.3574 -1.3223 -2.2686
 1033SOL    HW214559   1.069   3.068  13.233  1.9111  2.4134  0.2726
 1034SOL     OW14560   1.164   0.560   2.553  0.3442  0.0933 -0.6663
 1034SOL    HW114561   1.239   0.616   2.536 -0.6404  1.5285 -0.2929
 1034SOL    HW214562   1.126   0.561   2.466 -1.7260 -1.8802  0.2070
 1035SOL     OW14563   3.031   3.145   1.361 -0.1156  0.7502 -0.4586
 1035SOL    HW114564   2.984   3.130   1.279  0.7013 -0.1732 -0.7575
 1035SOL    HW214565   2.957   3.179   1.411  0.2513  1.0151 -0.0899
 1036SOL     OW14566   1.024   1.549   5.219 -0.3461  0.1081 -0.2526
 1036SOL    HW114567   0.979   1.630   5.243 -1.0943 -0.3726 -0.0310
 1036SOL    HW214568   1.099   1.583   5.171  0.2340  0.3623  0.8370
 1037SOL     OW14569   3.033   0.958   6.940  0.0882 -0.0706  0.4206
 1037SOL    HW114570   3.096   0.893   6.911 -0.5751 -0.4544 -0.1631
 1037SOL    HW214571   3.015   0.932   7.030 -0.6994  0.6803  0.4862
 1038SOL     OW14572   3.219   3.973   6.053 -0.1695 -0.7172 -0.0883
 1038SOL    HW114573   3.233   4.036   5.982 -0.3509 -1.9469 -1.2230
 1038SOL    HW214574   3.301   3.924   6.055  0.1714 -0.1155  0.6064
 1039SOL     OW14575   4.254   3.959  11.340 -0.4441  0.2864 -0.9899
 1039SOL    HW114576   4.233   3.929  11.429  1.3954  1.2581 -0.2438
 1039SOL    HW214577   4.309   3.888  11.307  0.1916 -1.1536  3.1812
 1040SOL     OW14578   3.161   4.159   3.446 -0.1272  0.1235 -0.0218
 1040SOL    HW114579   3.247   4.125   3.472 -0.9358 -2.9822 -1.4348
 1040SOL    HW214580   3.162   4.140   3.352  0.3428  1.4118 -0.2740
 1041SOL     OW14581   2.336   4.574   2.080  0.4545  0.1386  0.2256
 1041SOL    HW114582   2.387   4.655   2.072  0.3709 -0.2157 -3.6561
 1041SOL    HW214583   2.360   4.541   2.167 -1.3513  2.7108  1.7079
 1042SOL     OW14584   4.600   3.436   8.607  0.1891  0.1590  0.6684
 1042SOL    HW114585   4.647   3.469   8.684  0.4682  0.4234  0.3875
 1042SOL    HW214586   4.605   3.341   8.619 -2.2771 -0.3440 -2.4488
 1043SOL     OW14587   2.350   4.175  17.265 -0.2313  0.4033 -0.4323
 1043SOL    HW114588   2.356   4.230  17.343  0.8755  1.8235 -1.5226
 1043SOL    HW214589   2.439   4.161  17.234 -0.1625 -0.2969  0.0882
 1044SOL     OW14590   1.455   4.333   0.248  0.4092  0.5674  0.0368
 1044SOL    HW114591   1.518   4.405   0.246 -0.8453  1.6078 -1.7385
 1044SOL    HW214592   1.384   4.356   0.188 -1.2229 -0.7018  1.4490
 1045SOL     OW14593   0.354   0.929   5.821 -0.2463  0.1435 -0.1056
 1045SOL    HW114594   0.421   0.947   5.887 -2.3304  1.3495  1.6370
 1045SOL    HW214595   0.412   0.876   5.765 -0.6533  1.2548 -1.5783
 1046SOL     OW14596   0.865   1.247   5.478 -0.5030  0.7778 -0.3794
 1046SOL    HW114597   0.803   1.182   5.444  0.5412 -0.8464  0.7959
 1046SOL    HW214598   0.819   1.324   5.446 -0.0944  0.9329 -0.5856
 1047SOL     OW14599   1.888   1.732  14.252  0.2623 -0.0873 -0.3944
 1047SOL    HW114600   1.899   1.749  14.159 -1.0525 -0.4438 -0.6083
 1047SOL    HW214601   1.978   1.706  14.271  0.1703 -1.0816 -1.3499
 1048SOL     OW14602   4.244   1.578   3.748  0.5109 -0.7626 -0.4030
 1048SOL    HW114603   4.154   1.584   3.716  0.4748 -0.6168 -0.2723
 1048SOL    HW214604   4.274   1.661   3.710 -0.8212  0.2890  0.8438
 1049SOL     OW14605   3.962   3.607   3.322  0.7647 -0.8411  0.6030
 1049SOL    HW114606   3.888   3.659   3.290  0.8810 -0.1409  1.4645
 1049SOL    HW214607   3.935   3.515   3.311  1.8719 -1.1991  0.9076
 1050SOL     OW14608   2.776   2.232   0.463  0.0433  0.0099 -0.1817
 1050SOL    HW114609   2.752   2.317   0.427  0.2772  0.3237  0.3957
 1050SOL    HW214610   2.837   2.253   0.534 -1.8268  1.3802  0.9904
 1051SOL     OW14611   2.124   4.336   0.804 -0.1220 -0.0138  0.7208
 1051SOL    HW114612   2.093   4.354   0.893  0.6996  0.4356  0.9072
 1051SOL    HW214613   2.141   4.427   0.781  1.2042  0.0833  2.0561
 1052SOL     OW14614   1.093   3.382   7.222  0.2343 -0.0543 -0.2998
 1052SOL    HW114615   1.056   3.459   7.179 -0.6130 -0.4502 -0.2912
 1052SOL    HW214616   1.120   3.327   7.149 -0.3523 -2.1010  1.0295
 1053SOL     OW14617   0.899   2.153  12.666  0.2796 -0.0308  0.1135
 1053SOL    HW114618   0.937   2.106  12.591 -2.0405 -0.6080 -0.7274
 1053SOL    HW214619   0.883   2.231  12.613 -0.5095  1.5513  2.7084
 1054SOL     OW14620   1.448   3.148  11.007 -0.5906  0.1931 -0.1320
 1054SOL    HW114621   1.415   3.072  10.959 -0.9373  0.2560  0.0048
 1054SOL    HW214622   1.381   3.150  11.075  1.0069  0.2168  1.4193
 1055SOL     OW14623   0.258   3.190  11.573 -0.1486 -0.4106 -0.0641
 1055SOL    HW114624   0.268   3.102  11.611  2.0823 -1.4026 -2.9535
 1055SOL    HW214625   0.200   3.225  11.640 -0.2197 -1.7978  0.6129
 1056SOL     OW14626   0.670   4.319  12.053  0.4529  0.6836  0.1021
 1056SOL    HW114627   0.670   4.373  11.973  0.5492  0.8746  0.2295
 1056SOL    HW214628   0.653   4.233  12.015  0.6014  2.3133 -3.7505
 1057SOL     OW14629   0.560   3.686   2.001  0.1482  0.1324 -0.8776
 1057SOL    HW114630   0.569   3.773   1.962 -0.4730  1.1951  1.3955
 1057SOL    HW214631   0.654   3.674   2.006 -0.0671 -0.7818  0.8735
 1058SOL     OW14632   0.935   1.419   1.570  0.2297  0.1793  0.1006
 1058SOL    HW114633   0.865   1.472   1.607  1.4427  1.0449  1.1288
 1058SOL    HW214634   0.918   1.426   1.476 -1.9734  1.8193  0.6291
 1059SOL     OW14635   1.202   2.672   5.052  0.3487 -0.2138 -0.1840
 1059SOL    HW114636   1.257   2.692   4.976 -0.8464  0.2669 -0.9481
 1059SOL    HW214637   1.119   2.675   5.004  1.1700 -2.0885 -1.7063
 1060SOL     OW14638   3.951   3.503   4.539  0.2808 -0.1938  0.0730
 1060SOL    HW114639   3.859   3.510   4.512  0.2732 -2.7013 -0.5552
 1060SOL    HW214640   3.969   3.582   4.589  1.2965  1.4384 -2.8716
 1061SOL     OW14641   3.585   0.195   2.113 -0.9457  0.1772 -0.0660
 1061SOL    HW114642   3.595   0.211   2.207 -0.3070 -0.9004  0.0506
 1061SOL    HW214643   3.643   0.119   2.109  1.7264  2.1878  0.4034
 1062SOL     OW14644   1.234   3.285  13.622  0.1792 -0.0730  0.2464
 1062SOL    HW114645   1.246   3.301  13.715 -3.4257 -1.0451  0.8778
 1062SOL    HW214646   1.141   3.265  13.611  0.0574  0.0685  1.0246
 1063SOL     OW14647   2.486   3.933   4.150 -0.5284  0.7184 -0.0526
 1063SOL    HW114648   2.574   3.949   4.116 -1.2077  1.2831 -1.5323
 1063SOL    HW214649   2.480   3.994   4.223 -1.7349 -1.1938  1.4602
 1064SOL     OW14650   1.639   1.209   3.769 -0.0268 -0.2963 -0.5847
 1064SOL    HW114651   1.616   1.143   3.704 -1.1485  0.6051 -1.0886
 1064SOL    HW214652   1.604   1.281   3.718  1.4265  1.9967  1.6672
 1065SOL     OW14653   1.901   0.336  10.687 -0.0521 -0.1084 -0.1467
 1065SOL    HW114654   1.871   0.393  10.758 -1.8273 -1.0108 -0.2035
 1065SOL    HW214655   1.969   0.389  10.645 -0.3123 -0.3171 -0.8292
 1066SOL     OW14656   0.976   0.401  14.164 -0.0453 -0.2081 -0.2815
 1066SOL    HW114657   0.965   0.491  14.195 -1.7054 -1.5154  2.9534
 1066SOL    HW214658   0.904   0.358  14.210  0.3068  1.1851  1.5504
 1067SOL     OW14659   0.799   1.164   4.161 -0.3026 -0.3828 -0.3874
 1067SOL    HW114660   0.849   1.104   4.106 -0.1455 -2.1516  1.6889
 1067SOL    HW214661   0.760   1.224   4.097  0.8237 -0.8995 -1.5591
 1068SOL     OW14662   3.854   2.958   2.327 -0.2693 -0.3467  0.0060
 1068SOL    HW114663   3.840   2.926   2.417 -2.0864 -0.2241 -0.2230
 1068SOL    HW214664   3.825   3.048   2.337  1.0487  0.1844 -1.0528
 1069SOL     OW14665   3.174   2.565  14.640 -0.0776  0.1032  0.1313
 1069SOL    HW114666   3.234   2.619  14.590 -2.0720  1.5029 -0.7149
 1069SOL    HW214667   3.153   2.622  14.714 -0.7908  0.8816 -0.6840
 1070SOL     OW14668   1.487   3.241   2.550 -0.0210 -0.5843 -0.4381
 1070SOL    HW114669   1.412   3.182   2.544 -1.3341  0.8535  1.9924
 1070SOL    HW214670   1.525   3.212   2.633  2.4095  2.1507 -0.5898
 1071SOL     OW14671   2.109   3.981   6.288  0.0420 -0.1369 -0.0861
 1071SOL    HW114672   2.020   3.994   6.320  0.8192 -1.4876  2.6381
 1071SOL    HW214673   2.149   4.049   6.343  0.6602 -1.2765  0.8714
 1072SOL     OW14674   4.450   2.972   4.082 -0.1187  0.3936  0.1412
 1072SOL    HW114675   4.473   2.974   4.175  0.2555 -3.4949  0.1386
 1072SOL    HW214676   4.496   2.892   4.057 -1.0760 -0.1018 -0.0476
 1073SOL     OW14677   1.079   3.652   1.139 -0.8078 -0.3019  0.1051
 1073SOL    HW114678   1.168   3.655   1.103 -0.4746  0.0176  0.9512
 1073SOL    HW214679   1.047   3.730   1.095 -0.2300  0.0695  0.3338
 1074SOL     OW14680   2.328   3.490   1.003  0.1360 -0.4728  0.1224
 1074SOL    HW114681   2.391   3.505   1.073 -0.8845  2.9665  0.3302
 1074SOL    HW214682   2.249   3.460   1.047 -1.1787  0.6162 -1.4839
 1075SOL     OW14683   3.096   2.793   5.835 -0.3744 -0.0288  0.3866
 1075SOL    HW114684   3.001   2.788   5.848 -0.4666  0.6412 -0.0438
 1075SOL    HW214685   3.130   2.746   5.911  0.2763  1.2626  0.8963
 1076SOL     OW14686   0.045   0.078   1.717  0.4378 -0.0323 -0.1597
 1076SOL    HW114687   0.055   0.093   1.810 -0.0625 -2.8055  0.3542
 1076SOL    HW214688   0.043   0.165   1.677 -0.1278 -0.1125 -0.3137
 1077SOL     OW14689   0.336   0.574   3.290  0.5519 -0.2141  0.1820
 1077SOL    HW114690   0.403   0.549   3.227  0.2462  1.9677 -0.9997
 1077SOL    HW214691   0.308   0.488   3.323  0.7402 -0.5551 -0.5685
 1078SOL     OW14692   0.937   2.995   7.173  0.0126 -0.1661 -0.6733
 1078SOL    HW114693   0.981   3.073   7.206 -0.5365 -0.0709 -0.1866
 1078SOL    HW214694   0.857   2.989   7.225 -0.0344 -1.3563 -0.8792
 1079SOL     OW14695   0.210   1.315  11.119 -0.1162 -0.3002 -0.7664
 1079SOL    HW114696   0.211   1.232  11.166  0.2508  0.3959  0.4657
 1079SOL    HW214697   0.285   1.356  11.163 -0.0061  0.4676 -1.6746
 1080SOL     OW14698   1.774   2.245   6.808  0.3955  0.0157  0.1683
 1080SOL    HW114699   1.694   2.197   6.828  0.3313  0.2096  0.3741
 1080SOL    HW214700   1.785   2.225   6.715 -0.3668  0.2115  0.0399
 1081SOL     OW14701   0.037   3.788  12.355 -0.4959 -0.4619 -0.1823
 1081SOL    HW114702   4.666   3.778  12.335 -0.8360 -1.3964  1.8517
 1081SOL    HW214703   0.052   3.879  12.331  1.7653 -0.3989  1.5117
 1082SOL     OW14704   3.862   2.315   7.968 -0.7942  0.5052 -0.1947
 1082SOL    HW114705   3.799   2.388   7.970 -0.5803  0.6516  1.4323
 1082SOL    HW214706   3.929   2.347   7.908 -0.8563 -2.4360 -1.7860
 1083SOL     OW14707   3.750   0.655  15.109 -0.2975 -0.0900  0.3219
 1083SOL    HW114708   3.784   0.656  15.199  1.0793 -1.6197 -0.1985
 1083SOL    HW214709   3.793   0.723  15.057 -0.9450 -0.9410 -1.3030
 1084SOL     OW14710   4.681   1.447   8.676  0.6372 -0.8750  0.1343
 1084SOL    HW114711   4.649   1.530   8.710  4.0351  0.6110 -0.3774
 1084SOL    HW214712   4.599   1.403   8.653  0.2594  0.0637 -0.3222
 1085SOL     OW14713   0.825   0.949   7.166 -0.5491 -0.1365  0.4951
 1085SOL    HW114714   0.868   0.876   7.123  0.4741 -0.5602  2.2460
 1085SOL    HW214715   0.818   0.911   7.253  1.7336  1.0934  1.2150
 1086SOL     OW14716   2.684   1.437   9.150 -0.1339 -0.3999  0.3013
 1086SOL    HW114717   2.632   1.517   9.152 -1.0077 -0.9237 -1.1520
 1086SOL    HW214718   2.664   1.401   9.064  0.3163  2.2126 -0.9051
 1087SOL     OW14719   3.838   1.196   8.365 -0.6207 -0.0177  0.1584
 1087SOL    HW114720   3.911   1.166   8.419  0.4148  1.3194 -0.4675
 1087SOL    HW214721   3.826   1.118   8.311 -0.6241  0.5771 -0.7163
 1088SOL     OW14722   3.979   0.228  14.894 -0.4759 -0.5979 -0.0290
 1088SOL    HW114723   4.036   0.156  14.921 -0.1032  0.2812  1.5230
 1088SOL    HW214724   3.979   0.272  14.978 -0.1749  2.2335 -1.5306
 1089SOL     OW14725   2.834   0.782  14.592  0.1007  0.7486  0.0031
 1089SOL    HW114726   2.782   0.703  14.577 -0.0870  0.7981  0.4062
 1089SOL    HW214727   2.870   0.745  14.673  0.2238 -1.6670 -1.1355
 1090SOL     OW14728   2.901   1.127   7.532 -0.4611  0.0786  0.4438
 1090SOL    HW114729   2.992   1.149   7.553 -0.9411  1.0468  1.5202
 1090SOL    HW214730   2.858   1.211   7.517  2.3928  1.3276 -0.8176
 1091SOL     OW14731   1.788   4.618   4.426 -0.0448  0.0641  0.2344
 1091SOL    HW114732   1.762   4.563   4.500 -1.1144 -2.4604 -2.0137
 1091SOL    HW214733   1.777   4.570   4.344  0.6679  0.7957 -0.2882
 1092SOL     OW14734   0.060   4.035  12.293  0.7451  0.6799  1.0035
 1092SOL    HW114735   0.032   4.100  12.357 -2.1215 -0.8779  1.3551
 1092SOL    HW214736   4.702   4.024  12.243  2.0202  1.2437 -1.1598
 1093SOL     OW14737   0.945   1.271   5.167  0.3422  0.6868 -0.4162
 1093SOL    HW114738   0.899   1.287   5.085  1.1318 -0.0678 -1.0073
 1093SOL    HW214739   0.982   1.359   5.175 -2.3587  1.7340  0.5051
 1094SOL     OW14740   4.713   4.444   8.339 -0.0215  0.0793  0.3696
 1094SOL    HW114741   4.667   4.361   8.332 -0.8020  0.4525  1.1050
 1094SOL    HW214742   0.072   4.430   8.293 -0.6088 -0.0173 -0.6516
 1095SOL     OW14743   3.618   1.839  11.707  0.2778 -0.0416  0.1505
 1095SOL    HW114744   3.603   1.899  11.781 -1.4442  1.4432 -1.4137
 1095SOL    HW214745   3.702   1.876  11.680 -0.6945  0.8481 -1.6369
 1096SOL     OW14746   3.915   2.959  16.304  0.3972 -0.1321 -0.3998
 1096SOL    HW114747   3.901   2.999  16.218  1.0297 -0.1648 -0.5200
 1096SOL    HW214748   3.824   2.941  16.327  0.6246 -0.6240  0.0968
 1097SOL     OW14749   1.255   1.388  15.359  1.2442 -0.1840  0.6851
 1097SOL    HW114750   1.249   1.293  15.347 -3.2739  0.1501  0.2698
 1097SOL    HW214751   1.224   1.401  15.449  0.4546 -1.5225  0.6070
 1098SOL     OW14752   3.098   0.684   3.796 -0.0176 -0.2648  0.1316
 1098SOL    HW114753   3.124   0.592   3.795  1.6108  0.1798  0.6209
 1098SOL    HW214754   3.086   0.691   3.891 -1.0741  0.6556 -0.0696
 1099SOL     OW14755   1.238   0.266  12.915  1.1909 -0.1906 -0.1115
 1099SOL    HW114756   1.169   0.315  12.960  1.4154  0.3169 -0.3199
 1099SOL    HW214757   1.306   0.332  12.904 -0.1781  1.3998  0.8344
 1100SOL     OW14758   1.867   4.134   6.414  0.3350  0.2975  0.3490
 1100SOL    HW114759   1.946   4.173   6.449  1.6936 -1.7791 -0.4086
 1100SOL    HW214760   1.806   4.176   6.474  0.8418  2.5705 -0.7411
 1101SOL     OW14761   2.600   4.274   8.783 -0.1858 -0.1362 -0.1438
 1101SOL    HW114762   2.575   4.215   8.854  0.2121  0.3834  0.4389
 1101SOL    HW214763   2.691   4.243   8.778 -0.2452 -0.4522  0.8013
 1102SOL     OW14764   1.939   2.881   7.417 -0.4069 -0.2351 -0.5279
 1102SOL    HW114765   1.853   2.877   7.459 -0.1277  1.0938  0.1893
 1102SOL    HW214766   1.929   2.962   7.366 -3.2714 -1.1965 -1.4532
 1103SOL     OW14767   2.613   4.633  15.338  0.8980 -0.1847  0.0715
 1103SOL    HW114768   2.640   4.581  15.414  1.0213 -0.3235 -0.0683
 1103SOL    HW214769   2.560   4.704  15.373  0.6176 -0.5672  0.4351
 1104SOL     OW14770   4.203   0.165   3.255 -0.2989  0.2188  0.3032
 1104SOL    HW114771   4.108   0.171   3.268 -0.1236  1.4948  0.9997
 1104SOL    HW214772   4.226   0.099   3.321 -1.4683  0.6513  1.1435
 1105SOL     OW14773   1.106   2.662  14.295 -0.3849 -0.2015 -0.3821
 1105SOL    HW114774   1.074   2.738  14.344  1.8112 -0.3999  1.3675
 1105SOL    HW214775   1.131   2.606  14.368  0.3840 -0.6102 -0.9690
 1106SOL     OW14776   2.279   2.780   9.301 -0.1963 -0.1502  0.3340
 1106SOL    HW114777   2.359   2.746   9.343  1.3902  0.9345 -1.8347
 1106SOL    HW214778   2.253   2.852   9.359  1.8589  1.9609 -1.3565
 1107SOL     OW14779   2.553   3.308   4.008  0.1859 -1.0968  0.4923
 1107SOL    HW114780   2.577   3.271   3.923  0.1815  0.0628 -0.0198
 1107SOL    HW214781   2.635   3.327   4.055 -0.7853  0.1840  1.6671
 1108SOL     OW14782   1.127   3.120  17.381 -0.1397 -0.0788 -0.8069
 1108SOL    HW114783   1.187   3.180  17.424  0.7240 -0.7675 -1.0608
 1108SOL    HW214784   1.166   3.107  17.294  2.8985  0.1565  0.5554
 1109SOL     OW14785   3.212   0.650   5.403  0.6236 -0.3660  0.0168
 1109SOL    HW114786   3.307   0.656   5.413  0.3636  0.4569  1.9331
 1109SOL    HW214787   3.205   0.578   5.341 -1.7431  1.0418 -1.3579
 1110SOL     OW14788   2.138   2.115   6.670  0.8551  0.3279  0.2840
 1110SOL    HW114789   2.216   2.154   6.631  1.3273 -1.8207 -0.9152
 1110SOL    HW214790   2.148   2.143   6.761  0.7731  0.0093  0.3871
 1111SOL     OW14791   1.325   0.946   2.804  0.2624  0.1601  0.3822
 1111SOL    HW114792   1.276   0.942   2.723 -0.3317  0.9672  0.6989
 1111SOL    HW214793   1.252   0.948   2.865  0.4256  2.5310  0.5253
 1112SOL     OW14794   1.837   1.019   9.229 -0.2116  0.1375  0.1694
 1112SOL    HW114795   1.778   1.044   9.159  1.4903 -1.6352 -1.9009
 1112SOL    HW214796   1.852   1.105   9.270 -0.4072  0.1078  0.3008
 1113SOL     OW14797   3.749   1.377   8.624  0.4340 -0.2311 -0.7178
 1113SOL    HW114798   3.756   1.290   8.586  1.0142 -0.8277  0.7219
 1113SOL    HW214799   3.677   1.421   8.579  0.2682 -2.0178 -2.2078
 1114SOL     OW14800   2.193   3.565   1.891  0.7243 -0.0488 -0.1231
 1114SOL    HW114801   2.256   3.637   1.894 -0.3278  0.9017 -0.4773
 1114SOL    HW214802   2.218   3.510   1.817 -0.9458  1.1241 -1.5828
 1115SOL     OW14803   2.505   0.330   4.433 -0.2024  0.2977 -0.4572
 1115SOL    HW114804   2.592   0.358   4.461  0.5424 -1.8671 -0.5721
 1115SOL    HW214805   2.538   0.276   4.361 -0.8458  1.0569 -1.3114
 1116SOL     OW14806   4.493   0.257  14.069  0.5057  0.3636 -0.4766
 1116SOL    HW114807   4.470   0.166  14.048  2.0591 -0.0632 -0.3564
 1116SOL    HW214808   4.538   0.235  14.151  0.4391  0.6900 -0.3511
 1117SOL     OW14809   4.405   0.338  10.059  0.3628 -0.3945 -0.0031
 1117SOL    HW114810   4.493   0.335  10.023  0.8053 -3.5115  1.3521
 1117SOL    HW214811   4.381   0.431  10.060 -2.1436 -1.0478 -0.2343
 1118SOL     OW14812   3.946   4.472   6.362  0.4589 -0.1507  0.0559
 1118SOL    HW114813   4.006   4.399   6.348  2.1036  1.1741  0.1487
 1118SOL    HW214814   4.008   4.539   6.391 -1.2404  0.0437  3.1555
 1119SOL     OW14815   3.579   0.430   2.786 -0.2833  0.4532  0.5482
 1119SOL    HW114816   3.608   0.432   2.877  2.1093 -0.9847 -0.1984
 1119SOL    HW214817   3.663   0.440   2.741 -0.8502 -0.5785 -0.7542
 1120SOL     OW14818   4.097   1.507   8.518 -0.4037 -0.6158 -0.2368
 1120SOL    HW114819   4.062   1.470   8.599  3.7588 -0.2225  1.7555
 1120SOL    HW214820   4.185   1.468   8.512 -0.7770 -1.3665 -0.9173
 1121SOL     OW14821   0.141   1.523   0.454 -0.1729  0.0351  0.3218
 1121SOL    HW114822   0.166   1.595   0.397  0.1113 -0.0134  0.3872
 1121SOL    HW214823   0.047   1.543   0.461  0.1085  1.1371  0.9142
 1122SOL     OW14824   0.358   3.325   4.174 -0.0144  0.6098 -0.4433
 1122SOL    HW114825   0.378   3.341   4.082  0.0504  2.2393 -0.1327
 1122SOL    HW214826   0.432   3.373   4.211 -0.5012  0.4544  0.7367
 1123SOL     OW14827   3.894   2.123   2.753 -0.1239 -0.3397 -0.0772
 1123SOL    HW114828   3.838   2.118   2.830  0.2404 -0.9195  0.1492
 1123SOL    HW214829   3.960   2.056   2.774  1.4796  1.3035  0.0777
 1124SOL     OW14830   0.712   3.265   4.577  0.4658 -0.4182  0.2846
 1124SOL    HW114831   0.617   3.248   4.580  0.2753  0.6730  0.3663
 1124SOL    HW214832   0.716   3.360   4.588  2.1409 -0.0690 -3.4383
 1125SOL     OW14833   4.439   3.340   4.420 -0.2047 -0.5189  0.2458
 1125SOL    HW114834   4.365   3.299   4.464  1.1553 -0.7884  2.3116
 1125SOL    HW214835   4.395   3.395   4.356 -2.2884 -2.4518  0.0398
 1126SOL     OW14836   2.386   1.306   5.934  0.8312  0.2252  0.3116
 1126SOL    HW114837   2.472   1.342   5.954  1.2704  0.1986 -1.5858
 1126SOL    HW214838   2.391   1.220   5.976  1.5285 -0.0780 -0.3971
 1127SOL     OW14839   1.608   3.822   3.604 -0.7292 -0.0815  0.0314
 1127SOL    HW114840   1.575   3.903   3.566  0.0652  0.1803 -0.0910
 1127SOL    HW214841   1.687   3.813   3.550  0.4995 -2.0180  2.1207
 1128SOL     OW14842   1.558   1.973   7.988 -0.1677  0.1113  0.5125
 1128SOL    HW114843   1.504   2.052   7.996  0.5882  0.4048  2.7324
 1128SOL    HW214844   1.539   1.943   8.077 -1.4156  1.8291  0.8251
 1129SOL     OW14845   2.648   4.148   7.548  0.1573 -0.4761  0.4729
 1129SOL    HW114846   2.662   4.144   7.642  1.6593  3.9122  0.4531
 1129SOL    HW214847   2.738   4.135   7.516  0.7486  0.2945  1.8359
 1130SOL     OW14848   0.153   2.420   6.546  0.4761  0.0134  0.0037
 1130SOL    HW114849   0.226   2.360   6.565 -1.6063 -2.6646 -0.4189
 1130SOL    HW214850   0.084   2.354   6.539  0.4109 -0.0004  0.8636
 1131SOL     OW14851   3.270   3.793  10.286 -0.6132  0.2250  0.2217
 1131SOL    HW114852   3.299   3.839  10.208 -0.4016 -1.6925 -0.8273
 1131SOL    HW214853   3.283   3.858  10.355  1.9335 -0.3352  0.2738
 1132SOL     OW14854   1.829   3.715  16.096  0.2418 -0.3969  0.2386
 1132SOL    HW114855   1.839   3.647  16.163 -2.0364  0.1319  1.1053
 1132SOL    HW214856   1.835   3.653  16.023  1.9121 -0.1771  0.1900
 1133SOL     OW14857   3.438   0.951   4.999 -0.0626 -0.2987  0.3514
 1133SOL    HW114858   3.440   0.879   5.062  0.8648  0.2077  0.9024
 1133SOL    HW214859   3.411   0.911   4.916  0.8146  3.1064 -1.5679
 1134SOL     OW14860   4.058   1.656  16.625  0.0546  0.2713  0.0557
 1134SOL    HW114861   4.117   1.652  16.549 -0.9610 -0.9017 -0.6730
 1134SOL    HW214862   4.099   1.727  16.675  0.0188 -0.7496  1.5061
 1135SOL     OW14863   4.468   0.919   7.603  0.0933 -0.1080 -0.1875
 1135SOL    HW114864   4.516   0.977   7.545 -0.9359  0.1730 -0.7700
 1135SOL    HW214865   4.502   0.831   7.587  0.4251  0.2816 -1.6120
 1136SOL     OW14866   2.287   0.422   5.031 -0.5266  0.0813 -0.1965
 1136SOL    HW114867   2.196   0.417   5.060  0.0749 -3.7228  1.0625
 1136SOL    HW214868   2.327   0.340   5.060 -0.6950  1.1297  2.9771
 1137SOL     OW14869   1.813   1.826   5.489 -0.2239  0.3391 -0.0153
 1137SOL    HW114870   1.878   1.757   5.480 -2.4759 -1.8243  0.4490
 1137SOL    HW214871   1.836   1.878   5.412  0.1621 -0.9913 -0.7814
 1138SOL     OW14872   3.656   0.466   7.271 -0.5251 -0.1818 -0.0378
 1138SOL    HW114873   3.618   0.552   7.287 -2.2390 -0.9098 -0.2079
 1138SOL    HW214874   3.734   0.498   7.225 -0.8743  0.7435  0.0222
 1139SOL     OW14875   4.064   1.329   5.828  0.0901 -0.7585 -0.3599
 1139SOL    HW114876   3.982   1.319   5.877 -0.1138 -0.0641 -0.5672
 1139SOL    HW214877   4.083   1.238   5.807  1.0994 -0.6897  0.2401
 1140SOL     OW14878   1.591   3.214   2.799 -0.0861  0.0715 -0.1245
 1140SOL    HW114879   1.625   3.128   2.824 -1.8376  0.1311  2.5332
 1140SOL    HW214880   1.671   3.262   2.779  0.7979 -0.4301  2.2960
 1141SOL     OW14881   2.686   1.056  15.278 -0.0103 -0.6075  0.2175
 1141SOL    HW114882   2.601   1.053  15.233 -0.4138  1.2584  0.8362
 1141SOL    HW214883   2.732   1.129  15.236  0.8807 -0.6575  1.1071
 1142SOL     OW14884   3.789   0.300   0.588 -0.0377  0.1928 -0.0599
 1142SOL    HW114885   3.848   0.296   0.664 -2.5229  1.0282  1.9304
 1142SOL    HW214886   3.853   0.293   0.517 -0.3742 -0.7641 -0.2684
 1143SOL     OW14887   2.970   0.587   4.962  0.1064  0.5648 -0.1711
 1143SOL    HW114888   2.990   0.509   5.014  3.4483  1.1014 -0.6197
 1143SOL    HW214889   3.040   0.644   4.996 -1.1460  1.6485  0.5862
 1144SOL     OW14890   0.358   0.576   5.318  1.3926 -0.4371  0.1894
 1144SOL    HW114891   0.399   0.606   5.400  0.4393 -1.8648  1.1984
 1144SOL    HW214892   0.263   0.576   5.333  1.3292 -3.0329 -0.2101
 1145SOL     OW14893   1.445   3.610  13.930  0.3844  0.1697  0.0784
 1145SOL    HW114894   1.452   3.516  13.942 -3.4684 -0.3066 -1.2140
 1145SOL    HW214895   1.370   3.602  13.870  0.3798  1.5190 -0.0949
 1146SOL     OW14896   4.545   2.183   6.781  0.0516 -0.2493 -0.1365
 1146SOL    HW114897   4.630   2.221   6.759 -0.2749 -0.1649 -1.2624
 1146SOL    HW214898   4.554   2.155   6.872  0.7789 -3.1881 -1.0915
 1147SOL     OW14899   3.570   1.172   4.177 -0.0223  0.3285 -0.1171
 1147SOL    HW114900   3.533   1.102   4.123  0.2873 -0.5104  0.7679
 1147SOL    HW214901   3.522   1.246   4.140  1.4203  0.3314 -1.9668
 1148SOL     OW14902   0.552   4.289  14.957 -0.1803  0.2521 -0.6701
 1148SOL    HW114903   0.578   4.331  15.039  1.4116  0.8383 -1.4606
 1148SOL    HW214904   0.631   4.294  14.902  0.6029 -1.1939  0.3262
 1149SOL     OW14905   2.280   3.142   7.331  0.6454 -0.9210 -0.0147
 1149SOL    HW114906   2.358   3.188   7.301  0.3085 -0.8778 -0.8325
 1149SOL    HW214907   2.232   3.161   7.250  2.1509 -1.8944 -1.1318
 1150SOL     OW14908   1.163   0.873   7.233 -0.4668 -0.0341  0.2356
 1150SOL    HW114909   1.118   0.800   7.191  1.7125  0.4444 -2.9170
 1150SOL    HW214910   1.224   0.901   7.165 -1.1299  0.2386 -0.2400
 1151SOL     OW14911   1.563   0.648   7.978 -0.0362  0.1018  0.0727
 1151SOL    HW114912   1.634   0.710   7.990  0.3308 -0.0497 -1.3082
 1151SOL    HW214913   1.517   0.675   7.898 -0.0197 -1.0016 -0.3096
 1152SOL     OW14914   3.193   3.978  12.172 -0.5146 -0.1998 -0.5067
 1152SOL    HW114915   3.155   3.969  12.260  0.8818 -1.5401 -0.0388
 1152SOL    HW214916   3.282   4.011  12.182 -0.2556 -0.2792 -2.4818
 1153SOL     OW14917   0.001   3.174  13.625 -0.0551  0.2560 -0.0590
 1153SOL    HW114918   0.038   3.239  13.685 -0.6701  1.2932 -0.7866
 1153SOL    HW214919   0.069   3.157  13.561 -0.0363  2.9285 -0.7415
 1154SOL     OW14920   0.166   0.999  10.035 -0.4398  0.2860 -0.1118
 1154SOL    HW114921   0.219   1.053  10.095 -0.7870  1.8265 -1.1811
 1154SOL    HW214922   0.210   0.916  10.020  1.5424  1.3429 -0.2276
 1155SOL     OW14923   1.638   1.610   6.712  0.2003 -0.0447 -0.3065
 1155SOL    HW114924   1.645   1.630   6.618  3.1168  2.8735  0.5302
 1155SOL    HW214925   1.727   1.632   6.742  0.0669 -0.5297  0.4309
 1156SOL     OW14926   4.321   2.765   0.448  0.4046 -0.3866 -0.1413
 1156SOL    HW114927   4.331   2.741   0.540 -1.9974 -2.3086 -0.3621
 1156SOL    HW214928   4.335   2.859   0.447  1.4197 -0.5358  0.0748
 1157SOL     OW14929   3.885   3.091  13.035 -0.1912 -1.3742  0.5423
 1157SOL    HW114930   3.952   3.159  13.031 -0.2591 -1.3787 -0.6534
 1157SOL    HW214931   3.875   3.063  12.944  1.7184 -1.9737  0.5181
 1158SOL     OW14932   0.616   1.008   8.921 -0.2017 -0.3519 -0.1094
 1158SOL    HW114933   0.579   0.928   8.958  2.1761 -1.0046  0.8005
 1158SOL    HW214934   0.547   1.031   8.858  0.0617  0.8722  0.0462
 1159SOL     OW14935   1.373   2.113   6.373  1.0540  0.1349 -0.2875
 1159SOL    HW114936   1.375   2.078   6.284 -3.7616 -0.7546 -0.0373
 1159SOL    HW214937   1.467   2.124   6.385  0.4238  5.6288 -0.1028
 1160SOL     OW14938   3.004   0.655  15.775 -0.2770  0.1439  0.6983
 1160SOL    HW114939   2.999   0.561  15.787 -2.0007  0.1163 -0.1984
 1160SOL    HW214940   3.060   0.660  15.698  0.0024  2.0924  1.0061
 1161SOL     OW14941   2.926   4.633   3.596  0.1456 -0.2630  0.4958
 1161SOL    HW114942   2.956   4.542   3.596 -0.2288 -0.3877  0.5487
 1161SOL    HW214943   2.869   4.633   3.519  0.5497 -1.2085  0.1924
 1162SOL     OW14944   4.024   3.910   7.601 -0.5887 -0.7922  0.3618
 1162SOL    HW114945   4.025   3.815   7.610 -1.0511 -1.0506 -2.3238
 1162SOL    HW214946   3.932   3.937   7.596 -0.2900  0.1057 -0.2137
 1163SOL     OW14947   1.630   0.465   8.326 -0.4802  0.4516 -0.1618
 1163SOL    HW114948   1.554   0.416   8.359  1.6684 -0.8547  2.8161
 1163SOL    HW214949   1.601   0.501   8.242 -1.4821 -0.7918 -0.3492
 1164SOL     OW14950   2.712   4.280   1.624 -0.1716 -0.2449 -0.3552
 1164SOL    HW114951   2.624   4.311   1.606 -1.2847 -3.0687  0.2048
 1164SOL    HW214952   2.750   4.308   1.540  4.5754  1.3022  2.3141
 1165SOL     OW14953   2.625   1.419   6.890 -0.5398 -0.0069  0.1279
 1165SOL    HW114954   2.705   1.471   6.876 -0.7692 -0.0445 -1.2983
 1165SOL    HW214955   2.556   1.484   6.877  0.3919  1.1891  1.1457
 1166SOL     OW14956   3.070   2.054   9.509 -0.0569  0.1611  0.4387
 1166SOL    HW114957   3.038   2.088   9.592 -2.4407 -0.7483 -0.1022
 1166SOL    HW214958   3.041   1.963   9.523 -1.4213  0.4194 -0.7437
 1167SOL     OW14959   2.371   4.384   4.752 -0.4706  0.1525 -0.3149
 1167SOL    HW114960   2.282   4.412   4.773 -0.4756 -0.9368  1.0785
 1167SOL    HW214961   2.413   4.420   4.830 -2.3350 -1.0340  1.2383
 1168SOL     OW14962   1.621   3.973   5.843  0.1338 -0.0669  0.0630
 1168SOL    HW114963   1.540   3.942   5.804 -0.8236  2.9384 -0.3974
 1168SOL    HW214964   1.590   4.059   5.874 -2.1735 -1.3915  1.4084
 1169SOL     OW14965   3.313   2.271   5.472 -0.1194  0.6836 -0.3845
 1169SOL    HW114966   3.399   2.230   5.481 -0.6746 -0.7609 -1.5620
 1169SOL    HW214967   3.337   2.353   5.429  0.8558  0.9595  0.6868
 1170SOL     OW14968   3.783   2.846   4.222 -0.0307  1.1034 -0.4787
 1170SOL    HW114969   3.716   2.874   4.284  0.4623  2.3420 -0.4844
 1170SOL    HW214970   3.866   2.868   4.264 -0.8973 -0.1155  1.8426
 1171SOL     OW14971   0.914   1.309  10.207 -0.0212  0.1380  0.0996
 1171SOL    HW114972   0.882   1.367  10.138  1.7380  2.4314  1.2041
 1171SOL    HW214973   0.987   1.356  10.248  0.9702 -0.3751 -1.0620
 1172SOL     OW14974   4.577   0.660   7.587  0.0141 -0.0409 -0.0975
 1172SOL    HW114975   4.639   0.644   7.659 -1.9811  0.7520  1.8031
 1172SOL    HW214976   4.527   0.579   7.590  0.9583 -0.6458 -0.5869
 1173SOL     OW14977   1.682   1.290   4.391 -0.1270 -0.1891  0.6255
 1173SOL    HW114978   1.728   1.372   4.409 -2.5477  1.2286  0.2112
 1173SOL    HW214979   1.625   1.309   4.317  0.5956 -3.5298 -0.7865
 1174SOL     OW14980   4.130   1.922   3.828 -0.1380 -0.2827  0.1688
 1174SOL    HW114981   4.220   1.917   3.796  0.5005 -1.0368  2.0444
 1174SOL    HW214982   4.116   2.014   3.850  0.6175 -0.0602 -0.3114
 1175SOL     OW14983   3.732   3.296   6.073 -0.7624  0.2824  0.6514
 1175SOL    HW114984   3.808   3.339   6.034 -0.1562 -0.6199  0.8493
 1175SOL    HW214985   3.664   3.363   6.068  1.7501  2.9013  1.3221
 1176SOL     OW14986   1.812   4.103  15.461 -0.0931 -0.5882 -0.0161
 1176SOL    HW114987   1.890   4.087  15.514 -1.1353 -1.2792  1.3013
 1176SOL    HW214988   1.818   4.197  15.440  0.8287 -0.5691  0.3632
 1177SOL     OW14989   3.664   0.824   5.911 -0.3239 -0.1383  0.2442
 1177SOL    HW114990   3.677   0.748   5.968  2.5601 -0.0163 -0.2249
 1177SOL    HW214991   3.614   0.780   5.842 -0.1776 -0.6702  0.4728
 1178SOL     OW14992   3.826   3.143   8.698  0.3121  0.7353  0.3676
 1178SOL    HW114993   3.852   3.146   8.606 -1.4622  0.8168 -0.1315
 1178SOL    HW214994   3.733   3.120   8.690  0.5032  0.5493 -1.4520
 1179SOL     OW14995   4.410   0.239   8.445  0.0296 -0.3494  0.7757
 1179SOL    HW114996   4.328   0.285   8.465 -1.2252 -2.0560 -0.5173
 1179SOL    HW214997   4.431   0.229   8.538  2.5272  1.3066  0.3588
 1180SOL     OW14998   2.390   4.226   2.411  0.7018  0.2186 -0.0241
 1180SOL    HW114999   2.468   4.206   2.463  0.8293  1.0606  0.1061
 1180SOL    HW215000   2.417   4.213   2.320  1.0261 -0.9149  0.2304
 1181SOL     OW15001   3.464   3.163   9.718  0.2846 -0.3631  0.1947
 1181SOL    HW115002   3.509   3.097   9.770  0.7267 -0.8647 -0.8263
 1181SOL    HW215003   3.488   3.245   9.760 -1.3142  0.4833 -0.5251
 1182SOL     OW15004   2.857   4.661   3.312  0.4501 -0.0426  0.1526
 1182SOL    HW115005   2.830   0.023   3.346 -1.0102 -0.5905  0.3805
 1182SOL    HW215006   2.793   4.658   3.240 -1.3051  1.6631  1.6264
 1183SOL     OW15007   1.870   1.334   4.017 -0.2057  0.1960 -0.3557
 1183SOL    HW115008   1.905   1.268   3.957 -0.1519  0.3603 -0.5024
 1183SOL    HW215009   1.775   1.324   4.013 -0.0212 -2.1347  1.0831
 1184SOL     OW15010   4.284   2.500   3.218 -0.5162 -0.1718  0.1726
 1184SOL    HW115011   4.297   2.544   3.302 -2.5367 -0.0946  0.4396
 1184SOL    HW215012   4.246   2.568   3.163  1.0204  1.9302  1.7168
 1185SOL     OW15013   1.289   0.973   3.945 -0.1545 -0.2464 -0.4403
 1185SOL    HW115014   1.272   0.902   3.883 -1.5056  1.8169 -2.4471
 1185SOL    HW215015   1.214   0.968   4.004 -1.5422  1.1058 -2.0574
 1186SOL     OW15016   1.682   4.610   8.948  0.3338  0.9127  0.2847
 1186SOL    HW115017   1.631   4.611   9.029 -1.9607  0.3168 -1.1518
 1186SOL    HW215018   1.630   4.665   8.889  1.3675  0.5923 -0.9168
 1187SOL     OW15019   3.931   0.417   7.059  0.9036 -0.0746 -0.4095
 1187SOL    HW115020   3.905   0.338   7.107  0.0472  0.5640  0.1942
 1187SOL    HW215021   3.944   0.382   6.971 -2.1985 -0.7744 -0.6068
 1188SOL     OW15022   4.625   1.634  17.137  0.5426  0.1536  0.0259
 1188SOL    HW115023   4.614   1.595  17.224 -0.4195  0.3881  0.0080
 1188SOL    HW215024   4.616   1.553  17.087 -0.2048  0.2287  0.0293
 1189SOL     OW15025   0.516   2.001   1.798 -0.0272  0.7934  0.0456
 1189SOL    HW115026   0.513   2.057   1.720 -1.4900 -0.5942 -0.8975
 1189SOL    HW215027   0.551   2.061   1.863 -1.3006  0.6904  0.8421
 1190SOL     OW15028   1.845   0.182   7.178 -0.1367 -0.6247 -0.0894
 1190SOL    HW115029   1.879   0.271   7.186  1.1015 -1.2099  1.0330
 1190SOL    HW215030   1.770   0.203   7.123  0.5930  0.8266 -0.5416
 1191SOL     OW15031   1.755   0.458   1.088 -0.7989 -0.7698 -0.6164
 1191SOL    HW115032   1.680   0.511   1.061 -0.0704 -0.4391 -2.0447
 1191SOL    HW215033   1.734   0.452   1.181  0.0274  1.1441 -0.3124
 1192SOL     OW15034   1.265   2.833   6.686 -0.7181 -0.4916 -0.3421
 1192SOL    HW115035   1.311   2.835   6.770 -0.2850  0.2070 -0.5979
 1192SOL    HW215036   1.283   2.747   6.647  3.5289 -0.4130  1.4972
 1193SOL     OW15037   3.201   0.420   8.695  0.3948 -0.2514  0.7560
 1193SOL    HW115038   3.125   0.467   8.730 -1.1944 -2.2870  0.0348
 1193SOL    HW215039   3.159   0.351   8.643 -2.5295  0.6050  1.9497
 1194SOL     OW15040   4.474   0.305   2.554 -0.1741 -0.3647 -0.0610
 1194SOL    HW115041   4.459   0.283   2.462 -1.7848  0.3959  0.0172
 1194SOL    HW215042   4.553   0.358   2.561  0.0281 -0.8235  1.0529
 1195SOL     OW15043   4.521   3.898   5.089  0.4942  0.1907  0.4751
 1195SOL    HW115044   4.454   3.875   5.025 -2.0022  1.4168  2.6521
 1195SOL    HW215045   4.543   3.808   5.114 -0.5574 -1.2148 -3.6273
 1196SOL     OW15046   3.379   0.614   2.890  0.2086 -0.4653  0.7610
 1196SOL    HW115047   3.414   0.641   2.975 -0.1955  2.3651  0.0265
 1196SOL    HW215048   3.426   0.535   2.861  0.9266  0.9175 -1.9261
 1197SOL     OW15049   4.157   2.955   3.072  0.0368 -0.5102  0.3228
 1197SOL    HW115050   4.185   3.027   3.130  0.6367  1.7417 -2.7724
 1197SOL    HW215051   4.064   2.941   3.090 -0.0077 -1.0092 -0.3259
 1198SOL     OW15052   1.134   1.622  12.876 -0.1580 -0.2207  0.0708
 1198SOL    HW115053   1.190   1.623  12.953  0.0308  0.1528 -0.0684
 1198SOL    HW215054   1.096   1.710  12.886 -1.3603 -1.0191  2.4716
 1199SOL     OW15055   2.243   4.546   5.936 -0.2251 -0.0930 -0.0984
 1199SOL    HW115056   2.336   4.567   5.925 -0.1286 -0.8998 -0.8939
 1199SOL    HW215057   2.240   4.472   5.996 -1.3293 -0.7488 -0.9674
 1200SOL     OW15058   1.163   1.252  15.780  0.4542 -0.3111 -0.3492
 1200SOL    HW115059   1.127   1.193  15.714 -1.3104  1.0492 -0.5799
 1200SOL    HW215060   1.144   1.335  15.738 -1.0638 -0.7732 -0.5544
 1201SOL     OW15061   2.690   0.267  17.258 -1.0605  0.4147 -0.3975
 1201SOL    HW115062   2.604   0.242  17.225 -0.1018 -1.4643 -1.5438
 1201SOL    HW215063   2.693   0.362  17.259 -4.4583  0.5201 -1.4301
 1202SOL     OW15064   3.406   4.361   6.726 -0.3111 -0.1932  0.2591
 1202SOL    HW115065   3.329   4.415   6.706 -0.2082  0.3301  1.2584
 1202SOL    HW215066   3.409   4.377   6.820 -2.1741  1.9814 -0.0349
 1203SOL     OW15067   0.707   1.055   5.396  0.1967 -0.1297  0.4084
 1203SOL    HW115068   0.716   1.035   5.303  1.9747  1.3031  0.2622
 1203SOL    HW215069   0.614   1.061   5.417 -0.0382 -0.2230 -0.6171
 1204SOL     OW15070   2.263   2.100   0.076  0.7705  0.2539  0.1917
 1204SOL    HW115071   2.208   2.046   0.132 -0.3391  2.8751  1.6379
 1204SOL    HW215072   2.277   2.052  17.688  0.7528  1.4753 -0.5399
 1205SOL     OW15073   3.355   3.049   5.174  0.1493 -0.2066  0.0175
 1205SOL    HW115074   3.371   2.957   5.195  1.6912  0.3931  1.5817
 1205SOL    HW215075   3.382   3.095   5.254  0.9054 -3.2754  1.5144
 1206SOL     OW15076   3.553   4.026  10.807 -0.2878  0.4773 -0.1184
 1206SOL    HW115077   3.618   3.987  10.749  1.6019 -0.7647  2.8350
 1206SOL    HW215078   3.469   3.993  10.775 -0.9709  0.7649  1.3956
 1207SOL     OW15079   0.744   1.025   8.173 -0.0512 -0.1660 -0.2027
 1207SOL    HW115080   0.706   1.112   8.157 -1.5735  0.0166  4.5934
 1207SOL    HW215081   0.711   1.013   8.262 -2.7949 -1.4281 -1.3651
 1208SOL     OW15082   2.629   0.271   1.789 -0.4513 -0.2745  0.1594
 1208SOL    HW115083   2.706   0.269   1.733  0.1767 -1.1084  1.0546
 1208SOL    HW215084   2.607   0.180   1.767 -0.6036 -0.8351  2.6907
 1209SOL     OW15085   2.870   4.155   4.804 -0.6181  0.1352 -0.1637
 1209SOL    HW115086   2.897   4.209   4.878 -2.1150 -0.1063  0.5412
 1209SOL    HW215087   2.950   4.161   4.750  0.4867  2.2044  1.7175
 1210SOL     OW15088   0.965   3.261   8.761  0.0670  0.2740  0.3371
 1210SOL    HW115089   1.003   3.211   8.833  1.6608  1.1692  0.1096
 1210SOL    HW215090   0.964   3.188   8.699 -0.7754  0.1402  0.5038
 1211SOL     OW15091   3.037   0.023   2.409  0.4402  0.0057 -0.3316
 1211SOL    HW115092   3.075   0.107   2.382  1.3457 -0.5198 -0.6870
 1211SOL    HW215093   2.960   0.044   2.462 -0.0132 -3.2771  0.3181
 1212SOL     OW15094   0.753   1.331   6.504  0.2749  0.1900 -0.0385
 1212SOL    HW115095   0.711   1.404   6.548  0.5656  0.9443 -1.0205
 1212SOL    HW215096   0.831   1.325   6.559 -0.1201 -0.3195  0.4780
 1213SOL     OW15097   2.986   0.285  16.848  0.1122  0.5812  0.3605
 1213SOL    HW115098   3.051   0.350  16.874  0.5914  0.1043  0.3700
 1213SOL    HW215099   3.020   0.209  16.895  0.3804 -0.8553 -2.1697
 1214SOL     OW15100   2.104   3.409   5.669  0.1116  0.3856  0.0522
 1214SOL    HW115101   2.099   3.440   5.759 -1.0564 -1.8338  0.7538
 1214SOL    HW215102   2.009   3.411   5.660  0.2911  3.7289 -1.3040
 1215SOL     OW15103   4.224   3.307   6.848  0.5582  0.1607  0.3226
 1215SOL    HW115104   4.277   3.259   6.784  0.0432  0.3875 -0.2839
 1215SOL    HW215105   4.273   3.388   6.858  2.4505 -1.0643  1.0062
 1216SOL     OW15106   0.841   0.147   7.508  0.5296  0.1441 -0.1330
 1216SOL    HW115107   0.746   0.155   7.512  0.6507  0.1756  2.9760
 1216SOL    HW215108   0.865   0.137   7.416 -0.5774 -0.5198 -0.3508
 1217SOL     OW15109   2.859   0.815   2.768  0.1820 -0.5323 -0.0142
 1217SOL    HW115110   2.910   0.813   2.849  0.5130  3.4101 -0.1609
 1217SOL    HW215111   2.772   0.785   2.796 -0.0745  0.1565 -0.0727
 1218SOL     OW15112   4.468   1.331   8.564 -0.4741  0.2491 -0.0997
 1218SOL    HW115113   4.415   1.357   8.489 -2.5306  0.8589  1.5598
 1218SOL    HW215114   4.441   1.240   8.574 -1.0734  0.2897 -1.4600
 1219SOL     OW15115   0.333   2.230   4.021 -0.4217  0.3148  0.0195
 1219SOL    HW115116   0.294   2.182   3.948  0.2533  0.0878 -0.1982
 1219SOL    HW215117   0.419   2.190   4.036 -0.8534 -0.4392  0.4999
 1220SOL     OW15118   2.275   3.545  12.082  0.0170 -0.5944 -0.1015
 1220SOL    HW115119   2.347   3.578  12.136 -2.1815  2.2966  1.0671
 1220SOL    HW215120   2.281   3.449  12.077  1.7939 -0.5268  0.4727
 1221SOL     OW15121   3.763   0.305   1.111 -0.4917  0.0613 -0.3505
 1221SOL    HW115122   3.842   0.358   1.126  0.1359 -0.9025 -0.2389
 1221SOL    HW215123   3.789   0.221   1.149  0.4763  0.1498 -0.8071
 1222SOL     OW15124   1.668   3.280   8.757 -0.3167 -0.1218  0.6308
 1222SOL    HW115125   1.697   3.301   8.847  1.8437 -0.4576  0.0157
 1222SOL    HW215126   1.586   3.329   8.755 -0.2667 -0.0778 -0.2071
 1223SOL     OW15127   3.294   4.397   4.653 -0.3110 -0.2169 -0.0429
 1223SOL    HW115128   3.354   4.375   4.724 -1.0264 -0.9077  0.3492
 1223SOL    HW215129   3.235   4.322   4.661 -1.0804  0.3459 -0.4492
 1224SOL     OW15130   4.205   2.582   5.529  0.4233  0.3413 -0.1086
 1224SOL    HW115131   4.282   2.627   5.564 -0.0615  1.6651 -0.7775
 1224SOL    HW215132   4.213   2.610   5.438  3.1157 -0.3126 -0.0924
 1225SOL     OW15133   3.113   4.165   9.582 -0.4677  0.0307 -0.3868
 1225SOL    HW115134   3.180   4.098   9.574  1.0633  1.4513  0.5368
 1225SOL    HW215135   3.157   4.242   9.546 -1.3999  1.7306  2.0722
 1226SOL     OW15136   2.192   0.837   8.335 -0.3227  0.3222  0.0061
 1226SOL    HW115137   2.208   0.796   8.420 -0.6017 -0.0051 -0.0931
 1226SOL    HW215138   2.097   0.845   8.325 -0.5198  0.6832  2.2144
 1227SOL     OW15139   0.289   2.668   5.869 -0.0402  0.2376 -0.1544
 1227SOL    HW115140   0.343   2.600   5.909 -0.1338  0.1509 -0.1763
 1227SOL    HW215141   0.352   2.739   5.876 -0.0260  0.0355  1.8253
 1228SOL     OW15142   4.212   2.696   3.020  0.5205 -0.0484  0.1295
 1228SOL    HW115143   4.266   2.685   2.942  1.3257  1.9410  0.4239
 1228SOL    HW215144   4.216   2.791   3.032  0.6182  0.1609 -1.5312
 1229SOL     OW15145   1.076   4.134   3.244  0.6334 -0.1819  0.3552
 1229SOL    HW115146   1.073   4.228   3.224  1.2172 -0.9602 -3.2727
 1229SOL    HW215147   0.994   4.098   3.211  0.6570 -0.1933  0.3087
 1230SOL     OW15148   1.714   1.779  15.003  0.6908 -0.1360 -0.0303
 1230SOL    HW115149   1.701   1.748  14.913  1.3885  3.8207 -1.4900
 1230SOL    HW215150   1.623   1.782  15.032 -1.1032  0.6246 -5.6242
 1231SOL     OW15151   2.197   4.332   6.108  0.5243 -0.1893  0.0049
 1231SOL    HW115152   2.270   4.270   6.108  3.1722  2.9272  0.1744
 1231SOL    HW215153   2.222   4.400   6.170  1.0245 -0.0442 -0.3558
 1232SOL     OW15154   4.563   0.384   3.123  0.0979 -0.5059 -0.2736
 1232SOL    HW115155   4.550   0.292   3.146  0.2541 -0.9941 -2.1569
 1232SOL    HW215156   4.471   0.400   3.101  0.6797  0.8334 -1.7085
 1233SOL     OW15157   1.151   0.048   7.137  0.5312  0.6491 -0.0586
 1233SOL    HW115158   1.212   0.035   7.210  0.9157 -1.5392 -0.7727
 1233SOL    HW215159   1.168   4.692   7.085 -0.1372  0.1833  0.4257
 1234SOL     OW15160   4.718   1.832  15.633 -0.7599 -0.2811  0.2537
 1234SOL    HW115161   0.045   1.889  15.692 -0.1485 -0.0016 -0.5404
 1234SOL    HW215162   4.625   1.853  15.641 -0.4432  1.7473 -1.4577
 1235SOL     OW15163   3.134   3.505  13.115 -0.3940 -0.2285 -0.0419
 1235SOL    HW115164   3.178   3.589  13.102 -1.5913  0.1539 -1.6635
 1235SOL    HW215165   3.200   3.474  13.177  0.8399  0.5510 -0.9638
 1236SOL     OW15166   0.124   2.479  12.429  0.1078  0.0644 -0.3709
 1236SOL    HW115167   0.186   2.422  12.474  2.0995  2.1872 -0.4157
 1236SOL    HW215168   0.128   2.435  12.344  1.8687 -0.2794 -0.1280
 1237SOL     OW15169   1.638   0.084   5.106 -0.2999  0.0264  0.6334
 1237SOL    HW115170   1.726   0.109   5.133 -0.6869  1.7062  0.3732
 1237SOL    HW215171   1.626   0.123   5.019 -1.8904 -2.1498 -0.1340
 1238SOL     OW15172   4.133   2.714   3.659 -0.4975 -0.6001 -0.2615
 1238SOL    HW115173   4.049   2.712   3.705 -0.1473 -2.1970  0.3295
 1238SOL    HW215174   4.178   2.786   3.702 -0.2301 -0.7018 -0.3705
 1239SOL     OW15175   3.876   4.574   3.704 -0.2194  0.2282 -0.1960
 1239SOL    HW115176   3.787   4.607   3.695  0.1331  1.5384  1.1558
 1239SOL    HW215177   3.903   4.622   3.626  1.8631  0.9978  1.0117
 1240SOL     OW15178   3.009   3.036   2.240 -0.0302 -0.0186 -0.5830
 1240SOL    HW115179   3.072   3.106   2.221  0.4784 -0.2222  0.3666
 1240SOL    HW215180   3.071   2.963   2.237 -0.8431 -0.7779  1.0394
 1241SOL     OW15181   3.056   4.183  10.644  0.7082  0.3226 -0.1566
 1241SOL    HW115182   3.136   4.171  10.695  0.5601 -0.8812 -0.2187
 1241SOL    HW215183   3.001   4.147  10.713  1.7130  1.9535  1.5163
 1242SOL     OW15184   2.569   4.453  13.674  0.2469 -0.0002  0.2240
 1242SOL    HW115185   2.639   4.500  13.718 -1.4314  1.1677  1.6111
 1242SOL    HW215186   2.486   4.485  13.707 -0.1204  0.2165 -0.9021
 1243SOL     OW15187   0.010   3.426   9.614 -0.0821  0.0777 -0.7167
 1243SOL    HW115188   4.715   3.432   9.708 -1.7156  0.2628 -1.0427
 1243SOL    HW215189   4.649   3.438   9.572 -0.5767 -0.6035  0.0777
 1244SOL     OW15190   3.655   0.860   5.276 -0.4273 -0.3253 -0.1372
 1244SOL    HW115191   3.718   0.788   5.280 -0.7206 -0.5084  1.0718
 1244SOL    HW215192   3.692   0.927   5.219 -0.9827 -0.0470 -0.1689
 1245SOL     OW15193   2.266   4.538   5.222 -0.0082 -0.3145 -0.6623
 1245SOL    HW115194   2.212   4.613   5.198  0.5701  1.0047  2.2238
 1245SOL    HW215195   2.298   4.548   5.311 -0.0054  1.8104 -0.9153
 1246SOL     OW15196   0.399   2.231   7.250  0.5158 -0.0805  0.3102
 1246SOL    HW115197   0.433   2.236   7.160 -2.6163  1.6854 -0.8070
 1246SOL    HW215198   0.464   2.272   7.307  1.9819  0.3167 -1.6478
 1247SOL     OW15199   1.887   1.870   4.302 -0.2106 -0.3860 -0.0251
 1247SOL    HW115200   1.882   1.966   4.303 -0.2734 -0.3964  0.8648
 1247SOL    HW215201   1.800   1.838   4.323 -0.7873  1.3639  0.3224
 1248SOL     OW15202   3.105   0.754   6.740  0.1854  0.3667 -0.3536
 1248SOL    HW115203   3.129   0.673   6.784  1.2746  0.8311 -0.0926
 1248SOL    HW215204   3.011   0.737   6.734  0.0304  0.5063  1.6744
 1249SOL     OW15205   3.184   2.866  12.233 -0.8373 -0.1260  0.0760
 1249SOL    HW115206   3.145   2.809  12.299 -1.1011 -2.5104 -2.1192
 1249SOL    HW215207   3.193   2.951  12.276 -0.8875 -0.4557  0.7372
 1250SOL     OW15208   1.388   3.203   9.398 -0.0368 -0.2095  0.3668
 1250SOL    HW115209   1.406   3.250   9.479 -0.2321 -0.1808  0.3952
 1250SOL    HW215210   1.292   3.201   9.399 -0.0022 -2.5259  0.0219
 1251SOL     OW15211   3.389   1.994   0.871 -0.3823 -0.7129  0.2438
 1251SOL    HW115212   3.359   2.025   0.957  1.5989 -1.5982  1.2533
 1251SOL    HW215213   3.484   1.982   0.866 -0.2813 -0.2814  1.0052
 1252SOL     OW15214   0.169   0.296   0.394  0.1886 -0.7510 -0.2257
 1252SOL    HW115215   0.111   0.225   0.366 -0.2999 -1.0457  1.5699
 1252SOL    HW215216   0.225   0.315   0.319  0.8795  2.2411  1.0745
 1253SOL     OW15217   3.860   1.267   1.802  0.3764  0.0597  0.2059
 1253SOL    HW115218   3.799   1.321   1.852  1.2566  2.1772 -1.0204
 1253SOL    HW215219   3.800   1.194   1.783 -0.1701  0.5697 -0.0160
 1254SOL     OW15220   1.388   4.413   6.771  0.1843 -0.4003  0.4429
 1254SOL    HW115221   1.445   4.351   6.815  1.5291  0.2234 -0.4104
 1254SOL    HW215222   1.344   4.358   6.706  0.3375 -1.5452  1.3215
 1255SOL     OW15223   2.514   3.034   7.933  0.0156  0.4042 -0.3887
 1255SOL    HW115224   2.458   2.984   7.873  1.3613  1.6521 -2.6739
 1255SOL    HW215225   2.465   3.019   8.014 -0.0941 -0.9187 -0.7059
 1256SOL     OW15226   1.814   3.692   5.065  0.2377 -0.7798  0.3067
 1256SOL    HW115227   1.752   3.752   5.023  1.2130  0.3216  0.4310
 1256SOL    HW215228   1.799   3.722   5.155  0.0050  0.2865 -0.0886
 1257SOL     OW15229   1.917   0.083   6.507  0.3287 -0.3338 -0.2272
 1257SOL    HW115230   1.904   0.085   6.412  0.9673  1.9555 -0.2586
 1257SOL    HW215231   1.917   4.711   6.522  2.0093 -0.5652 -1.6484
 1258SOL     OW15232   2.383   0.495   1.066  0.3159 -0.0619  0.0191
 1258SOL    HW115233   2.308   0.545   1.099 -0.0865 -0.6969  0.0679
 1258SOL    HW215234   2.416   0.455   1.147 -0.9106 -0.4560  0.3269
 1259SOL     OW15235   1.222   1.711  11.672 -0.2407 -0.1935  0.6805
 1259SOL    HW115236   1.259   1.748  11.592  0.2026 -0.0421  0.9535
 1259SOL    HW215237   1.235   1.782  11.735 -0.9127 -1.7955  2.6286
 1260SOL     OW15238   0.395   2.972   9.568 -0.6830 -0.2916 -0.1078
 1260SOL    HW115239   0.345   2.937   9.495 -1.6381  0.4101  0.2182
 1260SOL    HW215240   0.406   2.902   9.633 -1.5860 -0.5622 -0.2530
 1261SOL     OW15241   0.591   0.287   3.008 -0.1151 -0.5140  0.6587
 1261SOL    HW115242   0.512   0.235   3.020  0.3898 -1.8560 -1.7357
 1261SOL    HW215243   0.591   0.287   2.912  0.8296  1.6216  0.6417
 1262SOL     OW15244   4.631   1.412   6.473 -0.2400  0.3683  0.2229
 1262SOL    HW115245   4.569   1.401   6.546 -0.3870  1.3423  0.2479
 1262SOL    HW215246   4.570   1.421   6.400 -1.5684 -0.3992  1.2330
 1263SOL     OW15247   1.876   4.295  15.180  0.5357 -0.0230  0.1757
 1263SOL    HW115248   1.913   4.218  15.224 -0.7424 -0.3845  0.6005
 1263SOL    HW215249   1.955   4.349  15.180 -0.1162  0.9342 -0.0398
 1264SOL     OW15250   0.308   3.381   6.535  0.3769  0.2684 -0.1684
 1264SOL    HW115251   0.281   3.456   6.482  1.0374  0.9848  0.4929
 1264SOL    HW215252   0.372   3.430   6.588  0.0360 -1.2398  1.6270
 1265SOL     OW15253   4.440   4.051  10.797 -0.4007 -0.0641 -0.3875
 1265SOL    HW115254   4.449   4.006  10.881  0.2653  1.6333  0.4553
 1265SOL    HW215255   4.421   3.971  10.747  0.5570  0.7799 -2.1181
 1266SOL     OW15256   4.172   0.687   6.769 -0.8255  0.2039  0.4844
 1266SOL    HW115257   4.259   0.721   6.749 -0.4865 -0.8423  0.1905
 1266SOL    HW215258   4.138   0.694   6.680 -0.8932  0.9198  0.5646
 1267SOL     OW15259   3.605   1.921   7.625 -0.0434 -0.6113 -0.0907
 1267SOL    HW115260   3.687   1.877   7.603  0.3708  0.9699 -1.6852
 1267SOL    HW215261   3.606   1.916   7.721  1.0833 -0.3693 -0.0881
 1268SOL     OW15262   0.688   0.550   5.921 -0.7451 -1.3052  0.3768
 1268SOL    HW115263   0.772   0.547   5.876 -0.1693 -2.3848  1.5108
 1268SOL    HW215264   0.715   0.533   6.011  3.5873  0.9253 -0.5234
 1269SOL     OW15265   3.895   2.528  11.093 -0.3315 -0.1919 -0.4314
 1269SOL    HW115266   3.900   2.502  11.001 -0.0655 -1.0225 -0.1846
 1269SOL    HW215267   3.815   2.485  11.123  1.1013 -0.8535  2.4505
 1270SOL     OW15268   4.645   0.301   5.748 -0.3259 -0.1815  0.0465
 1270SOL    HW115269   0.008   0.338   5.770  0.6113 -0.8974 -2.4181
 1270SOL    HW215270   4.583   0.369   5.775 -2.3370 -1.4786 -1.3414
 1271SOL     OW15271   4.614   2.363  13.860  0.3731  0.0621  0.0016
 1271SOL    HW115272   4.603   2.418  13.783 -1.2208 -0.1198  0.0812
 1271SOL    HW215273   4.593   2.429  13.926 -0.4647 -1.5970  1.4282
 1272SOL     OW15274   0.633   2.907   2.380  0.5135 -0.0693  0.1172
 1272SOL    HW115275   0.597   2.832   2.333 -0.1682  0.8830 -0.8883
 1272SOL    HW215276   0.723   2.887   2.355  0.4347  1.2853 -1.2946
 1273SOL     OW15277   3.978   0.448  17.286 -0.4505 -0.2053  1.3896
 1273SOL    HW115278   3.923   0.404  17.221  0.4403  1.9969 -0.8860
 1273SOL    HW215279   4.011   0.378  17.342  1.5505 -0.5540 -0.1961
 1274SOL     OW15280   2.336   3.164   1.296 -0.5615 -0.3815 -0.4498
 1274SOL    HW115281   2.270   3.232   1.310  1.1938  0.7738  2.0315
 1274SOL    HW215282   2.415   3.217   1.297  0.1132 -1.4038 -0.2292
 1275SOL     OW15283   3.418   0.509  14.099 -0.0390  0.5331 -0.3132
 1275SOL    HW115284   3.508   0.497  14.130 -0.1693  0.0430 -0.1232
 1275SOL    HW215285   3.395   0.578  14.163  2.0832  0.5876  0.3729
 1276SOL     OW15286   1.010   3.820   3.122  0.3136  0.0850 -0.4493
 1276SOL    HW115287   1.046   3.871   3.050  1.0430  2.4542  1.6017
 1276SOL    HW215288   0.920   3.808   3.091  0.0105  0.9285  0.1213
 1277SOL     OW15289   2.001   3.521   8.188 -0.8148  0.8212  0.3404
 1277SOL    HW115290   1.943   3.519   8.112  2.4904  0.3936 -2.1260
 1277SOL    HW215291   2.061   3.592   8.165 -0.2001 -0.2072 -1.1757
 1278SOL     OW15292   2.626   4.047   1.958 -0.4198 -0.2907  0.4496
 1278SOL    HW115293   2.533   4.024   1.962 -0.3057 -0.8276 -0.0779
 1278SOL    HW215294   2.658   3.976   1.902  1.4129  1.5520 -0.8083
 1279SOL     OW15295   4.476   2.526   5.798 -0.2814 -0.0867 -0.4114
 1279SOL    HW115296   4.483   2.452   5.738  0.1023  0.2707 -0.8118
 1279SOL    HW215297   4.535   2.493   5.865 -0.3664  2.0738  0.7206
 1280SOL     OW15298   1.493   2.981  13.695 -0.7481  0.2906  0.5854
 1280SOL    HW115299   1.449   2.980  13.610 -0.8867 -1.8147  0.6757
 1280SOL    HW215300   1.420   2.994  13.756 -1.7029 -1.7768 -0.1466
 1281SOL     OW15301   4.332   0.894   5.659 -0.2261 -0.6014  0.3522
 1281SOL    HW115302   4.337   0.971   5.715 -0.4526 -2.0033  2.2753
 1281SOL    HW215303   4.366   0.917   5.572  0.5599  1.7532  1.2997
 1282SOL     OW15304   0.475   1.041   7.958  0.5935  0.4492 -0.4374
 1282SOL    HW115305   0.480   0.955   7.916  0.7839 -0.5293  1.6025
 1282SOL    HW215306   0.430   1.018   8.039  0.2968 -0.5668 -0.8893
 1283SOL     OW15307   4.154   4.636   5.963 -0.3305  0.0745  0.4525
 1283SOL    HW115308   4.211   4.566   5.994  1.4606  1.9754  1.4381
 1283SOL    HW215309   4.198   4.715   5.995  2.1551 -1.4208  0.7476
 1284SOL     OW15310   1.585   1.417  13.173 -0.5505 -0.4608 -0.1870
 1284SOL    HW115311   1.531   1.340  13.187 -0.0954 -0.6484  0.5165
 1284SOL    HW215312   1.641   1.385  13.102  1.0457  1.0234  0.3933
 1285SOL     OW15313   1.398   2.287  17.360  0.2243  0.1179  0.4952
 1285SOL    HW115314   1.468   2.353  17.355  0.3220  0.1291  2.0355
 1285SOL    HW215315   1.412   2.257  17.450 -2.5574 -2.9788 -0.1044
 1286SOL     OW15316   3.981   1.479   2.835 -0.3728 -0.6097  0.1101
 1286SOL    HW115317   3.997   1.466   2.741 -0.5121 -0.1320  0.0198
 1286SOL    HW215318   4.061   1.447   2.875  0.0269  1.3402  0.8507
 1287SOL     OW15319   1.912   0.711   6.760  0.3383 -0.0596  0.7036
 1287SOL    HW115320   2.004   0.702   6.783  0.0510 -0.0135  1.8655
 1287SOL    HW215321   1.893   0.627   6.719  0.7753 -0.1262  0.6444
 1288SOL     OW15322   2.011   0.867   7.859  0.2956 -0.3636 -0.3341
 1288SOL    HW115323   1.922   0.900   7.846  0.7922  0.2658 -2.1553
 1288SOL    HW215324   2.022   0.854   7.953  0.9916 -0.3914 -0.4219
 1289SOL     OW15325   0.943   1.000   8.415  0.0863  0.2686 -0.5081
 1289SOL    HW115326   0.968   0.920   8.367 -1.4716 -0.7075  0.3188
 1289SOL    HW215327   1.016   0.987   8.475 -2.6583 -0.0197  2.7200
 1290SOL     OW15328   2.722   0.358  13.853 -0.8305  0.4205 -0.2378
 1290SOL    HW115329   2.752   0.447  13.835 -1.5748  1.1581  2.1119
 1290SOL    HW215330   2.694   0.361  13.945  1.4168  0.3833  0.4296
 1291SOL     OW15331   3.554   4.665   1.685  0.2116 -0.3379  0.0040
 1291SOL    HW115332   3.529   4.625   1.602 -0.6558  0.7857 -0.2748
 1291SOL    HW215333   3.472   4.680   1.732 -0.0319 -0.5261 -0.3670
 1292SOL     OW15334   2.521   0.286   7.463 -0.0390  0.9356  0.3403
 1292SOL    HW115335   2.526   0.327   7.377 -0.5090  3.8071  1.7118
 1292SOL    HW215336   2.594   0.328   7.507  1.7268 -0.7626 -0.9580
 1293SOL     OW15337   0.230   1.297   7.026 -0.0731  0.5264 -0.0909
 1293SOL    HW115338   0.300   1.301   6.962  0.5679 -1.4227  0.4942
 1293SOL    HW215339   0.174   1.369   6.998 -0.6698  0.8365  1.8595
 1294SOL     OW15340   0.234   4.447  15.673 -0.1533 -0.0187  0.7817
 1294SOL    HW115341   0.289   4.450  15.751  1.6481 -2.7425 -0.4129
 1294SOL    HW215342   0.240   4.354  15.652 -0.9790 -0.3107  1.8457
 1295SOL     OW15343   4.576   0.742   2.080  0.1144 -0.7472 -0.2679
 1295SOL    HW115344   4.591   0.796   2.157 -1.0902  1.5541 -1.6329
 1295SOL    HW215345   4.495   0.781   2.045  0.4187  2.0102  2.0747
 1296SOL     OW15346   3.806   2.109   8.523  0.3659 -0.2526  0.4265
 1296SOL    HW115347   3.779   2.169   8.454 -0.8022  0.8625  1.8577
 1296SOL    HW215348   3.842   2.169   8.588 -2.2173  0.1414  1.4846
 1297SOL     OW15349   1.333   4.454   3.607  0.5357  0.6789 -0.4783
 1297SOL    HW115350   1.343   4.498   3.692 -0.9011  0.3975 -0.1536
 1297SOL    HW215351   1.416   4.408   3.617  1.0600  1.8380  0.6473
 1298SOL     OW15352   3.425   0.446   3.257  0.3606  0.0817  0.9590
 1298SOL    HW115353   3.412   0.529   3.211 -2.0118 -1.2145 -0.7145
 1298SOL    HW215354   3.507   0.470   3.299  1.6026  2.3727 -2.8256
 1299SOL     OW15355   3.567   2.250  13.194  0.4396 -0.2679  0.0113
 1299SOL    HW115356   3.580   2.342  13.171  0.2607  0.1643  1.6399
 1299SOL    HW215357   3.498   2.245  13.260 -0.1908 -0.6969 -0.6843
 1300SOL     OW15358   3.980   1.447   8.831 -0.0901  0.3958 -0.4113
 1300SOL    HW115359   3.952   1.362   8.866 -1.8227  0.8941 -0.5991
 1300SOL    HW215360   3.899   1.473   8.787  0.1344 -1.3286 -1.8290
 1301SOL     OW15361   1.598   0.682   1.023  0.3120  0.0507  0.4869
 1301SOL    HW115362   1.659   0.738   0.974  0.8486 -0.3756  0.6637
 1301SOL    HW215363   1.550   0.743   1.079  0.9149  1.2665 -0.3224
 1302SOL     OW15364   2.466   4.298   2.149 -0.4757 -0.1175  0.4795
 1302SOL    HW115365   2.448   4.243   2.073 -0.4941  0.7677 -0.1504
 1302SOL    HW215366   2.489   4.384   2.115 -0.7469 -0.2665 -0.0803
 1303SOL     OW15367   3.989   2.219   6.231 -0.1192  0.4223  0.5735
 1303SOL    HW115368   4.033   2.191   6.311 -1.5938  0.8052  1.5266
 1303SOL    HW215369   4.051   2.192   6.163 -1.6989  0.2957 -0.8337
 1304SOL     OW15370   0.338   3.157   6.365 -0.0551  0.3411 -0.3457
 1304SOL    HW115371   0.373   3.193   6.446  2.2035 -1.2080 -0.6497
 1304SOL    HW215372   0.275   3.225   6.341  1.4832  1.3037 -1.6507
 1305SOL     OW15373   2.589   4.364   6.390  0.2617 -0.0641  0.6800
 1305SOL    HW115374   2.624   4.348   6.302  0.5548  0.0618  0.7750
 1305SOL    HW215375   2.522   4.432   6.387  0.6297  0.2955  0.6134
 1306SOL     OW15376   2.497   0.547   6.033  0.4796  0.2097 -0.0774
 1306SOL    HW115377   2.547   0.467   6.015  0.1506  0.0253 -0.1749
 1306SOL    HW215378   2.515   0.567   6.125 -1.4866  2.4959 -0.2132
 1307SOL     OW15379   0.615   4.304   6.005  0.0671 -0.0772 -0.2012
 1307SOL    HW115380   0.597   4.236   6.070  1.1535 -0.0948  0.0821
 1307SOL    HW215381   0.711   4.305   6.006  0.0535  1.0339 -0.2361
 1308SOL     OW15382   4.012   0.784   8.385  0.2943  0.8173  0.9384
 1308SOL    HW115383   3.982   0.854   8.326  1.8435 -0.1373 -0.9689
 1308SOL    HW215384   3.943   0.719   8.379  1.3501 -0.1032 -1.0284
 1309SOL     OW15385   0.384   1.895   5.540  0.2303 -0.1678 -0.0318
 1309SOL    HW115386   0.364   1.825   5.478 -2.1604  1.1170 -0.6965
 1309SOL    HW215387   0.382   1.974   5.486 -3.2620 -2.2599 -2.9291
 1310SOL     OW15388   0.523   0.648   1.633  0.2734 -0.2468  1.3722
 1310SOL    HW115389   0.505   0.694   1.715  0.2585  0.5523  0.9226
 1310SOL    HW215390   0.563   0.565   1.661 -1.3002 -1.1378  0.9810
 1311SOL     OW15391   3.835   2.285   8.942  0.5998  0.3661 -0.3123
 1311SOL    HW115392   3.749   2.251   8.962  0.8654 -1.0099 -1.5153
 1311SOL    HW215393   3.802   2.349   8.879  1.4513 -0.4388 -1.5860
 1312SOL     OW15394   2.898   0.498  10.955  0.0813 -0.2418  0.0086
 1312SOL    HW115395   2.952   0.561  10.908  1.4718 -0.1235  1.7727
 1312SOL    HW215396   2.826   0.553  10.986 -0.4042 -2.2667  2.5036
 1313SOL     OW15397   1.838   0.138   3.169 -0.4016 -0.0230  0.3963
 1313SOL    HW115398   1.930   0.146   3.191 -0.3820 -1.9977  1.0387
 1313SOL    HW215399   1.798   0.197   3.233  0.7608 -0.6118  1.6498
 1314SOL     OW15400   0.275   2.329   3.741 -0.5873  0.4150 -0.1903
 1314SOL    HW115401   0.347   2.283   3.697 -0.2670  0.4640  0.2796
 1314SOL    HW215402   0.243   2.375   3.664  0.4063  1.1535 -0.1707
 1315SOL     OW15403   0.222   4.005  16.255  0.1712 -0.6646 -0.1781
 1315SOL    HW115404   0.132   4.018  16.283 -0.0502 -1.8442 -0.3651
 1315SOL    HW215405   0.246   3.922  16.295 -0.8341 -1.0145 -0.3003
 1316SOL     OW15406   3.061   4.265   5.349  0.3306 -0.1373 -0.3413
 1316SOL    HW115407   3.139   4.274   5.295  0.7428 -0.1372  0.2498
 1316SOL    HW215408   2.997   4.320   5.305 -1.7042 -2.3885 -0.1893
 1317SOL     OW15409   2.106   4.360   3.652  0.0918 -0.0588 -0.0480
 1317SOL    HW115410   2.113   4.389   3.561 -1.9700 -1.3780 -0.6167
 1317SOL    HW215411   2.168   4.418   3.696 -0.7079 -0.3325  1.4502
 1318SOL     OW15412   3.046   0.596  13.260  0.4589  0.5048 -0.5023
 1318SOL    HW115413   3.041   0.673  13.318  1.6238 -0.5633  1.0315
 1318SOL    HW215414   3.135   0.562  13.264 -0.0852 -1.1900 -2.6360
 1319SOL     OW15415   0.125   1.125  13.799 -0.6627  0.8364 -0.5076
 1319SOL    HW115416   0.080   1.061  13.744 -1.0323 -1.2266  2.1950
 1319SOL    HW215417   0.217   1.109  13.777 -0.1742  1.2417  1.2481
 1320SOL     OW15418   3.394   0.928   7.311  0.1227  0.1656 -0.6375
 1320SOL    HW115419   3.444   1.009   7.319  0.5612 -0.0069 -1.6099
 1320SOL    HW215420   3.362   0.951   7.223  0.3525  0.7525 -0.5662
 1321SOL     OW15421   2.864   3.986   9.115  0.2927 -0.5890  0.0072
 1321SOL    HW115422   2.780   3.944   9.129  1.0492 -1.3899  2.1908
 1321SOL    HW215423   2.877   4.035   9.196 -0.6774 -0.9426  0.3680
 1322SOL     OW15424   2.341   3.901   9.986  0.4350 -0.1177 -0.6702
 1322SOL    HW115425   2.285   3.853  10.048  2.0221 -0.1685  0.7022
 1322SOL    HW215426   2.284   3.925   9.912 -1.1135  0.5439  0.7255
 1323SOL     OW15427   1.394   4.625   6.352  0.8427 -0.0403  0.1386
 1323SOL    HW115428   1.330   4.639   6.282 -0.9565  1.0417  1.9958
 1323SOL    HW215429   1.465   4.680   6.320 -0.0406  0.3328 -1.1805
 1324SOL     OW15430   2.402   3.222  15.622 -0.2548 -0.1588 -0.2484
 1324SOL    HW115431   2.398   3.250  15.714  1.4076  2.3958 -0.9387
 1324SOL    HW215432   2.429   3.307  15.587  0.2209 -0.4702 -0.6288
 1325SOL     OW15433   2.341   3.066   6.727 -0.0610 -0.5613  0.7366
 1325SOL    HW115434   2.363   3.063   6.820 -2.3260  1.4425  1.3223
 1325SOL    HW215435   2.358   3.158   6.706 -2.2901 -0.3835 -0.2343
 1326SOL     OW15436   2.273   0.051   2.964  0.8367 -0.3717  0.3166
 1326SOL    HW115437   2.266   4.716   2.889  0.6273  0.5659 -0.3903
 1326SOL    HW215438   2.210   0.118   2.938  0.0584 -1.5150 -0.7123
 1327SOL     OW15439   1.614   1.313  10.394  0.2584  0.2960 -0.0424
 1327SOL    HW115440   1.546   1.314  10.461 -0.9431 -0.9918 -1.2344
 1327SOL    HW215441   1.638   1.224  10.364 -1.5463 -0.0740 -0.3610
 1328SOL     OW15442   2.069   2.127  13.747 -0.0355  0.4376  0.1877
 1328SOL    HW115443   2.146   2.121  13.804  1.7548 -0.2487 -2.2798
 1328SOL    HW215444   2.007   2.130  13.820 -0.9090  0.2767 -0.5365
 1329SOL     OW15445   4.080   0.285   0.443  0.3839 -0.3353  0.4848
 1329SOL    HW115446   4.090   0.301   0.349 -1.7803 -0.5493  0.2061
 1329SOL    HW215447   4.172   0.264   0.458  0.3901 -0.2829  0.5229
 1330SOL     OW15448   1.205   4.215  13.634 -0.1326 -0.2940 -0.0715
 1330SOL    HW115449   1.273   4.161  13.673 -1.6264 -1.0480  1.4562
 1330SOL    HW215450   1.215   4.294  13.686  2.0775 -0.4943 -0.1999
 1331SOL     OW15451   1.529   0.422   5.969 -0.2039 -0.4447 -0.5417
 1331SOL    HW115452   1.481   0.485   6.023  1.6510  0.4843  0.0176
 1331SOL    HW215453   1.519   0.464   5.884  0.3619 -1.0506 -0.9061
 1332SOL     OW15454   0.933   0.094   2.400  0.0225 -0.5283 -0.2343
 1332SOL    HW115455   0.996   0.024   2.383  0.4667 -0.1990  0.0592
 1332SOL    HW215456   0.922   0.091   2.495  0.0375 -1.3028 -0.2514
 1333SOL     OW15457   3.238   0.996  14.728  0.5278 -0.4197 -0.3278
 1333SOL    HW115458   3.296   1.033  14.661 -0.8134  1.2571 -0.5644
 1333SOL    HW215459   3.295   0.998  14.805 -0.8286  1.6332  0.5898
 1334SOL     OW15460   2.598   1.961   8.306 -0.4498  0.0471  0.4090
 1334SOL    HW115461   2.523   1.925   8.354 -0.5294 -1.4033 -0.7970
 1334SOL    HW215462   2.613   2.039   8.359  0.0799  0.7889 -0.8346
 1335SOL     OW15463   0.454   0.736   0.871 -0.3355  0.2943  0.3993
 1335SOL    HW115464   0.377   0.710   0.922 -0.2173 -0.2479  0.3008
 1335SOL    HW215465   0.492   0.805   0.926 -0.4060  1.1881 -0.6875
 1336SOL     OW15466   2.853   1.950  13.236 -0.2464 -0.4690  0.1288
 1336SOL    HW115467   2.785   2.017  13.245  0.9161  0.9325 -1.5510
 1336SOL    HW215468   2.914   2.006  13.189 -1.5934  1.0502  0.2120
 1337SOL     OW15469   1.175   2.025   5.951 -0.6822  0.0237 -0.3918
 1337SOL    HW115470   1.099   2.040   6.007 -0.3537 -0.5762  0.2080
 1337SOL    HW215471   1.140   2.055   5.867 -0.4126  3.3478  0.6513
 1338SOL     OW15472   2.223   1.230  15.331 -0.3962  0.1670  0.1312
 1338SOL    HW115473   2.274   1.150  15.324 -1.5562 -0.5081 -0.5976
 1338SOL    HW215474   2.272   1.283  15.268 -1.0536 -1.2156 -1.5332
 1339SOL     OW15475   2.555   1.950   6.824  0.1888  0.2456  0.9922
 1339SOL    HW115476   2.548   1.961   6.919  0.6158 -0.3669  1.0953
 1339SOL    HW215477   2.568   2.041   6.797  1.4691 -0.4108 -0.5698
 1340SOL     OW15478   2.102   4.437   7.550 -0.1826  0.1350 -0.2236
 1340SOL    HW115479   2.097   4.486   7.632 -0.3404  0.7144 -0.5745
 1340SOL    HW215480   2.144   4.360   7.587 -1.0210 -0.7371 -1.0808
 1341SOL     OW15481   3.526   1.048   4.567  0.5939 -0.3392 -0.0243
 1341SOL    HW115482   3.565   0.992   4.635 -2.2433 -0.4348  1.5341
 1341SOL    HW215483   3.516   0.992   4.490 -0.5775 -0.9813  0.5923
 1342SOL     OW15484   2.897   1.481   3.523 -0.1369  0.1460  0.2373
 1342SOL    HW115485   2.951   1.458   3.447  2.0965  2.4617  1.1194
 1342SOL    HW215486   2.965   1.503   3.586 -0.0318 -0.1145  0.2139
 1343SOL     OW15487   1.146   3.634   7.598 -0.2608  0.2936 -0.7313
 1343SOL    HW115488   1.129   3.609   7.689  0.3582 -1.9026 -1.2259
 1343SOL    HW215489   1.058   3.643   7.563  0.3425 -2.2649 -2.9401
 1344SOL     OW15490   4.058   3.976  12.731 -0.2003 -0.0281  0.1929
 1344SOL    HW115491   4.088   3.968  12.640 -0.7766 -0.5655  0.0550
 1344SOL    HW215492   4.132   3.935  12.777 -0.5442 -0.2017  0.5875
 1345SOL     OW15493   2.806   2.606   4.906 -0.7131 -0.0301 -0.8532
 1345SOL    HW115494   2.720   2.590   4.868 -0.3677 -1.0939 -1.1793
 1345SOL    HW215495   2.857   2.540   4.859  2.0039  1.1646  0.4062
 1346SOL     OW15496   2.703   0.861   7.583 -0.3812 -0.0249 -0.0157
 1346SOL    HW115497   2.761   0.844   7.658 -0.1730  0.7494 -0.0033
 1346SOL    HW215498   2.757   0.825   7.513 -0.0528 -1.2149  0.8384
 1347SOL     OW15499   4.641   4.022   1.501  0.2839 -0.4860  0.4414
 1347SOL    HW115500   4.651   4.051   1.410 -1.2324  0.3397  0.5443
 1347SOL    HW215501   4.695   3.943   1.503  0.4749 -0.3143  1.9731
 1348SOL     OW15502   0.495   4.370   3.351 -0.0783 -0.3155  0.1365
 1348SOL    HW115503   0.422   4.425   3.323  0.0780  0.3762  1.0673
 1348SOL    HW215504   0.558   4.404   3.289  0.3612  0.6945  1.1389
 1349SOL     OW15505   0.877   3.023   3.206 -0.3429 -0.3498  0.5526
 1349SOL    HW115506   0.900   2.958   3.139  0.2024  1.0818 -0.6276
 1349SOL    HW215507   0.927   3.093   3.164 -2.4886  0.1237 -1.2164
 1350SOL     OW15508   3.098   4.610  16.429  0.2175 -0.1794  0.2878
 1350SOL    HW115509   3.005   4.604  16.407  0.1079 -0.4625  0.8386
 1350SOL    HW215510   3.136   4.619  16.342  1.7594 -1.9364  0.7893
 1351SOL     OW15511   2.920   2.986   3.780  0.4898  0.2640 -0.1661
 1351SOL    HW115512   2.999   3.036   3.799  0.6215  0.8145 -2.1276
 1351SOL    HW215513   2.851   3.038   3.821 -0.0800 -0.8525  0.2774
 1352SOL     OW15514   3.153   1.372   1.367 -0.0473  0.4098 -0.0921
 1352SOL    HW115515   3.150   1.427   1.445 -2.6324  1.2664 -0.7852
 1352SOL    HW215516   3.206   1.302   1.405 -0.6411 -0.3579 -0.6754
 1353SOL     OW15517   3.973   4.331   7.529  0.0335 -0.1310 -0.5688
 1353SOL    HW115518   3.954   4.412   7.576  1.0466 -0.9754  1.2637
 1353SOL    HW215519   4.067   4.341   7.513  0.1821 -0.9754 -0.2005
 1354SOL     OW15520   3.545   3.013  13.310 -0.3136  0.0378  0.4024
 1354SOL    HW115521   3.479   3.053  13.254 -0.1281  0.2176  0.3130
 1354SOL    HW215522   3.558   3.084  13.373 -0.6406  1.5020 -1.1811
 1355SOL     OW15523   2.586   1.361   0.426 -0.6727 -0.0532  0.2607
 1355SOL    HW115524   2.511   1.416   0.447 -0.3642 -0.5101  2.5634
 1355SOL    HW215525   2.649   1.426   0.393 -0.3740 -1.3556 -1.7747
 1356SOL     OW15526   3.652   0.547   6.665 -0.0513  0.0523 -0.3347
 1356SOL    HW115527   3.611   0.515   6.745  1.1853 -0.2193  0.1894
 1356SOL    HW215528   3.730   0.595   6.693 -1.1646  2.0571 -0.6906
 1357SOL     OW15529   4.022   2.505   7.812  0.6083 -0.0859  0.0311
 1357SOL    HW115530   3.964   2.545   7.747  0.2318  0.8936  0.9695
 1357SOL    HW215531   4.106   2.530   7.775  0.1509 -0.4206 -1.2358
 1358SOL     OW15532   0.146   2.346  12.189 -0.4067  0.7704 -0.5237
 1358SOL    HW115533   0.197   2.273  12.153 -1.3025 -0.1612  0.0973
 1358SOL    HW215534   0.110   2.382  12.108  0.5484  1.0401 -0.8284
 1359SOL     OW15535   2.901   1.291   2.597  0.1293  0.0769 -0.2344
 1359SOL    HW115536   2.878   1.199   2.611 -2.1338  0.9289  1.8312
 1359SOL    HW215537   2.869   1.334   2.677 -1.9109 -1.9893  0.0746
 1360SOL     OW15538   2.918   2.390   9.120  0.2149 -0.1203  0.2758
 1360SOL    HW115539   2.951   2.328   9.184 -0.2990 -0.8836 -0.2065
 1360SOL    HW215540   2.825   2.379   9.138 -0.0294  0.1287 -0.8412
 1361SOL     OW15541   2.394   1.045   2.853  0.6912  0.1975 -0.1638
 1361SOL    HW115542   2.473   1.041   2.799  0.2170 -1.7925 -0.7187
 1361SOL    HW215543   2.400   1.135   2.885 -0.0857  1.0313 -2.3744
 1362SOL     OW15544   0.157   4.503   9.279  0.4519  0.0024 -0.0412
 1362SOL    HW115545   0.163   4.584   9.329 -1.0626  0.4732 -0.6119
 1362SOL    HW215546   0.068   4.512   9.243  0.2123  0.3085  0.6341
 1363SOL     OW15547   3.540   3.194   2.426 -0.3656 -0.2533 -0.1248
 1363SOL    HW115548   3.523   3.125   2.361 -0.5413 -0.0800 -0.2626
 1363SOL    HW215549   3.502   3.144   2.499 -0.6888  0.6770  0.3362
 1364SOL     OW15550   2.191   0.170   3.627 -0.4623 -0.0955  0.0279
 1364SOL    HW115551   2.129   0.103   3.653 -1.5649  0.2444 -1.7186
 1364SOL    HW215552   2.235   0.122   3.557  2.6254  1.6986  0.7334
 1365SOL     OW15553   2.049   0.882   1.158 -0.3247  0.3355  0.5373
 1365SOL    HW115554   2.087   0.795   1.173 -1.5551  0.1514  2.6448
 1365SOL    HW215555   2.082   0.935   1.231 -0.7706  1.0131  0.2469
 1366SOL     OW15556   3.671   2.415   4.464  0.5559  0.6537  0.5212
 1366SOL    HW115557   3.653   2.494   4.412  2.3642 -0.1932 -1.4150
 1366SOL    HW215558   3.702   2.359   4.392 -0.9783  0.0896  0.2920
 1367SOL     OW15559   4.139   2.492   9.460  0.8146  0.6634 -0.5624
 1367SOL    HW115560   4.124   2.446   9.377 -0.9993  3.9357 -2.0662
 1367SOL    HW215561   4.052   2.468   9.493  1.2425 -2.5017 -1.7824
 1368SOL     OW15562   0.133   0.660   2.002  0.2231 -0.2283 -0.0365
 1368SOL    HW115563   0.184   0.660   2.083 -2.9053  2.6989  1.9031
 1368SOL    HW215564   0.049   0.699   2.025  0.4918 -0.5294  1.4156
 1369SOL     OW15565   2.822   3.793   7.178 -0.1992  0.0090  0.7469
 1369SOL    HW115566   2.864   3.738   7.111 -0.3949 -2.5721  2.7529
 1369SOL    HW215567   2.902   3.815   7.226  1.0094  0.2501 -1.3332
 1370SOL     OW15568   4.303   0.646  16.443  0.0723 -0.0828 -0.2235
 1370SOL    HW115569   4.394   0.667  16.461  0.5361  0.3662 -3.0678
 1370SOL    HW215570   4.301   0.590  16.365  0.8057  0.2388 -0.4716
 1371SOL     OW15571   3.148   2.975  15.488 -0.1692 -0.5324  0.4103
 1371SOL    HW115572   3.082   3.031  15.447 -1.3087 -1.7706  0.5814
 1371SOL    HW215573   3.098   2.895  15.500 -1.5616  0.3592  0.5690
 1372SOL     OW15574   0.298   2.374   6.252  0.2961 -0.0888 -0.1765
 1372SOL    HW115575   0.253   2.454   6.277 -1.1711 -0.5271 -1.4092
 1372SOL    HW215576   0.299   2.321   6.332 -1.7624 -0.2440 -0.2429
 1373SOL     OW15577   1.486   0.188  13.134 -0.0936  0.1068  0.2273
 1373SOL    HW115578   1.469   0.231  13.051 -0.0545  1.3750  0.8836
 1373SOL    HW215579   1.565   0.142  13.106  0.4640  1.4573 -0.3730
 1374SOL     OW15580   1.129   1.602   2.273 -0.0864  0.5105  0.1135
 1374SOL    HW115581   1.221   1.599   2.248  0.1278 -1.2305  1.0850
 1374SOL    HW215582   1.102   1.513   2.250 -1.5241  0.7954  0.7086
 1375SOL     OW15583   0.628   4.194   4.930 -0.1584 -0.3915  0.1841
 1375SOL    HW115584   0.693   4.177   4.998 -0.9320 -0.7316  0.8424
 1375SOL    HW215585   0.684   4.245   4.872 -1.6109  0.8044 -0.1777
 1376SOL     OW15586   4.669   1.254   5.456 -0.1664  1.2867  0.2657
 1376SOL    HW115587   0.001   1.250   5.377  0.9076  2.0321  0.9699
 1376SOL    HW215588   4.593   1.298   5.416 -0.0205 -0.4129 -1.9070
 1377SOL     OW15589   1.618   2.246  16.865 -0.7745 -0.8286 -0.4779
 1377SOL    HW115590   1.566   2.290  16.797  0.5484  0.5408 -0.6014
 1377SOL    HW215591   1.549   2.248  16.931 -0.6561  0.1271 -0.3856
 1378SOL     OW15592   3.851   4.530  14.448 -0.3506  0.5638  0.3272
 1378SOL    HW115593   3.866   4.611  14.400 -2.7286 -0.3093 -1.9038
 1378SOL    HW215594   3.941   4.511  14.473  0.9662  0.6510 -4.3320
 1379SOL     OW15595   1.244   3.002  15.003 -0.2259 -0.1971  0.1453
 1379SOL    HW115596   1.169   3.060  14.992 -0.3460  0.4517  4.4870
 1379SOL    HW215597   1.315   3.067  15.007 -0.4042  0.0758 -1.1398
 1380SOL     OW15598   2.285   1.644   5.414 -0.6794  0.1213  0.0772
 1380SOL    HW115599   2.321   1.558   5.390 -0.0820  0.1172  0.9884
 1380SOL    HW215600   2.370   1.675   5.445 -1.0511  3.1764 -1.9976
 1381SOL     OW15601   0.730   4.286   2.250  0.1567  0.1837 -0.0138
 1381SOL    HW115602   0.674   4.256   2.321  0.7018  1.8826  1.1587
 1381SOL    HW215603   0.694   4.235   2.178  2.3283 -0.6396 -0.5029
 1382SOL     OW15604   3.658   2.709  12.242 -0.0717  0.0616 -1.1175
 1382SOL    HW115605   3.618   2.642  12.187  0.1925 -1.7443  0.8968
 1382SOL    HW215606   3.645   2.669  12.328 -0.4930  0.2157 -1.1088
 1383SOL     OW15607   4.564   3.458   8.081  0.0917 -0.0657  0.3351
 1383SOL    HW115608   4.489   3.469   8.023  1.3317  2.2397 -0.8253
 1383SOL    HW215609   4.511   3.433   8.157 -0.5563 -1.8899 -0.7265
 1384SOL     OW15610   3.170   3.031  14.193 -0.3667  0.6812  0.0181
 1384SOL    HW115611   3.160   3.033  14.098 -2.0062 -3.1343  0.0973
 1384SOL    HW215612   3.077   3.023  14.213 -0.2110 -0.3629  0.3273
 1385SOL     OW15613   0.624   0.411   0.634 -0.2983  0.6794  0.3137
 1385SOL    HW115614   0.664   0.492   0.665 -0.4288  1.9101 -2.7314
 1385SOL    HW215615   0.531   0.418   0.653  0.0825 -1.3532  2.8939
 1386SOL     OW15616   2.670   0.520   3.985  0.1810 -0.2423 -0.0692
 1386SOL    HW115617   2.688   0.608   3.951  2.7954 -1.0851 -0.8918
 1386SOL    HW215618   2.750   0.505   4.036  0.6631  0.9346 -0.4847
 1387SOL     OW15619   3.538   3.078  13.902  0.0699 -0.4016 -0.1121
 1387SOL    HW115620   3.452   3.088  13.860  0.3343 -0.9557 -0.7907
 1387SOL    HW215621   3.585   3.149  13.858  2.3256 -1.0614  1.2648
 1388SOL     OW15622   4.689   2.426   6.011 -0.1807  0.1509  0.3945
 1388SOL    HW115623   4.610   2.437   6.065  1.3455 -0.7643  2.8297
 1388SOL    HW215624   0.008   2.356   6.061  2.3771  1.1619 -0.3612
 1389SOL     OW15625   2.948   2.925  15.207  0.0732 -0.0500 -0.2726
 1389SOL    HW115626   2.972   3.010  15.244  0.3083 -0.4663  0.5366
 1389SOL    HW215627   2.856   2.938  15.183 -0.4816 -0.9704  1.3662
 1390SOL     OW15628   0.442   0.148  15.601  0.3322  0.1292  0.1749
 1390SOL    HW115629   0.511   0.082  15.597  0.5188  0.3006  0.6244
 1390SOL    HW215630   0.441   0.171  15.508  0.0136  1.5259  0.5240
 1391SOL     OW15631   3.823   0.986   4.127 -0.2533  0.2821 -0.3211
 1391SOL    HW115632   3.826   1.004   4.221  2.5504  1.8508 -0.6833
 1391SOL    HW215633   3.904   1.027   4.097  0.5752  0.1106  1.7009
 1392SOL     OW15634   1.808   1.278   0.191 -0.2581 -0.7837 -0.0924
 1392SOL    HW115635   1.767   1.351   0.237  1.9821 -0.6063  1.6387
 1392SOL    HW215636   1.854   1.235   0.264 -0.5813 -2.6649 -0.9966
 1393SOL     OW15637   1.666   4.514   6.371  0.2758 -0.5107 -0.2163
 1393SOL    HW115638   1.571   4.518   6.381  0.1517 -1.0737 -1.1349
 1393SOL    HW215639   1.672   4.491   6.278  2.7520  3.2567 -1.0205
 1394SOL     OW15640   4.191   2.069  13.402 -0.5777 -0.2092  0.0302
 1394SOL    HW115641   4.165   2.010  13.332  2.2559 -1.0075 -0.3588
 1394SOL    HW215642   4.257   2.016  13.449 -0.7774 -0.1046  0.4303
 1395SOL     OW15643   2.803   3.208   4.527 -0.9184  0.5053 -0.2779
 1395SOL    HW115644   2.854   3.229   4.605 -0.1204 -0.5363 -0.5230
 1395SOL    HW215645   2.853   3.249   4.456  0.2283 -1.2515 -0.4694
 1396SOL     OW15646   1.191   2.684   0.843  0.3470  0.1864  0.4669
 1396SOL    HW115647   1.098   2.678   0.865  0.0277  0.9079 -0.6988
 1396SOL    HW215648   1.212   2.757   0.900  1.5560  1.1273 -1.1873
 1397SOL     OW15649   2.014   4.592   8.761 -0.3258 -0.2831 -0.1106
 1397SOL    HW115650   1.972   4.671   8.797 -3.6277 -1.7390 -0.7041
 1397SOL    HW215651   2.034   4.545   8.842 -0.6050  1.8712  1.2142
 1398SOL     OW15652   4.666   3.131   7.116 -0.0707 -0.0518  0.2354
 1398SOL    HW115653   4.624   3.184   7.049 -0.3793 -1.2281 -0.4992
 1398SOL    HW215654   4.587   3.107   7.163 -0.4220  0.6886  0.0151
 1399SOL     OW15655   1.765   2.714   7.057  0.4787 -0.3014 -0.0413
 1399SOL    HW115656   1.782   2.804   7.028 -0.7502  0.0646  0.3799
 1399SOL    HW215657   1.683   2.691   7.013  1.7241  0.0769 -2.5805
 1400SOL     OW15658   1.665   4.360   2.639 -1.2430  0.0904  0.4082
 1400SOL    HW115659   1.593   4.326   2.586 -2.1770 -0.5607  2.0944
 1400SOL    HW215660   1.636   4.451   2.647 -0.2948  0.4055  0.2082
 1401SOL     OW15661   3.709   2.279   3.199  0.6995 -0.8635  0.3223
 1401SOL    HW115662   3.691   2.193   3.236 -0.6080 -0.5393  0.4425
 1401SOL    HW215663   3.803   2.268   3.185  0.5941 -0.7127 -0.5191
 1402SOL     OW15664   2.999   1.435  12.290 -0.0872  0.5941  0.0989
 1402SOL    HW115665   3.030   1.426  12.199 -0.5000  1.6662 -0.1438
 1402SOL    HW215666   2.994   1.345  12.321  0.9067  0.1006 -1.1567
 1403SOL     OW15667   1.265   4.285   9.999 -0.5826  0.8073  0.1854
 1403SOL    HW115668   1.354   4.255   9.978 -1.2341 -0.1476 -1.1776
 1403SOL    HW215669   1.217   4.230   9.937 -1.2967  1.7800 -0.1065
 1404SOL     OW15670   1.772   4.002   4.487  0.2016 -0.2530  0.1247
 1404SOL    HW115671   1.840   3.950   4.443  0.6724 -2.4353  3.4391
 1404SOL    HW215672   1.770   4.087   4.442  1.0629 -0.2277  0.1242
 1405SOL     OW15673   3.803   1.590   6.692 -0.1255  0.0841  0.1990
 1405SOL    HW115674   3.799   1.535   6.614 -2.2598 -1.9142  1.7209
 1405SOL    HW215675   3.845   1.538   6.760 -0.1926  1.8119  1.5407
 1406SOL     OW15676   2.096   4.492   9.005 -0.6492  0.0018 -0.1158
 1406SOL    HW115677   2.079   4.500   9.099  1.0106 -0.5401  0.2185
 1406SOL    HW215678   2.154   4.566   8.990 -1.0191  0.0866 -1.1626
 1407SOL     OW15679   0.013   0.608   6.508  0.1790  0.1586 -0.5206
 1407SOL    HW115680   0.080   0.626   6.441  2.4824 -0.5501  1.5913
 1407SOL    HW215681   4.677   0.679   6.485 -0.0670 -0.6172 -2.3396
 1408SOL     OW15682   4.440   2.329   3.056  0.9037 -0.2184  0.1356
 1408SOL    HW115683   4.398   2.377   3.127  0.8501 -0.1198  0.0378
 1408SOL    HW215684   4.376   2.347   2.987  0.5310 -1.2670  0.2047
 1409SOL     OW15685   4.054   0.032   7.835  0.3109 -0.0913 -0.5226
 1409SOL    HW115686   4.089   0.010   7.922  2.9202 -1.9189 -2.0485
 1409SOL    HW215687   4.132   0.063   7.790  0.8837  0.4949  0.8601
 1410SOL     OW15688   0.397   2.961  11.677  0.5913  0.0342  0.3477
 1410SOL    HW115689   0.429   2.902  11.608 -0.8613 -0.0744 -0.2355
 1410SOL    HW215690   0.437   2.926  11.757  0.4876 -0.3560  0.2271
 1411SOL     OW15691   0.102   1.089   6.256 -0.4221 -0.2074 -0.6222
 1411SOL    HW115692   0.176   1.030   6.269  1.2254  2.4347  1.8486
 1411SOL    HW215693   0.033   1.047   6.308  0.1554 -0.4644 -0.0684
 1412SOL     OW15694   0.203   0.339   5.784  0.0291  0.1396  0.1476
 1412SOL    HW115695   0.295   0.326   5.808  0.3852  2.1958 -0.1001
 1412SOL    HW215696   0.171   0.249   5.782 -1.2455  0.5755  1.1022
 1413SOL     OW15697   2.919   0.542   5.798  0.6222  0.1767  0.2158
 1413SOL    HW115698   2.846   0.488   5.769  0.5001  1.1974 -1.4307
 1413SOL    HW215699   2.951   0.505   5.879  1.0837 -1.1673 -0.5872
 1414SOL     OW15700   0.021   4.278  12.852  0.7871  0.4102  0.0254
 1414SOL    HW115701   0.094   4.340  12.855  0.6921  0.4046  2.4971
 1414SOL    HW215702   0.070   4.204  12.818  0.4756  1.3870 -2.5920
 1415SOL     OW15703   0.040   0.765   0.610  0.0887  0.5226 -0.5766
 1415SOL    HW115704   4.694   0.803   0.555 -3.1609 -1.4805  2.0901
 1415SOL    HW215705   0.112   0.827   0.600  0.4293  0.3050  0.5506
 1416SOL     OW15706   3.755   0.973   6.382 -0.6139  0.1941 -0.6195
 1416SOL    HW115707   3.673   0.943   6.420  0.4777 -3.4239 -1.0652
 1416SOL    HW215708   3.712   1.039   6.328 -1.2298 -1.3879 -2.0746
 1417SOL     OW15709   2.179   0.713   6.800 -0.5552  0.6881 -0.4094
 1417SOL    HW115710   2.228   0.686   6.878  0.0386  1.8513 -0.3927
 1417SOL    HW215711   2.210   0.651   6.734 -0.3439 -0.1600  0.4781
 1418SOL     OW15712   2.630   1.107   7.800 -0.2458 -0.0911 -0.2031
 1418SOL    HW115713   2.587   1.092   7.715  0.8921 -0.2194 -0.7550
 1418SOL    HW215714   2.587   1.046   7.860 -0.4255  1.4016  1.1786
 1419SOL     OW15715   3.781   1.626   5.464 -0.7844 -0.3316 -0.5450
 1419SOL    HW115716   3.867   1.593   5.441 -0.4315  1.2086 -1.5065
 1419SOL    HW215717   3.761   1.656   5.375 -1.7269  0.7692  0.0337
 1420SOL     OW15718   1.194   1.812  15.110  0.4711 -0.0627 -0.1530
 1420SOL    HW115719   1.120   1.857  15.149 -0.0402 -0.3331 -0.8225
 1420SOL    HW215720   1.179   1.720  15.133  0.1503 -0.6853 -2.9229
 1421SOL     OW15721   3.133   0.202  13.689 -0.1232  0.5184 -0.5164
 1421SOL    HW115722   3.098   0.166  13.608 -1.7342 -1.0177  0.8532
 1421SOL    HW215723   3.062   0.186  13.751 -0.6225 -0.1586 -1.2653
 1422SOL     OW15724   0.079   0.429   4.020 -0.5361 -0.2059 -0.2392
 1422SOL    HW115725   0.082   0.505   4.078  3.8298 -2.3842  2.3880
 1422SOL    HW215726   0.171   0.409   4.007 -0.7747 -1.9432  0.7495
 1423SOL     OW15727   4.555   1.736   4.631 -0.0079  0.2922  0.3438
 1423SOL    HW115728   4.583   1.776   4.714  2.6859 -0.6125 -0.1373
 1423SOL    HW215729   4.628   1.761   4.575 -0.6551  1.8242  0.1750
 1424SOL     OW15730   2.581   3.839   8.273 -0.3305  0.2590  0.6947
 1424SOL    HW115731   2.565   3.931   8.294 -0.1693 -0.3741  3.5021
 1424SOL    HW215732   2.649   3.848   8.206  0.1133  0.7280  1.2112
 1425SOL     OW15733   2.699   2.312   8.085  0.1034 -0.8601 -0.3860
 1425SOL    HW115734   2.675   2.331   8.176 -2.5377  0.4966 -1.3683
 1425SOL    HW215735   2.725   2.393   8.042  3.3117 -0.0939  2.9730
 1426SOL     OW15736   3.340   4.074   3.996  0.0714 -0.3073  0.7591
 1426SOL    HW115737   3.287   4.022   4.057  0.7540 -0.6322  1.0762
 1426SOL    HW215738   3.341   4.019   3.918  2.2053  2.8384 -1.4438
 1427SOL     OW15739   3.395   2.642   8.003 -0.2886 -0.2478 -0.1543
 1427SOL    HW115740   3.346   2.691   8.069 -2.5704 -1.9597 -0.6015
 1427SOL    HW215741   3.371   2.676   7.916 -1.5039  1.7276  0.9527
 1428SOL     OW15742   3.289   0.037   0.471  0.5326 -0.0915 -0.0937
 1428SOL    HW115743   3.384   0.045   0.479  0.7026 -1.0275 -1.1894
 1428SOL    HW215744   3.272   4.710   0.550 -0.1257  1.2729  0.6395
 1429SOL     OW15745   1.206   2.993  16.329  0.0259  0.2514  0.0921
 1429SOL    HW115746   1.285   2.939  16.329 -0.9777 -1.2375  1.4407
 1429SOL    HW215747   1.207   3.026  16.240  1.1519 -1.5839 -0.5955
 1430SOL     OW15748   3.822   1.707   5.752 -0.4365  1.1825 -0.3112
 1430SOL    HW115749   3.810   1.672   5.663 -1.4912  1.6502 -0.3413
 1430SOL    HW215750   3.822   1.800   5.733  3.8172  0.7817 -2.4613
 1431SOL     OW15751   0.738   2.738   6.321  0.0747  0.8795 -0.4063
 1431SOL    HW115752   0.775   2.719   6.408  0.5503  2.8706 -0.1723
 1431SOL    HW215753   0.818   2.736   6.270 -0.8673 -1.1987 -1.8391
 1432SOL     OW15754   0.393   1.359   5.168  0.2987  0.1964 -1.4774
 1432SOL    HW115755   0.397   1.453   5.148  1.1869  0.1310 -1.5636
 1432SOL    HW215756   0.434   1.328   5.087  1.8813  1.4372 -1.1327
 1433SOL     OW15757   0.210   2.407  11.063  0.2239  0.0086  0.5184
 1433SOL    HW115758   0.199   2.478  11.001  1.4559 -0.2983 -0.0475
 1433SOL    HW215759   0.126   2.361  11.065  1.1492 -1.7084 -1.0720
 1434SOL     OW15760   1.153   0.605  15.828 -0.2566  0.2140 -0.2282
 1434SOL    HW115761   1.136   0.695  15.854  1.1797  0.1639  0.8700
 1434SOL    HW215762   1.067   0.562  15.827  0.6275 -1.5268 -1.0428
 1435SOL     OW15763   2.406   3.931   7.186  0.4452 -0.0347  0.5299
 1435SOL    HW115764   2.497   3.945   7.160 -0.0059 -1.2097 -1.7005
 1435SOL    HW215765   2.401   3.971   7.272 -1.0204 -0.7434  0.7754
 1436SOL     OW15766   1.892   2.918   9.323  0.7609 -0.0572 -0.0877
 1436SOL    HW115767   1.872   3.011   9.317  1.0619  0.0100 -0.0311
 1436SOL    HW215768   1.958   2.906   9.254  0.3579  2.5868 -0.9261
 1437SOL     OW15769   3.868   2.534   5.925 -0.4518 -0.1571  0.2391
 1437SOL    HW115770   3.773   2.524   5.916 -0.3287 -1.4072  0.2548
 1437SOL    HW215771   3.888   2.537   5.832  0.2881 -2.8347  0.3166
 1438SOL     OW15772   2.615   3.282   9.497 -0.9113  0.2429  0.1477
 1438SOL    HW115773   2.692   3.309   9.549  0.1242 -0.3487 -1.0779
 1438SOL    HW215774   2.629   3.187   9.494 -1.4460  0.1556  0.4231
 1439SOL     OW15775   2.802   3.061   7.163 -0.1168  0.2315 -0.1397
 1439SOL    HW115776   2.770   3.139   7.209 -0.8586 -2.1183  3.3077
 1439SOL    HW215777   2.737   2.994   7.184 -1.1774  1.0623 -0.7674
 1440SOL     OW15778   2.495   3.613   1.849 -0.2724  0.2540 -0.3774
 1440SOL    HW115779   2.488   3.612   1.944 -2.4543  1.1547 -0.5042
 1440SOL    HW215780   2.540   3.530   1.834  0.8656  0.9391 -0.7645
 1441SOL     OW15781   1.794   3.225   4.848 -0.4458  0.1079  0.2791
 1441SOL    HW115782   1.803   3.209   4.942  1.4560  1.1719  0.2766
 1441SOL    HW215783   1.705   3.258   4.855  0.1859  1.9705 -0.5822
 1442SOL     OW15784   2.287   1.755  15.680  0.6232 -0.2658  0.3973
 1442SOL    HW115785   2.259   1.671  15.715 -0.4129  1.1356  2.8865
 1442SOL    HW215786   2.226   1.768  15.608 -0.3200 -3.2935  0.6670
 1443SOL     OW15787   2.008   0.607  13.855  0.2244  0.3921  0.1155
 1443SOL    HW115788   2.038   0.516  13.859  1.3736  0.7957  0.6211
 1443SOL    HW215789   1.914   0.596  13.840  0.2986  0.4975 -0.4189
 1444SOL     OW15790   4.592   3.845   9.519 -0.1445 -0.1511  0.0474
 1444SOL    HW115791   4.510   3.796   9.524  0.1013 -0.7745 -2.2854
 1444SOL    HW215792   4.650   3.772   9.498 -1.4373 -1.3111  0.5875
 1445SOL     OW15793   2.575   2.504   4.521  0.3518 -0.1202  0.8472
 1445SOL    HW115794   2.549   2.596   4.523  0.7836  0.0558 -1.6299
 1445SOL    HW215795   2.605   2.479   4.608 -0.6062  1.2373  1.5745
 1446SOL     OW15796   0.471   0.815   7.789  0.0285  0.3273 -0.2806
 1446SOL    HW115797   0.495   0.726   7.763 -1.3682 -0.9237  2.7892
 1446SOL    HW215798   0.399   0.826   7.727  0.6557 -0.3296 -1.1329
 1447SOL     OW15799   2.285   2.878   7.822 -0.2553  0.0456  0.0390
 1447SOL    HW115800   2.200   2.850   7.857  0.3223  1.2746  2.4623
 1447SOL    HW215801   2.332   2.794   7.828 -0.4755 -0.2185 -1.9892
 1448SOL     OW15802   1.194   2.008   1.268 -0.8330  0.1350  0.7048
 1448SOL    HW115803   1.228   1.945   1.333 -0.0325 -1.2105 -1.0119
 1448SOL    HW215804   1.148   1.959   1.200 -0.8438  1.3264 -0.1334
 1449SOL     OW15805   2.783   2.825  10.190 -0.1113  0.2160 -0.5601
 1449SOL    HW115806   2.845   2.843  10.120  0.9970 -1.8500 -0.1056
 1449SOL    HW215807   2.779   2.730  10.177  1.4784 -0.0412  0.8362
 1450SOL     OW15808   0.279   0.460  10.065 -0.0359 -0.4723 -0.2866
 1450SOL    HW115809   0.276   0.366  10.080 -3.3738 -0.2867  0.2294
 1450SOL    HW215810   0.191   0.479  10.100  0.8403  0.6167  1.3241
 1451SOL     OW15811   1.487   0.952   2.234 -0.2297 -0.3966 -0.4413
 1451SOL    HW115812   1.401   0.944   2.276  0.3084 -1.2779  0.4894
 1451SOL    HW215813   1.479   0.897   2.156 -1.8877  0.1123 -0.6334
 1452SOL     OW15814   2.915   2.881   6.743 -0.2042  0.4157 -0.0960
 1452SOL    HW115815   2.936   2.885   6.837 -2.3991 -0.2517  0.4146
 1452SOL    HW215816   2.976   2.816   6.709  0.1207 -1.3236  3.7373
 1453SOL     OW15817   0.588   1.855   6.258 -0.5733  0.2869 -0.2272
 1453SOL    HW115818   0.674   1.827   6.225 -0.7215 -1.1048  0.5966
 1453SOL    HW215819   0.615   1.903   6.337  0.3933  0.6222 -0.7485
 1454SOL     OW15820   2.994   1.765  12.223  0.1618  0.0841 -0.1663
 1454SOL    HW115821   3.029   1.750  12.135  2.7939  1.4563  0.6547
 1454SOL    HW215822   2.923   1.700  12.230  0.7082 -0.2395  2.5744
 1455SOL     OW15823   1.010   1.443   7.042 -0.2699 -0.2903 -0.1994
 1455SOL    HW115824   0.936   1.413   7.095 -0.5075  0.3440 -0.1739
 1455SOL    HW215825   1.042   1.521   7.088  0.1703 -0.1968 -0.6625
 1456SOL     OW15826   0.658   1.662  13.187  0.2013  0.2104  0.2856
 1456SOL    HW115827   0.743   1.677  13.145  0.1736  1.7416  0.7724
 1456SOL    HW215828   0.602   1.729  13.149  0.1965 -1.2286 -2.2747
 1457SOL     OW15829   2.958   0.597   3.330  0.2010  0.1172  0.2670
 1457SOL    HW115830   2.907   0.548   3.395  0.8036 -0.9586 -0.0911
 1457SOL    HW215831   3.045   0.570   3.359  0.2038  1.3701  1.4735
 1458SOL     OW15832   4.517   2.889  15.787 -0.0978  0.7850 -0.2102
 1458SOL    HW115833   4.509   2.966  15.843 -0.0607  0.6361  0.0028
 1458SOL    HW215834   4.428   2.893  15.752 -1.0288 -0.3904  2.0323
 1459SOL     OW15835   0.442   3.233  17.426  0.2081 -0.0028  0.1145
 1459SOL    HW115836   0.366   3.179  17.448 -0.7889  0.8288 -1.2640
 1459SOL    HW215837   0.504   3.167  17.396 -2.0549 -1.9308 -0.2903
 1460SOL     OW15838   1.705   4.481   7.136 -0.0239 -0.2589 -0.5453
 1460SOL    HW115839   1.629   4.434   7.173  0.1235  0.1152  0.2379
 1460SOL    HW215840   1.749   4.504   7.218  0.9082 -0.4798 -0.9878
 1461SOL     OW15841   4.195   2.272  10.478 -0.0949  0.0524 -0.0838
 1461SOL    HW115842   4.192   2.351  10.532  1.3820 -1.1621  1.7575
 1461SOL    HW215843   4.139   2.220  10.535  1.1759 -1.4729 -0.2208
 1462SOL     OW15844   0.005   0.864  14.601  0.0033 -0.5023  0.3355
 1462SOL    HW115845   0.098   0.840  14.595  0.2147  0.8398 -1.5636
 1462SOL    HW215846   0.004   0.954  14.632 -0.8307 -0.0474 -1.0065
 1463SOL     OW15847   3.355   2.740   6.627 -0.0313 -0.4489 -0.0562
 1463SOL    HW115848   3.350   2.801   6.553  1.6107 -0.4901 -0.1847
 1463SOL    HW215849   3.422   2.678   6.599 -0.5333 -1.4011  0.8374
 1464SOL     OW15850   2.161   2.610   1.988 -0.1121  0.3296 -0.3515
 1464SOL    HW115851   2.164   2.661   2.070  1.0809  0.9740 -0.7974
 1464SOL    HW215852   2.105   2.535   2.009  1.0941 -0.2138  0.9240
 1465SOL     OW15853   0.274   1.947   1.925  0.3216 -0.7411  0.4960
 1465SOL    HW115854   0.248   1.871   1.872  1.4351 -2.0030  1.7411
 1465SOL    HW215855   0.360   1.962   1.885  0.6523 -1.1240  1.0453
 1466SOL     OW15856   0.994   0.237   9.664  0.1288  0.4454 -0.5532
 1466SOL    HW115857   0.989   0.141   9.663  1.7120  0.3895 -1.6756
 1466SOL    HW215858   1.076   0.254   9.619 -0.7618  1.7907 -1.6633
 1467SOL     OW15859   4.238   2.922   6.101 -0.1927 -0.2822 -0.2026
 1467SOL    HW115860   4.191   2.961   6.028  1.2892  1.3219 -0.3198
 1467SOL    HW215861   4.191   2.955   6.177 -1.1951 -1.6996 -0.2133
 1468SOL     OW15862   1.654   0.535  17.631 -0.3776 -0.5559  0.0230
 1468SOL    HW115863   1.681   0.567  17.545 -1.4547 -0.0772 -0.1365
 1468SOL    HW215864   1.730   0.481  17.651 -0.8635 -0.8855  1.0020
 1469SOL     OW15865   2.753   4.529  15.057  0.0779  0.3385 -0.1468
 1469SOL    HW115866   2.787   4.449  15.017  1.1621 -0.5970  2.6008
 1469SOL    HW215867   2.771   4.593  14.988 -0.3456  0.1763 -0.4054
 1470SOL     OW15868   3.568   1.648   9.698 -0.1270  0.1728  0.1173
 1470SOL    HW115869   3.516   1.682   9.626 -0.1386 -1.3764 -0.6028
 1470SOL    HW215870   3.598   1.567   9.655 -1.2793 -0.1841 -0.0154
 1471SOL     OW15871   1.317   0.943   5.242  0.3497  0.4234  0.2381
 1471SOL    HW115872   1.228   0.937   5.208  0.6907  0.4445 -0.6593
 1471SOL    HW215873   1.350   0.853   5.247  0.4063  0.4472  0.2935
 1472SOL     OW15874   3.800   0.841   2.448 -0.8952  0.1060 -0.1620
 1472SOL    HW115875   3.860   0.906   2.410  0.2015 -0.6218  0.2973
 1472SOL    HW215876   3.865   0.796   2.503 -0.8567 -2.0201 -1.9211
 1473SOL     OW15877   1.757   0.939   7.769  0.1143  0.0484 -0.4415
 1473SOL    HW115878   1.720   1.026   7.752 -1.7886 -0.6655  0.0498
 1473SOL    HW215879   1.676   0.892   7.754  0.1746  0.1185 -0.9865
 1474SOL     OW15880   4.070   0.434   1.867 -0.4003  0.3354 -0.4527
 1474SOL    HW115881   4.164   0.447   1.881 -0.7504  1.3487  0.9676
 1474SOL    HW215882   4.074   0.346   1.829  1.1764  0.2908 -0.1859
 1475SOL     OW15883   4.327   4.598   9.012 -0.8577 -0.3119 -0.1035
 1475SOL    HW115884   4.247   4.594   8.960 -2.0110 -2.8121  1.8346
 1475SOL    HW215885   4.355   4.688   8.994 -1.2508  0.1097  1.3685
 1476SOL     OW15886   2.110   3.567   3.250  0.1725 -0.5071  0.0345
 1476SOL    HW115887   2.201   3.573   3.281  1.3698  0.8395 -3.7261
 1476SOL    HW215888   2.115   3.498   3.184 -2.3031 -0.6634  0.0433
 1477SOL     OW15889   2.720   0.381   5.674  0.7991  0.2352 -0.0034
 1477SOL    HW115890   2.648   0.346   5.727  2.0880 -2.1947  0.1400
 1477SOL    HW215891   2.698   0.339   5.591  1.3727 -1.6064  0.7728
 1478SOL     OW15892   3.429   1.088   8.239 -0.2051  0.5679  0.4637
 1478SOL    HW115893   3.468   1.016   8.189  1.4171  0.4493  1.9238
 1478SOL    HW215894   3.340   1.087   8.203 -0.4458  0.1729  1.0698
 1479SOL     OW15895   3.117   3.351  15.321  0.2538 -0.5829 -0.3186
 1479SOL    HW115896   3.125   3.432  15.271 -1.0629  0.5639  1.3183
 1479SOL    HW215897   3.122   3.382  15.412  1.5123  1.5637 -1.0961
 1480SOL     OW15898   4.050   4.258   5.985  0.1072 -0.8255 -0.1424
 1480SOL    HW115899   4.133   4.222   6.017  1.2395  0.4584 -1.6330
 1480SOL    HW215900   4.076   4.278   5.895  1.1155  1.9084  0.7474
 1481SOL     OW15901   3.019   0.177   9.128 -0.0074  0.1380 -0.5792
 1481SOL    HW115902   2.976   0.252   9.087 -1.5511 -0.0336  0.6958
 1481SOL    HW215903   3.100   0.175   9.077  0.1162  0.3873 -0.3933
 1482SOL     OW15904   3.618   3.456  15.082  0.5406  0.4161 -0.0864
 1482SOL    HW115905   3.673   3.395  15.034  1.4837  0.3474  1.0670
 1482SOL    HW215906   3.677   3.532  15.075 -0.6771  1.5465  1.9147
 1483SOL     OW15907   3.786   1.372   3.034  0.9499  0.6214  0.1353
 1483SOL    HW115908   3.714   1.433   3.016 -0.0478 -0.5489  0.1805
 1483SOL    HW215909   3.850   1.407   2.972  0.5596  1.2480  0.0738
 1484SOL     OW15910   1.924   1.127   6.799 -0.5981 -0.1887 -0.2439
 1484SOL    HW115911   1.892   1.118   6.889  1.7586 -0.1874  0.5835
 1484SOL    HW215912   2.007   1.081   6.807 -0.4188  0.1808  0.0389
 1485SOL     OW15913   4.676   1.581   2.777  0.2967 -0.3961 -0.0205
 1485SOL    HW115914   4.662   1.654   2.717 -0.5350 -2.2016 -2.0006
 1485SOL    HW215915   0.045   1.592   2.799 -0.1794  0.6911  1.4660
 1486SOL     OW15916   3.973   2.178   0.208 -0.0881 -0.1510 -0.7250
 1486SOL    HW115917   4.044   2.161   0.147  0.3872 -1.5854  0.2255
 1486SOL    HW215918   3.993   2.260   0.254 -0.3174 -0.6103  0.2056
 1487SOL     OW15919   1.817   3.863   6.503 -0.3537  0.5238 -0.7176
 1487SOL    HW115920   1.734   3.816   6.501  0.0167 -0.1378 -0.3664
 1487SOL    HW215921   1.794   3.956   6.498  0.5572  0.9128  2.7483
 1488SOL     OW15922   0.776   1.448   5.043  0.4753  0.0090  0.4397
 1488SOL    HW115923   0.793   1.467   5.135 -1.3145  0.1960  0.7195
 1488SOL    HW215924   0.830   1.514   5.000  2.4702 -0.9370  1.5050
 1489SOL     OW15925   4.206   3.225  17.407  0.9066  0.1158 -0.1661
 1489SOL    HW115926   4.255   3.222  17.490  1.9038 -1.4193 -0.8220
 1489SOL    HW215927   4.116   3.229  17.438  0.5156 -2.5165 -0.9369
 1490SOL     OW15928   4.029   0.958   2.364  0.0183 -0.2313 -0.3368
 1490SOL    HW115929   4.057   0.868   2.344 -0.6007 -0.6868  0.8118
 1490SOL    HW215930   4.007   0.993   2.278 -0.4274 -1.2490 -0.6483
 1491SOL     OW15931   3.838   2.608  15.000 -0.3914 -0.5636  0.4298
 1491SOL    HW115932   3.824   2.528  14.949 -1.0985 -0.7209  0.8635
 1491SOL    HW215933   3.909   2.644  14.948 -0.0475 -1.0248  0.5727
 1492SOL     OW15934   0.924   2.357   6.726 -0.2491 -0.0415  0.3916
 1492SOL    HW115935   1.015   2.334   6.709 -1.0945 -3.0370  0.0294
 1492SOL    HW215936   0.922   2.453   6.720 -1.5128 -0.1163 -0.2615
 1493SOL     OW15937   0.435   3.189   6.880  0.6062 -0.2673 -0.5065
 1493SOL    HW115938   0.469   3.207   6.793  0.5819  1.7074 -0.0974
 1493SOL    HW215939   0.341   3.184   6.863  0.4402 -1.0856  0.6551
 1494SOL     OW15940   3.390   2.103   7.256  0.2626  0.0543 -0.0284
 1494SOL    HW115941   3.316   2.163   7.250 -0.2908 -0.6561 -0.3268
 1494SOL    HW215942   3.381   2.089   7.350  0.0099 -0.8961 -0.1944
 1495SOL     OW15943   2.582   3.244   7.643 -0.6236 -0.2407 -0.6961
 1495SOL    HW115944   2.573   3.307   7.714  1.1889 -0.4090 -0.3322
 1495SOL    HW215945   2.517   3.178   7.669 -0.0222 -0.7965 -0.5845
 1496SOL     OW15946   2.244   2.425  13.776  0.1573 -0.2522  0.1826
 1496SOL    HW115947   2.290   2.485  13.835 -0.6087  0.0174  0.5032
 1496SOL    HW215948   2.246   2.338  13.816  1.7862  0.7399  2.2999
 1497SOL     OW15949   1.665   1.522   1.264 -0.0196  0.1611  0.3520
 1497SOL    HW115950   1.665   1.587   1.193  2.4308  0.5128  0.6949
 1497SOL    HW215951   1.625   1.576   1.332 -1.5911  1.0057 -1.2263
 1498SOL     OW15952   2.155   1.310   9.392 -0.0715  0.6500  0.2674
 1498SOL    HW115953   2.187   1.244   9.331  0.0860  0.3025  0.7332
 1498SOL    HW215954   2.202   1.389   9.364  0.3322  0.0352 -0.7987
 1499SOL     OW15955   2.481   1.478   3.599 -0.0008 -0.3309 -0.5877
 1499SOL    HW115956   2.537   1.412   3.558 -0.1035  0.0356 -1.3207
 1499SOL    HW215957   2.539   1.553   3.587  0.9839 -0.9746  0.1681
 1500SOL     OW15958   2.687   1.638   3.941  0.1103 -0.2306  0.0156
 1500SOL    HW115959   2.766   1.598   3.977 -0.5856 -1.8120 -0.2218
 1500SOL    HW215960   2.624   1.567   3.951 -0.5735  0.2997 -0.4738
 1501SOL     OW15961   2.754   2.451  14.110  0.0067 -0.6221  0.7638
 1501SOL    HW115962   2.797   2.409  14.036  0.1914  2.3519 -0.7821
 1501SOL    HW215963   2.665   2.418  14.094 -0.5247  3.0287 -3.7370
 1502SOL     OW15964   3.968   0.011  17.566 -0.1631 -0.8224 -0.4172
 1502SOL    HW115965   3.923   0.084  17.525 -0.0205 -0.5652 -0.1148
 1502SOL    HW215966   4.018   4.701  17.492  1.7485 -2.9875  1.8340
 1503SOL     OW15967   1.144   0.480   4.860 -0.5392  0.1458  0.1289
 1503SOL    HW115968   1.182   0.401   4.821 -1.9634 -1.4933  2.0637
 1503SOL    HW215969   1.129   0.448   4.949  0.6099 -1.4867 -0.2696
 1504SOL     OW15970   3.206   4.012   3.200 -0.0128  0.2360  0.0926
 1504SOL    HW115971   3.221   4.088   3.143  0.3681 -0.7552 -1.1245
 1504SOL    HW215972   3.291   3.968   3.204 -0.2784 -0.3520 -0.6914
 1505SOL     OW15973   0.402   4.695  14.557  0.4285  0.2676 -0.0035
 1505SOL    HW115974   0.399   4.708  14.462 -1.7521 -0.3264 -0.0206
 1505SOL    HW215975   0.334   0.029  14.593 -2.4737 -1.4470 -2.8227
 1506SOL     OW15976   2.742   0.986  15.701 -0.0153 -0.0278 -0.4345
 1506SOL    HW115977   2.684   0.934  15.646 -1.1002  0.8740 -0.1447
 1506SOL    HW215978   2.691   1.055  15.743  0.4998  0.3757 -0.4638
 1507SOL     OW15979   4.181   2.241   2.913  0.3392 -0.3579 -0.2976
 1507SOL    HW115980   4.219   2.273   2.831  1.7963  0.0294  0.5211
 1507SOL    HW215981   4.221   2.154   2.916  1.7389  0.3023  0.4203
 1508SOL     OW15982   4.322   4.182   3.369  0.5668  0.3962  0.3505
 1508SOL    HW115983   4.282   4.198   3.284  1.2353  0.1513 -0.0195
 1508SOL    HW215984   4.414   4.166   3.346  0.8290  1.8432  0.4229
 1509SOL     OW15985   3.612   1.089   5.425  0.0259  0.3631  0.1093
 1509SOL    HW115986   3.662   1.008   5.411  0.0663  0.4932 -0.5343
 1509SOL    HW215987   3.661   1.149   5.367  0.8120  0.5453  0.9490
 1510SOL     OW15988   3.263   2.874   5.596  0.0629  0.2735 -0.1843
 1510SOL    HW115989   3.336   2.873   5.658  1.7634  0.2683 -2.1661
 1510SOL    HW215990   3.195   2.851   5.658  0.1798  0.3209 -0.0382
 1511SOL     OW15991   0.997   3.586   7.038  1.0539 -0.5954 -0.2160
 1511SOL    HW115992   1.068   3.600   6.974 -0.2697  2.8148 -0.9628
 1511SOL    HW215993   1.006   3.674   7.075  0.6449 -0.4281 -0.5100
 1512SOL     OW15994   1.624   2.087   2.707 -0.1002 -0.2733  0.1077
 1512SOL    HW115995   1.678   2.011   2.684 -0.5885 -0.6292  0.1373
 1512SOL    HW215996   1.639   2.086   2.802 -2.5234  1.4050  0.5044
 1513SOL     OW15997   3.733   3.726   5.593  0.4099 -0.0562  0.8589
 1513SOL    HW115998   3.771   3.652   5.641  1.1676 -0.8448 -0.9533
 1513SOL    HW215999   3.769   3.798   5.645  1.0318 -1.0019  1.7336
 1514SOL     OW16000   1.558   1.188   2.159  0.1477 -0.5816  0.4044
 1514SOL    HW116001   1.518   1.109   2.195  0.2121  0.1481  2.0705
 1514SOL    HW216002   1.613   1.145   2.094 -0.1042  0.2847 -0.3779
 1515SOL     OW16003   3.634   3.585   9.890 -0.6890 -0.0390 -0.2686
 1515SOL    HW116004   3.564   3.577   9.955 -0.8537 -0.9558 -0.5531
 1515SOL    HW216005   3.702   3.557   9.951  1.0236  1.8282 -1.3172
 1516SOL     OW16006   2.680   0.150   1.253 -0.3522  0.9137  0.2918
 1516SOL    HW116007   2.691   0.124   1.344  1.0787 -0.8887 -0.4044
 1516SOL    HW216008   2.737   0.090   1.205 -1.9073  0.0168 -0.4553
 1517SOL     OW16009   3.548   3.775  13.736  0.1956 -0.1923 -0.1039
 1517SOL    HW116010   3.530   3.683  13.719 -1.6838  0.3207 -0.9233
 1517SOL    HW216011   3.465   3.819  13.756 -0.3999 -0.7130 -1.4403
 1518SOL     OW16012   3.651   2.844   7.519 -0.1444 -0.3711  0.2660
 1518SOL    HW116013   3.722   2.812   7.464  1.6790  1.6449  1.4523
 1518SOL    HW216014   3.685   2.813   7.603 -1.4254  3.6263  2.2858
 1519SOL     OW16015   2.552   0.146  11.519  0.3876 -0.3283  0.1365
 1519SOL    HW116016   2.601   0.214  11.473  0.2405  0.6038  1.3698
 1519SOL    HW216017   2.520   0.191  11.597  0.5950 -0.3925  0.2576
 1520SOL     OW16018   0.039   3.274  12.567 -0.3328  0.0953  0.6359
 1520SOL    HW116019   4.701   3.226  12.623 -0.5243 -1.3730 -0.8328
 1520SOL    HW216020   4.705   3.294  12.493 -0.8983  2.2006  1.6203
 1521SOL     OW16021   4.057   2.337   3.531  0.2930  0.3554  0.5067
 1521SOL    HW116022   3.982   2.284   3.503 -0.4781  0.9374  1.4844
 1521SOL    HW216023   4.125   2.306   3.472 -1.8689  2.2339 -3.0104
 1522SOL     OW16024   0.801   3.517   7.723 -0.2473 -0.2700  0.3022
 1522SOL    HW116025   0.713   3.551   7.708 -0.1146  0.7799  1.9511
 1522SOL    HW216026   0.848   3.592   7.759  1.0986 -0.6273 -0.7517
 1523SOL     OW16027   0.878   2.775   2.335  0.5764  1.0097 -0.1792
 1523SOL    HW116028   0.916   2.858   2.366 -0.5828  1.4725  0.0103
 1523SOL    HW216029   0.961   2.727   2.333 -0.9867 -1.6976  0.0495
 1524SOL     OW16030   0.242   3.370  17.689  0.3337 -0.6465  0.1391
 1524SOL    HW116031   0.279   3.399   0.079 -3.6030 -1.1400  2.0274
 1524SOL    HW216032   0.272   3.441  17.632  0.7991  0.4623  1.7898
 1525SOL     OW16033   2.313   2.009   5.678 -0.2024  0.9378  0.1959
 1525SOL    HW116034   2.261   2.050   5.608  1.3596  0.3558 -1.3047
 1525SOL    HW216035   2.259   1.930   5.686  0.9929  0.0838 -0.1609
 1526SOL     OW16036   2.926   3.932  16.803  0.1972  0.1770  0.2456
 1526SOL    HW116037   2.839   3.968  16.821  0.8622  1.3146  1.2197
 1526SOL    HW216038   2.986   3.994  16.844  0.1259 -0.2950  1.0736
 1527SOL     OW16039   0.399   4.515   3.063 -0.4855  0.5849 -0.3571
 1527SOL    HW116040   0.455   4.594   3.065  0.2542  0.0876 -1.4411
 1527SOL    HW216041   0.408   4.495   2.970 -0.1619 -0.7664 -0.0372
 1528SOL     OW16042   0.918   3.352   3.417  0.4823  0.9963  0.5082
 1528SOL    HW116043   0.991   3.356   3.356  1.0211 -0.3387  1.0824
 1528SOL    HW216044   0.839   3.359   3.363  0.0767  1.2772  1.1269
 1529SOL     OW16045   0.249   1.744   7.684  0.2515 -0.4110  0.3212
 1529SOL    HW116046   0.229   1.721   7.594  1.5273  0.6936 -0.2390
 1529SOL    HW216047   0.176   1.704   7.732 -0.6107  0.9939  0.1736
 1530SOL     OW16048   3.873   4.212   8.689  0.4277 -0.5557  0.0498
 1530SOL    HW116049   3.813   4.197   8.762  1.0027 -0.4774  0.5289
 1530SOL    HW216050   3.943   4.248   8.742  0.8825 -0.6150 -0.5106
 1531SOL     OW16051   2.849   0.894   4.102  0.1662 -0.2217 -0.1648
 1531SOL    HW116052   2.878   0.946   4.177  0.8167 -1.6137  0.5386
 1531SOL    HW216053   2.933   0.853   4.082  0.4773 -0.3609  1.4720
 1532SOL     OW16054   4.617   1.420   5.679 -1.3599  0.3721 -0.6259
 1532SOL    HW116055   4.651   1.414   5.768  0.5976 -1.0890 -1.4666
 1532SOL    HW216056   4.654   1.343   5.635  0.9279  0.5518  0.9712
 1533SOL     OW16057   2.529   0.367   6.665 -0.1016  0.4798  0.7842
 1533SOL    HW116058   2.463   0.385   6.597 -1.4156 -1.8364  1.4567
 1533SOL    HW216059   2.482   0.289   6.696 -1.4981  1.5625  1.3965
 1534SOL     OW16060   1.424   1.528  11.827 -0.4587  0.0429 -0.2131
 1534SOL    HW116061   1.384   1.593  11.769  0.0676 -1.4050 -2.1989
 1534SOL    HW216062   1.488   1.586  11.867  1.1439 -3.0229  1.7291
 1535SOL     OW16063   3.876   3.401   1.907 -0.2782 -0.1183 -0.3928
 1535SOL    HW116064   3.803   3.382   1.848 -1.4039 -1.3783  1.4115
 1535SOL    HW216065   3.936   3.448   1.849 -0.8077  0.0350 -0.8112
 1536SOL     OW16066   0.573   4.109   4.622 -0.2912 -0.1852  0.3845
 1536SOL    HW116067   0.625   4.145   4.694  1.7394 -0.6853 -0.8325
 1536SOL    HW216068   0.628   4.134   4.548 -1.1022  1.4800  0.3488
 1537SOL     OW16069   3.339   0.890   0.716 -0.0893 -0.2800 -0.6822
 1537SOL    HW116070   3.312   0.809   0.673 -1.4266  0.6285 -1.5779
 1537SOL    HW216071   3.256   0.939   0.713 -1.0339 -1.8917 -0.6317
 1538SOL     OW16072   4.597   0.253  13.590  0.0135  0.0408 -0.4445
 1538SOL    HW116073   4.664   0.313  13.623 -0.8797  1.3933 -1.0825
 1538SOL    HW216074   4.547   0.304  13.526 -0.1881  3.0485  2.1316
 1539SOL     OW16075   3.174   2.325   8.189  0.1347 -0.7175  0.1583
 1539SOL    HW116076   3.267   2.327   8.211 -0.2935 -1.1075  1.9945
 1539SOL    HW216077   3.180   2.316   8.094 -1.1581 -0.3260  0.0364
 1540SOL     OW16078   3.834   4.591  12.845  0.1989 -0.1949 -0.3159
 1540SOL    HW116079   3.842   4.686  12.841  1.5483 -0.2906 -0.0336
 1540SOL    HW216080   3.841   4.564  12.753 -0.2210  0.2209 -0.4668
 1541SOL     OW16081   0.741   4.018  16.289 -0.6995  0.4569  0.2692
 1541SOL    HW116082   0.709   3.957  16.355 -0.4050  0.7845  0.7077
 1541SOL    HW216083   0.746   4.099  16.340  1.8323  0.8474 -0.6117
 1542SOL     OW16084   1.714   4.582  13.254  0.2587 -0.2287  0.6137
 1542SOL    HW116085   1.652   4.561  13.185  1.4493 -0.3591 -0.4131
 1542SOL    HW216086   1.714   4.677  13.245 -2.3627 -0.2952 -0.2188
 1543SOL     OW16087   1.007   3.395  13.244  0.3839  0.3218  0.2733
 1543SOL    HW116088   1.061   3.421  13.169 -0.3165 -1.5386 -0.8742
 1543SOL    HW216089   0.960   3.316  13.216  1.2704  0.0759 -0.5302
 1544SOL     OW16090   2.580   2.914   6.325  0.0811 -0.5420 -0.7848
 1544SOL    HW116091   2.503   2.953   6.284  0.2294 -0.5761 -1.0965
 1544SOL    HW216092   2.594   2.839   6.267  0.7960 -0.9374 -0.0923
 1545SOL     OW16093   1.863   4.638   4.891  0.2706 -0.1663  0.0680
 1545SOL    HW116094   1.914   4.565   4.856 -0.8369 -1.3690  0.9535
 1545SOL    HW216095   1.808   4.660   4.816 -3.0508 -2.6706  1.7618
 1546SOL     OW16096   1.180   4.274   2.911 -0.6441  0.0352 -0.6086
 1546SOL    HW116097   1.233   4.352   2.892 -1.4342  0.8618  0.5702
 1546SOL    HW216098   1.230   4.201   2.876  1.7154  1.9493 -1.1955
 1547SOL     OW16099   0.691   3.438   6.763 -0.0277 -0.7171 -0.1175
 1547SOL    HW116100   0.774   3.409   6.800 -0.1269 -1.0602 -0.1661
 1547SOL    HW216101   0.710   3.440   6.669  0.3518 -1.7326 -0.0569
 1548SOL     OW16102   4.140   3.589   2.810  0.6436 -0.1223  0.1598
 1548SOL    HW116103   4.087   3.632   2.743 -0.4996 -0.2037  0.9956
 1548SOL    HW216104   4.107   3.645   2.880 -0.0588 -2.2961  1.5864
 1549SOL     OW16105   1.320   3.798   2.823 -0.3525  0.1677 -0.1059
 1549SOL    HW116106   1.359   3.727   2.875 -0.4781 -1.5690 -2.4173
 1549SOL    HW216107   1.343   3.782   2.732 -0.6576 -0.5463 -0.0554
 1550SOL     OW16108   0.845   3.068   9.123  0.5169  0.2701  0.2912
 1550SOL    HW116109   0.750   3.074   9.123  0.6105  2.0173 -3.0718
 1550SOL    HW216110   0.861   3.069   9.217  0.6331 -0.7791  0.2842
 1551SOL     OW16111   0.949   0.746   6.322  0.3295 -0.1756 -0.2823
 1551SOL    HW116112   0.985   0.832   6.347 -1.5203  1.3301 -2.7932
 1551SOL    HW216113   0.889   0.741   6.397  1.0490  0.8772  0.3714
 1552SOL     OW16114   2.843   1.232   3.680 -0.0221 -1.1178 -0.0718
 1552SOL    HW116115   2.876   1.313   3.641 -1.2900  0.7445  2.7140
 1552SOL    HW216116   2.793   1.267   3.754 -1.0822 -1.0947 -0.7871
 1553SOL     OW16117   2.290   3.465   0.176  0.1400 -0.4651  0.4795
 1553SOL    HW116118   2.199   3.477   0.148  0.1842 -0.1280  0.4816
 1553SOL    HW216119   2.320   3.556   0.167 -0.3539 -0.4269 -0.8690
 1554SOL     OW16120   1.763   3.938   1.575 -0.2646  0.3309  0.2141
 1554SOL    HW116121   1.797   3.864   1.525 -0.4244 -0.5776  1.4638
 1554SOL    HW216122   1.710   3.974   1.503  0.2698 -2.0102 -1.3636
 1555SOL     OW16123   3.264   0.219   7.289 -0.3755 -0.2607 -0.1968
 1555SOL    HW116124   3.323   0.170   7.347  0.8669  0.6972 -0.6571
 1555SOL    HW216125   3.190   0.222   7.351 -1.0050  1.1994 -1.0288
 1556SOL     OW16126   2.962   1.621   4.704 -0.1977  0.3915 -0.2211
 1556SOL    HW116127   3.025   1.602   4.635  0.5062 -0.0725  0.5591
 1556SOL    HW216128   2.906   1.545   4.688  1.6244 -0.8376 -0.7112
 1557SOL     OW16129   4.042   0.201   5.012  0.0620 -0.3250  0.6606
 1557SOL    HW116130   4.047   0.177   4.919  0.1729  0.0971  0.5606
 1557SOL    HW216131   4.095   0.129   5.047  0.0926 -1.2812 -1.3128
 1558SOL     OW16132   1.187   0.392   0.052 -0.0046  0.0402  0.4273
 1558SOL    HW116133   1.253   0.447   0.010 -1.4195  1.2695 -0.1911
 1558SOL    HW216134   1.214   0.304   0.027 -0.4149  0.2339 -0.6572
 1559SOL     OW16135   1.816   3.002  16.997  0.5519  0.9036 -0.5696
 1559SOL    HW116136   1.798   3.072  17.060 -2.6977 -0.6529  0.2635
 1559SOL    HW216137   1.897   3.036  16.959  1.6610  0.4857  1.4371
 1560SOL     OW16138   2.171   3.520   5.908 -0.3409  0.9028  0.1871
 1560SOL    HW116139   2.129   3.466   5.974 -1.3605  0.2942 -0.9595
 1560SOL    HW216140   2.248   3.542   5.960  1.8641  1.1141 -3.1406
 1561SOL     OW16141   3.677   2.620  10.824 -0.6324  0.4297  0.1466
 1561SOL    HW116142   3.607   2.554  10.825 -1.2309  1.0607 -0.3754
 1561SOL    HW216143   3.634   2.676  10.759 -2.0243  0.8618  1.4533
 1562SOL     OW16144   3.537   3.525  14.183  0.1454  0.3648 -0.3288
 1562SOL    HW116145   3.469   3.576  14.228 -0.2914  0.8718 -1.5685
 1562SOL    HW216146   3.575   3.587  14.122  0.7718 -0.8250 -1.1366
 1563SOL     OW16147   3.787   1.993   2.496 -0.1452 -0.5535 -0.6732
 1563SOL    HW116148   3.850   1.989   2.568  0.2109 -0.9617 -1.0046
 1563SOL    HW216149   3.834   1.969   2.416  0.2292 -0.5439 -0.4563
 1564SOL     OW16150   0.881   0.219   1.927 -0.6362  0.0024  0.0331
 1564SOL    HW116151   0.863   0.233   2.019 -0.7761 -0.0100  0.0074
 1564SOL    HW216152   0.840   0.136   1.901  1.0746 -0.8117 -0.0870
 1565SOL     OW16153   1.810   3.612  12.050  0.1429  0.8643 -0.6049
 1565SOL    HW116154   1.884   3.582  12.103 -0.4376  0.2610 -0.1361
 1565SOL    HW216155   1.774   3.527  12.028  2.1125  0.3190 -1.7241
 1566SOL     OW16156   4.525   0.772  14.784  0.3242  0.2356  0.3017
 1566SOL    HW116157   4.555   0.816  14.864  1.6402 -3.5096  1.8752
 1566SOL    HW216158   4.598   0.784  14.723 -0.3180 -0.2391 -0.5511
 1567SOL     OW16159   1.861   1.501   8.399 -0.0847 -0.4946  0.4675
 1567SOL    HW116160   1.785   1.450   8.371  0.2505 -1.6749  1.6484
 1567SOL    HW216161   1.929   1.440   8.369 -0.8980  0.1124 -2.6444
 1568SOL     OW16162   1.595   3.644   8.019  0.2966  0.4071 -0.1813
 1568SOL    HW116163   1.537   3.665   7.945 -1.2123 -1.1185  0.5686
 1568SOL    HW216164   1.579   3.550   8.012 -0.6354  0.4388  1.5288
 1569SOL     OW16165   1.191   4.055   9.864  0.2503 -0.7007 -0.3601
 1569SOL    HW116166   1.262   4.010   9.819  0.4250 -0.3076 -0.4834
 1569SOL    HW216167   1.173   4.004   9.943 -0.3489 -2.4778 -1.6515
 1570SOL     OW16168   2.518   2.573   7.574 -0.1839  0.1780  0.1829
 1570SOL    HW116169   2.436   2.560   7.525 -1.0615  0.5697  1.5349
 1570SOL    HW216170   2.482   2.580   7.662 -1.1192 -0.9914 -0.0963
 1571SOL     OW16171   3.488   1.396   6.487 -0.4741 -0.2085 -0.1949
 1571SOL    HW116172   3.512   1.325   6.546  0.2161 -1.2986 -1.7653
 1571SOL    HW216173   3.412   1.424   6.538  0.7930  2.4316  0.2640
 1572SOL     OW16174   0.097   0.532   2.328 -0.4086  0.3661 -0.0892
 1572SOL    HW116175   0.165   0.591   2.296 -0.7575  0.0920 -1.3755
 1572SOL    HW216176   0.116   0.455   2.275 -1.2045 -1.4264  2.2475
 1573SOL     OW16177   3.467   2.505   3.880  0.7212  0.4441 -0.7584
 1573SOL    HW116178   3.521   2.490   3.802 -0.1503 -1.8910 -0.9247
 1573SOL    HW216179   3.376   2.493   3.855  0.6680 -0.5952 -0.0479
 1574SOL     OW16180   0.977   4.149   9.180 -0.1896  0.5550  0.8706
 1574SOL    HW116181   0.898   4.108   9.215 -0.4838  1.7301  1.5884
 1574SOL    HW216182   0.990   4.221   9.241  0.4304  0.8955  0.3393
 1575SOL     OW16183   2.240   2.076   3.283  0.2270  0.1749 -0.6559
 1575SOL    HW116184   2.293   2.066   3.363 -0.1034 -0.5941 -0.5297
 1575SOL    HW216185   2.311   2.083   3.220  1.2827  1.8032  0.7288
 1576SOL     OW16186   2.624   3.650  13.274 -0.8232  0.3905  0.2905
 1576SOL    HW116187   2.710   3.656  13.316 -1.2519  0.8895  1.0738
 1576SOL    HW216188   2.570   3.710  13.325 -0.4472 -0.2709  1.4567
 1577SOL     OW16189   1.430   2.875   4.289  0.2789 -0.2407  0.2503
 1577SOL    HW116190   1.335   2.876   4.284  0.3172 -0.1407 -0.4532
 1577SOL    HW216191   1.443   2.886   4.195  1.6997  2.5334  0.7734
 1578SOL     OW16192   1.313   1.217   6.858  0.3660  0.6584 -0.0399
 1578SOL    HW116193   1.294   1.310   6.871 -1.6489 -0.0295  2.0984
 1578SOL    HW216194   1.308   1.217   6.763  0.1805 -2.1807 -0.0220
 1579SOL     OW16195   0.968   4.566   6.975 -0.2310  0.0110  0.3670
 1579SOL    HW116196   0.955   4.599   6.886 -1.6987  0.8875  0.9019
 1579SOL    HW216197   1.061   4.548   6.988  0.1079  0.4382 -1.5762
 1580SOL     OW16198   2.747   1.802   1.553  0.2597 -0.1604  0.2826
 1580SOL    HW116199   2.798   1.744   1.496  0.1449 -0.8170  0.8486
 1580SOL    HW216200   2.676   1.837   1.499 -2.2050 -3.2793  1.5430
 1581SOL     OW16201   0.241   3.497   0.265 -0.2586  0.3725  0.1931
 1581SOL    HW116202   0.228   3.514   0.359 -0.2009 -0.8271  0.4164
 1581SOL    HW216203   0.187   3.570   0.234 -2.5952 -0.9458  1.1487
 1582SOL     OW16204   0.319   4.566   6.635  0.0103  0.0773 -0.2181
 1582SOL    HW116205   0.393   4.507   6.621 -0.2523 -0.3880  0.3807
 1582SOL    HW216206   0.362   4.634   6.688  0.5149 -0.2675 -0.1864
 1583SOL     OW16207   0.630   4.689  15.558 -0.0458 -0.2441 -0.1715
 1583SOL    HW116208   0.672   4.677  15.473  1.1216 -0.2657  0.4028
 1583SOL    HW216209   0.684   4.631  15.611 -1.1682  0.3486  1.6339
 1584SOL     OW16210   2.190   0.653  17.013 -0.5604 -0.2771 -0.1088
 1584SOL    HW116211   2.276   0.610  17.008  0.2070  1.1464  0.4842
 1584SOL    HW216212   2.196   0.727  16.953 -0.0685  0.1001  0.3982
 1585SOL     OW16213   3.270   4.293   7.094 -0.2138 -0.1722 -0.3005
 1585SOL    HW116214   3.236   4.224   7.151 -1.5119  0.1544 -0.6636
 1585SOL    HW216215   3.185   4.322   7.059 -0.1275  0.9413  0.4298
 1586SOL     OW16216   0.633   1.438  10.195  0.1459 -0.1543  0.6671
 1586SOL    HW116217   0.574   1.512  10.206  0.7298  0.7748 -2.4632
 1586SOL    HW216218   0.711   1.491  10.179 -1.1243  1.3530 -0.3998
 1587SOL     OW16219   0.895   1.371  14.453 -0.8491  0.1825  0.1292
 1587SOL    HW116220   0.866   1.462  14.460 -1.1603  0.1326 -0.5920
 1587SOL    HW216221   0.986   1.374  14.485 -0.6045 -1.8068 -0.3769
 1588SOL     OW16222   3.041   4.396   8.947 -0.5788 -0.4979 -0.2143
 1588SOL    HW116223   3.061   4.323   9.006 -0.0730 -0.6275 -0.5510
 1588SOL    HW216224   2.949   4.407   8.970 -1.0044 -1.1917 -1.5901
 1589SOL     OW16225   3.315   1.946   4.043 -0.2256 -0.3380 -0.0379
 1589SOL    HW116226   3.236   1.894   4.025 -0.5314 -0.2405  1.0283
 1589SOL    HW216227   3.315   1.949   4.139  0.6052  2.3156 -0.1379
 1590SOL     OW16228   3.021   3.496   9.177  0.0796 -0.1741  0.1437
 1590SOL    HW116229   3.086   3.566   9.163 -0.8823  0.8186  0.6736
 1590SOL    HW216230   2.982   3.498   9.090  0.8097  0.6742 -0.1701
 1591SOL     OW16231   3.441   1.553   2.685 -0.3292 -0.6917 -0.1217
 1591SOL    HW116232   3.367   1.555   2.625 -0.5897  0.0273  0.2233
 1591SOL    HW216233   3.515   1.573   2.628  2.7153 -1.1401  3.5940
 1592SOL     OW16234   3.198   0.476   2.338 -0.2900 -0.1156  0.0677
 1592SOL    HW116235   3.169   0.529   2.412  0.6031 -0.2619  0.5242
 1592SOL    HW216236   3.275   0.524   2.308 -1.0140 -0.4978 -2.3412
 1593SOL     OW16237   0.252   2.563  17.216 -0.3299  0.3412  0.7515
 1593SOL    HW116238   0.243   2.468  17.225  0.2511  0.1012 -1.1493
 1593SOL    HW216239   0.337   2.562  17.172 -0.7121  0.3052  0.0080
 1594SOL     OW16240   4.361   1.445  11.963  0.3614 -0.1388  0.3867
 1594SOL    HW116241   4.390   1.483  11.880 -0.7314 -2.7651 -1.2189
 1594SOL    HW216242   4.284   1.393  11.940  0.2484  0.2785 -0.1732
 1595SOL     OW16243   1.931   0.160   5.954 -0.3742 -0.2731 -0.4206
 1595SOL    HW116244   1.864   0.208   6.002 -2.5718 -2.0479 -1.6845
 1595SOL    HW216245   1.919   0.071   5.987 -1.2417  0.3152  0.8270
 1596SOL     OW16246   3.025   1.593   9.021 -0.0092 -0.2482 -0.2105
 1596SOL    HW116247   3.034   1.667   8.960 -1.6071  0.8984  0.9735
 1596SOL    HW216248   3.100   1.539   8.996  0.9179  0.7542  0.4223
 1597SOL     OW16249   1.091   2.658   5.719 -0.4639  0.2959 -0.6780
 1597SOL    HW116250   1.162   2.694   5.667  2.5706 -2.5437  1.4854
 1597SOL    HW216251   1.098   2.564   5.703  0.5827  0.4293 -1.0236
 1598SOL     OW16252   4.056   0.727   3.637  0.8290 -0.3071  0.0709
 1598SOL    HW116253   3.989   0.659   3.648 -1.6436  1.8873 -1.3589
 1598SOL    HW216254   4.045   0.789   3.709 -2.5670  0.6540 -1.2874
 1599SOL     OW16255   2.366   4.597   5.475  0.2862  0.3392 -0.3852
 1599SOL    HW116256   2.314   4.598   5.555  0.2801 -0.6505 -0.3757
 1599SOL    HW216257   2.426   4.668   5.495 -0.5312  1.2659 -1.2500
 1600SOL     OW16258   1.318   0.054   4.026  0.3362 -0.1177 -0.5508
 1600SOL    HW116259   1.300   0.137   3.980  0.7428  0.9019  1.1217
 1600SOL    HW216260   1.248   0.059   4.091  0.9956  2.5267 -0.0080
 1601SOL     OW16261   2.553   3.293  12.024 -0.3475 -0.8050 -0.0676
 1601SOL    HW116262   2.484   3.320  11.963 -0.4267  0.8089  0.7620
 1601SOL    HW216263   2.593   3.379  12.034 -0.8561 -0.7539  1.4197
 1602SOL     OW16264   3.858   1.925   4.631 -0.1175 -0.5208  0.0448
 1602SOL    HW116265   3.930   1.885   4.680 -1.0625  1.0447  2.7053
 1602SOL    HW216266   3.803   1.955   4.703  0.1244 -1.2436  0.5317
 1603SOL     OW16267   1.100   1.320   8.164 -0.8195  0.0434 -0.4406
 1603SOL    HW116268   1.036   1.256   8.196 -1.6180  1.8340  1.6252
 1603SOL    HW216269   1.060   1.402   8.194  3.6700  1.7798  0.7603
 1604SOL     OW16270   1.673   4.023  12.716 -0.8229 -0.2502 -0.5395
 1604SOL    HW116271   1.625   4.034  12.634 -3.9832  0.6195  1.3988
 1604SOL    HW216272   1.747   4.080  12.697 -0.4638 -0.4069  0.3936
 1605SOL     OW16273   3.406   0.724   5.158 -0.2318  0.1538 -0.0529
 1605SOL    HW116274   3.464   0.730   5.234 -3.1868  0.2832  2.2019
 1605SOL    HW216275   3.445   0.656   5.103  0.5375 -0.1151  0.8204
 1606SOL     OW16276   3.690   2.829   3.958 -0.0990 -0.0541 -0.6422
 1606SOL    HW116277   3.720   2.810   4.047 -1.2949 -0.1662 -0.2593
 1606SOL    HW216278   3.664   2.920   3.974 -0.3428  0.1102 -1.9209
 1607SOL     OW16279   3.413   1.716   9.916  0.4303  0.3747  0.4775
 1607SOL    HW116280   3.464   1.693   9.838 -1.6279  0.7527 -0.9695
 1607SOL    HW216281   3.372   1.633   9.939  2.7329 -0.9527 -0.2370
 1608SOL     OW16282   3.868   4.520  15.183 -0.5083  0.1891 -0.3162
 1608SOL    HW116283   3.844   4.496  15.093 -2.2656 -2.1598  0.7579
 1608SOL    HW216284   3.928   4.594  15.174 -0.5319  0.3599  0.9199
 1609SOL     OW16285   3.406   4.050   3.541 -0.2672 -0.2095  0.1252
 1609SOL    HW116286   3.412   3.964   3.582  1.9827  0.3211  0.9246
 1609SOL    HW216287   3.495   4.083   3.555 -0.9263  1.1932  0.8995
 1610SOL     OW16288   3.625   2.275   7.331 -0.3805 -0.1876  0.3558
 1610SOL    HW116289   3.560   2.331   7.289  0.6937 -0.2344 -1.3896
 1610SOL    HW216290   3.565   2.216   7.376 -0.6545  0.5401  0.9494
 1611SOL     OW16291   0.293   0.694   0.250 -0.0028  0.3431  0.0505
 1611SOL    HW116292   0.212   0.653   0.282  0.8305 -2.2829 -1.1993
 1611SOL    HW216293   0.347   0.682   0.328  0.3440  0.9532 -0.0986
 1612SOL     OW16294   4.605   1.635   0.343 -0.4801 -0.2990  0.2011
 1612SOL    HW116295   4.552   1.702   0.386  1.0646  0.8930  0.2278
 1612SOL    HW216296   4.602   1.657   0.250  1.3526 -0.0223  0.2033
 1613SOL     OW16297   4.249   4.115   9.398  0.1268 -0.1081 -0.3795
 1613SOL    HW116298   4.289   4.188   9.445 -0.2804  0.7289 -1.3479
 1613SOL    HW216299   4.196   4.065   9.461 -0.2060 -1.0976 -1.4489
 1614SOL     OW16300   2.995   0.259  11.034  0.1791  0.2545 -0.2104
 1614SOL    HW116301   3.087   0.264  11.005 -0.6884  4.2960 -2.2002
 1614SOL    HW216302   2.971   0.346  11.002  0.4499 -0.2026 -1.6508
 1615SOL     OW16303   4.250   2.198  15.554 -0.1548 -0.1747 -0.4110
 1615SOL    HW116304   4.227   2.290  15.552  0.1366 -0.1792 -2.9818
 1615SOL    HW216305   4.170   2.153  15.527 -0.6325  0.9507 -0.8219
 1616SOL     OW16306   3.937   3.272   6.294 -0.2008 -0.1352  0.1597
 1616SOL    HW116307   3.882   3.265   6.216  0.0291  2.0045 -0.1914
 1616SOL    HW216308   4.012   3.325   6.267  0.1212 -0.2147  0.9070
 1617SOL     OW16309   1.803   0.646   0.212 -0.0380 -0.0742  0.1473
 1617SOL    HW116310   1.897   0.648   0.193 -0.3401  2.2850 -1.1234
 1617SOL    HW216311   1.774   0.715   0.152  2.4645 -0.5697 -1.6133
 1618SOL     OW16312   3.634   1.002   3.931  0.4071 -0.4011  0.4713
 1618SOL    HW116313   3.683   1.066   3.879 -1.2193  0.8259  0.4482
 1618SOL    HW216314   3.664   1.027   4.018  1.8024  0.8366 -0.3542
 1619SOL     OW16315   2.020   3.187  16.921 -0.7084 -0.5938  0.0753
 1619SOL    HW116316   2.015   3.227  17.008  0.1034  0.8322 -0.5311
 1619SOL    HW216317   2.111   3.158  16.908 -0.3864  0.4921 -0.0948
 1620SOL     OW16318   3.590   2.464  14.484 -0.0606  0.2309 -0.1426
 1620SOL    HW116319   3.503   2.431  14.460  0.2071 -1.1800  0.8534
 1620SOL    HW216320   3.584   2.555  14.513  2.4633 -0.2164  1.7591
 1621SOL     OW16321   3.441   1.114   2.741 -0.2047 -0.0344  0.5721
 1621SOL    HW116322   3.469   1.078   2.825  0.1476 -0.1509  0.4067
 1621SOL    HW216323   3.502   1.072   2.679  0.6773  3.4332 -0.8940
 1622SOL     OW16324   4.227   3.268   9.470  1.0963 -0.3396  0.6903
 1622SOL    HW116325   4.168   3.286   9.397  0.5147  0.7349  1.4378
 1622SOL    HW216326   4.193   3.185   9.503 -0.9123 -0.0199 -0.6207
 1623SOL     OW16327   1.754   0.595  17.390  0.5590  0.7538 -0.8423
 1623SOL    HW116328   1.821   0.651  17.430 -1.5145  3.1960 -0.8056
 1623SOL    HW216329   1.798   0.552  17.316  2.0012  0.0356  0.4434
 1624SOL     OW16330   4.717   0.901   5.415 -0.1014 -0.5116  0.1312
 1624SOL    HW116331   4.627   0.881   5.391 -0.3143  0.8475 -0.2094
 1624SOL    HW216332   0.046   0.864   5.343  0.6357 -0.8976  0.8543
 1625SOL     OW16333   1.248   4.260   9.413  0.2249  0.1774  0.3053
 1625SOL    HW116334   1.284   4.199   9.347  2.0750  1.9439 -0.3126
 1625SOL    HW216335   1.165   4.218   9.436  0.5993 -0.1679  1.0243
 1626SOL     OW16336   1.871   1.804   1.229 -0.0208 -0.0300 -0.0265
 1626SOL    HW116337   1.811   1.759   1.170  3.0497 -1.8840 -1.7302
 1626SOL    HW216338   1.949   1.755   1.205  0.2529 -0.3764  1.5355
 1627SOL     OW16339   2.217   3.559   7.714  0.4130  0.4790  0.2441
 1627SOL    HW116340   2.181   3.500   7.780  1.3208 -1.3173 -0.8550
 1627SOL    HW216341   2.140   3.610   7.690 -1.0916 -1.8758  0.0760
 1628SOL     OW16342   3.658   4.101   2.418 -0.2791  0.0295  0.5737
 1628SOL    HW116343   3.752   4.111   2.436 -0.2468 -0.7286  0.8408
 1628SOL    HW216344   3.624   4.187   2.395 -2.2232 -0.5579  1.2274
 1629SOL     OW16345   2.852   0.858   4.650  0.2605 -0.1836  0.3280
 1629SOL    HW116346   2.776   0.900   4.689  0.5738  1.2378 -0.6016
 1629SOL    HW216347   2.816   0.774   4.623 -0.4820  0.0670  0.5533
 1630SOL     OW16348   0.898   2.848   5.769 -0.5087 -0.5615 -0.0417
 1630SOL    HW116349   0.949   2.773   5.737  0.1669  0.2948 -0.9620
 1630SOL    HW216350   0.876   2.881   5.682  0.9405 -0.0765 -0.2124
 1631SOL     OW16351   0.915   0.907  13.245 -0.0622  0.3505  0.2154
 1631SOL    HW116352   0.900   0.976  13.179 -0.1721 -0.2251 -0.3638
 1631SOL    HW216353   0.921   0.963  13.322  2.0570  0.9170 -0.3580
 1632SOL     OW16354   2.933   1.229  11.583  0.7399  0.2213 -0.1163
 1632SOL    HW116355   2.999   1.283  11.538  1.0519 -1.0922 -1.2466
 1632SOL    HW216356   2.852   1.252  11.538 -0.1219  0.2048  1.4463
 1633SOL     OW16357   3.699   1.726  10.660  0.7097 -0.0679  0.1610
 1633SOL    HW116358   3.708   1.784  10.585  0.8874 -1.8976 -1.2338
 1633SOL    HW216359   3.733   1.647  10.619  1.7614  0.0293  0.8211
 1634SOL     OW16360   4.345   4.679   1.654  0.4517 -0.2644 -0.0851
 1634SOL    HW116361   4.259   4.637   1.653 -1.5327  3.7739  1.6799
 1634SOL    HW216362   4.362   4.697   1.561  0.9126 -1.2658 -0.1897
 1635SOL     OW16363   1.630   1.127   5.857 -0.2739  0.2447  0.6808
 1635SOL    HW116364   1.705   1.159   5.909  1.1254 -0.0146 -1.1635
 1635SOL    HW216365   1.571   1.201   5.849 -1.8725 -0.6554  4.1826
 1636SOL     OW16366   2.250   3.957   5.639 -0.1741  0.0399  0.0341
 1636SOL    HW116367   2.187   3.951   5.567  1.9914  1.3153 -1.9594
 1636SOL    HW216368   2.209   3.899   5.704 -1.6215  1.3278  0.2902
 1637SOL     OW16369   3.279   3.441   8.109  0.2619  0.5835  0.8167
 1637SOL    HW116370   3.350   3.495   8.143 -0.4905  2.2194 -0.2050
 1637SOL    HW216371   3.227   3.514   8.074 -0.1532 -0.2970 -0.4030
 1638SOL     OW16372   4.217   0.088   5.360 -0.7771  0.0903  0.1925
 1638SOL    HW116373   4.127   0.122   5.358 -1.2157 -0.9156  2.0767
 1638SOL    HW216374   4.203   4.716   5.360 -0.8232  0.0958  0.6445
 1639SOL     OW16375   1.841   0.681   3.025  0.4840  0.6079  0.2732
 1639SOL    HW116376   1.746   0.686   3.025  0.3788 -1.2663 -0.5405
 1639SOL    HW216377   1.859   0.753   2.965 -1.4116  1.2557  0.5055
 1640SOL     OW16378   3.335   2.446  14.397  0.4454  0.4841  0.1242
 1640SOL    HW116379   3.348   2.400  14.314  2.7505  0.1482  0.6688
 1640SOL    HW216380   3.249   2.417  14.428  0.8175  1.7570  2.3381
 1641SOL     OW16381   0.215   0.124   7.532 -0.1959 -0.5494  0.1292
 1641SOL    HW116382   0.196   0.061   7.462 -0.5328  0.0196 -0.2986
 1641SOL    HW216383   0.300   0.091   7.560  0.1256 -0.8767 -1.2163
 1642SOL     OW16384   2.159   0.840   3.190  0.5786  0.1064  0.3989
 1642SOL    HW116385   2.169   0.751   3.158  0.3174  0.8892 -1.9100
 1642SOL    HW216386   2.099   0.833   3.264 -0.0955  0.1612 -0.1343
 1643SOL     OW16387   2.993   2.012  17.054  0.0902  0.3637  0.3507
 1643SOL    HW116388   2.998   1.929  17.101 -1.3958 -0.7577 -1.4782
 1643SOL    HW216389   3.063   2.002  16.988  0.8056  2.3010  0.8187
 1644SOL     OW16390   0.887   3.710   6.773 -0.1588 -0.1069 -0.0923
 1644SOL    HW116391   0.848   3.668   6.696  0.5823 -0.1003 -0.4750
 1644SOL    HW216392   0.819   3.711   6.840  0.2468  0.2921  0.3122
 1645SOL     OW16393   3.094   2.308  14.376  0.0373  0.4078 -0.5582
 1645SOL    HW116394   3.058   2.363  14.306  1.4095  1.1254 -0.7033
 1645SOL    HW216395   3.137   2.239  14.325 -1.9694 -0.9702 -0.3668
 1646SOL     OW16396   1.644   4.678   0.834 -0.6279 -0.5371  0.0524
 1646SOL    HW116397   1.694   0.005   0.770 -0.8297 -0.1845  0.1702
 1646SOL    HW216398   1.704   4.662   0.906  0.9137 -0.8783 -1.3064
 1647SOL     OW16399   0.302   0.872   2.460 -0.4677  0.3750  0.1779
 1647SOL    HW116400   0.355   0.880   2.540  0.4273 -0.8544 -0.2995
 1647SOL    HW216401   0.257   0.956   2.474  2.3944  1.9695 -0.1888
 1648SOL     OW16402   1.185   2.533   2.825  0.0759 -0.1682 -0.8433
 1648SOL    HW116403   1.219   2.593   2.891  2.2991 -0.1259 -2.0451
 1648SOL    HW216404   1.244   2.459   2.836  0.1046 -0.1920 -1.1325
 1649SOL     OW16405   2.276   3.757  15.905 -0.0759  0.0493  0.3203
 1649SOL    HW116406   2.341   3.777  15.973  1.2099 -2.1107 -0.2615
 1649SOL    HW216407   2.253   3.842  15.869  0.8241 -0.5305 -1.6208
 1650SOL     OW16408   3.474   0.540   5.379  0.2118  0.1081 -0.6610
 1650SOL    HW116409   3.391   0.506   5.345 -0.9107  0.5284  1.6589
 1650SOL    HW216410   3.531   0.480   5.332 -0.0187 -0.6098 -0.0163
 1651SOL     OW16411   2.371   1.244  17.631  0.6717 -0.1766 -0.0031
 1651SOL    HW116412   2.365   1.172   0.000 -4.8778 -1.3498 -1.8624
 1651SOL    HW216413   2.406   1.316  17.683 -0.1023  0.0385  0.2148
 1652SOL     OW16414   4.310   3.135  10.950 -0.2449  0.4418 -0.3249
 1652SOL    HW116415   4.342   3.128  11.040  1.9500  1.6368 -1.0006
 1652SOL    HW216416   4.219   3.113  10.970  0.0236  0.9125  1.3662
 1653SOL     OW16417   2.011   4.562   4.087  0.1124  0.5237  0.2804
 1653SOL    HW116418   2.073   4.509   4.136 -0.3768 -0.3525 -0.0498
 1653SOL    HW216419   2.010   4.528   3.997  0.1244 -2.1967  1.3106
 1654SOL     OW16420   3.082   1.359   3.365  0.3892 -0.0443 -0.0769
 1654SOL    HW116421   3.061   1.411   3.287  1.7125  0.5768 -0.0158
 1654SOL    HW216422   3.176   1.377   3.366  0.3351  0.2179  0.6570
 1655SOL     OW16423   0.256   1.962   7.090 -0.3702  0.5512 -0.2985
 1655SOL    HW116424   0.352   1.969   7.090 -0.4482  1.6453 -0.1969
 1655SOL    HW216425   0.247   1.869   7.068  0.2373  0.2585  0.6792
 1656SOL     OW16426   3.590   3.333   7.582 -0.2784 -0.1309  0.1379
 1656SOL    HW116427   3.575   3.310   7.491 -1.0767  1.2843 -0.0818
 1656SOL    HW216428   3.593   3.247   7.625  2.4263  0.5231  1.2856
 1657SOL     OW16429   4.583   3.727   8.146 -0.1797 -0.1625  0.1072
 1657SOL    HW116430   4.583   3.631   8.154  1.1750  0.0016  2.1179
 1657SOL    HW216431   4.655   3.742   8.086 -0.5079  0.9437  0.0007
 1658SOL     OW16432   3.455   2.643   4.833  0.1026 -0.6883  0.1886
 1658SOL    HW116433   3.452   2.582   4.759 -0.5970  0.7012 -0.9417
 1658SOL    HW216434   3.398   2.605   4.899 -1.6911  0.3432 -0.7768
 1659SOL     OW16435   0.469   4.569   5.482  0.1369 -0.3683 -0.6915
 1659SOL    HW116436   0.375   4.587   5.470  0.2036 -0.4050 -1.2791
 1659SOL    HW216437   0.463   4.522   5.565  2.3349 -1.2880 -1.0594
 1660SOL     OW16438   1.587   3.740   6.484  0.4788 -0.1535 -0.1218
 1660SOL    HW116439   1.525   3.741   6.556  0.8707  0.5941  0.2129
 1660SOL    HW216440   1.611   3.647   6.490  2.2751  0.0584 -4.0575
 1661SOL     OW16441   4.324   2.454  14.036 -0.0190 -0.1996 -0.8275
 1661SOL    HW116442   4.236   2.418  14.027  0.1058 -0.9139  0.8443
 1661SOL    HW216443   4.310   2.544  14.007 -0.9695  0.1029  0.5527
 1662SOL     OW16444   4.455   2.069  10.889 -0.7007  0.6160  0.1996
 1662SOL    HW116445   4.396   2.136  10.924  0.1162  1.2399  0.3758
 1662SOL    HW216446   4.525   2.126  10.857 -0.0639  0.2017  0.8764
 1663SOL     OW16447   3.301   2.943   8.508 -0.1021 -0.5229  0.2024
 1663SOL    HW116448   3.288   2.950   8.602  2.5722 -1.0196  0.6062
 1663SOL    HW216449   3.326   3.033   8.487 -1.4519 -0.6322 -1.9400
 1664SOL     OW16450   3.650   4.539   2.561  0.5653 -0.8325 -0.5493
 1664SOL    HW116451   3.709   4.598   2.607  0.7403 -0.4175 -1.3104
 1664SOL    HW216452   3.653   4.560   2.467  2.5534  0.5778 -0.1568
 1665SOL     OW16453   3.499   1.122   3.275 -0.1786  0.5357  0.2349
 1665SOL    HW116454   3.451   1.173   3.340 -0.9858  0.1066 -0.0244
 1665SOL    HW216455   3.476   1.036   3.310 -1.0070  1.0715  0.9941
 1666SOL     OW16456   0.204   4.461  12.000  0.2112 -0.0371  0.3230
 1666SOL    HW116457   0.163   4.420  12.076  0.7953 -0.8507  0.2061
 1666SOL    HW216458   0.129   4.508  11.965 -0.1121 -0.5432  0.3435
 1667SOL     OW16459   4.092   3.325   2.934  0.1601  0.2356 -0.4482
 1667SOL    HW116460   4.008   3.309   2.890 -0.5919 -1.1856  1.5020
 1667SOL    HW216461   4.106   3.415   2.904  2.3288  0.5878  1.6145
 1668SOL     OW16462   1.044   3.713   6.399 -0.7179 -0.3533 -0.1404
 1668SOL    HW116463   0.952   3.712   6.424 -0.7014  0.2786 -0.0572
 1668SOL    HW216464   1.057   3.634   6.347 -2.7816 -1.4371  0.9845
 1669SOL     OW16465   2.418   0.422   8.254  0.7558  0.2777  0.0435
 1669SOL    HW116466   2.340   0.453   8.301  1.6244 -1.4646  2.6224
 1669SOL    HW216467   2.468   0.501   8.274 -2.3187  2.1112  0.5399
 1670SOL     OW16468   2.290   1.391  15.115  0.1853 -0.1175 -0.0202
 1670SOL    HW116469   2.359   1.450  15.148  1.2241 -0.5578 -1.4167
 1670SOL    HW216470   2.212   1.446  15.125 -0.4128 -1.1853  1.1850
 1671SOL     OW16471   4.448   1.057   8.544  0.1423 -0.3584  0.8920
 1671SOL    HW116472   4.456   0.979   8.600  0.2174 -0.5698  0.5844
 1671SOL    HW216473   4.385   1.038   8.475  1.0016 -0.9969  0.2868
 1672SOL     OW16474   2.470   1.605   2.826  0.0138  0.1599 -0.2456
 1672SOL    HW116475   2.392   1.556   2.798  0.5206 -0.8795  0.1639
 1672SOL    HW216476   2.518   1.538   2.874  0.7515  1.0088  0.2042
 1673SOL     OW16477   3.514   3.876   5.459 -0.0392  0.5048  0.2993
 1673SOL    HW116478   3.536   3.831   5.378 -0.7605  0.1628  0.2934
 1673SOL    HW216479   3.578   3.839   5.521  0.8114  1.8331  0.1985
 1674SOL     OW16480   2.579   1.907  16.766 -0.4174 -0.1842  0.2317
 1674SOL    HW116481   2.577   1.993  16.724  1.9632  0.2836  1.0621
 1674SOL    HW216482   2.624   1.932  16.847  1.3698  1.8448 -1.3713
 1675SOL     OW16483   0.187   3.148  10.699 -0.3554  0.3402 -0.1767
 1675SOL    HW116484   0.128   3.197  10.756 -0.2258  1.4245 -0.9891
 1675SOL    HW216485   0.186   3.210  10.626 -1.5990 -0.8974 -1.2226
 1676SOL     OW16486   3.787   3.835   8.987 -0.2845  0.3074  0.7784
 1676SOL    HW116487   3.837   3.914   9.005  1.0652 -0.4107  0.2100
 1676SOL    HW216488   3.844   3.797   8.920 -0.7964  1.5540 -0.3775
 1677SOL     OW16489   3.406   0.562  13.618 -0.8093 -0.4083 -0.0586
 1677SOL    HW116490   3.384   0.653  13.600 -0.4147 -0.7142 -2.0476
 1677SOL    HW216491   3.501   0.557  13.617 -0.5381  5.0161 -0.4598
 1678SOL     OW16492   2.387   2.630   8.710  0.3463 -0.3221  0.3465
 1678SOL    HW116493   2.442   2.610   8.786  0.6852 -1.0579 -0.0895
 1678SOL    HW216494   2.453   2.654   8.644 -0.2019  0.4850  0.0944
 1679SOL     OW16495   1.686   4.269   3.883  0.1806  0.1736 -0.1276
 1679SOL    HW116496   1.647   4.183   3.865  1.1104 -0.0375 -1.1515
 1679SOL    HW216497   1.623   4.310   3.942 -0.0742  0.3759 -0.5394
 1680SOL     OW16498   2.555   3.290   6.608 -0.2400  0.2302  0.3162
 1680SOL    HW116499   2.460   3.294   6.623  0.1861  0.8256  2.7896
 1680SOL    HW216500   2.571   3.380   6.581  2.4200 -0.0858  0.8314
 1681SOL     OW16501   3.382   1.927  10.106  1.0276  0.5291  0.0672
 1681SOL    HW116502   3.365   2.001  10.048  1.0752 -0.3524 -1.0653
 1681SOL    HW216503   3.430   1.872  10.045 -0.6322 -1.4362  0.5160
 1682SOL     OW16504   3.275   0.948   4.010 -0.0628  0.2706 -0.4725
 1682SOL    HW116505   3.318   0.959   3.925  0.9210  1.0147  0.1256
 1682SOL    HW216506   3.265   1.038   4.040 -2.1499  1.2016 -4.0180
 1683SOL     OW16507   2.956   1.050  11.824  0.0675 -0.3592 -0.0288
 1683SOL    HW116508   2.996   1.116  11.767 -0.6006  1.7813  1.9638
 1683SOL    HW216509   2.989   0.976  11.774 -0.0073 -1.1134  1.0582
 1684SOL     OW16510   2.863   0.864  15.900  0.1174  0.3201  0.0487
 1684SOL    HW116511   2.837   0.916  15.824  0.1866  0.7030  0.2833
 1684SOL    HW216512   2.929   0.803  15.867  1.1076  0.5160  1.6683
 1685SOL     OW16513   1.162   2.194  17.353 -0.3659  0.1059  0.0382
 1685SOL    HW116514   1.252   2.228  17.355  0.6493 -2.4203 -3.3321
 1685SOL    HW216515   1.146   2.180  17.260 -0.1852 -0.7284  0.1318
 1686SOL     OW16516   3.230   3.828   4.438 -0.2329 -0.8269  0.8722
 1686SOL    HW116517   3.145   3.867   4.458  0.3888  1.5741 -1.2363
 1686SOL    HW216518   3.293   3.893   4.471  0.4040 -1.0675  0.1176
 1687SOL     OW16519   3.099   1.317   6.375 -0.0216 -0.4603  0.0270
 1687SOL    HW116520   3.095   1.310   6.470 -1.8538 -0.1025 -0.0089
 1687SOL    HW216521   3.032   1.383   6.357  0.9506  1.0200  1.8980
 1688SOL     OW16522   4.258   2.634   7.621  0.1723 -0.0032  0.1332
 1688SOL    HW116523   4.252   2.690   7.544  0.8541  0.1650  0.1991
 1688SOL    HW216524   4.280   2.690   7.696  0.1266  0.4973 -0.2297
 1689SOL     OW16525   3.298   2.554  13.164  0.0746  0.1091  0.3059
 1689SOL    HW116526   3.366   2.618  13.184 -0.0046  0.4602 -0.5483
 1689SOL    HW216527   3.225   2.609  13.135  0.4618  1.3878  1.7411
 1690SOL     OW16528   1.219   2.983   4.749  0.7118  0.4691 -0.0507
 1690SOL    HW116529   1.254   3.016   4.832  0.6842 -2.6133  1.1764
 1690SOL    HW216530   1.190   3.060   4.701 -0.7229 -0.1615 -0.1925
 1691SOL     OW16531   1.868   4.671   6.897  0.2543  0.1344 -0.7145
 1691SOL    HW116532   1.825   4.651   6.813 -0.6256 -2.4115  0.3589
 1691SOL    HW216533   1.824   4.616   6.962  0.6840  0.8364  0.1594
 1692SOL     OW16534   2.072   3.630  13.426  0.3740  0.7036  0.1401
 1692SOL    HW116535   2.131   3.571  13.473  0.6431  0.4345 -0.5359
 1692SOL    HW216536   2.011   3.647  13.498  0.6219 -1.2597  0.8373
 1693SOL     OW16537   3.790   3.535   7.567 -0.3793  0.6418  0.1766
 1693SOL    HW116538   3.717   3.564   7.512 -1.7347 -2.0439  0.5206
 1693SOL    HW216539   3.749   3.464   7.617  0.2203 -0.3378 -0.7242
 1694SOL     OW16540   0.250   3.947   4.077 -0.1929  0.3703 -0.4132
 1694SOL    HW116541   0.301   3.938   3.996 -0.4141 -0.2217 -0.4857
 1694SOL    HW216542   0.170   3.987   4.044 -1.3977 -0.9081  0.9796
 1695SOL     OW16543   3.620   2.823  13.793  0.0367 -0.4109 -0.3769
 1695SOL    HW116544   3.627   2.892  13.859 -0.5143  0.3220 -1.0715
 1695SOL    HW216545   3.567   2.876  13.734  0.6783  1.1503  0.4336
 1696SOL     OW16546   2.748   0.005   0.280  0.1826 -0.1913 -0.1312
 1696SOL    HW116547   2.815   0.073   0.286 -0.8958  0.8559  0.2375
 1696SOL    HW216548   2.680   0.071   0.293 -0.9156 -1.4722  0.5932
 1697SOL     OW16549   4.416   1.990   7.405  0.1239 -0.1404  0.0015
 1697SOL    HW116550   4.352   1.985   7.334  0.9750 -2.9774 -0.5520
 1697SOL    HW216551   4.424   1.899   7.432  1.2024  0.5266  1.9439
 1698SOL     OW16552   4.319   2.046   5.491 -0.1032  0.3893 -0.4625
 1698SOL    HW116553   4.413   2.066   5.487 -0.1213  0.7030  0.6151
 1698SOL    HW216554   4.295   2.006   5.407  0.0350  1.6477 -1.1092
 1699SOL     OW16555   0.442   2.630  10.158 -0.3716  0.0470  0.5385
 1699SOL    HW116556   0.525   2.583  10.160 -0.8784 -0.8368  0.6821
 1699SOL    HW216557   0.390   2.555  10.187 -1.1552  0.4878  0.2644
 1700SOL     OW16558   2.921   4.109  10.409  0.3345  0.0034  0.0221
 1700SOL    HW116559   2.863   4.186  10.408 -0.0978 -0.3154  0.5414
 1700SOL    HW216560   2.973   4.123  10.487 -0.9706 -0.0532  0.9050
 1701SOL     OW16561   3.413   2.604   0.944 -0.5800  0.2964  0.2058
 1701SOL    HW116562   3.478   2.596   0.874 -2.9013 -0.4821 -1.8772
 1701SOL    HW216563   3.453   2.662   1.009 -0.9400 -2.1884  2.6633
 1702SOL     OW16564   2.060   4.439   4.804  0.1601  0.2398  0.1055
 1702SOL    HW116565   2.069   4.351   4.768 -2.9094 -0.3324  0.7177
 1702SOL    HW216566   2.093   4.415   4.891 -1.9103 -1.1660  0.4987
 1703SOL     OW16567   2.075   3.710   3.911 -0.0840  0.3135  0.5560
 1703SOL    HW116568   2.111   3.651   3.844  0.2751  4.9661 -3.3405
 1703SOL    HW216569   2.101   3.790   3.866  0.1992  0.0893  0.3124
 1704SOL     OW16570   2.281   4.568  13.628  0.3755  0.4044  0.2184
 1704SOL    HW116571   2.280   4.508  13.554  0.5335 -0.3389  0.8175
 1704SOL    HW216572   2.351   4.627  13.598 -1.5396  1.5622 -1.9987
 1705SOL     OW16573   1.413   0.399   1.769 -0.0185 -0.0876  0.6575
 1705SOL    HW116574   1.480   0.394   1.701  0.0636 -2.2470  0.8760
 1705SOL    HW216575   1.333   0.364   1.728  0.1347  0.2471  0.0767
 1706SOL     OW16576   0.354   2.402   0.196  0.3994  0.4836 -0.6730
 1706SOL    HW116577   0.420   2.467   0.173  2.2792  0.0718  3.4648
 1706SOL    HW216578   0.292   2.404   0.123 -0.1075 -0.2038 -0.2654
 1707SOL     OW16579   2.568   4.373  11.351 -0.3923  0.0410 -0.3564
 1707SOL    HW116580   2.512   4.306  11.311  0.4210 -1.6472  1.3573
 1707SOL    HW216581   2.574   4.436  11.278  0.3314 -0.1177 -0.4319
 1708SOL     OW16582   3.621   1.666   2.519  0.0013 -0.5940 -0.6119
 1708SOL    HW116583   3.714   1.662   2.541 -0.0647  0.4332 -0.1287
 1708SOL    HW216584   3.622   1.736   2.454 -0.7664  0.5287  0.5905
 1709SOL     OW16585   1.443   3.699   9.529  0.2177 -0.3212  0.0645
 1709SOL    HW116586   1.352   3.706   9.556  0.9909  1.7804  2.1187
 1709SOL    HW216587   1.480   3.703   9.617 -0.4091  0.8460  0.2849
 1710SOL     OW16588   0.116   1.742  15.368 -0.1107 -0.0066  0.0995
 1710SOL    HW116589   0.052   1.736  15.439  0.6478 -2.5326  0.6009
 1710SOL    HW216590   0.152   1.827  15.391  0.3220  0.1728 -1.2124
 1711SOL     OW16591   1.110   3.311  14.689 -0.5208 -0.2407 -0.3189
 1711SOL    HW116592   1.204   3.313  14.705 -0.7727 -0.9652  1.2063
 1711SOL    HW216593   1.089   3.243  14.753  4.0003 -0.2896  1.0945
 1712SOL     OW16594   3.146   3.423   8.843 -0.1321 -0.5241 -0.0942
 1712SOL    HW116595   3.074   3.486   8.842  0.9443  0.7637  3.0146
 1712SOL    HW216596   3.214   3.485   8.816  1.0056 -1.6809  0.0946
 1713SOL     OW16597   4.016   3.213   6.681 -0.5818  0.3091  0.7579
 1713SOL    HW116598   4.080   3.147   6.709 -0.6372 -0.8799 -1.8563
 1713SOL    HW216599   4.024   3.273   6.754  0.7710  1.0264 -0.0011
 1714SOL     OW16600   1.570   3.407   7.915  0.0583 -0.3252  0.4827
 1714SOL    HW116601   1.579   3.412   7.819  3.7055  0.0712  0.8193
 1714SOL    HW216602   1.547   3.315   7.922  0.7613 -0.5327  0.1143
 1715SOL     OW16603   1.537   3.389   3.456  0.1821  0.2533  0.3886
 1715SOL    HW116604   1.457   3.363   3.502  0.7275  0.7327  1.5965
 1715SOL    HW216605   1.497   3.403   3.370  0.9525  0.7673  0.1086
 1716SOL     OW16606   1.852   3.438   8.583  0.5997 -0.5549 -0.8684
 1716SOL    HW116607   1.775   3.388   8.556  2.1028 -2.8014 -1.0529
 1716SOL    HW216608   1.804   3.518   8.602  1.6252 -0.2840  0.6208
 1717SOL     OW16609   3.761   1.179   3.782  0.6470 -0.3199 -0.0592
 1717SOL    HW116610   3.852   1.193   3.809  0.7696  0.7501 -0.9983
 1717SOL    HW216611   3.772   1.186   3.687  1.2938  0.6088  0.0795
 1718SOL     OW16612   2.260   4.401  16.172  0.0341 -0.2319 -0.4073
 1718SOL    HW116613   2.230   4.336  16.236 -0.0037 -0.8833 -1.0752
 1718SOL    HW216614   2.253   4.481  16.223  0.1022 -1.7146  1.9564
 1719SOL     OW16615   0.176   1.092  11.728 -0.4207  0.0830 -0.1566
 1719SOL    HW116616   0.130   1.122  11.807 -0.8818  0.7853 -0.6919
 1719SOL    HW216617   0.111   1.040  11.682 -1.0423 -0.6302  1.5374
 1720SOL     OW16618   1.845   1.845   1.892  0.0170 -0.2642 -0.8899
 1720SOL    HW116619   1.771   1.811   1.943  0.9497 -1.5643 -0.3944
 1720SOL    HW216620   1.828   1.809   1.805 -2.8041  0.3719 -0.5849
 1721SOL     OW16621   3.971   1.693   4.901  0.2428 -0.0177 -0.2873
 1721SOL    HW116622   3.924   1.776   4.904  2.6785  1.3569 -0.6411
 1721SOL    HW216623   4.048   1.725   4.853  0.5083  0.2397  0.3056
 1722SOL     OW16624   2.883   2.676  15.264 -0.0861 -0.0442 -0.1325
 1722SOL    HW116625   2.966   2.631  15.275  0.4487  0.2644 -2.9093
 1722SOL    HW216626   2.916   2.765  15.253  0.4263 -0.1558  0.5350
 1723SOL     OW16627   0.067   0.663  16.949 -0.3387  0.0021  0.6127
 1723SOL    HW116628   0.093   0.723  16.880 -1.1416 -1.3174 -0.8309
 1723SOL    HW216629   0.155   0.644  16.981  0.3604  0.4796 -1.0589
 1724SOL     OW16630   3.128   3.912   1.525 -0.1967  0.2221  0.3438
 1724SOL    HW116631   3.097   3.975   1.590  2.2680 -0.1308  1.8890
 1724SOL    HW216632   3.192   3.962   1.474 -0.7825  0.1093 -0.4985
 1725SOL     OW16633   2.555   2.719   1.216  0.0468 -0.0721 -0.4091
 1725SOL    HW116634   2.491   2.759   1.275  0.2010 -0.5101  0.0590
 1725SOL    HW216635   2.587   2.792   1.163  0.5720 -0.1891 -0.2577
 1726SOL     OW16636   3.309   3.670   4.797 -0.4600  0.4706  0.2528
 1726SOL    HW116637   3.224   3.689   4.757 -0.4533  1.0616  0.5234
 1726SOL    HW216638   3.317   3.575   4.783 -1.6161  0.2603  0.9326
 1727SOL     OW16639   2.341   2.368  16.753 -0.3352 -0.6458 -0.7401
 1727SOL    HW116640   2.301   2.353  16.839  2.4727 -1.9405  0.3397
 1727SOL    HW216641   2.256   2.380  16.710  0.8403 -0.2033 -2.9552
 1728SOL     OW16642   0.174   2.827  13.729 -0.2149 -0.4318  0.2413
 1728SOL    HW116643   0.193   2.751  13.785  1.3471 -1.7595 -2.0916
 1728SOL    HW216644   0.179   2.889  13.802 -1.1202 -0.5661  0.4078
 1729SOL     OW16645   4.438   4.085  17.634  0.3072  0.3045  0.1411
 1729SOL    HW116646   4.429   4.172  17.594 -0.6107  0.5512  0.8985
 1729SOL    HW216647   4.388   4.097   0.021 -0.4324  1.6566 -0.5178
 1730SOL     OW16648   1.832   3.007  13.970  0.0479 -0.1791  0.4873
 1730SOL    HW116649   1.787   2.952  13.906 -0.1415  0.2089  0.2880
 1730SOL    HW216650   1.799   3.094  13.948 -0.6450 -0.7979 -0.9456
 1731SOL     OW16651   3.810   2.875  13.205 -0.2278 -0.3294 -0.1000
 1731SOL    HW116652   3.836   2.954  13.157  0.0654  0.1961  0.9371
 1731SOL    HW216653   3.723   2.905  13.230 -0.2800 -1.1274  0.6459
 1732SOL     OW16654   2.413   4.716  16.648  0.2187 -0.1003  0.2802
 1732SOL    HW116655   2.454   0.073  16.615  0.4474 -0.1450  0.4620
 1732SOL    HW216656   2.329   0.012  16.606  0.2694 -1.3740 -0.4128
 1733SOL     OW16657   3.153   2.808   4.126 -0.0295  0.2141  0.2045
 1733SOL    HW116658   3.105   2.731   4.094  2.1084 -1.4613  1.0063
 1733SOL    HW216659   3.229   2.799   4.069  0.5718  0.7639  0.9191
 1734SOL     OW16660   0.790   1.485  12.731 -0.0964  0.0672 -0.0413
 1734SOL    HW116661   0.747   1.570  12.736 -1.9101 -0.8666  0.0460
 1734SOL    HW216662   0.738   1.425  12.785  0.5498  0.0072  0.5189
 1735SOL     OW16663   4.001   3.912  15.473  0.1585 -0.3471  0.5680
 1735SOL    HW116664   3.966   3.997  15.450 -1.0866 -1.1992 -0.7024
 1735SOL    HW216665   3.998   3.871  15.387 -0.5847  2.4704 -0.7260
 1736SOL     OW16666   2.551   3.387   7.922  0.8811 -0.3105  0.2352
 1736SOL    HW116667   2.458   3.410   7.934  1.0198 -0.7914  2.2038
 1736SOL    HW216668   2.595   3.448   7.981  1.5517 -0.7175  0.1500
 1737SOL     OW16669   3.601   2.451  12.130  0.4686  0.2394  0.0251
 1737SOL    HW116670   3.573   2.392  12.199 -0.2921  0.9134  0.2945
 1737SOL    HW216671   3.548   2.423  12.055  1.6985 -1.3491 -0.2363
 1738SOL     OW16672   2.184   2.752   8.456  0.0206 -0.4255  0.5408
 1738SOL    HW116673   2.219   2.830   8.498 -0.0450 -1.7049  2.9915
 1738SOL    HW216674   2.095   2.736   8.488 -0.3302  0.4344 -0.0107
 1739SOL     OW16675   2.283   0.286   0.235  0.4420 -0.5984  0.0614
 1739SOL    HW116676   2.243   0.243   0.160  0.5132  0.2918 -0.4839
 1739SOL    HW216677   2.264   0.378   0.219  0.2132 -0.2465  2.3146
 1740SOL     OW16678   1.586   0.694   4.647  0.7235 -0.4594  0.3856
 1740SOL    HW116679   1.499   0.668   4.675  0.9730  0.1504  1.7589
 1740SOL    HW216680   1.607   0.656   4.562 -1.3517 -0.1452 -0.2495
 1741SOL     OW16681   4.018   0.469   7.697  0.5589 -0.3975  0.0974
 1741SOL    HW116682   4.058   0.483   7.611 -1.3490 -1.3947 -0.9468
 1741SOL    HW216683   3.991   0.377   7.697  0.1627 -0.2780 -0.4844
 1742SOL     OW16684   2.164   4.342  11.395 -0.2832 -0.5378  0.1098
 1742SOL    HW116685   2.237   4.288  11.362 -0.8856 -1.6000  0.5101
 1742SOL    HW216686   2.213   4.392  11.461  2.1731  0.0145 -2.1507
 1743SOL     OW16687   3.633   2.589  15.723 -0.0729  0.1270 -0.0509
 1743SOL    HW116688   3.605   2.578  15.814 -0.9653  1.6313 -0.1323
 1743SOL    HW216689   3.556   2.636  15.690  0.1277  0.2603 -0.3281
 1744SOL     OW16690   1.088   2.788   3.768  0.3067 -0.4247 -0.3834
 1744SOL    HW116691   1.168   2.794   3.715 -0.1712 -0.8000 -1.1434
 1744SOL    HW216692   1.079   2.693   3.766  1.4330 -0.5399  0.0178
 1745SOL     OW16693   2.575   0.138   9.148  0.0432 -0.0305 -0.1705
 1745SOL    HW116694   2.608   0.185   9.072 -0.0874  2.1205  1.1028
 1745SOL    HW216695   2.493   0.183   9.168 -0.1539  0.1895 -1.5063
 1746SOL     OW16696   4.152   2.794  15.121  0.1443  0.3334 -0.1875
 1746SOL    HW116697   4.089   2.829  15.184  0.2052 -0.4641  0.3038
 1746SOL    HW216698   4.231   2.791  15.175 -1.8947 -0.3893  2.7371
 1747SOL     OW16699   0.567   1.242   8.227 -0.0634 -0.4949  1.1646
 1747SOL    HW116700   0.501   1.173   8.223 -2.8162  2.2797 -1.6604
 1747SOL    HW216701   0.561   1.262   8.321 -1.4261  0.6870  0.8354
 1748SOL     OW16702   1.238   2.247   6.954  0.0393  0.0040 -0.0583
 1748SOL    HW116703   1.276   2.169   6.996  0.8846  1.3504  1.6838
 1748SOL    HW216704   1.147   2.228   6.931 -0.2791  1.4297  0.0596
 1749SOL     OW16705   1.262   1.893   4.711 -0.1517 -0.1680  0.1475
 1749SOL    HW116706   1.198   1.943   4.761 -0.0641 -0.8792  0.9709
 1749SOL    HW216707   1.303   1.847   4.784  2.9185  1.2162 -0.7042
 1750SOL     OW16708   4.003   1.961   3.186  0.1513  0.1093 -0.6975
 1750SOL    HW116709   4.063   2.005   3.246  2.2977  0.1888 -2.9080
 1750SOL    HW216710   4.059   1.927   3.117  1.7874 -1.0807  1.2225
 1751SOL     OW16711   0.095   4.518   6.852 -0.6229  0.2741  0.1408
 1751SOL    HW116712   0.181   4.542   6.815 -0.2816 -2.7781 -1.0146
 1751SOL    HW216713   0.062   4.456   6.787 -2.5254 -0.3225  1.7003
 1752SOL     OW16714   0.644   1.969  14.364  0.5344 -0.2103  0.3646
 1752SOL    HW116715   0.628   1.886  14.319  1.4071 -0.4763  0.5538
 1752SOL    HW216716   0.560   1.994  14.402  0.7380 -0.6693  1.1096
 1753SOL     OW16717   3.881   3.270  10.356  0.1804  0.2825  0.5220
 1753SOL    HW116718   3.868   3.253  10.263  0.0121  0.0706  0.5846
 1753SOL    HW216719   3.976   3.267  10.368  0.3653  1.8871 -0.5516
 1754SOL     OW16720   2.105   3.488   6.595  0.7622 -0.1798 -0.5528
 1754SOL    HW116721   2.016   3.463   6.570  0.6751 -0.2969 -0.1261
 1754SOL    HW216722   2.083   3.563   6.650  0.5423 -0.9231  0.3786
 1755SOL     OW16723   0.705   0.457   6.603 -0.0547 -0.3473 -0.0695
 1755SOL    HW116724   0.718   0.382   6.661  3.0299 -0.8635 -1.4190
 1755SOL    HW216725   0.793   0.473   6.568 -0.3251 -0.1095 -0.6494
 1756SOL     OW16726   3.648   3.120   3.278  0.5256 -0.3531 -0.0701
 1756SOL    HW116727   3.578   3.164   3.230  0.8110 -0.6842 -0.8040
 1756SOL    HW216728   3.600   3.072   3.344 -0.3108 -0.5194 -0.7973
 1757SOL     OW16729   1.774   1.212   2.843 -0.0981  0.1504 -0.3284
 1757SOL    HW116730   1.785   1.297   2.887 -0.6491 -0.9160  1.8515
 1757SOL    HW216731   1.681   1.190   2.845  0.4580 -2.1519 -0.7718
 1758SOL     OW16732   1.443   1.385   7.490 -0.2786 -0.1789  0.0408
 1758SOL    HW116733   1.385   1.356   7.561 -0.4018 -3.2365 -1.2903
 1758SOL    HW216734   1.388   1.371   7.412 -1.1273  0.3041  0.5523
 1759SOL     OW16735   1.005   4.419   1.982  0.6463 -0.0011  0.1394
 1759SOL    HW116736   1.099   4.433   1.993  0.4659  1.6561 -0.4817
 1759SOL    HW216737   1.011   4.323   1.988  1.3783  0.0902  0.8942
 1760SOL     OW16738   3.861   2.045  13.541 -0.4006 -0.4361 -0.6811
 1760SOL    HW116739   3.783   1.997  13.569 -0.1009 -0.1175  0.7300
 1760SOL    HW216740   3.850   2.053  13.446 -0.2345  1.7145 -0.5323
 1761SOL     OW16741   3.791   0.428   1.801 -0.0727  0.0148 -0.5679
 1761SOL    HW116742   3.775   0.349   1.749  0.4790  0.9763 -2.2186
 1761SOL    HW216743   3.886   0.421   1.812 -0.1572  1.1116  0.8334
 1762SOL     OW16744   2.110   3.236   2.507 -0.0706  0.5293 -0.0659
 1762SOL    HW116745   2.196   3.277   2.511 -0.6876  1.6102  1.8488
 1762SOL    HW216746   2.139   3.148   2.530  2.5953  1.4705  0.1434
 1763SOL     OW16747   1.800   3.157   9.266 -0.0628 -0.4854  0.1804
 1763SOL    HW116748   1.827   3.248   9.280 -0.2188 -0.1964 -1.3827
 1763SOL    HW216749   1.788   3.145   9.172  1.9061 -0.6060 -0.0538
 1764SOL     OW16750   3.067   0.143   4.699 -0.3588  0.2666  0.0826
 1764SOL    HW116751   3.008   0.165   4.627 -0.4868 -0.3439 -0.0006
 1764SOL    HW216752   3.149   0.154   4.652 -1.1396  2.2005 -0.8540
 1765SOL     OW16753   3.663   4.619   2.301  0.3201  0.0144  0.4038
 1765SOL    HW116754   3.574   4.638   2.270 -0.5228  0.1776  2.9747
 1765SOL    HW216755   3.720   4.671   2.244  0.7480 -1.6132 -0.6725
 1766SOL     OW16756   1.537   4.364  12.595  1.0896 -0.9110 -0.3988
 1766SOL    HW116757   1.533   4.268  12.592  1.1405 -1.0119  2.4162
 1766SOL    HW216758   1.595   4.369  12.671 -0.3726  2.3458  0.5005
 1767SOL     OW16759   3.265   2.047   4.357 -0.3745  0.2679  0.0032
 1767SOL    HW116760   3.321   2.006   4.423 -1.7510  1.9946  2.2542
 1767SOL    HW216761   3.329   2.103   4.312 -0.3654  0.6467  0.4831
 1768SOL     OW16762   0.494   1.744   1.712 -0.4136  0.3151 -0.0470
 1768SOL    HW116763   0.399   1.752   1.720 -0.1918  1.4087  1.4567
 1768SOL    HW216764   0.517   1.829   1.749 -1.9096  1.2631 -1.3048
 1769SOL     OW16765   4.634   3.845  10.617 -0.7826 -0.2628  0.3908
 1769SOL    HW116766   4.651   3.751  10.618  0.5656 -0.0050  0.9541
 1769SOL    HW216767   4.542   3.859  10.641 -1.1045  1.6460 -1.9625
 1770SOL     OW16768   3.911   4.410   4.968  0.2359  0.2856 -0.6724
 1770SOL    HW116769   3.944   4.338   5.022  1.1241 -0.4702 -2.2079
 1770SOL    HW216770   3.944   4.368   4.888  0.5327  1.0576 -0.9556
 1771SOL     OW16771   2.881   3.848   4.872 -0.5309  0.0864  0.1010
 1771SOL    HW116772   2.906   3.932   4.833 -0.5038  0.7762  1.5984
 1771SOL    HW216773   2.813   3.874   4.934  1.8633  2.9269  1.5127
 1772SOL     OW16774   3.331   0.148   4.669 -0.3050  0.2164  0.2762
 1772SOL    HW116775   3.326   0.149   4.765 -1.3260  1.6408  0.2161
 1772SOL    HW216776   3.387   0.073   4.652 -2.7974 -1.6029  0.1223
 1773SOL     OW16777   0.198   0.539   0.829  0.3902  0.1019  0.0385
 1773SOL    HW116778   0.168   0.527   0.919 -1.2943 -2.0699 -0.8101
 1773SOL    HW216779   0.119   0.568   0.782  0.0192 -1.6155 -0.3787
 1774SOL     OW16780   0.948   3.010  14.688 -0.1508 -0.1842 -0.0324
 1774SOL    HW116781   0.890   3.085  14.680  0.0886 -0.0428 -0.4913
 1774SOL    HW216782   0.979   3.019  14.778 -1.4378  0.0470  0.3859
 1775SOL     OW16783   0.844   2.330   3.802 -0.2885  0.1146 -0.1809
 1775SOL    HW116784   0.873   2.394   3.737 -0.3694  0.7682  0.4309
 1775SOL    HW216785   0.905   2.257   3.788 -0.5546 -0.2965  0.7911
 1776SOL     OW16786   1.497   4.647  15.656  0.2041  0.0547 -0.1170
 1776SOL    HW116787   1.431   4.651  15.586  2.1985 -1.7516 -2.0781
 1776SOL    HW216788   1.470   4.717  15.716  2.1678  0.2463  0.5230
 1777SOL     OW16789   2.115   1.260   6.186 -0.3287 -0.1112 -0.0584
 1777SOL    HW116790   2.115   1.226   6.097  0.6657 -0.6491  0.1407
 1777SOL    HW216791   2.073   1.196   6.244  0.1511  0.9194  1.4152
 1778SOL     OW16792   1.682   3.742  12.696 -0.0801 -0.0732  0.0452
 1778SOL    HW116793   1.666   3.740  12.790  0.4174  0.4729  0.1409
 1778SOL    HW216794   1.680   3.838  12.688  0.4239  0.1600  2.8011
 1779SOL     OW16795   1.696   3.586   4.040  0.6798  0.3728 -0.2607
 1779SOL    HW116796   1.780   3.585   3.994  0.0945 -1.2277 -1.2785
 1779SOL    HW216797   1.631   3.598   3.971 -1.0201  3.1151  1.8164
 1780SOL     OW16798   2.665   4.718   4.414  0.2307  0.0805  0.2558
 1780SOL    HW116799   2.639   4.708   4.506 -1.8690  2.1631 -0.1165
 1780SOL    HW216800   2.735   4.653   4.412  1.4574  1.3994  0.8547
 1781SOL     OW16801   1.715   1.817   3.870  0.5395  0.4376 -0.3309
 1781SOL    HW116802   1.758   1.738   3.905 -1.8771 -0.3455  0.8544
 1781SOL    HW216803   1.697   1.784   3.782 -0.6602  0.1959  0.0129
 1782SOL     OW16804   1.748   0.903   0.918  0.8465  0.1111 -0.3035
 1782SOL    HW116805   1.770   0.982   0.968  0.9659 -0.3850  0.4241
 1782SOL    HW216806   1.668   0.933   0.873 -1.0246 -1.1069  2.2241
 1783SOL     OW16807   0.625   4.702   2.194 -0.0662  0.2324 -0.3133
 1783SOL    HW116808   0.710   4.661   2.174 -0.1692  1.3251 -3.0640
 1783SOL    HW216809   0.572   4.681   2.117  0.2614 -2.0991  0.1091
 1784SOL     OW16810   2.832   0.601  13.743 -0.6760 -0.3840  0.1318
 1784SOL    HW116811   2.923   0.608  13.772 -0.6183 -0.7958  0.0447
 1784SOL    HW216812   2.819   0.696  13.749  0.1215 -0.2663 -0.0894
 1785SOL     OW16813   2.760   4.442   2.192 -0.4065  0.0952 -0.3903
 1785SOL    HW116814   2.732   4.351   2.186  0.0391  0.0153 -1.2749
 1785SOL    HW216815   2.848   4.431   2.227 -0.5344  1.8933  0.5358
 1786SOL     OW16816   3.237   2.316   9.217 -0.3429 -0.3698  0.1813
 1786SOL    HW116817   3.279   2.236   9.248 -2.3725 -0.9926  1.3129
 1786SOL    HW216818   3.257   2.334   9.125 -2.0508 -0.0398 -0.1237
 1787SOL     OW16819   3.522   2.775   1.104  0.2494 -0.0840  0.0748
 1787SOL    HW116820   3.612   2.779   1.135 -0.0014  0.7528  0.7069
 1787SOL    HW216821   3.499   2.868   1.114 -2.3462 -0.7397  0.1262
 1788SOL     OW16822   2.171   3.721   5.267  0.5463 -0.2763 -0.1239
 1788SOL    HW116823   2.122   3.713   5.185  3.4183 -1.4640 -1.7062
 1788SOL    HW216824   2.231   3.647   5.257  0.9058  0.2066 -1.4450
 1789SOL     OW16825   4.555   4.710  17.595  0.3123  0.0125  0.0918
 1789SOL    HW116826   4.631   0.040  17.574 -0.1021  0.9449  0.8891
 1789SOL    HW216827   4.580   4.675  17.681  2.6779  0.2386 -0.5249
 1790SOL     OW16828   1.245   1.846   7.472  0.3618 -0.1941  0.0375
 1790SOL    HW116829   1.210   1.757   7.478 -0.7000  0.2673  0.5034
 1790SOL    HW216830   1.183   1.899   7.521  2.2996  1.1774  1.0421
 1791SOL     OW16831   4.576   3.758   6.891  0.2672  0.3772 -0.1146
 1791SOL    HW116832   4.532   3.834   6.855 -0.9214  1.0260  2.7248
 1791SOL    HW216833   4.660   3.786   6.926  0.7672 -1.8454  0.5063
 1792SOL     OW16834   4.472   3.250   2.389 -0.0712 -0.0366 -0.2093
 1792SOL    HW116835   4.515   3.178   2.436 -0.0593 -0.7069 -1.2603
 1792SOL    HW216836   4.479   3.220   2.299  0.6226  0.9743 -0.4890
 1793SOL     OW16837   1.501   4.569   0.511  0.2129 -0.9112  0.2149
 1793SOL    HW116838   1.594   4.578   0.531  0.4085 -2.4991  0.0454
 1793SOL    HW216839   1.500   4.560   0.415 -1.9447 -2.8418  0.4136
 1794SOL     OW16840   2.551   1.261   1.134  0.1309 -0.3636  0.3013
 1794SOL    HW116841   2.508   1.197   1.191 -0.3287 -1.6063 -1.4165
 1794SOL    HW216842   2.588   1.204   1.066 -3.9091 -1.6062 -0.9159
 1795SOL     OW16843   1.554   4.545   7.754 -0.0196 -0.2981  0.1946
 1795SOL    HW116844   1.646   4.524   7.768 -0.1754 -0.7772  0.5194
 1795SOL    HW216845   1.561   4.623   7.700  1.0065 -0.1895  0.4961
 1796SOL     OW16846   1.235   1.253   3.169 -0.0581  0.0211 -0.4427
 1796SOL    HW116847   1.224   1.234   3.075  3.2372  2.3149 -1.2904
 1796SOL    HW216848   1.199   1.341   3.154 -0.7087 -0.7144 -3.2270
 1797SOL     OW16849   0.880   3.639   5.356  0.3767 -0.0965  0.1651
 1797SOL    HW116850   0.916   3.551   5.346  0.8206  0.1671 -0.5002
 1797SOL    HW216851   0.793   3.641   5.316  1.0320  0.4155 -1.2396
 1798SOL     OW16852   4.709   2.781   5.662 -0.7622 -0.4216  0.3092
 1798SOL    HW116853   4.703   2.731   5.744 -1.5676 -0.9633 -0.0876
 1798SOL    HW216854   0.044   2.849   5.699 -1.1000  0.0845 -0.0917
 1799SOL     OW16855   4.487   0.152   1.784 -0.1567  0.3185 -0.3187
 1799SOL    HW116856   4.417   0.106   1.737 -0.8587  2.5111 -1.4015
 1799SOL    HW216857   4.565   0.118   1.740 -1.0227 -0.3735 -1.3258
 1800SOL     OW16858   2.219   4.434   6.944  0.4249 -0.2849 -0.6920
 1800SOL    HW116859   2.220   4.435   7.040 -2.3107 -2.6666 -0.6538
 1800SOL    HW216860   2.289   4.498   6.928  1.8606 -1.6955 -0.0388
 1801SOL     OW16861   1.909   1.499   5.052 -0.0599 -0.0015  0.4561
 1801SOL    HW116862   1.842   1.456   5.000  2.6013 -1.3271 -1.8853
 1801SOL    HW216863   1.939   1.430   5.112 -0.7260  0.1571  0.9689
 1802SOL     OW16864   1.652   2.593   8.426  0.1150 -0.4091 -0.2320
 1802SOL    HW116865   1.620   2.543   8.501 -0.8343 -0.0355 -0.3786
 1802SOL    HW216866   1.578   2.647   8.396  0.9071 -0.3077 -1.9935
 1803SOL     OW16867   2.941   0.073  13.020  0.5918  0.2040  0.2390
 1803SOL    HW116868   2.893   0.154  13.008 -2.0169 -1.3039  0.5216
 1803SOL    HW216869   3.021   0.098  12.974  1.1778  0.1592  1.2367
 1804SOL     OW16870   3.221   1.829  14.532  0.1052  0.1698  0.3579
 1804SOL    HW116871   3.189   1.837  14.622  0.6139  2.4345  0.3405
 1804SOL    HW216872   3.316   1.821  14.537  0.0425 -1.0954 -0.4920
 1805SOL     OW16873   0.323   0.442  15.266  0.3642  0.5198 -0.1321
 1805SOL    HW116874   0.383   0.516  15.257 -0.5396  1.5681  2.3798
 1805SOL    HW216875   0.267   0.467  15.339  0.4924 -0.5208  0.3212
 1806SOL     OW16876   4.161   0.919   2.670  0.4115  0.3608  0.3070
 1806SOL    HW116877   4.136   0.954   2.755 -1.9175 -0.7376  0.0677
 1806SOL    HW216878   4.251   0.889   2.679  0.7701  1.0172 -1.0545
 1807SOL     OW16879   4.692   4.614   6.046 -0.1498  0.5476  0.0796
 1807SOL    HW116880   4.612   4.647   6.006  0.7622 -1.0322 -3.0531
 1807SOL    HW216881   0.001   4.563   5.971 -2.1739  0.0383 -0.4296
 1808SOL     OW16882   0.315   3.255   8.253 -0.0455  0.1900  0.7274
 1808SOL    HW116883   0.363   3.334   8.278  1.1839  0.6609 -3.1969
 1808SOL    HW216884   0.226   3.292   8.252  0.4965  1.4697 -0.2481
 1809SOL     OW16885   1.310   3.548  11.234  0.3098  0.2228 -0.7242
 1809SOL    HW116886   1.288   3.599  11.156  2.2645 -1.0738 -2.1478
 1809SOL    HW216887   1.390   3.600  11.244  0.2939  0.1890 -0.4197
 1810SOL     OW16888   1.972   3.790   2.581  0.3605 -0.3297 -0.3169
 1810SOL    HW116889   2.018   3.828   2.506 -1.2483  1.1979 -0.4992
 1810SOL    HW216890   1.980   3.696   2.562 -1.5916 -0.4960 -0.3005
 1811SOL     OW16891   1.301   4.572  17.109  0.0062  0.4357  0.1791
 1811SOL    HW116892   1.239   4.621  17.055 -1.7656 -0.9685  0.9352
 1811SOL    HW216893   1.322   4.504  17.045 -2.1772 -0.2619  0.2027
 1812SOL     OW16894   2.538   3.443  17.616  0.3125 -0.6925 -0.1551
 1812SOL    HW116895   2.559   3.400   0.005 -1.0127  1.4397  1.2807
 1812SOL    HW216896   2.628   3.443  17.585  1.1886  1.3025  2.3336
 1813SOL     OW16897   3.319   1.128  12.233  0.1886  0.4000  0.4092
 1813SOL    HW116898   3.385   1.074  12.190 -1.6925 -0.5374 -1.3193
 1813SOL    HW216899   3.242   1.104  12.182  0.6046  0.1233 -0.0868
 1814SOL     OW16900   3.592   1.200   6.634 -0.1065  0.4752  0.2190
 1814SOL    HW116901   3.666   1.220   6.691 -0.9406 -0.4533  1.6129
 1814SOL    HW216902   3.602   1.105   6.636 -1.8191  0.3102  0.8744
 1815SOL     OW16903   3.595   4.353   2.308 -0.2410  0.0312 -0.3262
 1815SOL    HW116904   3.633   4.441   2.300  0.2618 -0.2637 -1.1778
 1815SOL    HW216905   3.518   4.359   2.364  1.0350  1.2603  1.2903
 1816SOL     OW16906   0.533   1.010   7.132  0.6138 -0.0884  0.5954
 1816SOL    HW116907   0.532   1.023   7.227 -2.1110  0.7120  0.4606
 1816SOL    HW216908   0.626   1.022   7.114  0.0427  1.4780 -1.2691
 1817SOL     OW16909   3.121   1.763  11.963 -0.0167  0.0362 -0.1706
 1817SOL    HW116910   3.095   1.787  11.874 -0.6395 -0.2918 -0.0752
 1817SOL    HW216911   3.182   1.835  11.980 -0.1580  0.0318  0.3431
 1818SOL     OW16912   3.343   3.870  12.432 -0.1838 -0.4156 -0.2441
 1818SOL    HW116913   3.399   3.916  12.369  1.5392 -0.2865  1.3714
 1818SOL    HW216914   3.410   3.843  12.494  0.8699  0.4589 -0.9960
 1819SOL     OW16915   3.771   4.328   5.987  0.4350  0.5042  0.5719
 1819SOL    HW116916   3.762   4.393   6.056 -0.4582 -0.5910  1.5016
 1819SOL    HW216917   3.865   4.319   6.004  0.8470  3.2122 -0.3602
 1820SOL     OW16918   2.406   2.087   3.506 -0.7370 -0.2631  0.3213
 1820SOL    HW116919   2.481   2.030   3.490 -0.6722 -0.6263  1.8971
 1820SOL    HW216920   2.421   2.138   3.585  1.2895 -0.1678 -0.1349
 1821SOL     OW16921   0.966   1.813   2.308 -0.0435 -0.2670  0.4636
 1821SOL    HW116922   1.046   1.851   2.345  0.6120 -0.1697 -1.0449
 1821SOL    HW216923   0.994   1.725   2.281  0.9699  0.4649 -0.8907
 1822SOL     OW16924   2.763   0.873  15.037 -0.3736  0.0918 -0.1688
 1822SOL    HW116925   2.706   0.916  15.101  0.4304  0.4352  0.3272
 1822SOL    HW216926   2.788   0.947  14.983 -0.1655  1.2794  1.5398
 1823SOL     OW16927   4.518   3.851   3.277 -0.2469  0.1002  0.3716
 1823SOL    HW116928   4.428   3.851   3.244  0.1343 -0.3099 -0.6689
 1823SOL    HW216929   4.550   3.773   3.230  0.6021 -0.3695  1.7461
 1824SOL     OW16930   3.243   0.477   1.908 -0.0318 -0.4911  0.2810
 1824SOL    HW116931   3.317   0.427   1.876 -0.5833 -1.1331  0.0044
 1824SOL    HW216932   3.172   0.413   1.918 -0.5184 -0.7530 -4.6604
 1825SOL     OW16933   3.637   1.531   5.874 -0.4865 -0.0528 -0.7107
 1825SOL    HW116934   3.708   1.596   5.866  0.5022 -1.3373 -2.2562
 1825SOL    HW216935   3.642   1.494   5.786  0.0933 -1.2814 -0.1580
 1826SOL     OW16936   1.354   4.373   6.478  0.5218 -0.0229  0.7894
 1826SOL    HW116937   1.404   4.331   6.408 -1.9808  0.6899 -1.4197
 1826SOL    HW216938   1.358   4.465   6.452 -1.7280 -0.4232 -0.9669
 1827SOL     OW16939   3.144   3.763   6.497  0.4861 -0.0765 -0.0619
 1827SOL    HW116940   3.087   3.711   6.553  0.3898 -1.6163 -1.6071
 1827SOL    HW216941   3.081   3.795   6.432  1.6346 -0.0995 -1.1829
 1828SOL     OW16942   3.501   2.275   5.093 -0.1357  0.2158  0.4865
 1828SOL    HW116943   3.477   2.188   5.124  0.6513  0.0295  0.5812
 1828SOL    HW216944   3.529   2.253   5.004 -1.2035  0.9971 -0.0419
 1829SOL     OW16945   1.491   0.607   2.279  0.0011 -0.4070  0.2547
 1829SOL    HW116946   1.546   0.533   2.307  0.1646 -0.8652 -1.2378
 1829SOL    HW216947   1.467   0.575   2.191  1.2922  0.0083 -0.2437
 1830SOL     OW16948   3.026   2.453  14.165 -0.3481  0.0073 -0.4813
 1830SOL    HW116949   3.051   2.529  14.218  3.0742 -3.6172  3.1417
 1830SOL    HW216950   2.931   2.458  14.157 -0.4629 -2.3527 -0.5607
 1831SOL     OW16951   2.011   1.371   6.736  0.9180 -0.3759  0.2274
 1831SOL    HW116952   1.963   1.289   6.751  1.1946 -0.5943 -0.0750
 1831SOL    HW216953   2.062   1.344   6.660  2.8726  3.0637  0.3152
 1832SOL     OW16954   2.030   1.978   6.115  0.3847 -0.1696 -0.2256
 1832SOL    HW116955   1.997   1.890   6.096 -1.0773 -0.4266  3.3757
 1832SOL    HW216956   2.124   1.960   6.120  0.7544  2.5858  2.9607
 1833SOL     OW16957   3.814   3.196   1.551  0.6695 -0.3378 -0.4999
 1833SOL    HW116958   3.814   3.138   1.627  3.4781  0.8347  0.3983
 1833SOL    HW216959   3.747   3.258   1.578  2.6608  1.0042  1.3923
 1834SOL     OW16960   3.809   2.008  12.027 -0.4158  0.2467 -0.5047
 1834SOL    HW116961   3.716   2.013  12.005 -0.1234 -0.3597 -1.8489
 1834SOL    HW216962   3.802   1.965  12.112  1.3217  0.0858 -0.4458
 1835SOL     OW16963   2.102   4.155  15.551 -0.5966 -0.2723  0.3476
 1835SOL    HW116964   2.046   4.230  15.529 -0.3354 -0.1005  0.2680
 1835SOL    HW216965   2.186   4.184  15.515 -1.3848 -1.5725 -2.5740
 1836SOL     OW16966   2.013   2.076   3.686  0.2086  0.0911  0.9065
 1836SOL    HW116967   2.067   2.047   3.760 -1.8954 -0.8017  2.0801
 1836SOL    HW216968   2.001   1.995   3.636 -1.5687 -2.0680  4.8446
 1837SOL     OW16969   0.040   1.418   7.303  0.6608 -0.1168  0.7167
 1837SOL    HW116970   0.005   1.457   7.383  0.3647 -0.7968  0.9199
 1837SOL    HW216971   4.689   1.427   7.243  1.0866  1.4990  0.4476
 1838SOL     OW16972   3.000   4.379   7.481 -0.1204  0.6276 -0.9643
 1838SOL    HW116973   2.930   4.444   7.485 -0.7572 -0.2055  1.4118
 1838SOL    HW216974   3.072   4.442   7.482  0.0960  0.3269  0.9993
 1839SOL     OW16975   3.711   0.421   5.271  0.5833 -0.0144 -0.2160
 1839SOL    HW116976   3.757   0.367   5.208  0.3360 -1.6215  0.9728
 1839SOL    HW216977   3.762   0.405   5.351  0.3946  1.0115  0.1110
 1840SOL     OW16978   2.227   2.979   9.481  0.4436 -0.0159 -0.4076
 1840SOL    HW116979   2.160   3.046   9.464  2.4253  2.4718  1.4601
 1840SOL    HW216980   2.283   3.022   9.546  0.4842 -0.4050 -0.1887
 1841SOL     OW16981   4.160   0.822   1.423 -0.4707 -0.2886  0.2468
 1841SOL    HW116982   4.220   0.780   1.485  1.0314  0.5727 -0.6209
 1841SOL    HW216983   4.195   0.911   1.414  1.1696 -0.9459  0.0335
 1842SOL     OW16984   2.141   2.341   0.571 -0.7587  0.6801 -0.0611
 1842SOL    HW116985   2.127   2.281   0.498  0.1898 -0.0273  0.3377
 1842SOL    HW216986   2.178   2.416   0.523 -2.1807  1.6912  0.4254
 1843SOL     OW16987   4.501   1.525  17.424 -0.3575 -0.1612 -0.0351
 1843SOL    HW116988   4.581   1.489  17.460 -0.0388  0.3264 -0.2459
 1843SOL    HW216989   4.467   1.447  17.380 -0.6250 -0.3633  0.5363
 1844SOL     OW16990   4.046   0.649  12.911 -0.3222  0.0382  0.3604
 1844SOL    HW116991   4.016   0.646  12.821 -2.6737  0.5196  1.1224
 1844SOL    HW216992   4.117   0.584  12.908  0.3532  0.8348 -0.7554
 1845SOL     OW16993   1.956   3.684   6.360 -0.2913  0.6806 -0.2828
 1845SOL    HW116994   1.953   3.611   6.422 -1.3190 -0.0945 -1.2535
 1845SOL    HW216995   1.917   3.756   6.410  0.6667  1.2935 -0.4070
 1846SOL     OW16996   2.529   1.241   3.142  0.4867  0.2347  0.6495
 1846SOL    HW116997   2.469   1.168   3.151  1.2876 -0.4685  0.3310
 1846SOL    HW216998   2.573   1.237   3.227  1.5239 -0.0948  0.1046
 1847SOL     OW16999   2.163   4.598   0.826 -0.3256 -0.1763  0.0251
 1847SOL    HW117000   2.161   4.646   0.909  0.4748 -1.0680  0.5534
 1847SOL    HW217001   2.089   4.641   0.782  1.5748  1.0597 -1.9714
 1848SOL     OW17002   3.325   3.884  10.035 -0.1412  0.1887  0.4788
 1848SOL    HW117003   3.380   3.962  10.026  1.6501 -0.9960  1.2610
 1848SOL    HW217004   3.238   3.922  10.023 -1.3569 -3.2758 -1.4291
 1849SOL     OW17005   3.099   1.359   6.899 -0.1739 -0.1914 -0.1166
 1849SOL    HW117006   3.190   1.344   6.926 -0.6974 -0.3917  1.4939
 1849SOL    HW217007   3.057   1.410   6.967  1.4479 -0.1074  0.8268
 1850SOL     OW17008   2.188   1.579  15.460 -0.0355  0.0041 -0.1005
 1850SOL    HW117009   2.230   1.495  15.443  2.4405  1.0870  0.5201
 1850SOL    HW217010   2.182   1.613  15.370  0.7081 -3.2823 -1.3793
 1851SOL     OW17011   1.972   0.194   5.551 -0.0524  0.3741  0.0827
 1851SOL    HW117012   2.056   0.233   5.575 -0.4012  0.0764  1.8191
 1851SOL    HW217013   1.984   0.105   5.586  0.2823  0.1337 -0.6437
 1852SOL     OW17014   1.781   1.159  12.002  0.2784 -0.7146  0.4357
 1852SOL    HW117015   1.719   1.094  11.970 -0.9994  0.2354  0.9856
 1852SOL    HW217016   1.765   1.142  12.095 -3.9130 -2.9821 -0.7178
 1853SOL     OW17017   3.166   2.164   3.159 -0.3117 -0.1957 -0.0665
 1853SOL    HW117018   3.219   2.240   3.181 -1.7080  0.7612 -0.0095
 1853SOL    HW217019   3.177   2.108   3.236 -0.2995  1.8069  1.3598
 1854SOL     OW17020   1.718   4.394   6.125 -0.1790  0.4389  0.2355
 1854SOL    HW117021   1.726   4.403   6.030 -2.9863  0.7329  0.0336
 1854SOL    HW217022   1.794   4.340   6.146 -1.2869 -0.7878  1.1098
 1855SOL     OW17023   3.282   1.530  16.879 -0.5770  0.1098  0.8362
 1855SOL    HW117024   3.315   1.448  16.842  0.5540  0.6299  0.6919
 1855SOL    HW217025   3.364   1.580  16.886 -0.2013 -0.5034  0.8000
 1856SOL     OW17026   0.994   0.565  14.460 -0.2565  0.1971  0.0721
 1856SOL    HW117027   1.083   0.586  14.431  0.4724  1.6280  3.4317
 1856SOL    HW217028   0.957   0.636  14.409 -1.8671 -2.0625 -1.9273
 1857SOL     OW17029   0.273   2.084   2.857 -0.2446  0.8056  0.4247
 1857SOL    HW117030   0.352   2.031   2.855 -0.1611  0.9360  0.2787
 1857SOL    HW217031   0.203   2.047   2.803  0.1728 -1.2369  1.2836
 1858SOL     OW17032   0.108   3.933   4.332  0.1984  0.3350  0.6189
 1858SOL    HW117033   0.202   3.949   4.334  0.2282  0.2795 -0.2580
 1858SOL    HW217034   0.073   3.995   4.268  0.6309  0.3194  0.3651
 1859SOL     OW17035   0.214   2.734  17.431 -0.3640  0.1325  0.5507
 1859SOL    HW117036   0.257   2.681  17.364 -0.4352  0.5676  0.1665
 1859SOL    HW217037   0.211   2.656  17.487  2.5236 -0.0479  0.4679
 1860SOL     OW17038   0.426   4.472  15.164  0.0695 -0.2395  0.4720
 1860SOL    HW117039   0.497   4.516  15.210  1.1156 -1.0041 -0.4324
 1860SOL    HW217040   0.372   4.440  15.237 -0.4445 -1.0978 -0.2911
 1861SOL     OW17041   0.428   1.444  12.511  0.0123  0.1070 -0.1574
 1861SOL    HW117042   0.458   1.446  12.420  1.6180 -1.9931  0.3139
 1861SOL    HW217043   0.468   1.362  12.540 -0.9072  0.3796  1.9172
 1862SOL     OW17044   4.221   3.196   4.554  0.3772 -0.2266 -0.2075
 1862SOL    HW117045   4.179   3.190   4.469  0.2960  0.7985 -0.2383
 1862SOL    HW217046   4.173   3.135   4.610  0.9511 -0.7748 -0.3154
 1863SOL     OW17047   2.015   4.057   6.741  0.3339 -0.2961  0.0741
 1863SOL    HW117048   2.090   4.011   6.705 -1.2275 -0.3531 -3.0488
 1863SOL    HW217049   2.013   4.015   6.827 -3.0479 -0.2340  0.0566
 1864SOL     OW17050   1.796   3.487  12.698  0.2185 -0.6026  0.0594
 1864SOL    HW117051   1.888   3.509  12.686 -0.0578  0.7038  0.2948
 1864SOL    HW217052   1.753   3.572  12.690 -0.3218 -0.8777  0.0429
 1865SOL     OW17053   2.758   4.506   0.809 -0.1884  0.1366  0.8113
 1865SOL    HW117054   2.669   4.520   0.843 -0.7930  0.7772 -1.0197
 1865SOL    HW217055   2.751   4.418   0.773  0.1800  0.6343 -0.4675
 1866SOL     OW17056   4.205   0.644   5.588  0.0729 -0.0087 -0.5370
 1866SOL    HW117057   4.127   0.624   5.640  0.5387  0.9702  0.5290
 1866SOL    HW217058   4.241   0.724   5.626 -4.7590  1.7316  0.3648
 1867SOL     OW17059   2.303   1.328   7.437  0.1334 -0.2101 -0.2906
 1867SOL    HW117060   2.361   1.253   7.427  1.2299  0.4416  1.1025
 1867SOL    HW217061   2.302   1.347   7.343  2.7474  3.1061  0.3452
 1868SOL     OW17062   2.042   0.313   4.345 -0.0056  0.4609  0.1895
 1868SOL    HW117063   2.068   0.274   4.428  0.4693 -2.4485 -1.3477
 1868SOL    HW217064   2.048   0.240   4.284 -1.7769 -0.6747  1.3637
 1869SOL     OW17065   2.514   1.648  17.410  0.7828 -0.2828  0.0572
 1869SOL    HW117066   2.494   1.690  17.327  0.7858  2.7339  1.5974
 1869SOL    HW217067   2.426   1.632  17.445  0.5543  1.3545  0.2245
 1870SOL     OW17068   0.700   1.758   4.383  0.8692  0.4874 -0.0034
 1870SOL    HW117069   0.671   1.827   4.323 -2.3710 -2.3698 -1.6684
 1870SOL    HW217070   0.616   1.740   4.425  1.8707 -3.4143  0.3001
 1871SOL     OW17071   1.666   3.455   4.397 -0.0095  0.4332 -0.0456
 1871SOL    HW117072   1.709   3.512   4.333 -2.1866  1.5816 -0.4757
 1871SOL    HW217073   1.702   3.370   4.374 -3.3115 -0.9660 -0.0705
 1872SOL     OW17074   0.730   2.569  15.832  0.1079 -0.8548  0.0397
 1872SOL    HW117075   0.794   2.547  15.764  4.0519 -1.0727  3.7962
 1872SOL    HW217076   0.655   2.527  15.791 -0.9368  3.0776 -2.0593
 1873SOL     OW17077   0.343   1.432   7.617 -0.2086  0.3090  0.5105
 1873SOL    HW117078   0.340   1.424   7.712 -0.0700 -0.1606  0.4734
 1873SOL    HW217079   0.302   1.349   7.592 -0.7586  1.3173 -1.9576
 1874SOL     OW17080   3.659   2.338  16.132  0.1316 -0.6509 -0.4749
 1874SOL    HW117081   3.738   2.350  16.185 -0.8447  0.3366  0.7655
 1874SOL    HW217082   3.660   2.244  16.115 -1.3822 -0.7478  0.0020
 1875SOL     OW17083   0.081   0.408   8.015  0.1677 -0.3727  0.2006
 1875SOL    HW117084   0.116   0.475   8.074 -1.1106  0.6853 -0.2333
 1875SOL    HW217085   0.161   0.368   7.982  2.3882  3.6744  0.6562
 1876SOL     OW17086   1.565   3.692  16.314  0.2647 -0.2327  0.0499
 1876SOL    HW117087   1.646   3.644  16.333  1.0896  1.0298 -0.3004
 1876SOL    HW217088   1.505   3.678  16.387 -2.0199 -2.5931 -2.2392
 1877SOL     OW17089   2.195   3.113   8.291  0.1255  0.4769 -0.3946
 1877SOL    HW117090   2.103   3.140   8.288 -0.2231 -0.7901 -2.0241
 1877SOL    HW217091   2.235   3.167   8.358  0.4617  0.6445 -0.7266
 1878SOL     OW17092   2.279   3.840   9.221 -0.1174  0.5649 -0.3135
 1878SOL    HW117093   2.274   3.746   9.240 -1.0517  0.1971 -2.4636
 1878SOL    HW217094   2.191   3.874   9.205 -0.5163  0.0958  0.8543
 1879SOL     OW17095   0.425   0.051  13.215  0.8381 -0.3831  0.4885
 1879SOL    HW117096   0.507   0.098  13.231  1.8229 -2.3201  1.0348
 1879SOL    HW217097   0.423   4.720  13.294 -0.4636 -0.2461  0.5552
 1880SOL     OW17098   0.395   1.040   3.241  0.1739 -0.2650  0.0033
 1880SOL    HW117099   0.426   1.033   3.151  0.9182  0.6053  0.1926
 1880SOL    HW217100   0.393   1.134   3.263 -1.2280 -0.6264  1.4184
 1881SOL     OW17101   2.822   2.791  15.559  0.1330  0.0271 -0.6923
 1881SOL    HW117102   2.870   2.731  15.501 -0.1628 -0.6941 -0.1937
 1881SOL    HW217103   2.877   2.787  15.638  2.6901 -0.7011 -2.4875
 1882SOL     OW17104   2.186   0.676   8.563 -0.0727 -0.1654  0.0101
 1882SOL    HW117105   2.132   0.661   8.641  0.6946  1.0269  0.7751
 1882SOL    HW217106   2.157   0.600   8.513 -1.3506  0.5060 -0.2792
 1883SOL     OW17107   0.331   4.126  12.138  0.1928  0.0120  0.5622
 1883SOL    HW117108   0.308   4.201  12.193  0.1522  0.8736 -0.6381
 1883SOL    HW217109   0.261   4.063  12.155  2.6078 -3.0195 -0.7549
 1884SOL     OW17110   3.679   4.488   0.624 -0.0768 -0.9087 -0.2300
 1884SOL    HW117111   3.747   4.438   0.578 -0.6426 -1.0607 -0.8909
 1884SOL    HW217112   3.714   4.575   0.605  0.0955 -0.5874  1.4945
 1885SOL     OW17113   4.715   4.714   2.195 -0.0459  0.0475  0.4773
 1885SOL    HW117114   4.654   0.015   2.264  1.3725  0.9095  1.4405
 1885SOL    HW217115   0.073   4.696   2.243 -0.5474 -1.1440  0.8684
 1886SOL     OW17116   0.665   4.156   4.156  0.0760 -0.0085 -0.4597
 1886SOL    HW117117   0.582   4.199   4.135  0.3607  1.1513  0.8110
 1886SOL    HW217118   0.638   4.065   4.167 -3.2242  0.6718 -2.6764
 1887SOL     OW17119   2.185   3.437  10.641 -0.2959  0.0908  0.5833
 1887SOL    HW117120   2.193   3.453  10.547 -1.0110 -1.9691  0.1777
 1887SOL    HW217121   2.173   3.343  10.655  2.2554  0.2123  3.4311
 1888SOL     OW17122   0.574   0.629   6.357 -0.2893  0.6518  0.8649
 1888SOL    HW117123   0.624   0.562   6.310  0.2837  1.8835 -0.3158
 1888SOL    HW217124   0.533   0.676   6.284  0.9150 -1.2232 -1.0190
 1889SOL     OW17125   4.192   1.736  10.719 -0.3642 -0.4309  0.0431
 1889SOL    HW117126   4.151   1.718  10.803 -0.5951  2.0299  0.4535
 1889SOL    HW217127   4.214   1.829  10.728 -0.3710 -0.4407  0.1583
 1890SOL     OW17128   0.562   2.935  16.780 -0.1465 -0.1034  0.7026
 1890SOL    HW117129   0.577   3.029  16.769  0.5717 -0.3405 -0.3890
 1890SOL    HW217130   0.641   2.890  16.748 -0.0851  0.4477  0.0849
 1891SOL     OW17131   2.264   1.367   1.931 -0.0719 -0.2077 -0.0921
 1891SOL    HW117132   2.318   1.377   2.009 -1.4874 -0.0125  0.8628
 1891SOL    HW217133   2.179   1.398   1.961 -0.7687 -1.6305 -0.5963
 1892SOL     OW17134   3.053   2.422   6.418 -0.1867 -0.1777  0.2772
 1892SOL    HW117135   3.049   2.388   6.508 -1.8132 -1.2329 -0.2078
 1892SOL    HW217136   2.986   2.367   6.379  0.0006  2.4976 -3.7537
 1893SOL     OW17137   1.619   2.899   2.587  0.1543  0.1623 -0.0005
 1893SOL    HW117138   1.661   2.943   2.513  0.8900 -0.6864 -0.0875
 1893SOL    HW217139   1.671   2.940   2.656  1.3294 -2.6701  0.8102
 1894SOL     OW17140   2.917   1.832   1.010  0.3116 -0.5620 -0.0126
 1894SOL    HW117141   2.834   1.785   1.017 -0.6032  1.4582  2.8670
 1894SOL    HW217142   2.910   1.868   0.922 -0.4135 -0.1134  0.2314
 1895SOL     OW17143   1.735   3.388   6.759 -0.3999  0.4811 -0.1804
 1895SOL    HW117144   1.747   3.466   6.813 -1.8494 -0.0673  0.9298
 1895SOL    HW217145   1.742   3.319   6.826  1.6592 -1.0067 -1.9047
 1896SOL     OW17146   0.876   0.860   4.780  0.3690  0.5121  0.0776
 1896SOL    HW117147   0.928   0.848   4.700  2.3010  0.3063  1.3661
 1896SOL    HW217148   0.908   0.803   4.850 -0.3937 -2.7519 -2.2272
 1897SOL     OW17149   4.441   4.298   3.024 -0.5600 -0.1022  0.0074
 1897SOL    HW117150   4.445   4.393   3.030  0.5113 -0.0113 -1.9892
 1897SOL    HW217151   4.537   4.292   3.023 -0.7536 -2.9172 -1.5064
 1898SOL     OW17152   3.326   3.217  17.222 -0.2816  1.0103  0.3611
 1898SOL    HW117153   3.349   3.293  17.168 -0.2445 -0.1422 -1.2761
 1898SOL    HW217154   3.404   3.167  17.197 -1.2172 -0.7304  0.9339
 1899SOL     OW17155   1.513   0.804   7.695 -0.3715  0.3392 -0.0586
 1899SOL    HW117156   1.530   0.873   7.631 -0.1656  1.5785  1.3244
 1899SOL    HW217157   1.424   0.780   7.668 -0.1413 -1.5301  0.8477
 1900SOL     OW17158   3.895   2.345   2.587  0.1635 -0.0391  0.6402
 1900SOL    HW117159   3.887   2.251   2.601  0.4177 -0.3687 -1.3680
 1900SOL    HW217160   3.894   2.369   2.680  3.8672 -3.2849  1.4983
 1901SOL     OW17161   2.764   2.133   3.278 -0.0985 -0.6316 -0.3016
 1901SOL    HW117162   2.823   2.205   3.258 -0.4146 -0.6732 -1.4011
 1901SOL    HW217163   2.686   2.184   3.299  2.1491  2.8567 -0.3989
 1902SOL     OW17164   3.553   3.757   4.108  0.4305 -0.6484 -0.0467
 1902SOL    HW117165   3.527   3.706   4.031  3.3346 -0.6862 -1.0377
 1902SOL    HW217166   3.470   3.775   4.150 -0.1875  1.0234 -1.9500
 1903SOL     OW17167   4.457   3.065   7.283 -0.6916 -0.3704  0.6336
 1903SOL    HW117168   4.439   3.003   7.353 -2.3204 -0.3248  0.2409
 1903SOL    HW217169   4.432   3.150   7.320 -2.3076 -1.2513  1.5595
 1904SOL     OW17170   3.716   3.950  13.512  0.0011 -0.8244 -0.1221
 1904SOL    HW117171   3.679   3.937  13.600 -0.2080  0.3051 -0.0435
 1904SOL    HW217172   3.645   3.988  13.461 -0.1763 -1.9738 -0.7425
 1905SOL     OW17173   3.037   2.392  15.929 -0.1709 -0.0838  0.4931
 1905SOL    HW117174   3.066   2.317  15.981 -1.7171 -1.4318 -0.5764
 1905SOL    HW217175   2.992   2.447  15.993 -0.0446  2.2464 -1.3892
 1906SOL     OW17176   2.952   2.785   2.481 -0.3566 -0.1506 -0.0494
 1906SOL    HW117177   2.993   2.725   2.543  0.5073 -1.6367 -2.0526
 1906SOL    HW217178   3.030   2.800   2.426  0.4102  0.8117  1.2921
 1907SOL     OW17179   4.003   0.185  14.603  0.1228  0.1404  0.1803
 1907SOL    HW117180   3.961   0.138  14.675 -2.7643  0.5072 -1.2718
 1907SOL    HW217181   4.022   0.266  14.650 -0.6220  0.4731 -0.0966
 1908SOL     OW17182   0.114   4.664   9.686 -0.1853 -0.2264 -0.2280
 1908SOL    HW117183   0.185   4.662   9.622  0.5466 -1.2510  0.6237
 1908SOL    HW217184   0.072   0.025   9.669 -0.8289 -0.8130 -1.4953
 1909SOL     OW17185   4.078   2.815  16.654 -0.4636  0.1382  0.0356
 1909SOL    HW117186   4.076   2.909  16.638  3.3916 -0.2818 -2.6805
 1909SOL    HW217187   4.096   2.778  16.568  0.1545  0.3855  0.0642
 1910SOL     OW17188   4.079   3.627   8.448 -0.1307  0.3580  0.0033
 1910SOL    HW117189   4.162   3.638   8.495 -0.6883  0.5127  0.9552
 1910SOL    HW217190   4.063   3.536   8.476  2.9893 -0.1714  0.1013
 1911SOL     OW17191   3.248   2.616   6.357 -0.4214 -0.2939 -0.3166
 1911SOL    HW117192   3.318   2.563   6.396 -1.8027  0.5377  3.3554
 1911SOL    HW217193   3.171   2.565   6.385 -0.0120  0.1377  1.5840
 1912SOL     OW17194   0.417   3.593  12.259 -0.1975 -0.0187 -0.0942
 1912SOL    HW117195   0.486   3.577  12.323  0.4221 -2.2719 -1.3402
 1912SOL    HW217196   0.332   3.592  12.304  0.7300 -0.3097  1.6323
 1913SOL     OW17197   3.105   3.152   8.906 -0.5628  0.7356 -0.4305
 1913SOL    HW117198   3.186   3.181   8.949 -0.4128 -0.2933 -0.0268
 1913SOL    HW217199   3.084   3.244   8.890 -0.2797  0.6353 -1.3259
 1914SOL     OW17200   3.190   3.004  10.277 -0.4562  0.2364  0.7418
 1914SOL    HW117201   3.129   3.077  10.263  1.4993  1.6365 -0.4665
 1914SOL    HW217202   3.241   3.026  10.199 -1.0977  0.9265  0.5124
 1915SOL     OW17203   1.654   0.831   0.072 -0.3599  0.1500 -0.1395
 1915SOL    HW117204   1.687   0.903   0.018 -0.3815  0.8135  0.7213
 1915SOL    HW217205   1.582   0.793   0.022  0.1981  0.4664 -1.1677
 1916SOL     OW17206   3.622   0.685   0.782 -0.0541  0.8433 -0.1231
 1916SOL    HW117207   3.643   0.752   0.716 -1.1059  0.1803 -1.1164
 1916SOL    HW217208   3.530   0.704   0.798 -0.0381 -0.0347  1.0367
 1917SOL     OW17209   0.181   3.174   7.617 -0.1557  0.9108 -0.4593
 1917SOL    HW117210   0.245   3.116   7.575  0.8732  0.3862  1.8569
 1917SOL    HW217211   0.183   3.147   7.709  2.5195 -1.0844 -1.0961
 1918SOL     OW17212   1.497   0.272  11.358 -0.1684 -0.1052 -0.5741
 1918SOL    HW117213   1.555   0.208  11.317  0.7005  0.3108  0.0077
 1918SOL    HW217214   1.453   0.210  11.416 -2.2140  1.4875 -0.4153
 1919SOL     OW17215   3.380   0.981   7.585  0.9062  0.1966  0.1541
 1919SOL    HW117216   3.321   0.927   7.638 -1.0820 -1.0806 -3.3669
 1919SOL    HW217217   3.358   0.943   7.500  2.1848  1.8175 -0.8801
 1920SOL     OW17218   4.007   3.562   3.882  0.2399 -0.4482  0.0225
 1920SOL    HW117219   4.046   3.640   3.921  1.7423 -0.7998 -0.7882
 1920SOL    HW217220   4.069   3.542   3.811  0.0821 -0.2477 -0.1707
 1921SOL     OW17221   1.816   4.454  14.119 -0.6932  0.0550  0.5572
 1921SOL    HW117222   1.809   4.548  14.100 -1.5744 -0.2901 -0.8628
 1921SOL    HW217223   1.880   4.424  14.054 -0.7728  2.3303 -0.5775
 1922SOL     OW17224   3.170   0.433   9.897  0.0096  0.4391 -0.0529
 1922SOL    HW117225   3.111   0.497   9.937  0.2448  0.1710  0.7189
 1922SOL    HW217226   3.132   0.459   9.813 -1.6499 -0.3721  0.4462
 1923SOL     OW17227   2.184   2.310   2.342 -0.3231 -0.6735  0.3028
 1923SOL    HW117228   2.250   2.261   2.392  1.5335 -2.0425 -3.4775
 1923SOL    HW217229   2.114   2.247   2.360 -1.6935  0.7764  0.0373
 1924SOL     OW17230   1.866   2.551   2.659 -0.0092  0.2917 -0.5862
 1924SOL    HW117231   1.794   2.563   2.721 -0.6938 -1.6060 -1.0079
 1924SOL    HW217232   1.942   2.563   2.715 -0.3286  2.1301 -0.5432
 1925SOL     OW17233   2.488   4.386   4.370 -0.2701 -0.2294 -0.2657
 1925SOL    HW117234   2.528   4.470   4.348 -3.0119  0.5513 -2.3152
 1925SOL    HW217235   2.403   4.409   4.406 -0.8434 -2.6922 -0.0354
 1926SOL     OW17236   2.273   3.943   6.762 -0.0113  0.0542 -0.0609
 1926SOL    HW117237   2.329   3.874   6.728 -1.9366  0.0035 -3.1487
 1926SOL    HW217238   2.267   3.919   6.854  0.0174 -1.6291 -0.4983
 1927SOL     OW17239   3.413   1.618  14.488  0.0903 -0.2739 -0.3747
 1927SOL    HW117240   3.494   1.579  14.454  0.1699 -1.4065  1.1232
 1927SOL    HW217241   3.353   1.544  14.484 -2.4239  1.7794 -0.8886
 1928SOL     OW17242   1.011   0.622   7.713 -0.1414  0.1604 -0.0361
 1928SOL    HW117243   0.976   0.571   7.640  0.5505 -2.2953  1.3321
 1928SOL    HW217244   1.088   0.666   7.677  1.1775 -2.5373 -0.5327
 1929SOL     OW17245   1.107   0.868  14.654  0.3249  0.4911  0.0603
 1929SOL    HW117246   1.079   0.953  14.687 -0.4513  0.6429 -0.9802
 1929SOL    HW217247   1.110   0.883  14.559 -0.2941  1.9214  0.2686
 1930SOL     OW17248   1.405   1.653  16.685  0.1138  0.6442  0.0528
 1930SOL    HW117249   1.326   1.599  16.689  0.0143  0.8100  0.3359
 1930SOL    HW217250   1.404   1.678  16.593 -0.8740  1.1121  0.1900
 1931SOL     OW17251   0.288   2.081   3.362 -0.0914 -0.5097 -0.1654
 1931SOL    HW117252   0.339   2.035   3.429 -0.9086 -0.0493  0.7589
 1931SOL    HW217253   0.350   2.143   3.324 -0.8492 -0.4784 -1.3555
 1932SOL     OW17254   3.380   0.186   3.126 -0.1280  0.3003  0.0703
 1932SOL    HW117255   3.434   0.248   3.175  1.7103  0.2031 -1.8307
 1932SOL    HW217256   3.315   0.243   3.087 -1.8440  0.2321  2.8271
 1933SOL     OW17257   0.275   2.000   7.398 -0.3555  0.0984 -0.0729
 1933SOL    HW117258   0.274   2.041   7.312 -2.3655 -0.1668 -0.1775
 1933SOL    HW217259   0.219   1.925   7.376 -1.6829  0.6834  1.2971
 1934SOL     OW17260   0.604   3.490   8.816 -0.1455  0.3327  0.4560
 1934SOL    HW117261   0.595   3.432   8.892 -3.9726 -0.4430 -0.5697
 1934SOL    HW217262   0.699   3.496   8.814 -0.0836 -1.2419 -1.0644
 1935SOL     OW17263   3.912   0.966   8.167  0.4584 -0.0266 -0.0052
 1935SOL    HW117264   3.874   0.902   8.108  0.9728  0.1060 -0.4795
 1935SOL    HW217265   3.892   1.046   8.118  1.2974  0.7057  0.8521
 1936SOL     OW17266   4.171   2.792   5.069  0.1120 -0.0637  0.1084
 1936SOL    HW117267   4.141   2.824   4.983  0.9995  0.6086  0.0546
 1936SOL    HW217268   4.221   2.865   5.106  0.6949 -0.5291  0.2416
 1937SOL     OW17269   3.851   4.316   8.382 -0.3542 -0.1993 -0.1509
 1937SOL    HW117270   3.821   4.367   8.307 -0.2530 -1.5510 -1.1181
 1937SOL    HW217271   3.946   4.320   8.369 -0.2784 -0.8997  0.1760
 1938SOL     OW17272   1.330   2.976  10.596  0.3117 -0.2880  0.4891
 1938SOL    HW117273   1.364   3.062  10.623  3.1743 -1.3844  0.4126
 1938SOL    HW217274   1.396   2.958  10.528 -0.2400  2.1045 -0.7079
 1939SOL     OW17275   3.068   2.577  17.672 -0.7838 -0.1968  0.4706
 1939SOL    HW117276   3.051   2.672  17.667  2.9728  0.5514  1.6618
 1939SOL    HW217277   3.086   2.565  17.579  2.8630 -1.4414  1.3315
 1940SOL     OW17278   2.986   0.043   7.942 -0.4798 -0.0736 -0.1904
 1940SOL    HW117279   2.989   0.139   7.941 -0.5140 -0.0511  1.5501
 1940SOL    HW217280   2.895   0.030   7.915 -1.4839  0.2678  3.0734
 1941SOL     OW17281   2.252   2.579   5.192 -0.1180 -0.5334 -0.4946
 1941SOL    HW117282   2.226   2.668   5.171  2.1390  0.8629  2.6669
 1941SOL    HW217283   2.178   2.528   5.159 -1.2291  1.1118 -0.5055
 1942SOL     OW17284   0.955   2.747   2.717 -0.0554 -0.2495 -0.4970
 1942SOL    HW117285   0.882   2.742   2.655 -1.1462  0.6082  0.7429
 1942SOL    HW217286   0.962   2.843   2.723  1.2349 -0.4079  0.4828
 1943SOL     OW17287   3.110   2.872  11.218  0.2183 -0.3107  0.5345
 1943SOL    HW117288   3.182   2.908  11.166 -2.5433 -0.5118 -3.3890
 1943SOL    HW217289   3.127   2.898  11.309 -2.4611  1.1756  0.6164
 1944SOL     OW17290   0.863   0.801   5.448  0.1004 -0.2204  0.5315
 1944SOL    HW117291   0.791   0.863   5.459 -0.0917 -0.3534  0.0225
 1944SOL    HW217292   0.912   0.796   5.530  0.1946 -1.6664  0.3908
 1945SOL     OW17293   0.242   3.650   5.148  0.0980 -0.2698 -0.3704
 1945SOL    HW117294   0.290   3.591   5.090 -0.6976  0.0920 -1.3965
 1945SOL    HW217295   0.252   3.724   5.088  1.5075 -0.2304 -0.0971
 1946SOL     OW17296   1.599   2.465   1.107  0.1506  0.1863  0.5331
 1946SOL    HW117297   1.577   2.483   1.016  0.1471  1.3080  0.7533
 1946SOL    HW217298   1.670   2.529   1.116  0.9747 -0.7813  0.9518
 1947SOL     OW17299   1.610   0.431   0.683 -0.1069  0.2119 -0.1923
 1947SOL    HW117300   1.589   0.523   0.669  1.3997  0.3404 -1.5254
 1947SOL    HW217301   1.554   0.383   0.621  1.4865  0.0228 -1.4902
 1948SOL     OW17302   2.556   4.522  11.095 -0.0186  0.2564  0.2444
 1948SOL    HW117303   2.517   4.606  11.119  2.4656  1.3746  0.4455
 1948SOL    HW217304   2.596   4.534  11.009  0.6237 -0.6043  0.4212
 1949SOL     OW17305   4.324   2.515   1.701  0.0932 -0.1039  0.1980
 1949SOL    HW117306   4.301   2.502   1.793 -0.6843  1.6925  0.2516
 1949SOL    HW217307   4.271   2.445   1.661  0.2075 -0.2699  0.3385
 1950SOL     OW17308   4.650   2.651  17.397 -0.2108  0.2432 -0.5689
 1950SOL    HW117309   0.001   2.695  17.355 -1.0049 -0.7613 -2.9767
 1950SOL    HW217310   4.645   2.703  17.478 -0.7268 -0.0894 -0.3878
 1951SOL     OW17311   2.290   2.548   2.330  0.2437  0.0583  0.1374
 1951SOL    HW117312   2.219   2.611   2.343 -0.6900 -1.1242  0.8163
 1951SOL    HW217313   2.248   2.462   2.322  0.0683  0.0211  1.4440
 1952SOL     OW17314   3.481   2.044   5.232  0.1164  0.1603 -0.3316
 1952SOL    HW117315   3.417   1.975   5.215  0.0173  0.2506 -0.3265
 1952SOL    HW217316   3.522   2.013   5.312 -1.7783 -0.2415  0.4954
 1953SOL     OW17317   2.806   4.614  13.699  0.3652  0.0544 -0.2156
 1953SOL    HW117318   2.745   4.629  13.627 -0.4803  0.5947  0.6091
 1953SOL    HW217319   2.826   4.696  13.746  1.4737 -1.2457  1.5601
 1954SOL     OW17320   3.603   0.876   6.697  0.3925 -0.2316 -0.0706
 1954SOL    HW117321   3.563   0.855   6.612 -0.3471  0.6026  0.0648
 1954SOL    HW217322   3.541   0.833   6.756 -0.1307  0.7816  0.1145
 1955SOL     OW17323   2.907   1.915   9.180  0.2135  0.6418  0.4551
 1955SOL    HW117324   2.893   1.827   9.215 -0.3876  0.9474  0.9957
 1955SOL    HW217325   2.847   1.909   9.106 -1.7785  1.9206  1.9635
 1956SOL     OW17326   1.011   0.235   3.084 -0.1696 -0.3361 -0.4025
 1956SOL    HW117327   1.067   0.208   3.157  0.9311  0.6497 -0.8707
 1956SOL    HW217328   1.053   0.321   3.077  0.4827 -0.7191 -1.3073
 1957SOL     OW17329   2.804   3.661   5.483 -0.1507  0.3026 -0.3245
 1957SOL    HW117330   2.889   3.698   5.509  0.2105 -1.7521  1.4840
 1957SOL    HW217331   2.800   3.580   5.535 -0.8013 -0.1548 -1.1074
 1958SOL     OW17332   1.923   0.766   8.294  0.7050  0.3161  0.3522
 1958SOL    HW117333   1.931   0.754   8.199  1.7469  2.5345  0.1663
 1958SOL    HW217334   1.903   0.677   8.323  1.0863 -1.0152 -3.4097
 1959SOL     OW17335   4.231   1.311   1.534 -0.3968 -0.0802 -0.7306
 1959SOL    HW117336   4.284   1.250   1.586  0.1317 -0.2203 -1.4258
 1959SOL    HW217337   4.274   1.393   1.556  1.0305 -0.7622 -0.9740
 1960SOL     OW17338   3.093   3.174   3.408  0.4083  0.4823 -0.2109
 1960SOL    HW117339   3.163   3.115   3.381 -0.5269  0.6198 -2.9743
 1960SOL    HW217340   3.105   3.244   3.345  0.4964  0.5758 -0.0887
 1961SOL     OW17341   0.679   3.556   1.420  0.1790 -0.1154  0.5701
 1961SOL    HW117342   0.602   3.603   1.451 -0.8644 -1.3680 -0.0962
 1961SOL    HW217343   0.706   3.612   1.347  0.2039 -1.5136 -0.5100
 1962SOL     OW17344   2.951   4.636  15.522  0.2814  0.2631 -1.0470
 1962SOL    HW117345   2.903   4.577  15.464  0.4981  0.1231 -1.0822
 1962SOL    HW217346   2.889   4.657  15.592  0.7591 -1.9367  0.0318
 1963SOL     OW17347   4.570   4.360   1.796 -0.7034 -0.1911 -0.6358
 1963SOL    HW117348   4.506   4.397   1.857 -0.2847  1.4655 -1.2156
 1963SOL    HW217349   4.632   4.322   1.858  1.2653  1.3793 -1.6704
 1964SOL     OW17350   0.087   1.751   9.178 -0.0376 -0.3579  0.0273
 1964SOL    HW117351   4.716   1.749   9.191 -0.0997  2.3293 -0.1163
 1964SOL    HW217352   0.105   1.717   9.266  2.5864  0.1044 -0.3111
 1965SOL     OW17353   0.508   0.965   2.629 -0.1803 -0.1029  0.0314
 1965SOL    HW117354   0.585   0.908   2.620  0.3751  0.9417 -1.8368
 1965SOL    HW217355   0.551   1.047   2.650 -0.8811 -0.1140  1.5674
 1966SOL     OW17356   3.803   1.104  13.422  0.5914 -0.5924  0.6704
 1966SOL    HW117357   3.811   1.180  13.365 -2.0778 -1.4325 -0.8330
 1966SOL    HW217358   3.800   1.040  13.351  1.5769 -2.3342  2.1845
 1967SOL     OW17359   2.294   2.980   4.983  0.5107  0.6545  0.6663
 1967SOL    HW117360   2.286   3.022   5.069  1.0858  0.2412  0.9220
 1967SOL    HW217361   2.385   2.952   4.986  0.0236 -0.6426  3.1971
 1968SOL     OW17362   1.133   1.309  14.771 -0.3744 -0.0543 -0.2666
 1968SOL    HW117363   1.133   1.396  14.811  0.8840 -0.9520  1.6651
 1968SOL    HW217364   1.139   1.336  14.679 -2.2554 -0.6994 -0.5823
 1969SOL     OW17365   1.813   3.605   0.378 -0.0101  0.5999  0.4453
 1969SOL    HW117366   1.735   3.660   0.375 -1.0578 -0.8340  1.4978
 1969SOL    HW217367   1.782   3.539   0.440  1.0937 -2.0718 -1.8545
 1970SOL     OW17368   1.995   3.451   9.683  0.1350  0.2645  0.4552
 1970SOL    HW117369   2.004   3.520   9.749 -2.2281  0.6606  0.3748
 1970SOL    HW217370   1.919   3.402   9.716  1.4455 -1.8847  0.2700
 1971SOL     OW17371   3.133   0.174  11.823 -0.1843 -0.3049 -0.2181
 1971SOL    HW117372   3.176   0.258  11.835 -1.0676  0.2443 -0.9352
 1971SOL    HW217373   3.067   0.183  11.754  0.3936 -0.2283 -0.7628
 1972SOL     OW17374   0.691   3.212   8.238  0.5467  0.3283 -0.5377
 1972SOL    HW117375   0.670   3.225   8.331  0.8372  0.8187 -0.5428
 1972SOL    HW217376   0.654   3.125   8.225  0.5714 -0.0340  1.8165
 1973SOL     OW17377   1.115   3.426   6.631  0.1277 -0.1181 -0.2691
 1973SOL    HW117378   1.105   3.477   6.711  1.9498  0.0952 -0.1749
 1973SOL    HW217379   1.039   3.367   6.635  0.4565 -0.3673  2.3244
 1974SOL     OW17380   1.950   3.617  10.112 -0.2892 -0.7288  0.5479
 1974SOL    HW117381   1.922   3.528  10.093 -0.0708 -0.2487 -2.0385
 1974SOL    HW217382   1.955   3.654  10.024  0.8321  0.3325  1.0485
 1975SOL     OW17383   0.634   2.726  16.931 -0.0674  0.6051 -0.1763
 1975SOL    HW117384   0.625   2.770  17.016 -0.6736  1.9347 -0.9374
 1975SOL    HW217385   0.614   2.798  16.873  1.9362 -0.0784 -1.7033
 1976SOL     OW17386   3.709   1.012   6.890  0.2009  0.4521  0.2014
 1976SOL    HW117387   3.681   0.956   6.818  0.0986 -0.3219  0.8489
 1976SOL    HW217388   3.674   0.961   6.963 -3.5546  2.1689 -0.3799
 1977SOL     OW17389   4.404   2.730  13.837  0.0801  0.3208  0.6364
 1977SOL    HW117390   4.368   2.810  13.797 -0.9445 -0.3707  0.1839
 1977SOL    HW217391   4.334   2.702  13.895  0.5909 -0.0636  1.0719
 1978SOL     OW17392   3.452   2.478   6.491 -0.1049 -0.1883 -0.1078
 1978SOL    HW117393   3.464   2.388   6.460 -1.5798 -0.6379  0.6240
 1978SOL    HW217394   3.544   2.503   6.483  0.5102 -0.6348  5.1542
 1979SOL     OW17395   0.609   2.489   7.600 -0.3286 -0.2271 -0.5742
 1979SOL    HW117396   0.548   2.531   7.660  2.2331  0.3102  1.6620
 1979SOL    HW217397   0.648   2.420   7.653  1.0492 -0.7243 -2.2215
 1980SOL     OW17398   3.760   1.932   8.991 -0.3554  0.5991  0.2720
 1980SOL    HW117399   3.808   1.871   9.046 -0.1561 -0.7253 -1.3671
 1980SOL    HW217400   3.685   1.877   8.969 -1.1143  1.1800  1.3893
 1981SOL     OW17401   4.427   2.034   3.808  0.4569  0.0850 -0.7788
 1981SOL    HW117402   4.480   2.080   3.744  0.9194  0.2973 -0.2476
 1981SOL    HW217403   4.380   2.105   3.851  0.6607 -1.1698  1.5262
 1982SOL     OW17404   4.243   2.029  10.729 -0.0577 -0.7062  0.0261
 1982SOL    HW117405   4.322   2.031  10.782  0.2986 -0.5641 -0.5140
 1982SOL    HW217406   4.280   2.017  10.642 -1.4328 -0.1004 -0.6344
 1983SOL     OW17407   0.444   3.672   5.714  0.2018 -0.2196  0.2950
 1983SOL    HW117408   0.400   3.736   5.659  0.2948 -1.0513 -0.7417
 1983SOL    HW217409   0.536   3.687   5.691 -0.1974  2.9939  0.7446
 1984SOL     OW17410   3.941   4.146   2.493 -0.2343 -0.1979  0.2623
 1984SOL    HW117411   3.988   4.229   2.481 -0.9259  0.2101  0.3047
 1984SOL    HW217412   3.989   4.093   2.430 -2.0822 -0.8197 -0.6400
 1985SOL     OW17413   0.479   4.617   7.620 -0.1048 -0.0879  0.3592
 1985SOL    HW117414   0.470   4.555   7.548  0.4906 -0.5448  0.6658
 1985SOL    HW217415   0.470   4.556   7.694  1.4400  1.7631  2.0718
 1986SOL     OW17416   0.530   3.992   1.917  0.6187  0.0714 -0.3467
 1986SOL    HW117417   0.462   3.983   1.984 -1.3185 -0.3574 -2.4114
 1986SOL    HW217418   0.479   4.024   1.843  0.2706 -1.8445 -0.9287
 1987SOL     OW17419   0.371   1.496   4.761  0.3681 -0.2752 -0.4229
 1987SOL    HW117420   0.296   1.437   4.750  0.2259 -0.2926  0.7217
 1987SOL    HW217421   0.411   1.447   4.833  0.1038  0.3299  0.1282
 1988SOL     OW17422   4.704   2.593  14.338 -0.2248 -0.1593 -0.2953
 1988SOL    HW117423   4.655   2.513  14.320  0.6142 -0.8716  0.5592
 1988SOL    HW217424   0.049   2.597  14.271  0.2100 -0.9149  0.0996
 1989SOL     OW17425   3.110   4.264   1.383  0.3632  0.2577 -0.1575
 1989SOL    HW117426   3.184   4.215   1.347  0.2037 -0.2350  0.1937
 1989SOL    HW217427   3.036   4.203   1.387  0.7655 -0.2399 -0.3524
 1990SOL     OW17428   0.467   3.131   6.127 -0.7715 -0.2929  0.5467
 1990SOL    HW117429   0.547   3.085   6.154 -0.0998  0.3723 -0.2747
 1990SOL    HW217430   0.409   3.132   6.203  0.3995  1.0706  1.4210
 1991SOL     OW17431   2.922   1.869   6.975  0.4840  0.1015  0.4814
 1991SOL    HW117432   2.930   1.960   6.948  0.5974 -0.1525 -0.3516
 1991SOL    HW217433   2.830   1.866   7.002  1.1072 -1.9907  2.4473
 1992SOL     OW17434   4.006   2.829   8.138 -0.2558  0.1211 -0.0332
 1992SOL    HW117435   4.049   2.863   8.060 -0.0700  0.0395  0.0351
 1992SOL    HW217436   3.999   2.903   8.198 -0.1829  0.5359 -0.5439
 1993SOL     OW17437   3.643   0.579   4.735 -0.3368  0.3316  0.6129
 1993SOL    HW117438   3.709   0.611   4.674  0.1100 -0.6086  0.6154
 1993SOL    HW217439   3.643   0.485   4.716  2.2304  0.2047  1.2993
 1994SOL     OW17440   2.935   2.650   4.471 -0.3870 -0.6688  0.4845
 1994SOL    HW117441   3.004   2.610   4.417 -0.9509 -1.5772  0.4367
 1994SOL    HW217442   2.931   2.575   4.531  0.3566  1.3327  3.0340
 1995SOL     OW17443   2.199   0.397  17.220  0.1955 -0.2567  0.0357
 1995SOL    HW117444   2.190   0.474  17.164  1.7284 -0.2277 -0.1732
 1995SOL    HW217445   2.291   0.375  17.202  0.4710 -0.3033  1.4678
 1996SOL     OW17446   0.245   2.378  11.617  0.1049 -0.5978 -0.2655
 1996SOL    HW117447   0.293   2.452  11.653 -0.9852 -0.1550  0.2789
 1996SOL    HW217448   0.179   2.359  11.683  0.0103  0.0537 -0.1729
 1997SOL     OW17449   1.956   3.849   8.364 -0.0424  0.3196  0.5428
 1997SOL    HW117450   2.022   3.807   8.309 -0.8348 -0.5869  0.2769
 1997SOL    HW217451   1.933   3.927   8.313  1.6542  1.0639  0.9117
 1998SOL     OW17452   4.000   2.739  14.048  0.2339 -0.2824  0.3520
 1998SOL    HW117453   3.988   2.833  14.064  2.7374  0.0765  0.0370
 1998SOL    HW217454   3.910   2.705  14.047 -0.5797  1.8154  0.5926
 1999SOL     OW17455   3.004   4.147   2.937 -0.1363 -1.6265 -0.0352
 1999SOL    HW117456   3.007   4.183   3.026 -0.9953  1.4471 -1.2762
 1999SOL    HW217457   2.919   4.183   2.913 -0.5346 -2.9238 -0.5617
 2000SOL     OW17458   4.699   3.069   4.901  0.6293 -0.1496 -0.8560
 2000SOL    HW117459   4.623   3.063   4.844 -0.9372  0.5298  1.1508
 2000SOL    HW217460   0.026   2.991   4.876  2.3915  0.6483  0.1592
 2001SOL     OW17461   3.626   4.043   6.800  0.2435  0.3781 -0.1289
 2001SOL    HW117462   3.652   4.129   6.768 -0.5675  0.9598  0.7737
 2001SOL    HW217463   3.569   4.069   6.872 -4.1015 -2.4560 -2.5752
 2002SOL     OW17464   2.922   2.502  13.721  0.4492 -0.3443 -0.0479
 2002SOL    HW117465   2.937   2.469  13.632  1.5619 -1.7384  0.6623
 2002SOL    HW217466   2.864   2.576  13.701  2.3174  1.0037 -0.4897
 2003SOL     OW17467   2.983   1.015  16.557 -0.1481  0.0208 -0.0344
 2003SOL    HW117468   2.888   1.024  16.563 -0.1117 -0.5011  1.3247
 2003SOL    HW217469   2.996   0.941  16.498  3.1421  0.1397  0.5421
 2004SOL     OW17470   3.448   3.435   2.482  0.7911  0.1456 -0.5709
 2004SOL    HW117471   3.431   3.468   2.394 -1.4437  1.2412  0.2666
 2004SOL    HW217472   3.480   3.347   2.462  0.3063  0.1197 -1.2271
 2005SOL     OW17473   0.675   0.163   0.523 -0.1651 -0.8036 -0.4876
 2005SOL    HW117474   0.747   0.170   0.461  1.5035 -3.2183  1.1911
 2005SOL    HW217475   0.686   0.236   0.585  1.7253 -0.3519 -1.3540
 2006SOL     OW17476   1.554   3.135   7.950 -0.3938 -0.6352  0.2704
 2006SOL    HW117477   1.636   3.102   7.914  0.7635  0.0679  2.2732
 2006SOL    HW217478   1.494   3.067   7.919 -0.8371  1.6008 -3.8061
 2007SOL     OW17479   2.210   4.172   7.009  0.2400 -0.4032 -0.3839
 2007SOL    HW117480   2.300   4.144   6.995  0.2095 -1.1244  0.9661
 2007SOL    HW217481   2.215   4.238   6.939  0.2409 -1.4266 -1.3564
 2008SOL     OW17482   0.351   0.413   3.978  0.3317  0.8396  0.0042
 2008SOL    HW117483   0.355   0.377   3.890  1.1069 -1.8691  1.1675
 2008SOL    HW217484   0.409   0.359   4.030  2.3416  1.7639 -1.2739
 2009SOL     OW17485   0.248   3.376   2.932 -0.2350 -0.6577 -0.2909
 2009SOL    HW117486   0.257   3.363   2.838  2.4040  0.2988 -0.1598
 2009SOL    HW217487   0.165   3.336   2.960 -0.2942 -1.1561 -1.1892
 2010SOL     OW17488   4.044   0.975  10.093 -0.3979 -0.5510  0.1185
 2010SOL    HW117489   4.064   0.981  10.187 -0.1855  2.9147 -0.1738
 2010SOL    HW217490   4.069   0.884  10.078  1.0892 -0.2577  0.8393
 2011SOL     OW17491   4.683   1.819   3.848  0.1986  0.2526 -0.6565
 2011SOL    HW117492   4.651   1.850   3.933 -0.9119 -0.7074 -0.7251
 2011SOL    HW217493   4.675   1.899   3.797 -0.1489  0.7928  0.2330
 2012SOL     OW17494   2.326   1.449  11.670 -0.6931 -0.1723  0.1926
 2012SOL    HW117495   2.317   1.498  11.589 -1.5584  0.2824  0.5668
 2012SOL    HW217496   2.413   1.409  11.672  1.1039  3.7872 -1.0304
 2013SOL     OW17497   4.112   0.710   1.765 -0.3171  0.3206  0.1116
 2013SOL    HW117498   4.151   0.667   1.688 -2.8887  0.0802 -1.0523
 2013SOL    HW217499   4.064   0.636   1.803  1.1949 -1.1580 -0.8462
 2014SOL     OW17500   0.005   3.866   6.504 -0.8088 -0.5252  0.5841
 2014SOL    HW117501   4.641   3.836   6.477 -1.6854  1.6929  0.9384
 2014SOL    HW217502   4.700   3.945   6.551 -0.8919  0.3215 -0.8844
 2015SOL     OW17503   0.543   0.252   2.726 -0.1616 -0.3605 -0.3427
 2015SOL    HW117504   0.485   0.325   2.705  1.4881  0.7328 -1.0224
 2015SOL    HW217505   0.594   0.251   2.645  1.3161 -0.4522  0.5893
 2016SOL     OW17506   3.572   3.238   7.887 -0.3388  0.3702 -0.1730
 2016SOL    HW117507   3.591   3.181   7.812  1.4629  2.0268 -0.9806
 2016SOL    HW217508   3.513   3.191   7.945  0.2371  1.0897  0.9917
 2017SOL     OW17509   0.215   2.340   6.904  0.6095 -0.5427 -0.1201
 2017SOL    HW117510   0.256   2.407   6.958  3.4513 -0.2294 -2.6844
 2017SOL    HW217511   0.141   2.389   6.870  1.1998 -0.7482 -1.7014
 2018SOL     OW17512   0.941   3.664  14.016  0.1507  0.3513 -0.2631
 2018SOL    HW117513   1.004   3.730  13.987  1.0679 -0.3540  0.1121
 2018SOL    HW217514   0.891   3.641  13.938 -1.2157 -0.0384  0.7343
 2019SOL     OW17515   3.207   4.455   8.363  0.2277  0.0152 -0.2327
 2019SOL    HW117516   3.235   4.363   8.361 -2.3322 -0.8182  2.1727
 2019SOL    HW217517   3.187   4.468   8.456 -0.4478 -4.4912  0.2491
 2020SOL     OW17518   2.089   0.246  17.402 -0.0489  0.2254  0.3004
 2020SOL    HW117519   2.161   0.184  17.392 -0.5412 -0.3091  0.0491
 2020SOL    HW217520   2.120   0.315  17.343 -1.9024  0.7988 -0.0145
 2021SOL     OW17521   0.793   1.108   4.928 -0.0962 -0.6483 -0.0499
 2021SOL    HW117522   0.783   1.164   4.851 -0.3572  0.8511  1.0707
 2021SOL    HW217523   0.843   1.041   4.881 -1.2250 -1.0807 -0.6411
 2022SOL     OW17524   1.889   3.195   0.026 -0.1033  0.3563 -0.5735
 2022SOL    HW117525   1.910   3.214   0.117 -1.8908  0.3634 -0.1564
 2022SOL    HW217526   1.885   3.286  17.687 -0.9903  0.5261  0.0138
 2023SOL     OW17527   3.304   1.140   1.453 -0.3185  0.4518  0.1863
 2023SOL    HW117528   3.343   1.184   1.529  2.8771 -4.5702  1.4467
 2023SOL    HW217529   3.384   1.126   1.403  0.6943  0.2099  1.8823
 2024SOL     OW17530   4.635   2.697   2.914 -0.0451 -0.0942  0.6385
 2024SOL    HW117531   4.652   2.607   2.943  3.8576 -0.0697 -1.4506
 2024SOL    HW217532   4.545   2.692   2.882  0.9752 -0.2444 -2.2844
 2025SOL     OW17533   2.326   0.672   8.157  0.4259 -0.0169  0.2735
 2025SOL    HW117534   2.409   0.696   8.197 -0.8183  1.6779  1.8465
 2025SOL    HW217535   2.268   0.713   8.221  0.3936  0.0541  0.1990
 2026SOL     OW17536   1.494   2.191  16.319 -0.1760 -0.0184  0.3391
 2026SOL    HW117537   1.508   2.228  16.231 -2.5298 -1.6800 -0.7470
 2026SOL    HW217538   1.569   2.222  16.370  0.3319 -2.1969  0.9329
 2027SOL     OW17539   1.710   0.440   6.963  0.4928  0.4294  0.6880
 2027SOL    HW117540   1.720   0.511   7.026 -0.9930  1.0242  0.2289
 2027SOL    HW217541   1.795   0.441   6.919  0.9859  1.4326  1.6591
 2028SOL     OW17542   1.403   0.123   2.136  0.0975  0.1337 -0.0409
 2028SOL    HW117543   1.460   0.061   2.182 -0.2101  1.3958  2.0419
 2028SOL    HW217544   1.467   0.161   2.075  0.6328  0.0123  0.4430
 2029SOL     OW17545   3.756   1.470   6.452 -0.0113 -0.4981 -0.2712
 2029SOL    HW117546   3.738   1.531   6.381  0.5013 -0.3859 -0.3044
 2029SOL    HW217547   3.687   1.405   6.435 -0.1624 -0.1533 -0.9698
 2030SOL     OW17548   1.466   4.213   2.843 -0.7127  0.0567  0.6339
 2030SOL    HW117549   1.430   4.188   2.927 -0.4480  0.4451  0.8626
 2030SOL    HW217550   1.558   4.186   2.853  0.1740  2.2660 -1.3665
 2031SOL     OW17551   3.488   4.654   4.626 -0.2854  0.0513 -0.1032
 2031SOL    HW117552   3.573   4.620   4.655 -1.3624 -2.1639  0.4371
 2031SOL    HW217553   3.449   4.577   4.585  1.6585 -1.1504  0.2643
 2032SOL     OW17554   1.527   4.211   5.908  0.5626  0.1114 -0.2931
 2032SOL    HW117555   1.522   4.221   6.004  1.5285  1.2470 -0.3590
 2032SOL    HW217556   1.459   4.271   5.875  0.3826 -0.3738 -0.7895
 2033SOL     OW17557   2.924   2.315   4.773  0.2071  0.5419 -0.0418
 2033SOL    HW117558   2.923   2.251   4.701  0.2669 -0.1508  0.5706
 2033SOL    HW217559   2.932   2.254   4.846 -1.8623  1.0263  0.5969
 2034SOL     OW17560   2.286   0.788   7.878 -0.6627  0.2150 -0.2714
 2034SOL    HW117561   2.298   0.743   7.961 -0.1716  1.6872  0.4551
 2034SOL    HW217562   2.198   0.762   7.851  0.1967 -0.7335 -2.2006
 2035SOL     OW17563   1.967   1.041   4.482 -0.4707  0.4309  0.1152
 2035SOL    HW117564   2.059   1.031   4.458  0.1135  1.9530  1.6832
 2035SOL    HW217565   1.950   1.131   4.454 -0.1201  0.5894  0.4094
 2036SOL     OW17566   4.294   3.415   7.996 -0.1885  0.2150  0.7053
 2036SOL    HW117567   4.287   3.503   8.032 -1.6452 -0.2614  1.5950
 2036SOL    HW217568   4.238   3.418   7.918 -0.0778 -0.8543  0.5748
 2037SOL     OW17569   2.078   4.671   2.118 -0.3062 -0.0631  0.3272
 2037SOL    HW117570   2.135   4.647   2.191 -1.6705 -2.2200  0.6648
 2037SOL    HW217571   2.118   0.031   2.090  1.8427 -1.3408 -0.3503
 2038SOL     OW17572   1.401   2.180   0.920  0.4284  0.2875 -0.1926
 2038SOL    HW117573   1.459   2.253   0.897  1.9372 -0.6475  0.6619
 2038SOL    HW217574   1.452   2.144   0.993 -1.4972 -2.3798 -0.1611
 2039SOL     OW17575   4.334   0.573   4.761 -0.3141 -0.6241 -0.4817
 2039SOL    HW117576   4.397   0.573   4.833  0.7602  0.5629 -1.4182
 2039SOL    HW217577   4.253   0.583   4.810  0.5034 -0.8127  0.9008
 2040SOL     OW17578   3.287   2.761   8.983  0.0903  0.5001 -0.0538
 2040SOL    HW117579   3.365   2.707   8.998 -1.6941 -2.5026 -1.4603
 2040SOL    HW217580   3.309   2.835   9.039 -1.1129  1.6230 -1.0607
 2041SOL     OW17581   1.143   4.532   7.748  0.5052 -0.0314 -0.5630
 2041SOL    HW117582   1.067   4.589   7.739  0.8675  0.8437  1.9167
 2041SOL    HW217583   1.211   4.587   7.787 -1.4064  1.1088  1.1344
 2042SOL     OW17584   3.404   3.658  11.262 -0.5199  0.4120  0.9659
 2042SOL    HW117585   3.478   3.599  11.273 -1.1738 -0.5453  0.1938
 2042SOL    HW217586   3.413   3.672  11.168 -1.3861  0.9976  0.9659
 2043SOL     OW17587   2.859   3.037   9.847  0.7107 -0.0270 -0.3247
 2043SOL    HW117588   2.838   2.961   9.902  1.5625  1.1943  1.6925
 2043SOL    HW217589   2.950   3.047   9.874  0.3118  0.6903  0.7566
 2044SOL     OW17590   3.294   4.023   5.556 -0.1927  0.3171  0.5957
 2044SOL    HW117591   3.228   4.009   5.488  1.1430 -1.0316 -0.4234
 2044SOL    HW217592   3.350   3.945   5.556  1.3825  1.4431 -0.5491
 2045SOL     OW17593   1.928   1.934  16.245 -0.3008  0.3668 -0.0725
 2045SOL    HW117594   1.887   1.883  16.175  1.8754  0.5194 -1.4402
 2045SOL    HW217595   1.870   1.931  16.321 -1.6906 -0.7113 -1.1728
 2046SOL     OW17596   2.072   1.682   2.106  0.1882 -0.4997 -0.3076
 2046SOL    HW117597   2.058   1.656   2.197  1.2198 -0.0244 -0.0201
 2046SOL    HW217598   2.096   1.774   2.112  0.8315 -0.5735 -1.7709
 2047SOL     OW17599   1.122   2.389   6.224  0.2079 -0.3768 -0.1058
 2047SOL    HW117600   1.049   2.328   6.236 -0.6806  0.7999  0.6373
 2047SOL    HW217601   1.130   2.403   6.130 -0.0080 -1.0180 -0.2194
 2048SOL     OW17602   0.147   0.305   9.237 -0.1880 -0.3038  0.2231
 2048SOL    HW117603   0.094   0.384   9.228 -1.6886 -1.2297  0.9927
 2048SOL    HW217604   0.084   0.233   9.240 -1.2387  0.6496  1.2596
 2049SOL     OW17605   2.353   0.010   4.389  0.2443  0.0870 -0.5456
 2049SOL    HW117606   2.447   0.020   4.372  0.1076 -0.4577 -1.5979
 2049SOL    HW217607   2.323   0.003   4.299  0.9999  2.7575 -0.9986
 2050SOL     OW17608   2.372   3.294   2.566 -0.2748 -0.1196 -0.0358
 2050SOL    HW117609   2.401   3.385   2.558 -0.3452 -0.0317  0.7351
 2050SOL    HW217610   2.452   3.243   2.568  1.2380  2.2487  0.1766
 2051SOL     OW17611   3.914   3.941  11.979 -0.0046  0.2756  0.1477
 2051SOL    HW117612   3.897   3.926  11.886 -2.0037 -1.1069  0.7539
 2051SOL    HW217613   3.834   3.983  12.010 -0.7997 -0.8863 -0.3129
 2052SOL     OW17614   1.373   3.094   8.803  0.3438  0.4036  0.3116
 2052SOL    HW117615   1.455   3.068   8.844  0.5454 -0.1873 -0.4700
 2052SOL    HW217616   1.338   3.007   8.783 -0.4599  0.4480  1.5162
 2053SOL     OW17617   3.695   2.910  15.228 -0.2673  0.1216  0.3710
 2053SOL    HW117618   3.616   2.864  15.255  0.3347 -0.0351  1.8377
 2053SOL    HW217619   3.688   2.927  15.134  0.6264 -1.4661  0.0047
 2054SOL     OW17620   0.274   0.009   3.535 -0.1147 -0.3530  0.3566
 2054SOL    HW117621   0.232   0.075   3.480  0.5602 -1.9608 -2.1297
 2054SOL    HW217622   0.287   4.667   3.465  0.9683 -0.4673  0.6688
 2055SOL     OW17623   0.793   4.690  15.327 -0.2760 -0.0896  0.4200
 2055SOL    HW117624   0.862   4.688  15.393  0.2718  0.3992 -0.1357
 2055SOL    HW217625   0.836   4.639  15.258 -1.0024 -0.3628  0.1683
 2056SOL     OW17626   2.727   2.748   7.557  0.0472  0.0834  0.4322
 2056SOL    HW117627   2.728   2.752   7.652  1.2283 -0.3488  0.4417
 2056SOL    HW217628   2.634   2.762   7.537 -0.1189 -0.4969  0.8132
 2057SOL     OW17629   1.279   4.304   7.724 -0.0798  0.0670  0.2713
 2057SOL    HW117630   1.226   4.238   7.679  2.3534 -1.3198 -0.5484
 2057SOL    HW217631   1.220   4.379   7.727  0.7682  0.8261 -2.6467
 2058SOL     OW17632   3.912   0.576   3.077 -0.2993 -0.4682 -0.1213
 2058SOL    HW117633   3.985   0.571   3.015 -2.3039  1.0481 -2.6184
 2058SOL    HW217634   3.955   0.558   3.160  1.0003 -0.3826 -0.7805
 2059SOL     OW17635   1.641   1.809   4.382 -0.7015 -0.2730 -0.5940
 2059SOL    HW117636   1.613   1.726   4.344  3.1317 -2.2597  0.9087
 2059SOL    HW217637   1.568   1.870   4.371 -0.3543 -0.1114 -2.1307
 2060SOL     OW17638   0.716   3.386   9.553  0.0355  0.1657  0.1903
 2060SOL    HW117639   0.797   3.342   9.582  0.5376  0.5815 -0.5854
 2060SOL    HW217640   0.659   3.312   9.572  1.0613 -1.3560 -2.5812
 2061SOL     OW17641   2.119   0.975   0.079  0.6198  0.1511 -0.3772
 2061SOL    HW117642   2.212   0.992   0.094  0.8538 -0.8420 -0.6751
 2061SOL    HW217643   2.098   1.060   0.041  1.1645  0.6640  0.4951
 2062SOL     OW17644   1.399   4.382  16.916  0.0540  0.4013 -0.0332
 2062SOL    HW117645   1.401   4.434  16.836 -0.7597  3.1800  1.7373
 2062SOL    HW217646   1.410   4.294  16.880 -4.4835  0.4378 -1.5698
 2063SOL     OW17647   3.148   2.977  10.734 -0.1447  0.1723  0.1796
 2063SOL    HW117648   3.180   3.049  10.679 -0.1277  1.2961  1.6677
 2063SOL    HW217649   3.077   3.022  10.780  0.5575 -0.4923  1.8677
 2064SOL     OW17650   0.999   3.914   5.145  0.1092  0.3444 -0.1127
 2064SOL    HW117651   0.990   3.939   5.236  0.5214 -0.1715  0.0704
 2064SOL    HW217652   0.956   3.829   5.132 -0.5575  0.6628 -0.0384
 2065SOL     OW17653   4.678   4.096   9.554  0.0037  0.5432 -0.4435
 2065SOL    HW117654   4.652   4.004   9.550 -0.5130  0.8403 -3.3947
 2065SOL    HW217655   4.593   4.139   9.561  0.2749  0.8147  1.2097
 2066SOL     OW17656   1.464   2.037   2.000  0.1095 -0.0917  0.3405
 2066SOL    HW117657   1.529   2.105   2.015 -0.0730  0.5687 -1.8144
 2066SOL    HW217658   1.479   2.036   1.905 -1.3764  1.5961  0.0808
 2067SOL     OW17659   4.636   2.144   5.030  0.0697  0.0830  0.1732
 2067SOL    HW117660   4.641   2.116   4.939  0.2847  1.4220 -0.2182
 2067SOL    HW217661   4.546   2.130   5.058  0.1757 -0.8654  0.0598
 2068SOL     OW17662   3.145   3.872   0.360  0.1283  0.0724 -0.0922
 2068SOL    HW117663   3.107   3.958   0.381  0.3238 -0.7588  3.5331
 2068SOL    HW217664   3.136   3.826   0.443  2.2838 -1.3947 -0.6864
 2069SOL     OW17665   1.124   0.936  14.403 -0.8184  0.3283  0.5299
 2069SOL    HW117666   1.138   0.847  14.370  0.2038  0.3728  0.8502
 2069SOL    HW217667   1.191   0.980  14.352 -3.4572 -0.3232 -3.5580
 2070SOL     OW17668   2.782   3.656   9.631 -0.0987  0.2168 -0.1814
 2070SOL    HW117669   2.711   3.693   9.683  0.7875 -1.6332  2.3443
 2070SOL    HW217670   2.796   3.577   9.683 -2.4636  0.3778  0.7073
 2071SOL     OW17671   4.065   1.703   2.985 -0.4221  0.1402  0.7227
 2071SOL    HW117672   4.067   1.643   3.059  0.3735  0.2241  0.7642
 2071SOL    HW217673   4.056   1.648   2.908  0.7180  0.7026  0.1907
 2072SOL     OW17674   3.552   3.059   7.658 -0.0499 -0.0233  0.4604
 2072SOL    HW117675   3.467   3.023   7.685 -0.6458  0.0944 -1.2275
 2072SOL    HW217676   3.583   2.992   7.598  0.4177 -0.3384  1.0528
 2073SOL     OW17677   0.190   4.199   7.017  0.4931 -0.2752 -0.1290
 2073SOL    HW117678   0.197   4.186   7.111 -1.1905  2.3632  0.3710
 2073SOL    HW217679   0.124   4.130   7.010  0.1045  0.1260 -0.3972
 2074SOL     OW17680   2.033   4.390  13.178  0.0645  0.7693 -0.5580
 2074SOL    HW117681   2.053   4.297  13.189  2.0378  1.2020 -0.4345
 2074SOL    HW217682   2.119   4.424  13.154  0.2671  0.7244  0.1059
 2075SOL     OW17683   0.330   4.020   2.164 -0.6477  0.0233 -0.4340
 2075SOL    HW117684   0.303   4.042   2.253 -1.1142  0.1336 -0.6068
 2075SOL    HW217685   0.258   3.964   2.137 -0.3995 -0.6989  0.3837
 2076SOL     OW17686   4.574   2.871   4.741  0.8415 -0.1685  0.1287
 2076SOL    HW117687   4.521   2.806   4.787 -0.6574  1.2479  0.3890
 2076SOL    HW217688   4.663   2.843   4.763  0.6963 -0.5598  0.2260
 2077SOL     OW17689   2.091   3.022   6.548 -0.5622 -0.2302  0.6688
 2077SOL    HW117690   2.084   2.931   6.519  0.7759  0.2176 -1.0979
 2077SOL    HW217691   2.166   3.016   6.608  0.8198  1.8474 -0.8419
 2078SOL     OW17692   1.087   1.685   8.097  0.8379  0.0977  0.1225
 2078SOL    HW117693   1.028   1.615   8.067  0.6305  0.3802 -0.1212
 2078SOL    HW217694   1.058   1.698   8.187 -0.3684  0.7795 -0.3608
 2079SOL     OW17695   3.021   1.491  10.093  0.1935  0.1832 -0.4526
 2079SOL    HW117696   3.082   1.519  10.025  0.3501  0.1007 -0.3444
 2079SOL    HW217697   3.032   1.396  10.089  1.6869  0.3423  0.0433
 2080SOL     OW17698   1.850   4.248  12.375 -0.2650  0.1889 -0.1278
 2080SOL    HW117699   1.798   4.326  12.357 -1.0249 -0.2452  0.1669
 2080SOL    HW217700   1.783   4.180  12.381  0.2182 -0.2116  0.9249
 2081SOL     OW17701   1.405   4.486   3.315  0.3670 -0.6417  0.3958
 2081SOL    HW117702   1.405   4.442   3.400  0.4618  0.2002  0.8229
 2081SOL    HW217703   1.412   4.576   3.346 -1.2901 -0.3575 -0.0012
 2082SOL     OW17704   2.240   0.171   2.076  0.1351  0.5934  0.4370
 2082SOL    HW117705   2.251   0.255   2.119  1.9638  0.6181 -0.0537
 2082SOL    HW217706   2.294   0.173   1.997  1.2186 -2.5656  1.0879
 2083SOL     OW17707   0.851   3.977   2.420  0.1579 -0.1504  0.1089
 2083SOL    HW117708   0.802   4.006   2.497  0.0140  0.5363 -0.2365
 2083SOL    HW217709   0.769   3.957   2.374  1.3610 -0.7791 -1.7845
 2084SOL     OW17710   2.335   3.485   5.323 -0.3731 -0.9327  0.3526
 2084SOL    HW117711   2.349   3.464   5.415  0.7874  0.6083  0.5233
 2084SOL    HW217712   2.418   3.521   5.294 -0.6087  0.5962  1.6176
 2085SOL     OW17713   4.304   1.775   4.558 -0.6286  0.7152  0.1597
 2085SOL    HW117714   4.310   1.719   4.481 -1.2696  0.3388  0.3841
 2085SOL    HW217715   4.389   1.753   4.595 -0.8450  1.0275  0.8524
 2086SOL     OW17716   2.053   1.773   3.246  0.1966  0.0646 -0.0964
 2086SOL    HW117717   2.082   1.722   3.171  0.6143  0.1904 -0.0220
 2086SOL    HW217718   1.983   1.825   3.207  0.6822 -1.3793 -2.8678
 2087SOL     OW17719   4.140   2.495   5.001 -0.1379 -0.3986 -0.6138
 2087SOL    HW117720   4.066   2.520   4.946 -0.0565  0.9818 -0.0827
 2087SOL    HW217721   4.212   2.547   4.967 -0.4598  0.2723 -0.2811
 2088SOL     OW17722   1.509   0.647   0.478  0.3252  0.1650  0.2980
 2088SOL    HW117723   1.477   0.671   0.565 -2.0544 -0.7253 -0.3218
 2088SOL    HW217724   1.490   0.723   0.423 -2.3631  0.1437  1.1719
 2089SOL     OW17725   1.559   3.854   3.116  0.2319 -0.0374 -0.0766
 2089SOL    HW117726   1.578   3.848   3.210 -2.7760 -3.4926  0.3194
 2089SOL    HW217727   1.479   3.803   3.104  0.3317 -0.4300  0.9192
 2090SOL     OW17728   3.168   2.906   9.897 -0.1898  0.0698  0.6880
 2090SOL    HW117729   3.192   2.887   9.806 -1.5369 -1.3651  0.6107
 2090SOL    HW217730   3.249   2.938   9.934  0.2059 -0.2523  0.1072
 2091SOL     OW17731   0.756   4.678   3.579 -0.1022 -0.3784 -0.2191
 2091SOL    HW117732   0.809   4.649   3.505  1.7192  1.7533  0.2498
 2091SOL    HW217733   0.699   4.601   3.583 -0.6204  0.0213  0.0470
 2092SOL     OW17734   0.831   1.145   6.960  0.3399 -0.3354 -0.0656
 2092SOL    HW117735   0.813   1.171   7.050  0.9691 -0.8000  0.2016
 2092SOL    HW217736   0.846   1.052   6.979  2.0411 -0.2008 -0.7012
 2093SOL     OW17737   0.009   1.225  10.021 -0.5185  0.2120  0.4427
 2093SOL    HW117738   4.637   1.226  10.032 -0.7033 -0.8094 -1.0130
 2093SOL    HW217739   0.045   1.136  10.020 -0.1171  0.3777 -0.1227
 2094SOL     OW17740   3.107   0.400  12.622  0.6855 -0.1631  0.3439
 2094SOL    HW117741   3.186   0.375  12.670 -1.1348 -0.1198  3.4104
 2094SOL    HW217742   3.111   0.492  12.598 -0.0328 -0.1153  0.4174
 2095SOL     OW17743   2.022   0.676  17.487 -0.3983  0.2638 -0.0749
 2095SOL    HW117744   2.067   0.679  17.403  0.2869  2.1899  0.3678
 2095SOL    HW217745   2.067   0.605  17.533 -0.7283  0.1277  0.0466
 2096SOL     OW17746   4.313   3.146   3.247  0.1975  0.4280  0.5141
 2096SOL    HW117747   4.248   3.215   3.242  2.5210  2.5553 -0.1775
 2096SOL    HW217748   4.398   3.189   3.257 -0.2410  0.5339  3.6036
 2097SOL     OW17749   0.153   2.265   4.253  0.0009  0.2327 -0.7873
 2097SOL    HW117750   0.228   2.264   4.194  0.6222 -0.6981  0.0083
 2097SOL    HW217751   0.154   2.178   4.293 -3.1256  0.6588  0.2201
 2098SOL     OW17752   1.889   1.945   6.736 -0.2303  0.2461  0.2520
 2098SOL    HW117753   1.982   1.956   6.715 -0.4179 -1.4473 -1.3887
 2098SOL    HW217754   1.898   1.931   6.830 -1.0928 -0.4693  0.2238
 2099SOL     OW17755   2.159   2.565   7.731 -0.3760 -0.7806 -0.0503
 2099SOL    HW117756   2.090   2.617   7.772 -1.4065 -1.3601 -1.0508
 2099SOL    HW217757   2.124   2.520   7.654 -1.4550  0.4644 -0.2979
 2100SOL     OW17758   4.505   1.362  15.060  0.2299 -0.6460  0.0257
 2100SOL    HW117759   4.442   1.306  15.106 -0.8208  0.3842 -0.1634
 2100SOL    HW217760   4.588   1.325  15.092  1.5793  1.0443 -1.5216
 2101SOL     OW17761   3.787   0.976   7.306 -0.2676 -0.0026  0.3074
 2101SOL    HW117762   3.830   1.039   7.363 -1.8587  1.1925  0.1787
 2101SOL    HW217763   3.811   1.010   7.220  2.7874 -0.6881  0.8651
 2102SOL     OW17764   4.337   2.846  16.452  0.0901  0.0543 -0.0720
 2102SOL    HW117765   4.362   2.789  16.379 -0.0540 -0.2429  0.1133
 2102SOL    HW217766   4.242   2.858  16.445  0.3637  1.5809 -1.2477
 2103SOL     OW17767   3.539   2.179   2.935 -0.2635 -0.0320  0.2100
 2103SOL    HW117768   3.605   2.110   2.944 -0.2507  0.0274  0.5476
 2103SOL    HW217769   3.459   2.126   2.940 -2.6767  3.4273 -1.5041
 2104SOL     OW17770   3.104   4.500   1.526  0.1004 -0.0843 -0.7730
 2104SOL    HW117771   3.077   4.428   1.468  1.7562 -1.9427  0.7298
 2104SOL    HW217772   3.075   4.468   1.612 -2.3668 -2.4899 -2.4986
 2105SOL     OW17773   1.580   3.706   0.443 -0.2504 -0.5832  0.2356
 2105SOL    HW117774   1.570   3.771   0.513 -0.0724  0.2570 -0.5141
 2105SOL    HW217775   1.491   3.707   0.408 -0.1065  1.4282 -0.1196
 2106SOL     OW17776   0.419   1.953  11.853 -0.4926  0.3638  0.3937
 2106SOL    HW117777   0.514   1.951  11.851 -0.5453 -1.1189 -0.7348
 2106SOL    HW217778   0.404   1.879  11.912 -1.7093  1.4696  1.4666
 2107SOL     OW17779   4.317   4.425   7.080 -0.6287  0.2308  0.0032
 2107SOL    HW117780   4.340   4.483   7.008 -0.2666  0.7793  0.5644
 2107SOL    HW217781   4.238   4.467   7.116 -0.8385 -0.1357 -0.0336
 2108SOL     OW17782   2.849   2.492   7.156  0.0889 -0.3619 -0.3167
 2108SOL    HW117783   2.824   2.584   7.150  1.5656  0.0529 -0.0323
 2108SOL    HW217784   2.804   2.473   7.238  2.2076  0.3936  1.0182
 2109SOL     OW17785   2.568   4.405  17.640  0.1845  0.0480  0.2057
 2109SOL    HW117786   2.639   4.342  17.624  0.1670 -0.3293  1.6385
 2109SOL    HW217787   2.600   4.426   0.034 -0.8063  1.6822  0.1688
 2110SOL     OW17788   2.865   3.739   3.211  0.0660 -0.5161  0.4053
 2110SOL    HW117789   2.891   3.791   3.135 -0.5533 -0.7408  0.0324
 2110SOL    HW217790   2.945   3.687   3.203  1.0100  0.9763  0.1899
 2111SOL     OW17791   3.081   3.483   4.383  0.3427  0.8367 -0.9871
 2111SOL    HW117792   3.073   3.389   4.368  1.7808  0.9192 -2.2733
 2111SOL    HW217793   3.095   3.506   4.291 -3.7684  3.0600 -1.0733
 2112SOL     OW17794   1.924   0.880  10.825 -0.0194  0.0637  0.7418
 2112SOL    HW117795   1.999   0.934  10.849  0.9017 -1.2264  0.7342
 2112SOL    HW217796   1.870   0.952  10.792  2.5695  1.9207  0.6101
 2113SOL     OW17797   4.371   3.268   7.714  0.1388  0.0779 -0.0940
 2113SOL    HW117798   4.313   3.343   7.730 -1.1486 -0.9810  0.1821
 2113SOL    HW217799   4.456   3.292   7.749  0.0942 -0.8241  0.6359
 2114SOL     OW17800   4.030   3.199   4.873  0.0180 -0.2765  0.6053
 2114SOL    HW117801   4.074   3.266   4.819  1.1006 -2.0295 -0.6808
 2114SOL    HW217802   3.951   3.245   4.902 -0.7307 -0.8825 -0.4466
 2115SOL     OW17803   0.663   2.283   7.759 -0.3964 -0.1612 -0.5492
 2115SOL    HW117804   0.682   2.220   7.828  1.7361  0.7437 -0.3213
 2115SOL    HW217805   0.580   2.257   7.720  0.1179  0.6062 -2.1647
 2116SOL     OW17806   0.907   2.218   0.740 -0.2035  0.0918 -0.2421
 2116SOL    HW117807   0.998   2.201   0.763 -0.0414 -1.1869 -1.8183
 2116SOL    HW217808   0.872   2.130   0.753 -1.3208  0.6064  0.2165
 2117SOL     OW17809   3.139   3.825   3.406 -0.2035  0.0084  0.0755
 2117SOL    HW117810   3.118   3.784   3.322 -1.4521 -0.0432  0.4094
 2117SOL    HW217811   3.234   3.814   3.408 -0.3486 -1.4845 -0.9973
 2118SOL     OW17812   2.432   0.300  11.709 -0.4218  0.5713  0.7181
 2118SOL    HW117813   2.491   0.333  11.778 -0.1398  3.0058 -0.7030
 2118SOL    HW217814   2.400   0.379  11.665 -0.8636 -0.5305 -0.9270
 2119SOL     OW17815   2.641   1.597   8.300 -0.0198 -0.5463  0.0396
 2119SOL    HW117816   2.604   1.614   8.213 -0.8611  0.8191  0.6705
 2119SOL    HW217817   2.567   1.550   8.340 -2.3765  1.8935 -1.5078
 2120SOL     OW17818   3.937   4.294   7.111 -0.1634 -0.0477 -0.3017
 2120SOL    HW117819   3.947   4.199   7.121 -3.1576 -0.4820 -1.1737
 2120SOL    HW217820   3.843   4.303   7.131  0.1882  0.5854  1.1249
 2121SOL     OW17821   3.685   1.290   2.750  0.1252 -0.8198  0.5262
 2121SOL    HW117822   3.721   1.255   2.832 -2.2561 -0.6769  1.6363
 2121SOL    HW217823   3.617   1.341   2.794 -0.8838  0.1719 -2.1733
 2122SOL     OW17824   3.375   0.620   8.681  0.3779 -0.2754  0.4145
 2122SOL    HW117825   3.450   0.588   8.632  0.9391  0.4329  0.8049
 2122SOL    HW217826   3.321   0.541   8.685  0.7881 -0.4254  2.9326
 2123SOL     OW17827   4.519   1.491   7.177 -0.4532 -0.0537 -0.5239
 2123SOL    HW117828   4.458   1.506   7.250 -0.6590  0.8752 -0.8867
 2123SOL    HW217829   4.490   1.414   7.129 -2.4162  0.4247 -0.1003
 2124SOL     OW17830   0.737   2.434   4.961 -0.2675 -0.0332  0.1026
 2124SOL    HW117831   0.730   2.374   4.886 -0.8019  0.3959 -0.1932
 2124SOL    HW217832   0.816   2.398   4.999 -1.2923 -1.0219  1.3120
 2125SOL     OW17833   1.839   4.473  17.293  0.9121  0.5204 -0.0543
 2125SOL    HW117834   1.842   4.379  17.273  0.8561  0.1433  1.6334
 2125SOL    HW217835   1.746   4.492  17.276  0.8973  2.5608  2.2947
 2126SOL     OW17836   3.169   2.905   6.375  0.1806  0.2190  0.0575
 2126SOL    HW117837   3.168   2.942   6.287  0.2901 -2.5758 -1.1179
 2126SOL    HW217838   3.198   2.816   6.356 -1.2351 -0.0484 -0.8820
 2127SOL     OW17839   3.241   3.938  11.600  0.2019  0.1135 -0.3776
 2127SOL    HW117840   3.253   3.935  11.695  0.2255  0.8781 -0.3587
 2127SOL    HW217841   3.220   4.030  11.589  2.1178  0.7728  1.5152
 2128SOL     OW17842   0.899   3.448  16.048 -0.6847  0.1528 -0.0954
 2128SOL    HW117843   0.878   3.403  15.966  0.7170 -0.0529 -0.3445
 2128SOL    HW217844   0.888   3.383  16.118  0.0175  0.0531 -0.0759
 2129SOL     OW17845   0.408   4.220   3.680 -0.2402 -0.2222 -0.1425
 2129SOL    HW117846   0.396   4.174   3.597 -3.0579 -0.0771  0.1768
 2129SOL    HW217847   0.410   4.155   3.750  0.7616  1.3995  1.3602
 2130SOL     OW17848   1.011   3.321   7.730  0.5968  0.4049 -0.6830
 2130SOL    HW117849   0.979   3.260   7.797  1.0551  1.7101  0.7240
 2130SOL    HW217850   0.929   3.368   7.712 -0.7139 -1.6242 -0.0208
 2131SOL     OW17851   2.356   0.065   7.976 -0.0037  0.8566  0.1272
 2131SOL    HW117852   2.372   4.703   8.017  0.2104  1.2595  0.8789
 2131SOL    HW217853   2.339   0.042   7.884  1.4516 -2.1526  0.6167
 2132SOL     OW17854   3.789   2.412   5.241 -0.1614  0.4698  0.0920
 2132SOL    HW117855   3.699   2.439   5.260 -0.2631  0.2357 -0.0578
 2132SOL    HW217856   3.792   2.439   5.150  1.8323  2.2366  0.6595
 2133SOL     OW17857   3.725   3.645   8.299 -0.9102 -0.4358  0.6305
 2133SOL    HW117858   3.810   3.672   8.264 -1.4755  0.0207 -0.3879
 2133SOL    HW217859   3.713   3.711   8.367 -0.7278 -0.7837  1.0015
 2134SOL     OW17860   0.077   3.842   4.591 -0.0194 -0.4260 -0.7110
 2134SOL    HW117861   0.162   3.805   4.570  0.8684  0.9815  0.3497
 2134SOL    HW217862   0.080   3.912   4.526 -0.3381  1.2080  1.0154
 2135SOL     OW17863   0.255   3.277   2.668 -0.4831 -0.2377 -0.0844
 2135SOL    HW117864   0.208   3.194   2.680  1.5156 -1.3936 -0.2418
 2135SOL    HW217865   0.198   3.318   2.603 -2.4172 -1.6013  0.7480
 2136SOL     OW17866   2.101   0.654   0.402 -0.5258  0.0541  0.8937
 2136SOL    HW117867   2.143   0.612   0.327  2.0589  3.5347  0.3709
 2136SOL    HW217868   2.018   0.609   0.418  0.7758 -2.6220 -0.0702
 2137SOL     OW17869   3.278   3.180   7.423  0.6698  1.0081 -0.3675
 2137SOL    HW117870   3.353   3.132   7.388 -0.0846  0.0789 -0.7162
 2137SOL    HW217871   3.208   3.131   7.379  1.9647 -2.7232  1.6603
 2138SOL     OW17872   4.212   0.449   9.699  0.0175 -0.2134  0.0935
 2138SOL    HW117873   4.300   0.413   9.703  0.3544  0.4645 -1.4885
 2138SOL    HW217874   4.189   0.480   9.787  0.2053 -0.6424  0.2965
 2139SOL     OW17875   0.453   4.448   9.838 -0.3018  0.3448 -0.1551
 2139SOL    HW117876   0.418   4.510   9.774  0.8467  0.4040 -0.7262
 2139SOL    HW217877   0.531   4.412   9.795  0.3568  0.7327  0.7147
 2140SOL     OW17878   4.552   3.652   1.219  0.7992  0.2086  0.1242
 2140SOL    HW117879   4.552   3.564   1.182 -0.9909  0.8114 -1.2587
 2140SOL    HW217880   4.555   3.693   1.133 -1.1158 -1.5657 -0.7833
 2141SOL     OW17881   0.615   1.828   5.107 -0.2818 -0.6642 -0.6312
 2141SOL    HW117882   0.566   1.748   5.126 -0.6585 -0.0019  1.1813
 2141SOL    HW217883   0.571   1.863   5.030 -1.4915 -0.2477  0.2420
 2142SOL     OW17884   3.738   3.364   9.173 -0.0088  0.3475 -0.7271
 2142SOL    HW117885   3.645   3.374   9.193 -0.1285 -1.0032 -0.6215
 2142SOL    HW217886   3.744   3.357   9.078 -1.7867 -0.7832 -0.7398
 2143SOL     OW17887   3.371   2.946   9.180  0.1385 -0.0218  0.1114
 2143SOL    HW117888   3.318   3.020   9.211  0.0206 -0.1270  0.1636
 2143SOL    HW217889   3.457   2.984   9.164  0.5692 -1.1282 -0.2195
 2144SOL     OW17890   2.214   1.761  10.119 -0.2854  0.2007  0.2805
 2144SOL    HW117891   2.281   1.768  10.186 -0.0262 -1.2371  0.1808
 2144SOL    HW217892   2.145   1.717  10.168  0.8210 -0.7370  0.9973
 2145SOL     OW17893   2.641   2.728   8.602  0.4916 -0.0983  0.2530
 2145SOL    HW117894   2.721   2.762   8.643  1.0016 -0.5810 -0.3450
 2145SOL    HW217895   2.682   2.661   8.547  1.8274 -0.7364  2.0299
 2146SOL     OW17896   4.339   1.796   0.185 -0.2967  0.1356  0.3845
 2146SOL    HW117897   4.430   1.804   0.158 -0.2986  0.1617  0.3852
 2146SOL    HW217898   4.296   1.727   0.135 -0.9557 -0.6324  1.9945
 2147SOL     OW17899   2.544   1.871  10.731 -0.0581  0.6569 -0.0027
 2147SOL    HW117900   2.615   1.884  10.669 -0.2278 -1.2819 -0.5894
 2147SOL    HW217901   2.591   1.863  10.814 -1.5840 -0.9452  0.7013
 2148SOL     OW17902   0.948   1.640   4.464  0.1680  0.1012 -0.5628
 2148SOL    HW117903   1.006   1.716   4.466 -1.7236  1.5298 -0.0872
 2148SOL    HW217904   0.862   1.681   4.462 -0.0819 -0.2985  2.2590
 2149SOL     OW17905   2.061   2.245   3.376  0.1452 -0.0869 -0.1479
 2149SOL    HW117906   2.138   2.197   3.346 -0.9638 -0.7523 -2.0170
 2149SOL    HW217907   2.076   2.261   3.469  1.5762  1.8271 -0.7224
 2150SOL     OW17908   4.289   1.662   5.996 -0.1091  0.2036  0.6070
 2150SOL    HW117909   4.233   1.737   6.014 -0.5455 -0.4200  1.8811
 2150SOL    HW217910   4.237   1.589   6.030  0.6343 -0.8795 -0.5620
 2151SOL     OW17911   2.217   3.652   1.372  0.4971 -0.0853 -0.4059
 2151SOL    HW117912   2.294   3.610   1.334 -0.5461 -1.6525 -0.7580
 2151SOL    HW217913   2.255   3.674   1.457 -0.5882 -1.3127  0.4020
 2152SOL     OW17914   4.492   2.816   9.089 -0.1894  0.0727  0.0076
 2152SOL    HW117915   4.463   2.725   9.097 -0.9716  0.3298  0.1602
 2152SOL    HW217916   4.419   2.841   9.146  0.1741  1.6995 -0.2607
 2153SOL     OW17917   3.533   4.112  17.643 -0.4023 -0.9117  0.0005
 2153SOL    HW117918   3.469   4.126   0.018 -2.1165 -1.2012 -1.5290
 2153SOL    HW217919   3.556   4.021  17.660 -4.3640 -2.1925 -1.4018
 2154SOL     OW17920   3.838   1.951   4.956  0.0811  0.1118 -0.3051
 2154SOL    HW117921   3.754   1.907   4.959 -0.5523  1.3311 -0.3119
 2154SOL    HW217922   3.822   2.003   5.035 -0.3245 -2.4457  1.2913
 2155SOL     OW17923   1.930   2.364   3.049  0.1208  0.4164 -0.1296
 2155SOL    HW117924   1.975   2.284   3.020 -0.3387  0.3555 -0.6739
 2155SOL    HW217925   1.965   2.425   2.985  0.4819  0.3650  0.0158
 2156SOL     OW17926   2.428   3.278  10.254 -0.3519  0.3165  0.0016
 2156SOL    HW117927   2.348   3.312  10.214  1.6927  2.5035 -2.1766
 2156SOL    HW217928   2.469   3.231  10.181 -0.7862 -1.9649  1.2080
 2157SOL     OW17929   3.423   3.156   4.479  0.3398  0.1113  0.1200
 2157SOL    HW117930   3.358   3.088   4.494  1.6245 -1.0401  0.4653
 2157SOL    HW217931   3.372   3.234   4.498 -0.1914 -0.1756 -0.1420
 2158SOL     OW17932   3.565   2.944  17.515 -0.1898  0.2887 -0.0125
 2158SOL    HW117933   3.639   3.001  17.496 -0.3022  0.7146  0.8406
 2158SOL    HW217934   3.608   2.872  17.561  0.5536 -0.0473 -1.2369
 2159SOL     OW17935   4.441   0.008  15.929  0.1435 -0.1334  0.4757
 2159SOL    HW117936   4.458   4.717  15.836  0.9190 -0.4844  0.6756
 2159SOL    HW217937   4.386   4.657  15.955 -0.3002 -0.0712 -0.2714
 2160SOL     OW17938   3.018   3.167   6.943  0.0477  0.2895  0.0703
 2160SOL    HW117939   3.031   3.078   6.975 -1.3098 -0.3996 -1.2987
 2160SOL    HW217940   2.935   3.172   6.896  1.7057  0.4698 -2.8487
 2161SOL     OW17941   4.239   0.149   7.672 -0.4210  0.2544 -0.0357
 2161SOL    HW117942   4.237   0.194   7.588  1.5436 -4.2372 -2.5129
 2161SOL    HW217943   4.280   0.222   7.719 -0.7920 -0.4257  1.3299
 2162SOL     OW17944   4.056   3.355   9.278 -0.2119  0.2293 -0.1939
 2162SOL    HW117945   3.960   3.360   9.274 -0.3283 -1.2938  0.3600
 2162SOL    HW217946   4.070   3.444   9.309 -1.8245 -0.1404  1.5672
 2163SOL     OW17947   1.563   3.822   2.468  0.4373  0.6595 -0.0150
 2163SOL    HW117948   1.468   3.818   2.482  0.5411 -1.9263 -0.0078
 2163SOL    HW217949   1.586   3.804   2.560 -1.1490 -0.4146  0.1759
 2164SOL     OW17950   0.806   4.148   6.861  0.2893  0.1782 -0.1324
 2164SOL    HW117951   0.737   4.191   6.911  0.8196  0.4996  0.3385
 2164SOL    HW217952   0.787   4.183   6.774 -1.3030 -2.5976 -0.9123
 2165SOL     OW17953   2.067   0.994   3.985  0.9528  0.6013 -0.4379
 2165SOL    HW117954   1.999   0.956   3.930  1.2834  1.1693 -1.2441
 2165SOL    HW217955   2.103   0.926   4.042 -1.4768 -0.9993 -0.8242
 2166SOL     OW17956   3.644   1.911   6.436  0.5462  0.0617  0.4671
 2166SOL    HW117957   3.638   1.821   6.403  4.8070 -0.4248  1.0027
 2166SOL    HW217958   3.663   1.972   6.365 -1.6715 -1.9717 -1.8860
 2167SOL     OW17959   0.818   0.489   2.191  0.3483 -0.1413 -0.3456
 2167SOL    HW117960   0.726   0.487   2.218  0.3513 -0.8505 -0.3884
 2167SOL    HW217961   0.829   0.396   2.171  0.2873 -0.1865 -0.1678
 2168SOL     OW17962   2.754   2.064   2.719  0.1802 -0.0665 -0.3335
 2168SOL    HW117963   2.760   1.989   2.659  0.6575 -0.0018 -0.3691
 2168SOL    HW217964   2.800   2.025   2.793 -0.7339 -0.3682  0.0710
 2169SOL     OW17965   1.200   1.163   7.436  0.5475  0.0761  0.6874
 2169SOL    HW117966   1.181   1.073   7.462 -0.6895  0.4296  1.0061
 2169SOL    HW217967   1.158   1.205   7.511  1.9725  1.9699  0.4397
 2170SOL     OW17968   4.641   1.460   4.630  0.1690 -0.1181  0.5232
 2170SOL    HW117969   4.548   1.452   4.649  0.0011 -1.7704 -1.0323
 2170SOL    HW217970   4.640   1.556   4.634  1.3973 -0.0199 -1.6866
 2171SOL     OW17971   2.215   1.848   5.210  0.2980  0.1066  0.1719
 2171SOL    HW117972   2.224   1.781   5.278  2.7866  0.2199 -0.0455
 2171SOL    HW217973   2.162   1.805   5.143  0.7452 -1.9233  1.1111
 2172SOL     OW17974   1.216   4.335  13.169 -0.1685 -0.1274  0.7342
 2172SOL    HW117975   1.262   4.418  13.160  0.5949 -0.6868 -0.6089
 2172SOL    HW217976   1.257   4.304  13.250 -1.0682 -2.8469  0.1698
 2173SOL     OW17977   0.458   4.430   5.710  0.2202  0.7687 -0.2101
 2173SOL    HW117978   0.363   4.441   5.720  0.0140 -1.2768 -0.0579
 2173SOL    HW217979   0.468   4.344   5.751 -0.8083  0.6658 -0.1738
 2174SOL     OW17980   0.345   0.803   9.236  0.3733  0.1668  0.1831
 2174SOL    HW117981   0.362   0.847   9.152  1.2383 -2.5488 -1.0659
 2174SOL    HW217982   0.339   0.874   9.300 -2.6711  0.2344 -0.1809
 2175SOL     OW17983   0.622   2.956   8.284  0.0299 -0.2184 -0.5529
 2175SOL    HW117984   0.624   2.860   8.291  1.6403 -0.0719  0.9852
 2175SOL    HW217985   0.597   2.975   8.374 -2.1134 -1.5205 -0.8729
 2176SOL     OW17986   0.160   1.542   6.471 -0.3356 -0.6050 -0.3897
 2176SOL    HW117987   0.208   1.516   6.550  1.4674 -1.7188 -1.8803
 2176SOL    HW217988   0.091   1.476   6.464  0.0821 -1.4411  3.1240
 2177SOL     OW17989   2.066   0.393   3.934 -0.0418  0.0064 -0.2199
 2177SOL    HW117990   2.011   0.315   3.948  0.0769  0.4751  2.9264
 2177SOL    HW217991   2.102   0.407   4.022 -3.2918  0.4573  1.0678
 2178SOL     OW17992   4.045   2.901   4.851  0.0128 -0.3428  0.8145
 2178SOL    HW117993   4.030   2.994   4.864  1.4695 -0.1736  1.2988
 2178SOL    HW217994   4.003   2.883   4.767 -0.9659  3.9388  0.4174
 2179SOL     OW17995   1.760   0.214   2.607  0.6375  0.2669 -0.0852
 2179SOL    HW117996   1.808   0.201   2.526 -3.0105 -0.6108 -2.1119
 2179SOL    HW217997   1.818   0.283   2.640  0.1247 -0.3550  2.1164
 2180SOL     OW17998   0.230   3.839  15.141 -0.0806  0.1227  0.1468
 2180SOL    HW117999   0.256   3.918  15.188  0.4813 -0.6186  1.1026
 2180SOL    HW218000   0.266   3.765  15.191  0.3027  0.4389  0.3337
 2181SOL     OW18001   3.998   3.111   3.965  0.5538 -0.0727  0.7696
 2181SOL    HW118002   3.991   3.086   4.058 -0.4402  0.8901  0.9561
 2181SOL    HW218003   4.058   3.043   3.934  2.4143  1.8265  0.2059
 2182SOL     OW18004   0.215   4.134   3.138 -0.1857 -0.2093 -0.1593
 2182SOL    HW118005   0.296   4.148   3.088 -0.2628 -1.8929 -0.7570
 2182SOL    HW218006   0.251   4.119   3.226 -2.4484 -0.7187  0.6773
 2183SOL     OW18007   0.242   1.910   4.770  0.4686 -0.2153 -0.1113
 2183SOL    HW118008   0.184   1.902   4.695 -0.0131  2.0004  0.0223
 2183SOL    HW218009   0.325   1.915   4.723  1.2276  0.3214  1.2894
 2184SOL     OW18010   1.680   1.382   7.299  0.3332  0.1551  0.1876
 2184SOL    HW118011   1.640   1.379   7.212  4.4442 -1.0755 -1.6650
 2184SOL    HW218012   1.615   1.334   7.350 -0.7221  0.3593 -0.9685
 2185SOL     OW18013   3.073   2.336   8.867  0.3224  0.2546 -0.1711
 2185SOL    HW118014   3.115   2.412   8.826  0.3135 -0.1217 -0.8863
 2185SOL    HW218015   3.052   2.370   8.954  2.9626 -2.0000  1.3336
 2186SOL     OW18016   1.905   3.699   9.854 -0.1928 -0.1297  0.3122
 2186SOL    HW118017   1.890   3.792   9.874 -0.0234  0.2193 -1.1885
 2186SOL    HW218018   1.882   3.695   9.761  1.0141  0.4404 -0.0094
 2187SOL     OW18019   4.723   2.983   3.361 -0.1210  0.3143  0.0847
 2187SOL    HW118020   4.716   2.898   3.318 -0.9446 -0.6333  2.0916
 2187SOL    HW218021   0.031   3.041   3.292  1.3664  1.4794  1.7206
 2188SOL     OW18022   2.628   2.241   1.971  0.5295  0.1709 -0.2457
 2188SOL    HW118023   2.581   2.170   1.928  0.9678 -0.6772  0.6693
 2188SOL    HW218024   2.562   2.306   1.998  1.2929 -0.1132  2.3089
 2189SOL     OW18025   4.656   2.457   0.796  0.0099  0.0805 -0.2107
 2189SOL    HW118026   4.715   2.393   0.756 -0.0901 -0.4169  0.4468
 2189SOL    HW218027   4.695   2.458   0.883 -1.5588 -0.0720  0.4877
 2190SOL     OW18028   4.151   0.514   3.869  0.0235  0.1053  0.0815
 2190SOL    HW118029   4.204   0.593   3.860  1.8555 -1.1433 -0.0025
 2190SOL    HW218030   4.202   0.459   3.929 -0.7823  0.5181  1.1541
 2191SOL     OW18031   1.537   4.062   4.769 -0.6798 -0.0483 -0.0353
 2191SOL    HW118032   1.592   4.016   4.705 -0.7931 -0.8343  0.4299
 2191SOL    HW218033   1.585   4.143   4.787 -1.2046  0.4467 -0.8955
 2192SOL     OW18034   0.700   0.217   6.752 -0.1950  0.0627 -0.1012
 2192SOL    HW118035   0.635   0.156   6.717 -0.0442 -0.5260  0.6610
 2192SOL    HW218036   0.775   0.167   6.784  0.9162  2.2221  0.6539
 2193SOL     OW18037   3.631   3.434   0.958  0.2082  0.3021  0.7918
 2193SOL    HW118038   3.655   3.526   0.969  0.5128 -0.0586  3.2111
 2193SOL    HW218039   3.537   3.451   0.963  0.7006  2.1879  3.9485
 2194SOL     OW18040   2.858   4.575   5.528 -0.3646  0.1088 -0.1762
 2194SOL    HW118041   2.931   4.547   5.472 -0.0379 -1.2156  0.9111
 2194SOL    HW218042   2.816   4.492   5.549  1.6308 -1.5458 -2.6879
 2195SOL     OW18043   4.711   3.038   6.216  0.0651 -0.0839  0.6373
 2195SOL    HW118044   0.007   3.125   6.180  0.5035 -0.4010  0.0898
 2195SOL    HW218045   4.627   3.013   6.178 -0.0723  1.9760 -0.4257
 2196SOL     OW18046   1.471   3.464   5.954 -0.4289 -0.2341 -0.1155
 2196SOL    HW118047   1.523   3.501   6.025 -1.4564  1.3934 -0.2071
 2196SOL    HW218048   1.445   3.384   6.000  2.7888 -1.0659  0.2706
 2197SOL     OW18049   3.620   3.181  13.024 -0.2914  0.1158  0.2695
 2197SOL    HW118050   3.607   3.243  13.095  3.4929 -1.1437  2.0881
 2197SOL    HW218051   3.712   3.154  13.033 -0.2187 -0.0570 -0.9189
 2198SOL     OW18052   4.647   3.223   8.761 -0.0992  0.0874 -0.2873
 2198SOL    HW118053   0.003   3.182   8.796  0.6534 -0.1511 -2.3109
 2198SOL    HW218054   4.587   3.223   8.836 -0.3252 -1.7237 -0.4848
 2199SOL     OW18055   1.571   0.884  14.683  0.1125  0.2233 -0.2165
 2199SOL    HW118056   1.592   0.925  14.767  1.3021 -1.2636  0.1987
 2199SOL    HW218057   1.650   0.887  14.630 -0.0768 -1.1808 -0.5876
 2200SOL     OW18058   1.908   3.733   6.727 -0.3838 -0.2751  0.3453
 2200SOL    HW118059   1.927   3.808   6.783  0.8968 -0.1471 -0.2587
 2200SOL    HW218060   1.883   3.773   6.643  0.2950  0.3743  0.4615
 2201SOL     OW18061   4.352   0.460   3.476  0.2316 -0.2184 -0.7098
 2201SOL    HW118062   4.398   0.544   3.476 -1.7132  0.8494 -1.1413
 2201SOL    HW218063   4.425   0.404   3.501  1.2063  1.0557 -0.7128
 2202SOL     OW18064   3.954   1.203   8.025 -0.0520 -0.4125 -0.1525
 2202SOL    HW118065   4.018   1.264   8.059 -0.1214  0.1798 -1.0761
 2202SOL    HW218066   3.996   1.165   7.948 -0.9368  1.6990 -1.6901
 2203SOL     OW18067   1.077   1.557  14.883 -0.2337 -0.0817  0.2880
 2203SOL    HW118068   1.117   1.634  14.843 -1.5510 -0.5043 -1.8141
 2203SOL    HW218069   1.039   1.597  14.961 -1.2932 -0.8190  0.1553
 2204SOL     OW18070   3.923   1.206   6.065 -0.1750 -0.8214 -0.2100
 2204SOL    HW118071   3.868   1.142   6.021  0.5942 -1.3337 -0.4195
 2204SOL    HW218072   3.943   1.161   6.147 -0.3587 -3.3615 -1.5814
 2205SOL     OW18073   1.922   4.580  12.372 -0.2046  0.1936  0.4794
 2205SOL    HW118074   1.988   4.649  12.365  1.5810 -1.7535 -1.9589
 2205SOL    HW218075   1.981   4.515  12.410  0.4637 -0.4677 -1.6889
 2206SOL     OW18076   2.434   4.615   9.114 -0.4180 -0.5039  0.4732
 2206SOL    HW118077   2.375   4.655   9.049 -3.1435  0.2547  3.4440
 2206SOL    HW218078   2.496   4.688   9.125  0.5610 -1.0843 -1.2094
 2207SOL     OW18079   2.243   0.135  11.810  0.5657  0.4252 -0.3780
 2207SOL    HW118080   2.300   0.205  11.778 -1.0191  1.4361 -0.9846
 2207SOL    HW218081   2.301   0.060  11.799 -0.3991 -0.9474  3.8687
 2208SOL     OW18082   3.159   4.161   4.624 -0.1515 -0.0067  0.2169
 2208SOL    HW118083   3.219   4.154   4.550  1.4149  2.9716  1.2167
 2208SOL    HW218084   3.106   4.082   4.610 -1.8519  0.9947  0.9492
 2209SOL     OW18085   3.392   4.004   7.645  0.0627 -0.3721  0.4300
 2209SOL    HW118086   3.436   3.974   7.565 -0.8700  0.0346 -0.2349
 2209SOL    HW218087   3.436   3.939   7.699 -0.3422 -0.7854  0.2610
 2210SOL     OW18088   1.151   3.546  15.854  0.1565 -0.3581  0.0273
 2210SOL    HW118089   1.209   3.586  15.919  0.2941 -1.1254  0.3738
 2210SOL    HW218090   1.071   3.547  15.906  0.6280  0.2672  0.7530
 2211SOL     OW18091   0.177   2.821   3.018  0.1962 -0.0621 -0.3555
 2211SOL    HW118092   0.097   2.820   2.965 -1.0035 -2.3156  1.4685
 2211SOL    HW218093   0.205   2.729   3.012  0.7935  0.0251  1.1650
 2212SOL     OW18094   2.041   3.592  12.207  0.4700 -0.0938  0.5873
 2212SOL    HW118095   2.117   3.577  12.151  0.6994  1.1612  0.5641
 2212SOL    HW218096   2.064   3.546  12.288 -1.1375 -0.7759  0.6554
 2213SOL     OW18097   2.239   2.636   6.601 -0.2437  0.1458 -0.4106
 2213SOL    HW118098   2.296   2.641   6.525 -0.6016  0.6530 -0.6448
 2213SOL    HW218099   2.164   2.684   6.566 -1.2257 -1.4633 -0.5001
 2214SOL     OW18100   0.519   2.047   7.481 -0.4897  0.4651  0.1691
 2214SOL    HW118101   0.428   2.054   7.449 -0.0352  3.7566 -0.4187
 2214SOL    HW218102   0.513   1.979   7.548  1.4175 -2.2831 -2.4451
 2215SOL     OW18103   4.561   1.305  12.108 -0.0735  0.1205 -0.6399
 2215SOL    HW118104   4.491   1.349  12.060 -1.8955 -0.4141  1.5098
 2215SOL    HW218105   4.515   1.247  12.168  1.2048  0.6686  0.8921
 2216SOL     OW18106   3.033   1.674   8.090 -0.1804  0.0769  0.1352
 2216SOL    HW118107   2.996   1.652   8.176  1.5188 -0.6322  0.6752
 2216SOL    HW218108   3.054   1.766   8.107 -2.3473  0.4795  0.7387
 2217SOL     OW18109   1.099   1.002  17.146  0.1197  0.4459  0.1488
 2217SOL    HW118110   1.105   0.942  17.221 -1.2506 -1.8955 -1.6076
 2217SOL    HW218111   1.111   1.088  17.187 -0.9781  0.9558 -0.6321
 2218SOL     OW18112   3.174   0.527   6.880  0.2122 -0.1129 -0.0228
 2218SOL    HW118113   3.232   0.490   6.947  0.3693  1.9168  0.9407
 2218SOL    HW218114   3.104   0.462   6.870  1.4714 -0.7391 -4.5766
 2219SOL     OW18115   3.585   0.486  14.348 -0.0139  0.0199 -0.8677
 2219SOL    HW118116   3.599   0.538  14.427 -2.2106 -0.9742  0.1889
 2219SOL    HW218117   3.498   0.448  14.365 -0.1426 -0.0956 -1.7830
 2220SOL     OW18118   0.869   4.362  10.891  0.1578  0.4511  0.0122
 2220SOL    HW118119   0.888   4.269  10.904  0.0200 -0.0087 -3.0609
 2220SOL    HW218120   0.808   4.382  10.962  0.9139  0.4503  0.6741
 2221SOL     OW18121   0.987   0.969  10.573  0.2812 -0.8701 -0.2828
 2221SOL    HW118122   0.953   0.879  10.575 -2.6355  0.2680  1.6466
 2221SOL    HW218123   0.995   0.993  10.666  3.0670 -0.2237 -0.6898
 2222SOL     OW18124   3.682   1.736   5.195  0.0192 -0.3731 -0.2893
 2222SOL    HW118125   3.683   1.673   5.123 -1.5147 -1.5426  0.7035
 2222SOL    HW218126   3.604   1.790   5.184 -0.6591 -0.8201  2.1740
 2223SOL     OW18127   2.027   3.793  12.020  0.1092 -0.0324 -0.3731
 2223SOL    HW118128   1.995   3.769  11.934  0.1921 -0.8026 -0.1936
 2223SOL    HW218129   2.021   3.720  12.082 -2.5183  0.1587 -0.4363
 2224SOL     OW18130   4.386   1.132   8.155 -0.0823  0.2050 -0.2905
 2224SOL    HW118131   4.306   1.106   8.109  0.1987  2.0785 -1.7985
 2224SOL    HW218132   4.359   1.102   8.242  2.6804 -2.8196 -0.4915
 2225SOL     OW18133   4.263   2.865  15.701  0.5763 -0.0020 -0.4062
 2225SOL    HW118134   4.217   2.794  15.656  0.1771  1.1756 -1.8377
 2225SOL    HW218135   4.200   2.933  15.678  0.4843 -0.2041 -0.7433
 2226SOL     OW18136   2.728   1.359   7.714 -0.1917 -0.0742 -0.6646
 2226SOL    HW118137   2.704   1.272   7.746  0.4904 -0.7798 -2.1130
 2226SOL    HW218138   2.739   1.410   7.795  0.4603 -1.6659  0.2603
 2227SOL     OW18139   1.299   3.428  11.689 -0.2965 -0.2331  0.2090
 2227SOL    HW118140   1.293   3.334  11.671 -1.1525 -0.1799  0.2222
 2227SOL    HW218141   1.216   3.445  11.732 -0.8110 -2.0739 -0.0404
 2228SOL     OW18142   1.500   2.639   5.873 -0.1727 -0.2535  0.1889
 2228SOL    HW118143   1.453   2.716   5.841 -1.1642 -1.0358 -0.2321
 2228SOL    HW218144   1.448   2.569   5.833 -0.7366  0.7430 -0.8440
 2229SOL     OW18145   3.723   1.892  13.779 -0.3920 -0.0589 -0.5591
 2229SOL    HW118146   3.756   1.842  13.853  1.9502  0.6081 -1.1386
 2229SOL    HW218147   3.629   1.875  13.774 -0.7018  1.7166 -0.7542
 2230SOL     OW18148   0.921   3.646   5.735 -0.8156  0.1676 -0.3219
 2230SOL    HW118149   0.894   3.563   5.773  0.5108 -0.2400 -0.2836
 2230SOL    HW218150   0.848   3.702   5.762 -1.4164 -1.2746  1.0175
 2231SOL     OW18151   2.355   3.701   1.616  0.4947  0.2470  0.1779
 2231SOL    HW118152   2.391   3.656   1.692 -0.9503 -0.5001  0.4149
 2231SOL    HW218153   2.399   3.785   1.628  3.9841 -1.5025 -0.3521
 2232SOL     OW18154   3.999   3.585   2.293  0.5620 -0.1763 -0.6664
 2232SOL    HW118155   4.093   3.569   2.285  0.4318 -1.0710 -0.3840
 2232SOL    HW218156   3.979   3.510   2.237  0.1873 -0.6949  0.1754
 2233SOL     OW18157   0.528   0.148   7.538  0.1247  0.2122 -0.4209
 2233SOL    HW118158   0.519   0.060   7.575  0.6303  0.4120  0.1986
 2233SOL    HW218159   0.562   0.194   7.616 -0.3515  2.1133 -1.3358
 2234SOL     OW18160   3.132   2.579   9.227  0.0385 -0.0702 -0.0250
 2234SOL    HW118161   3.063   2.525   9.189 -0.1918 -1.0502  1.8298
 2234SOL    HW218162   3.201   2.515   9.242 -0.2838 -0.0954  1.3163
 2235SOL     OW18163   3.744   2.027   2.967 -0.1689 -0.5073 -0.0863
 2235SOL    HW118164   3.749   1.932   2.955  1.1887 -0.6361  1.5135
 2235SOL    HW218165   3.821   2.039   3.021 -0.8762  1.1259  0.5305
 2236SOL     OW18166   1.077   1.295   2.570 -0.3059 -0.0525  0.5228
 2236SOL    HW118167   0.986   1.312   2.544 -0.2607 -1.7135 -0.6422
 2236SOL    HW218168   1.106   1.384   2.590 -0.1607  0.4005 -1.7059
 2237SOL     OW18169   4.623   1.048   5.796 -0.0912  0.1895  0.0943
 2237SOL    HW118170   4.678   1.016   5.868  0.5200 -0.8697 -0.8313
 2237SOL    HW218171   4.685   1.042   5.723 -0.3117 -0.1048 -0.0691
 2238SOL     OW18172   0.019   1.746   4.134  0.4544 -0.0647 -0.5922
 2238SOL    HW118173   4.670   1.686   4.115 -0.5595  0.7535  0.6261
 2238SOL    HW218174   4.696   1.829   4.122 -1.3978 -0.9346  0.3596
 2239SOL     OW18175   4.583   2.192   3.664  0.4790  0.2511  0.2914
 2239SOL    HW118176   4.657   2.203   3.604 -0.6746  0.2513 -1.1332
 2239SOL    HW218177   4.526   2.257   3.624 -0.0730 -0.1071  0.5081
 2240SOL     OW18178   1.793   1.502   2.894 -0.0089 -0.0513 -0.4570
 2240SOL    HW118179   1.703   1.514   2.863 -0.8967 -0.9523  1.7737
 2240SOL    HW218180   1.784   1.494   2.989  0.0970 -1.0252 -0.5314
 2241SOL     OW18181   1.820   2.966   6.980 -0.3515 -0.2567  0.0177
 2241SOL    HW118182   1.789   3.040   7.032  0.4983  0.7545 -0.9187
 2241SOL    HW218183   1.913   2.988   6.980 -0.5395  0.5097 -2.4493
 2242SOL     OW18184   1.273   4.557   6.966 -0.0715 -0.8305 -0.4576
 2242SOL    HW118185   1.291   4.647   6.940 -0.6547 -0.5439  0.1133
 2242SOL    HW218186   1.303   4.509   6.889  0.1879 -0.7583 -0.4017
 2243SOL     OW18187   3.227   0.662   1.530  0.0781 -0.4785 -0.1465
 2243SOL    HW118188   3.214   0.667   1.624 -2.0679 -1.1974 -0.3979
 2243SOL    HW218189   3.292   0.731   1.512 -1.3291  1.2798  1.5047
 2244SOL     OW18190   1.978   0.759   7.347  0.3406  0.2899 -0.4483
 2244SOL    HW118191   1.990   0.831   7.410  0.9255  1.9717 -2.4965
 2244SOL    HW218192   1.913   0.699   7.384  1.3287 -0.7354 -0.3696
 2245SOL     OW18193   3.491   2.012   3.809 -0.1865  0.6296 -0.1652
 2245SOL    HW118194   3.437   1.937   3.784  0.3561  0.1873 -0.0200
 2245SOL    HW218195   3.575   1.970   3.828 -0.4564 -0.0724 -0.5092
 2246SOL     OW18196   4.140   1.470   9.411  0.1758  0.7272 -0.0936
 2246SOL    HW118197   4.147   1.474   9.506  1.1239 -0.4624 -0.1028
 2246SOL    HW218198   4.112   1.379   9.396 -1.1374  1.4978 -2.2739
 2247SOL     OW18199   0.692   3.182  13.883  0.0837  0.1289 -0.2475
 2247SOL    HW118200   0.736   3.199  13.967  0.9233 -0.9635 -0.4569
 2247SOL    HW218201   0.665   3.270  13.857 -0.8620  0.1213  0.6849
 2248SOL     OW18202   0.883   3.668   7.437 -0.4016  0.4381 -0.1622
 2248SOL    HW118203   0.834   3.677   7.355  0.5170  0.8862 -0.6675
 2248SOL    HW218204   0.911   3.576   7.441  2.2985  1.2538 -0.3625
 2249SOL     OW18205   2.507   4.375   5.544  0.4416  0.5217  0.3843
 2249SOL    HW118206   2.470   4.450   5.498  1.9667  1.7745  1.1810
 2249SOL    HW218207   2.444   4.304   5.533  0.8702  0.3397 -0.9454
 2250SOL     OW18208   2.023   0.115   0.307  0.6543 -0.5267  0.6239
 2250SOL    HW118209   1.955   0.135   0.243  0.8201 -1.7349  0.0673
 2250SOL    HW218210   2.090   0.076   0.250  1.5948  2.7729 -0.5323
 2251SOL     OW18211   2.273   1.538  17.538  0.2416  0.6581 -0.4242
 2251SOL    HW118212   2.311   1.457  17.573  1.0802  1.9322  1.5924
 2251SOL    HW218213   2.235   1.511  17.455 -2.0366  0.7039  0.5968
 2252SOL     OW18214   3.767   0.188   3.895 -0.1075  0.1436 -1.5610
 2252SOL    HW118215   3.854   0.164   3.861  1.5054  1.2952  1.8163
 2252SOL    HW218216   3.793   0.218   3.982  1.1386  0.4931 -2.0588
 2253SOL     OW18217   0.422   1.731   6.843 -0.1857  0.6729 -0.0747
 2253SOL    HW118218   0.440   1.691   6.928  0.4438  0.5095 -0.2883
 2253SOL    HW218219   0.475   1.809   6.857  1.7430 -1.3463  3.7457
 2254SOL     OW18220   1.189   4.258   2.234  0.0719 -0.1718  0.2897
 2254SOL    HW118221   1.130   4.227   2.165  0.2001  1.3200 -0.4852
 2254SOL    HW218222   1.249   4.183   2.231 -0.5106 -0.5989 -0.7083
 2255SOL     OW18223   3.157   4.632   2.996  0.1752  0.7616  0.1175
 2255SOL    HW118224   3.238   4.616   3.046  0.1292  0.6440  0.1539
 2255SOL    HW218225   3.113   4.695   3.054 -0.6327 -0.6938  1.0629
 2256SOL     OW18226   1.526   4.389   4.054  0.0976  0.0297 -0.0820
 2256SOL    HW118227   1.438   4.428   4.055  0.6113  1.1914  0.7432
 2256SOL    HW218228   1.580   4.463   4.082  2.3501 -1.4959 -0.4137
 2257SOL     OW18229   2.116   4.355  17.002 -0.1303  0.1564 -0.2963
 2257SOL    HW118230   2.137   4.264  16.979  0.3008 -0.5004  2.6174
 2257SOL    HW218231   2.169   4.374  17.080 -0.5737 -1.3532  0.3890
 2258SOL     OW18232   0.410   1.777   2.654  0.5084  0.0070 -0.0964
 2258SOL    HW118233   0.381   1.826   2.577 -0.8653 -2.8652 -1.3952
 2258SOL    HW218234   0.430   1.695   2.609  0.4183 -1.0731  1.8490
 2259SOL     OW18235   3.713   1.026   1.788 -0.0207  0.0162 -0.0774
 2259SOL    HW118236   3.665   0.989   1.862 -0.5805 -1.1837 -1.0430
 2259SOL    HW218237   3.783   0.962   1.777 -0.9981 -1.4343  2.0109
 2260SOL     OW18238   4.704   3.503   2.760 -0.0891 -0.0354 -0.3391
 2260SOL    HW118239   0.008   3.564   2.829  1.1676 -2.4228  1.3013
 2260SOL    HW218240   0.045   3.507   2.689  0.4154 -1.4334  0.0298
 2261SOL     OW18241   1.023   4.621   6.701  0.1907 -0.5147 -0.2517
 2261SOL    HW118242   1.055   4.540   6.661 -1.2848 -0.6948 -1.0993
 2261SOL    HW218243   1.028   4.674   6.621 -0.2980 -1.1576 -0.7125
 2262SOL     OW18244   1.961   3.135   7.285 -0.4020 -0.1764 -0.2498
 2262SOL    HW118245   1.904   3.209   7.307  1.7485  1.8453 -1.4053
 2262SOL    HW218246   2.004   3.163   7.204 -0.4514 -1.0974 -0.5920
 2263SOL     OW18247   4.554   0.831   4.903 -0.2019 -0.3917  0.2841
 2263SOL    HW118248   4.530   0.805   4.814 -0.3151  2.3152 -0.4819
 2263SOL    HW218249   4.610   0.757   4.928  0.5177 -0.3010 -1.0506
 2264SOL     OW18250   2.307   0.325   2.304 -0.2944  0.4701 -0.1380
 2264SOL    HW118251   2.242   0.313   2.373  0.2752 -0.6302  0.1990
 2264SOL    HW218252   2.387   0.346   2.353 -0.6917  1.2586  0.1730
 2265SOL     OW18253   4.661   2.912   5.406  0.8004 -0.4169 -0.0788
 2265SOL    HW118254   4.695   2.907   5.496  1.0453  1.8793 -0.0245
 2265SOL    HW218255   4.628   3.002   5.401  3.4485  0.6207  0.8876
 2266SOL     OW18256   3.358   0.785   4.261  0.1936 -0.1298  0.5227
 2266SOL    HW118257   3.318   0.833   4.188 -0.4897 -0.5562  0.6208
 2266SOL    HW218258   3.331   0.696   4.237 -1.2912  0.1120  1.2997
 2267SOL     OW18259   2.257   3.668   2.735 -0.6285 -0.0887 -0.0758
 2267SOL    HW118260   2.317   3.626   2.672  0.6629  0.5244  0.7439
 2267SOL    HW218261   2.261   3.760   2.709  2.7118 -0.7648 -2.0232
 2268SOL     OW18262   2.278   0.338  14.336  0.2512 -0.4117  0.6571
 2268SOL    HW118263   2.253   0.410  14.394  0.6295 -0.6451  1.1166
 2268SOL    HW218264   2.373   0.347  14.332  0.3749 -1.5353  1.0420
 2269SOL     OW18265   0.952   2.951  13.512  0.1073  0.3980  0.0054
 2269SOL    HW118266   1.009   2.996  13.574 -1.6832  1.5792  0.7745
 2269SOL    HW218267   0.865   2.989  13.526  1.5295  3.0564  1.4929
 2270SOL     OW18268   2.413   4.391   9.262 -0.0540  0.5910  0.3270
 2270SOL    HW118269   2.499   4.368   9.296 -0.5347 -1.6222  0.0058
 2270SOL    HW218270   2.422   4.470   9.208  2.3580 -1.1004 -1.7215
 2271SOL     OW18271   4.662   2.884   8.599 -0.1130 -0.1360 -0.0749
 2271SOL    HW118272   4.646   2.907   8.690  1.0759 -1.8530  0.5757
 2271SOL    HW218273   4.649   2.789   8.603  0.5596 -0.2170  0.3122
 2272SOL     OW18274   3.430   2.762  10.107 -0.3431  0.1899 -0.4396
 2272SOL    HW118275   3.392   2.700  10.044  0.0193 -0.1003 -0.3738
 2272SOL    HW218276   3.387   2.737  10.188 -2.4393  2.2206 -0.9393
 2273SOL     OW18277   3.586   1.528   2.919 -0.2949  0.2825  0.4103
 2273SOL    HW118278   3.544   1.541   2.834  0.7462 -0.3073 -0.2024
 2273SOL    HW218279   3.586   1.612   2.964 -0.3323  0.7312 -0.4257
 2274SOL     OW18280   2.345   0.535   2.761 -0.2008  0.1101 -0.7562
 2274SOL    HW118281   2.312   0.624   2.772  0.9315  0.5611 -1.0246
 2274SOL    HW218282   2.296   0.502   2.686 -2.0513  1.7871 -0.2875
 2275SOL     OW18283   1.028   1.955   6.332 -0.4117  0.1279 -0.4531
 2275SOL    HW118284   0.987   2.041   6.319  0.1140  0.7183  1.7982
 2275SOL    HW218285   1.062   1.971   6.420 -1.5879 -1.7143  0.3201
 2276SOL     OW18286   0.008   4.622   8.027 -0.1910  0.7154  0.1768
 2276SOL    HW118287   0.042   4.680   7.958  0.3769  1.7569  1.3442
 2276SOL    HW218288   0.029   4.673   8.105  0.0386  0.3319  0.3658
 2277SOL     OW18289   0.002   4.486   5.557 -0.7280  0.2519  0.4101
 2277SOL    HW118290   4.667   4.562   5.554 -0.4673  0.3810 -1.0733
 2277SOL    HW218291   0.071   4.508   5.495  0.9141 -1.3609  1.6527
 2278SOL     OW18292   1.308   1.457   5.611  0.2385 -0.4419  0.4052
 2278SOL    HW118293   1.255   1.430   5.536  0.9419 -3.2232  0.8959
 2278SOL    HW218294   1.253   1.424   5.682  1.4570 -2.5854  0.3700
 2279SOL     OW18295   1.888   3.860   0.799 -0.4457 -0.0544  0.5689
 2279SOL    HW118296   1.877   3.950   0.828  2.1352  0.1388  0.9376
 2279SOL    HW218297   1.891   3.816   0.885  1.3532 -3.5434 -1.2771
 2280SOL     OW18298   0.627   3.745  13.142  0.0801 -0.5850  0.2146
 2280SOL    HW118299   0.693   3.812  13.159 -0.6689  0.1868  0.0661
 2280SOL    HW218300   0.548   3.799  13.151  1.7908  2.0033 -0.1788
 2281SOL     OW18301   4.255   3.916   4.168  0.1291  0.0271  0.7065
 2281SOL    HW118302   4.340   3.908   4.211 -0.7006 -1.5936  2.0246
 2281SOL    HW218303   4.228   4.007   4.184 -2.4967 -0.8757  1.3650
 2282SOL     OW18304   1.551   2.095   6.849 -0.0731 -0.5047  0.1622
 2282SOL    HW118305   1.530   2.002   6.843  0.4637 -0.5581 -0.8236
 2282SOL    HW218306   1.482   2.127   6.908 -2.2034 -2.8511 -1.0519
 2283SOL     OW18307   1.175   4.379   5.932 -0.6791 -0.3189 -0.1388
 2283SOL    HW118308   1.148   4.287   5.939 -0.9708 -0.2045  0.2326
 2283SOL    HW218309   1.241   4.373   5.864 -0.0273  0.3892  0.4325
 2284SOL     OW18310   3.447   0.279   6.466 -0.1151 -0.1851 -0.3203
 2284SOL    HW118311   3.419   0.369   6.477  1.3187  0.1099  1.0964
 2284SOL    HW218312   3.536   0.295   6.435 -1.1420  0.8935 -2.6477
 2285SOL     OW18313   3.852   2.211  13.000 -0.1945 -0.3040  0.1847
 2285SOL    HW118314   3.789   2.171  12.940 -1.1580 -0.3941  1.2795
 2285SOL    HW218315   3.916   2.252  12.941  0.4934 -0.7142  0.6474
 2286SOL     OW18316   1.647   3.751  14.026  0.3128 -1.1147 -0.1952
 2286SOL    HW118317   1.575   3.697  13.990 -2.5117  1.9873  0.8083
 2286SOL    HW218318   1.628   3.752  14.119 -0.4067 -0.0952 -0.3530
 2287SOL     OW18319   1.897   4.476  16.276 -0.9595  0.2024 -0.3031
 2287SOL    HW118320   1.839   4.434  16.212 -0.1977  0.5307 -1.2201
 2287SOL    HW218321   1.851   4.451  16.356  0.6974 -2.1265 -0.0830
 2288SOL     OW18322   2.414   3.801  13.453  0.1944  0.3768  0.2594
 2288SOL    HW118323   2.425   3.720  13.504  0.4233 -0.0362 -0.4525
 2288SOL    HW218324   2.480   3.852  13.502  1.0700 -0.1802 -0.3500
 2289SOL     OW18325   1.262   2.320   3.934 -0.1353  0.2495 -0.5987
 2289SOL    HW118326   1.322   2.245   3.937  0.8838  1.0735 -0.1689
 2289SOL    HW218327   1.318   2.389   3.897  0.9747 -0.0887  0.4334
 2290SOL     OW18328   0.134   1.087   1.014 -0.4260  0.8700  0.6765
 2290SOL    HW118329   0.073   1.068   0.942  0.2122 -0.4178  0.4867
 2290SOL    HW218330   0.161   1.000   1.040 -0.5849  0.5301 -0.2769
 2291SOL     OW18331   3.957   3.605   4.945  0.2326 -0.4069  0.2856
 2291SOL    HW118332   3.980   3.678   4.887 -0.5482  0.4818  1.0877
 2291SOL    HW218333   3.893   3.559   4.891  0.4507  1.0159 -1.1875
 2292SOL     OW18334   0.419   2.879  12.824  0.3177 -0.4360  0.5093
 2292SOL    HW118335   0.502   2.915  12.853  0.5247  0.5312 -1.2682
 2292SOL    HW218336   0.429   2.791  12.859 -0.9996 -2.0118 -3.0302
 2293SOL     OW18337   3.642   0.165  14.413 -0.4418 -0.4677 -0.4927
 2293SOL    HW118338   3.707   0.114  14.366  1.3905  1.5478 -0.1598
 2293SOL    HW218339   3.570   0.164  14.350 -0.2269 -0.6996 -0.7368
 2294SOL     OW18340   1.192   0.572   8.541  0.5734  0.0797  0.1680
 2294SOL    HW118341   1.108   0.588   8.499  1.5299  1.0549 -1.4002
 2294SOL    HW218342   1.239   0.547   8.461  0.2898  0.7098 -0.1921
 2295SOL     OW18343   3.017   1.613   7.794  0.4406  0.7826  0.3560
 2295SOL    HW118344   2.987   1.599   7.884  3.0716  0.8887  1.2655
 2295SOL    HW218345   2.977   1.695   7.766 -1.8586 -0.8395 -1.1763
 2296SOL     OW18346   3.149   0.943   1.662  0.0013 -0.1433  0.2182
 2296SOL    HW118347   3.107   0.872   1.711 -1.2042  0.7674  0.4830
 2296SOL    HW218348   3.092   0.957   1.586  0.0371 -0.0592  0.2072
 2297SOL     OW18349   1.005   2.913   8.935  0.2207  0.4245  0.2230
 2297SOL    HW118350   0.943   2.974   8.976  0.3687  0.1470  0.8521
 2297SOL    HW218351   1.071   2.894   9.002  2.9265  1.5417 -2.1185
 2298SOL     OW18352   1.539   4.040  12.468 -0.1190  0.0750  0.1802
 2298SOL    HW118353   1.455   4.053  12.424  0.0176 -0.9014 -0.3697
 2298SOL    HW218354   1.593   4.016  12.392  0.1504 -1.6074  0.8978
 2299SOL     OW18355   0.727   2.164  15.479  0.2830 -0.3472  0.2095
 2299SOL    HW118356   0.796   2.167  15.413  2.0774 -1.5190  2.0302
 2299SOL    HW218357   0.669   2.096  15.446 -1.1399  0.1691  1.6346
 2300SOL     OW18358   3.715   2.639   9.488 -0.6473 -0.2589 -0.2715
 2300SOL    HW118359   3.686   2.681   9.408  1.0250 -0.0305 -0.7680
 2300SOL    HW218360   3.644   2.665   9.546 -0.4967  2.2945 -1.2483
 2301SOL     OW18361   2.653   1.327   3.460  0.5385  0.6162  0.4986
 2301SOL    HW118362   2.684   1.237   3.470  0.1793  0.6056  1.4817
 2301SOL    HW218363   2.734   1.376   3.475  0.5158  0.7838  0.0845
 2302SOL     OW18364   3.709   3.719   3.253 -0.0512  0.2680 -0.0748
 2302SOL    HW118365   3.642   3.655   3.274  0.3427  0.4204  1.6499
 2302SOL    HW218366   3.675   3.767   3.177 -1.8765  0.8214  1.0903
 2303SOL     OW18367   1.015   4.225   0.878  0.0806 -0.3510  0.0101
 2303SOL    HW118368   0.952   4.269   0.935 -2.8189 -1.8314 -2.0452
 2303SOL    HW218369   0.969   4.249   0.797  0.1425  3.1499  1.0314
 2304SOL     OW18370   3.010   4.136   1.654 -0.6316  0.3207  0.0039
 2304SOL    HW118371   3.065   4.214   1.654 -1.3771  0.8332 -0.6433
 2304SOL    HW218372   2.958   4.161   1.731 -0.3479 -0.2209  0.3696
 2305SOL     OW18373   1.019   0.295  15.114  0.2755 -0.0317  0.1912
 2305SOL    HW118374   0.934   0.269  15.151  1.7923  0.1881  3.9052
 2305SOL    HW218375   0.999   0.373  15.064  0.2901 -0.0903  0.0949
 2306SOL     OW18376   2.743   4.713  14.027  0.3641 -0.3827  0.6391
 2306SOL    HW118377   2.772   4.623  14.020 -0.0974 -0.5099  0.3455
 2306SOL    HW218378   2.747   0.007  14.121 -0.8963 -1.6588  0.9184
 2307SOL     OW18379   0.269   3.452   7.315  0.5030 -0.3656  0.6361
 2307SOL    HW118380   0.249   3.488   7.229 -0.4224 -1.2802  0.4690
 2307SOL    HW218381   0.220   3.505   7.377 -2.3621  0.4043 -2.2733
 2308SOL     OW18382   1.569   2.302   3.094  0.3778 -0.1964  0.2549
 2308SOL    HW118383   1.513   2.225   3.106  0.8432 -0.7921 -1.3942
 2308SOL    HW218384   1.620   2.298   3.175  1.0105 -0.6374 -0.1620
 2309SOL     OW18385   3.345   2.530   5.085 -0.3472  0.1247  0.0045
 2309SOL    HW118386   3.259   2.491   5.068 -1.2207  2.0751  0.0229
 2309SOL    HW218387   3.398   2.452   5.067  1.9225  1.9182 -1.0301
 2310SOL     OW18388   4.351   0.770   1.925 -0.6414 -0.0158  0.0434
 2310SOL    HW118389   4.264   0.776   1.886 -1.4197 -0.0580  1.7668
 2310SOL    HW218390   4.417   0.810   1.870 -0.8896  0.4746  0.1069
 2311SOL     OW18391   4.165   3.294  10.486  0.1051 -0.5469  0.1673
 2311SOL    HW118392   4.219   3.276  10.564  1.6133 -1.2654 -1.0382
 2311SOL    HW218393   4.207   3.367  10.441  0.5508  0.4749  2.2350
 2312SOL     OW18394   3.739   3.449   7.984  1.3229 -0.2380  0.1015
 2312SOL    HW118395   3.718   3.457   8.077  0.5410 -0.6935 -0.0348
 2312SOL    HW218396   3.661   3.404   7.953  0.4585 -0.9173  3.2091
 2313SOL     OW18397   0.765   4.209   4.451 -0.0533 -0.3793  0.1997
 2313SOL    HW118398   0.839   4.271   4.452 -1.4801  1.2734  2.8414
 2313SOL    HW218399   0.770   4.176   4.361  1.9416 -2.6354  1.1269
 2314SOL     OW18400   0.795   0.225   2.198 -0.5909  0.5623  0.1670
 2314SOL    HW118401   0.705   0.197   2.214  0.0622 -0.7758  1.5459
 2314SOL    HW218402   0.841   0.158   2.250  0.1244  0.2204 -0.9064
 2315SOL     OW18403   0.262   0.936   4.732 -0.4490 -0.3739 -0.2213
 2315SOL    HW118404   0.196   0.982   4.784 -0.2007  1.0045 -1.1203
 2315SOL    HW218405   0.209   0.872   4.686 -1.2161  0.1479 -0.0562
 2316SOL     OW18406   0.602   2.815   8.897  0.0365 -0.2911  0.0694
 2316SOL    HW118407   0.572   2.825   8.987 -2.9791  0.6754 -1.0480
 2316SOL    HW218408   0.543   2.742   8.880  1.0905 -1.2479  0.5350
 2317SOL     OW18409   2.998   1.857  15.354 -0.6647  0.4106  0.5569
 2317SOL    HW118410   2.956   1.773  15.335  0.2132  0.5317 -2.0136
 2317SOL    HW218411   2.915   1.905  15.362  1.0088  3.4585 -0.3583
 2318SOL     OW18412   0.119   1.973   4.295 -0.4954 -0.2911  0.3942
 2318SOL    HW118413   0.039   1.961   4.244 -1.2551 -0.5557  1.6451
 2318SOL    HW218414   0.184   1.934   4.237 -0.5449 -0.7099  0.6217
 2319SOL     OW18415   3.357   2.779   3.229  0.5211  0.2433  0.1299
 2319SOL    HW118416   3.429   2.748   3.174 -1.7889  0.6101 -3.1209
 2319SOL    HW218417   3.280   2.754   3.177 -0.5790  2.4385  0.6656
 2320SOL     OW18418   1.325   1.558  10.877 -0.1639  0.0922  0.4291
 2320SOL    HW118419   1.351   1.496  10.809 -1.3433 -2.1909  2.0269
 2320SOL    HW218420   1.340   1.642  10.835 -1.6550  0.5727  0.8670
 2321SOL     OW18421   1.280   3.663   3.758  0.0165 -0.0071 -0.0648
 2321SOL    HW118422   1.208   3.600   3.764 -0.0139  0.0827  0.5152
 2321SOL    HW218423   1.240   3.740   3.798  0.5956 -0.0803  0.6579
 2322SOL     OW18424   2.219   1.383   1.045  0.3269 -0.3327 -0.5659
 2322SOL    HW118425   2.240   1.366   0.953  2.6136 -1.6605  0.1984
 2322SOL    HW218426   2.225   1.293   1.077 -1.4056 -0.7892 -1.5485
 2323SOL     OW18427   1.352   0.080   1.561 -0.1038  0.1498  0.2043
 2323SOL    HW118428   1.397   0.103   1.479 -0.8707  1.8443  0.2757
 2323SOL    HW218429   1.338   4.708   1.554 -4.1334  0.8537 -1.2428
 2324SOL     OW18430   2.246   4.437   4.443  0.0736 -0.3437  0.7301
 2324SOL    HW118431   2.221   4.516   4.491 -2.7108 -0.8964  0.1922
 2324SOL    HW218432   2.160   4.397   4.432  1.2839 -2.5890 -0.6830
 2325SOL     OW18433   2.109   0.170   4.586 -0.2463 -0.0912 -0.3697
 2325SOL    HW118434   2.200   0.191   4.604 -0.7818  0.4260  1.7127
 2325SOL    HW218435   2.117   0.075   4.590  1.1759  0.0142 -0.6251
 2326SOL     OW18436   0.487   3.712  13.743  0.3580  0.6199  0.4981
 2326SOL    HW118437   0.521   3.728  13.655 -0.0929 -1.3126 -0.0165
 2326SOL    HW218438   0.423   3.783  13.750  0.1300  0.3852  0.7937
 2327SOL     OW18439   1.027   2.555   7.466 -0.2960  0.0320 -0.3099
 2327SOL    HW118440   1.017   2.650   7.472  1.8215  0.2228  0.2764
 2327SOL    HW218441   1.123   2.559   7.460 -0.4566 -1.5546 -4.2970
 2328SOL     OW18442   1.925   3.376   4.195 -0.0034 -0.0839  0.0644
 2328SOL    HW118443   1.976   3.454   4.217 -2.1703  1.2222  0.5159
 2328SOL    HW218444   1.986   3.304   4.208 -0.3264 -0.1044  1.4172
 2329SOL     OW18445   1.179   3.840   8.398  0.0288 -0.4650 -0.9545
 2329SOL    HW118446   1.104   3.889   8.431 -0.8215 -1.5821 -1.2148
 2329SOL    HW218447   1.133   3.765   8.361 -2.4942  0.7055 -0.2308
 2330SOL     OW18448   1.214   3.923   8.815 -0.1037 -0.7800 -0.1050
 2330SOL    HW118449   1.127   3.927   8.776  0.2403  2.4650 -0.5452
 2330SOL    HW218450   1.204   3.846   8.870  1.0443  0.2081  1.4735
 2331SOL     OW18451   4.251   3.516   2.293  0.2419 -0.5595 -0.4752
 2331SOL    HW118452   4.314   3.499   2.363 -0.5154 -3.5351 -0.5028
 2331SOL    HW218453   4.301   3.539   2.214  1.6985  0.9789  0.9109
 2332SOL     OW18454   2.438   2.835   9.094 -0.4011 -0.0438 -0.1341
 2332SOL    HW118455   2.405   2.918   9.060  0.5515  0.8075  1.0021
 2332SOL    HW218456   2.374   2.822   9.165 -1.1743 -0.7922 -0.9725
 2333SOL     OW18457   3.460   1.600  11.139  0.0784 -0.1382  0.0417
 2333SOL    HW118458   3.478   1.624  11.048 -0.2997  2.4229  0.6537
 2333SOL    HW218459   3.542   1.564  11.173  0.4628 -0.8550 -1.6019
 2334SOL     OW18460   0.459   0.716   7.166 -1.1098  0.4887 -0.0903
 2334SOL    HW118461   0.538   0.664   7.185 -1.1701  1.5859  3.3088
 2334SOL    HW218462   0.490   0.807   7.170  1.0466 -0.3970  4.1804
 2335SOL     OW18463   3.533   4.121   2.814 -0.1016  0.2369 -0.6724
 2335SOL    HW118464   3.625   4.096   2.810 -0.7407 -2.0287 -1.4137
 2335SOL    HW218465   3.533   4.202   2.763  1.3953 -0.0494 -1.1180
 2336SOL     OW18466   4.428   3.384   8.292 -0.6656 -0.0764  0.2756
 2336SOL    HW118467   4.406   3.320   8.359 -1.1395 -0.9018 -0.6793
 2336SOL    HW218468   4.406   3.464   8.339 -3.1755  0.9157 -2.6531
 2337SOL     OW18469   2.131   3.199   8.998 -0.5350 -0.3159 -0.3082
 2337SOL    HW118470   2.222   3.171   8.989 -0.4271 -0.8723  2.4230
 2337SOL    HW218471   2.093   3.221   8.913  0.0441 -2.2845 -1.0848
 2338SOL     OW18472   0.580   1.424   3.438 -0.5473  0.3471 -0.1093
 2338SOL    HW118473   0.583   1.395   3.347  0.3140 -1.4343  0.4764
 2338SOL    HW218474   0.628   1.351   3.480 -1.2940 -1.3926 -2.2849
 2339SOL     OW18475   4.613   4.517   2.032  0.4722  0.1145 -0.3599
 2339SOL    HW118476   4.533   4.543   1.987  0.5828  0.1210 -0.5527
 2339SOL    HW218477   4.623   4.593   2.089  1.3542  0.7610 -1.3661
 2340SOL     OW18478   0.142   1.325   4.743 -0.6411  0.1607  0.4336
 2340SOL    HW118479   0.079   1.253   4.742 -1.6259  1.0245 -1.9541
 2340SOL    HW218480   0.089   1.398   4.711 -0.9788 -0.6447 -0.8492
 2341SOL     OW18481   0.478   1.066   1.398 -0.2411  0.3284 -0.1063
 2341SOL    HW118482   0.427   1.145   1.381  0.4671  0.7468 -0.2790
 2341SOL    HW218483   0.426   0.999   1.353 -1.9123  1.5059  0.1126
 2342SOL     OW18484   1.448   4.723   4.268 -0.1846  0.6192 -0.5427
 2342SOL    HW118485   1.419   0.037   4.185  1.1568  0.2609 -1.1698
 2342SOL    HW218486   1.415   4.633   4.260  1.4597 -0.0517  0.1046
 2343SOL     OW18487   3.290   1.339  12.394  0.5774  0.5522  1.0800
 2343SOL    HW118488   3.215   1.385  12.356 -0.1167 -2.5972 -1.3129
 2343SOL    HW218489   3.296   1.260  12.341  0.0764  0.9804  0.3808
 2344SOL     OW18490   4.068   4.609   5.079 -0.0031 -0.2578  0.0145
 2344SOL    HW118491   4.027   4.536   5.032  0.0947 -0.5389  0.3636
 2344SOL    HW218492   4.030   4.597   5.166  0.4603 -0.8879  0.1296
 2345SOL     OW18493   2.376   3.712   6.029 -0.1733 -0.1799  0.3384
 2345SOL    HW118494   2.369   3.805   6.004  4.0725 -0.0075 -0.2111
 2345SOL    HW218495   2.333   3.717   6.114 -3.0040  1.4538 -1.2127
 2346SOL     OW18496   0.712   0.495   3.432 -0.0265 -0.1699  0.2211
 2346SOL    HW118497   0.651   0.525   3.500  1.2935 -0.1206  1.3846
 2346SOL    HW218498   0.726   0.403   3.456 -2.0581 -0.8756 -1.3142
 2347SOL     OW18499   0.412   2.709   2.869  0.0151 -0.9886 -0.0765
 2347SOL    HW118500   0.380   2.758   2.794 -0.5671  0.7187  1.2837
 2347SOL    HW218501   0.490   2.763   2.886 -0.3691 -0.2912 -0.5302
 2348SOL     OW18502   2.327   1.683  13.908 -0.1262 -0.3620  0.5681
 2348SOL    HW118503   2.254   1.742  13.924  3.4603  4.5187 -1.1901
 2348SOL    HW218504   2.273   1.604  13.902  0.0106 -0.4835  0.9282
 2349SOL     OW18505   3.581   0.602   8.896 -0.0496 -0.6064 -0.3340
 2349SOL    HW118506   3.506   0.557   8.936 -1.9302  2.8767  0.0803
 2349SOL    HW218507   3.559   0.586   8.804  0.4944 -1.6225 -0.2890
 2350SOL     OW18508   4.543   2.622  17.150  0.7826  0.5641  0.3387
 2350SOL    HW118509   4.558   2.715  17.132  1.0797  0.5238  0.3783
 2350SOL    HW218510   4.555   2.608  17.244  2.1590 -1.0143 -0.0709
 2351SOL     OW18511   1.005   4.039   7.000 -0.3867 -0.3910 -0.2897
 2351SOL    HW118512   0.934   4.071   6.944 -1.0788 -0.3913  0.6051
 2351SOL    HW218513   0.971   4.053   7.088  2.8587 -1.8991  1.2123
 2352SOL     OW18514   3.697   0.104  14.676  0.1404 -0.2590  0.2429
 2352SOL    HW118515   3.714   0.171  14.611 -0.9580  0.9712  1.2310
 2352SOL    HW218516   3.648   0.033  14.634  0.3894 -0.2251 -0.1015
 2353SOL     OW18517   3.450   4.706   1.264  0.1301 -0.3244 -0.6249
 2353SOL    HW118518   3.451   4.666   1.351 -1.5865 -1.6497 -1.1955
 2353SOL    HW218519   3.544   4.715   1.248  0.2546 -0.1729  0.2111
 2354SOL     OW18520   2.438   0.124   6.114 -0.5269 -0.5792 -0.4590
 2354SOL    HW118521   2.358   0.161   6.152 -0.5686 -0.2569 -0.8516
 2354SOL    HW218522   2.490   0.092   6.188  0.7814  1.0190 -0.6742
 2355SOL     OW18523   0.408   1.572   6.642 -0.0207  0.6046  0.1037
 2355SOL    HW118524   0.410   1.649   6.699 -1.7151 -0.1202  1.1435
 2355SOL    HW218525   0.417   1.509   6.714 -0.5654 -0.4186 -0.7294
 2356SOL     OW18526   3.990   3.870  15.212 -0.3923 -0.3540 -0.7356
 2356SOL    HW118527   4.023   3.877  15.123 -2.7733  3.0103 -1.3682
 2356SOL    HW218528   3.898   3.865  15.185 -0.7246  0.1931  0.2597
 2357SOL     OW18529   3.068   3.328   6.633  0.0330 -0.2335 -0.1285
 2357SOL    HW118530   3.022   3.248   6.660 -0.6477 -0.0407 -0.7209
 2357SOL    HW218531   3.087   3.316   6.540  3.3014 -0.0872  0.5243
 2358SOL     OW18532   0.977   4.334   4.372 -0.6026 -0.2454 -0.1190
 2358SOL    HW118533   1.035   4.409   4.383  0.7274 -1.4077  0.7973
 2358SOL    HW218534   1.046   4.272   4.396 -0.8341 -0.5020 -0.1141
 2359SOL     OW18535   1.925   3.461   7.114 -0.5578  0.3596  0.0949
 2359SOL    HW118536   1.860   3.480   7.182  0.3796 -1.2391  1.4419
 2359SOL    HW218537   1.896   3.525   7.049 -0.1785  1.3997  0.9673
 2360SOL     OW18538   2.011   3.797   7.915 -1.4528 -0.3466  0.3323
 2360SOL    HW118539   1.967   3.869   7.872 -0.5235 -0.2557 -0.4563
 2360SOL    HW218540   1.936   3.738   7.920 -1.4450 -0.3070  1.0252
 2361SOL     OW18541   0.356   3.734   3.891 -0.1205  0.0894 -0.0100
 2361SOL    HW118542   0.288   3.674   3.920  0.0663 -0.1440 -0.0591
 2361SOL    HW218543   0.336   3.726   3.798  0.5177 -0.2046 -0.1219
 2362SOL     OW18544   3.184   1.661  16.085 -0.2465  0.1435  0.1783
 2362SOL    HW118545   3.205   1.631  15.997 -0.5574  0.8517 -0.1354
 2362SOL    HW218546   3.130   1.737  16.061 -0.4564 -0.5227 -1.4496
 2363SOL     OW18547   0.411   1.616   7.100 -0.3102 -0.5313  0.6590
 2363SOL    HW118548   0.391   1.537   7.150 -1.2913 -0.1313  0.8972
 2363SOL    HW218549   0.504   1.635   7.109  0.2042 -2.5074 -0.5866
 2364SOL     OW18550   3.485   3.772   2.321  0.5406  0.1816  0.2629
 2364SOL    HW118551   3.535   3.837   2.270  0.2865  0.8848  0.9060
 2364SOL    HW218552   3.532   3.695   2.291  0.3993  0.7658 -1.4647
 2365SOL     OW18553   4.412   2.038   4.590  0.7741 -0.0225 -0.1459
 2365SOL    HW118554   4.398   1.952   4.551 -0.8975 -1.1043  2.8467
 2365SOL    HW218555   4.327   2.081   4.599  0.7219 -0.2606  0.4306
 2366SOL     OW18556   3.818   4.077  15.024 -0.4544 -0.3799 -0.0279
 2366SOL    HW118557   3.817   4.053  14.932 -3.2596 -1.5239  0.2956
 2366SOL    HW218558   3.789   3.991  15.057  0.2133 -1.2504 -1.7159
 2367SOL     OW18559   4.036   2.167   2.379  0.7819 -0.2838  0.4895
 2367SOL    HW118560   4.047   2.072   2.384  1.3680 -0.4087 -3.0228
 2367SOL    HW218561   3.950   2.185   2.339  1.2867  0.1763 -0.3746
 2368SOL     OW18562   0.966   3.165  11.074 -0.8235  0.0752 -0.4778
 2368SOL    HW118563   0.985   3.119  10.993  1.1104 -1.6848  0.9635
 2368SOL    HW218564   1.047   3.212  11.095 -1.2721  0.6992 -0.1340
 2369SOL     OW18565   4.523   2.709   7.436  0.3503 -0.0652  0.0577
 2369SOL    HW118566   4.485   2.639   7.488  0.3910 -0.1226  0.0104
 2369SOL    HW218567   4.493   2.789   7.479  2.1033  0.2331  0.7460
 2370SOL     OW18568   3.254   3.837   0.127  0.3743  0.1794 -0.0562
 2370SOL    HW118569   3.230   3.746   0.108 -0.9943  0.6956 -0.7398
 2370SOL    HW218570   3.217   3.838   0.216  1.6512  1.6856  0.4572
 2371SOL     OW18571   0.466   1.629   4.506  0.5101 -0.1065  0.5511
 2371SOL    HW118572   0.448   1.590   4.421 -0.9139  2.0469 -0.1454
 2371SOL    HW218573   0.459   1.552   4.561 -2.7500  0.8578  1.5281
 2372SOL     OW18574   1.566   0.178   7.073 -0.5204 -0.1438  0.0720
 2372SOL    HW118575   1.485   0.226   7.057  0.1660  0.4500 -1.6222
 2372SOL    HW218576   1.581   0.144   6.985 -0.1560  1.3026 -0.4343
 2373SOL     OW18577   1.889   4.454   3.837  0.5068 -0.5791  0.0263
 2373SOL    HW118578   1.804   4.413   3.852  0.4814 -1.2820 -2.0556
 2373SOL    HW218579   1.944   4.377   3.821  1.0725  0.0467 -1.0633
 2374SOL     OW18580   1.250   1.928   8.058 -0.0406  0.5923 -0.2739
 2374SOL    HW118581   1.325   1.900   8.112  0.2009 -0.8926 -1.3675
 2374SOL    HW218582   1.194   1.851   8.049 -0.1567  0.7576 -0.9268
 2375SOL     OW18583   1.057   2.455  15.521  0.0701  0.3526  0.2057
 2375SOL    HW118584   0.972   2.474  15.559 -0.8191 -1.3676 -0.9340
 2375SOL    HW218585   1.111   2.524  15.561  0.2479 -0.4420  1.3419
 2376SOL     OW18586   1.838   3.774  11.175  0.0259  0.7085  0.0220
 2376SOL    HW118587   1.834   3.863  11.142 -1.1559  1.1240  1.2837
 2376SOL    HW218588   1.933   3.765  11.183  0.0507 -0.9693 -2.1249
 2377SOL     OW18589   3.788   1.668  16.685  0.2840  0.0167 -0.0126
 2377SOL    HW118590   3.877   1.635  16.671  0.4793  0.6484 -0.2110
 2377SOL    HW218591   3.810   1.750  16.729 -0.1997 -0.1448  0.5397
 2378SOL     OW18592   0.517   2.596   0.051 -0.7719  0.1162  0.0348
 2378SOL    HW118593   0.609   2.570   0.050 -1.2178 -1.5998  1.9696
 2378SOL    HW218594   0.485   2.573  17.657  1.9941 -0.5542 -0.7961
 2379SOL     OW18595   0.744   1.579  13.737 -0.4879  0.8468 -0.3436
 2379SOL    HW118596   0.705   1.524  13.669  1.3544 -0.0895 -0.6592
 2379SOL    HW218597   0.742   1.656  13.680  0.0889 -0.4262 -2.1063
 2380SOL     OW18598   0.799   4.311   3.749 -0.2786 -0.1725 -0.6877
 2380SOL    HW118599   0.785   4.234   3.804  3.0113  0.0457  0.4501
 2380SOL    HW218600   0.839   4.262   3.677  1.5373 -1.2537  1.0577
 2381SOL     OW18601   1.505   0.957   9.445  0.1622  0.0523 -0.1735
 2381SOL    HW118602   1.443   1.002   9.503  2.5442  1.1817  1.4593
 2381SOL    HW218603   1.534   0.881   9.495  1.3537  0.5383 -0.1406
 2382SOL     OW18604   0.139   0.652  11.607  0.2937  0.2525 -0.1360
 2382SOL    HW118605   0.166   0.700  11.686  1.6209  1.0288 -1.0643
 2382SOL    HW218606   0.223   0.640  11.563 -0.4821 -1.5461 -1.0969
 2383SOL     OW18607   2.651   0.492  15.703  0.2509 -0.2244  0.6638
 2383SOL    HW118608   2.616   0.554  15.638 -0.8155 -0.5104  0.9567
 2383SOL    HW218609   2.660   0.547  15.781 -1.0279 -0.1724  0.7728
 2384SOL     OW18610   0.908   4.216   2.810  0.1475 -0.3249 -0.6018
 2384SOL    HW118611   0.998   4.242   2.828  0.2860 -0.1683 -1.4992
 2384SOL    HW218612   0.868   4.295   2.846 -1.1908  0.1662 -3.1249
 2385SOL     OW18613   0.423   4.493  15.471 -0.5387  0.2161 -0.0677
 2385SOL    HW118614   0.405   4.445  15.551 -0.4005 -1.5727 -1.0987
 2385SOL    HW218615   0.478   4.562  15.507 -2.6322  1.8773 -0.0394
 2386SOL     OW18616   4.535   1.049   6.669  0.6791  0.7449 -0.1639
 2386SOL    HW118617   4.608   1.037   6.729 -1.0495 -0.2390  1.7575
 2386SOL    HW218618   4.477   1.100   6.726  2.3636  1.0019  1.2927
 2387SOL     OW18619   0.301   2.571   7.304 -0.1789 -0.0455  0.1366
 2387SOL    HW118620   0.257   2.492   7.271 -2.1033  1.7325 -1.5634
 2387SOL    HW218621   0.254   2.588   7.385 -2.3480 -0.3108 -1.0556
 2388SOL     OW18622   4.523   2.659   5.193  0.0567  0.1610 -0.6990
 2388SOL    HW118623   4.435   2.623   5.204  0.2223 -0.0683 -0.1197
 2388SOL    HW218624   4.578   2.596   5.239 -0.4315  0.0065 -0.3222
 2389SOL     OW18625   3.231   3.934  14.035 -0.0840 -0.6204  0.2545
 2389SOL    HW118626   3.246   4.027  14.048  2.8923 -1.3263  1.8119
 2389SOL    HW218627   3.180   3.918  14.115 -1.2757 -0.8371 -0.5418
 2390SOL     OW18628   3.485   2.222   4.290 -0.2674  0.5580  0.2683
 2390SOL    HW118629   3.580   2.221   4.286 -0.3625 -0.9933 -1.7645
 2390SOL    HW218630   3.460   2.226   4.197  0.0614 -1.9518  0.0845
 2391SOL     OW18631   1.000   3.470   8.539  0.1481 -0.3467 -0.4572
 2391SOL    HW118632   1.074   3.432   8.492  0.4970  0.0107 -0.1891
 2391SOL    HW218633   0.984   3.410   8.612  0.4690  0.7840  0.5286
 2392SOL     OW18634   2.921   0.891  11.521 -0.0766  0.8829  0.0527
 2392SOL    HW118635   2.999   0.837  11.507 -0.9362 -0.5569  0.7380
 2392SOL    HW218636   2.864   0.844  11.460  2.2118 -1.6538 -0.1213
 2393SOL     OW18637   3.035   4.272   5.989 -0.3678  0.6192 -0.2526
 2393SOL    HW118638   3.069   4.197   5.939 -1.8835  0.3393 -0.8489
 2393SOL    HW218639   2.942   4.254   6.001 -0.4804 -0.4956 -2.6475
 2394SOL     OW18640   4.476   1.923   1.219 -0.1502 -0.2488 -0.7898
 2394SOL    HW118641   4.561   1.879   1.209 -0.0079 -0.0567 -0.4014
 2394SOL    HW218642   4.425   1.851   1.181 -1.9304  0.7299 -0.2195
 2395SOL     OW18643   1.250   4.526   8.797 -0.5195 -0.5025 -0.2802
 2395SOL    HW118644   1.219   4.606   8.840  2.1739 -1.5655  3.6526
 2395SOL    HW218645   1.309   4.491   8.865 -1.5896 -1.3881  0.1872
 2396SOL     OW18646   1.153   0.444  16.730 -0.2599 -0.0455 -0.3159
 2396SOL    HW118647   1.197   0.512  16.679 -0.2208  1.2132  1.3742
 2396SOL    HW218648   1.076   0.436  16.674  0.5762 -0.7265 -1.3568
 2397SOL     OW18649   2.099   2.167   5.584  0.0454  0.0001  0.1169
 2397SOL    HW118650   2.135   2.246   5.543  0.7850  0.3230  1.4024
 2397SOL    HW218651   2.034   2.210   5.639 -2.2915 -1.8798 -1.2051
 2398SOL     OW18652   1.082   0.602  17.567  0.5835  0.4146  0.3438
 2398SOL    HW118653   1.088   0.578  17.660  3.8449  1.0671  0.2972
 2398SOL    HW218654   1.037   0.522  17.537  2.6236 -1.4654  2.3175
 2399SOL     OW18655   1.121   3.810   6.661  0.2892 -0.4285  0.5963
 2399SOL    HW118656   1.040   3.785   6.706  0.4988 -0.5321  0.9119
 2399SOL    HW218657   1.093   3.790   6.571  0.4512 -2.3651  0.9686
 2400SOL     OW18658   1.201   1.507   3.092 -0.0609  0.2781 -0.0140
 2400SOL    HW118659   1.258   1.584   3.092  0.5557 -0.1762  2.2025
 2400SOL    HW218660   1.168   1.510   3.182 -0.9808 -0.6579 -0.3272
 2401SOL     OW18661   0.049   4.185   3.408 -0.0412  0.2481  0.0502
 2401SOL    HW118662   4.705   4.152   3.348  1.6930  0.4804 -1.9963
 2401SOL    HW218663   0.043   4.118   3.477 -1.1883 -0.8745 -1.1439
 2402SOL     OW18664   2.009   2.001   8.982 -0.0160  0.0740 -0.1740
 2402SOL    HW118665   2.073   1.985   8.912 -1.1137 -0.2899 -1.0924
 2402SOL    HW218666   2.071   2.046   9.040 -1.0154  0.4438  0.5996
 2403SOL     OW18667   0.519   1.694   8.000 -0.4659 -0.3929 -0.2477
 2403SOL    HW118668   0.502   1.604   7.973 -2.3291 -0.8528  2.5142
 2403SOL    HW218669   0.484   1.707   8.088 -0.1509  1.2831 -0.3742
 2404SOL     OW18670   1.281   0.703   7.587  0.0979 -0.1604  0.4006
 2404SOL    HW118671   1.301   0.675   7.498 -0.4269  0.5050  0.0688
 2404SOL    HW218672   1.224   0.775   7.559 -0.6309 -1.0229 -0.3065
 2405SOL     OW18673   2.807   0.596  16.058  0.4767  0.2231  0.2565
 2405SOL    HW118674   2.798   0.508  16.022  2.2646  0.3631 -0.5248
 2405SOL    HW218675   2.734   0.633  16.010  0.0382  0.4008  1.0659
 2406SOL     OW18676   3.842   0.856   1.145  0.0699 -0.8786  0.0525
 2406SOL    HW118677   3.867   0.828   1.057  0.9813 -0.9415  0.3327
 2406SOL    HW218678   3.747   0.866   1.137  0.1899  0.9871  0.8819
 2407SOL     OW18679   1.281   3.257  10.361 -0.0940 -0.2386 -0.1301
 2407SOL    HW118680   1.331   3.232  10.283  0.2757 -1.6996  0.5835
 2407SOL    HW218681   1.227   3.179  10.372  0.3049 -0.4007  0.6356
 2408SOL     OW18682   1.694   0.954   0.455  0.6546  0.6288  0.2458
 2408SOL    HW118683   1.706   1.048   0.469  3.3104  0.8033 -3.2049
 2408SOL    HW218684   1.784   0.923   0.468  0.6706 -0.6274 -2.8411
 2409SOL     OW18685   2.906   2.311   0.210 -0.3298  0.5604 -0.2851
 2409SOL    HW118686   2.877   2.232   0.256 -1.5330  3.8508  4.7041
 2409SOL    HW218687   2.881   2.382   0.270 -0.1349  0.3208  0.0838
 2410SOL     OW18688   3.382   2.576   5.792  0.6228  0.0024  0.0977
 2410SOL    HW118689   3.314   2.509   5.791  1.8422 -1.2169  3.2971
 2410SOL    HW218690   3.397   2.577   5.697  0.3482  0.6906  0.0586
 2411SOL     OW18691   0.921   4.565  12.222  0.0146 -0.1216  0.2522
 2411SOL    HW118692   1.012   4.575  12.251  0.3954  1.4251 -1.5024
 2411SOL    HW218693   0.929   4.621  12.145  1.8744  2.0673  2.0529
 2412SOL     OW18694   0.068   2.163  15.626 -0.1744 -0.1496  1.0144
 2412SOL    HW118695   0.003   2.133  15.690 -1.1092  0.7666  0.4879
 2412SOL    HW218696   0.066   2.258  15.633 -2.5858 -0.2119  1.0912
 2413SOL     OW18697   0.068   2.459   3.906 -0.2306  0.4361  0.1849
 2413SOL    HW118698   0.046   2.492   3.819 -1.6646 -0.0128  0.3769
 2413SOL    HW218699   0.154   2.421   3.891 -1.0863 -0.9661 -1.2289
 2414SOL     OW18700   4.506   3.063   1.867 -0.1266 -0.0088 -0.5942
 2414SOL    HW118701   4.598   3.074   1.890 -0.1391  0.4682 -0.7655
 2414SOL    HW218702   4.469   3.075   1.954 -2.1205  0.7193 -1.5574
 2415SOL     OW18703   0.765   1.480   4.649 -0.2651  0.3630  0.1172
 2415SOL    HW118704   0.817   1.509   4.574 -1.0893 -0.6002 -0.8171
 2415SOL    HW218705   0.779   1.386   4.642  0.1676  0.2766  2.0619
 2416SOL     OW18706   1.492   2.622   7.463  0.0109 -0.4963 -0.1873
 2416SOL    HW118707   1.473   2.608   7.371  0.3806  0.2167 -0.3669
 2416SOL    HW218708   1.586   2.605   7.470  0.2186  0.2406 -1.3595
 2417SOL     OW18709   3.510   4.585   8.263 -0.2198 -0.9604 -0.3849
 2417SOL    HW118710   3.580   4.543   8.213  0.1973  0.2614 -0.8292
 2417SOL    HW218711   3.466   4.504   8.289 -0.9652  1.0500  4.4866
 2418SOL     OW18712   4.693   1.679   7.122  0.1759  0.1821  0.2587
 2418SOL    HW118713   4.625   1.612   7.129 -0.7313  1.3908  2.7530
 2418SOL    HW218714   4.635   1.754   7.112 -1.2364 -1.1689 -1.5877
 2419SOL     OW18715   3.886   0.229   7.688 -0.2651  0.6111  0.0691
 2419SOL    HW118716   3.900   0.173   7.612  0.0940 -0.5115  0.9598
 2419SOL    HW218717   3.819   0.284   7.646  0.5836  1.6409  0.0463
 2420SOL     OW18718   1.678   3.098   5.607  0.6544 -0.1760 -0.4188
 2420SOL    HW118719   1.697   3.094   5.701  1.4794 -1.9466 -0.6766
 2420SOL    HW218720   1.604   3.159   5.615  0.0615 -0.9083 -0.3922
 2421SOL     OW18721   0.334   3.667   2.164 -0.3562  0.1733  0.0631
 2421SOL    HW118722   0.354   3.575   2.148 -0.0235  0.5348 -1.5246
 2421SOL    HW218723   0.409   3.719   2.137  0.2571 -0.5396  0.3953
 2422SOL     OW18724   2.608   4.108  14.585  0.4031 -0.1759 -0.1907
 2422SOL    HW118725   2.635   4.017  14.581  0.5286 -0.0978 -1.1621
 2422SOL    HW218726   2.593   4.121  14.491 -2.4702 -0.0467  0.2937
 2423SOL     OW18727   1.387   2.267   8.515  0.3287 -0.3109 -0.2134
 2423SOL    HW118728   1.325   2.334   8.485 -0.1708  0.0484  1.5565
 2423SOL    HW218729   1.465   2.321   8.522  0.7419 -0.8203 -0.9775
 2424SOL     OW18730   1.680   1.193   1.578 -0.5374 -0.0412 -0.2908
 2424SOL    HW118731   1.689   1.287   1.589  1.6093 -0.2369 -0.3304
 2424SOL    HW218732   1.586   1.185   1.566 -0.9703  2.0957  1.7060
 2425SOL     OW18733   4.620   2.206   3.957 -0.6613 -0.2115 -0.0528
 2425SOL    HW118734   4.700   2.258   3.957 -0.3705 -0.6572 -1.1385
 2425SOL    HW218735   4.582   2.222   3.870  0.3556 -1.1540 -0.6640
 2426SOL     OW18736   3.929   2.634  15.852 -0.0090 -0.1052  0.8718
 2426SOL    HW118737   3.851   2.635  15.907 -0.5625  0.2975  0.0794
 2426SOL    HW218738   3.919   2.712  15.796  0.9750 -0.0379  0.7897
 2427SOL     OW18739   4.118   4.163   9.167  0.4893  0.1542  0.2221
 2427SOL    HW118740   4.134   4.153   9.261 -0.0151  3.2828  0.6388
 2427SOL    HW218741   4.208   4.161   9.133  0.2520 -1.7706 -0.2505
 2428SOL     OW18742   0.572   0.524   9.031 -0.1918  0.0189  0.0210
 2428SOL    HW118743   0.493   0.568   9.065  0.3441  0.3219  0.8648
 2428SOL    HW218744   0.560   0.430   9.042  0.5951  0.0841  1.3713
 2429SOL     OW18745   2.480   2.949   3.332 -0.0475  0.1756  0.7248
 2429SOL    HW118746   2.407   3.007   3.308 -1.6874 -1.3903  1.9443
 2429SOL    HW218747   2.525   2.947   3.248  0.6826  1.6561  1.0818
 2430SOL     OW18748   0.633   0.737   3.005 -0.0378 -0.1022  0.2349
 2430SOL    HW118749   0.686   0.679   2.950 -0.1941  0.5270 -0.5869
 2430SOL    HW218750   0.591   0.672   3.061 -1.3627 -2.2545 -3.3279
 2431SOL     OW18751   1.193   4.513  12.249 -0.2073  0.7065  0.0022
 2431SOL    HW118752   1.280   4.493  12.217 -0.8830  0.3860 -1.6500
 2431SOL    HW218753   1.232   4.511  12.336 -0.1376  0.6847 -0.0301
 2432SOL     OW18754   2.388   3.536  15.003  0.0215  0.2018  0.4365
 2432SOL    HW118755   2.353   3.614  14.959  1.2145  1.7339  2.2427
 2432SOL    HW218756   2.360   3.545  15.094  0.4553 -0.1235  0.6000
 2433SOL     OW18757   4.307   3.142   8.034 -0.6340 -0.1920 -0.2841
 2433SOL    HW118758   4.282   3.103   8.118 -2.0880  0.5144 -0.3932
 2433SOL    HW218759   4.285   3.234   8.040 -0.4555 -0.2440  1.1044
 2434SOL     OW18760   2.908   4.114   9.358  0.3012 -0.2993  0.1528
 2434SOL    HW118761   2.952   4.108   9.442 -2.0452 -0.6177  1.3552
 2434SOL    HW218762   2.834   4.059   9.383  1.2999 -2.2297 -1.1229
 2435SOL     OW18763   0.426   1.330   6.485 -0.2211 -0.2650  0.3903
 2435SOL    HW118764   0.387   1.413   6.513  1.4458  0.4848  0.4395
 2435SOL    HW218765   0.390   1.268   6.548 -1.8049 -0.6123 -0.8299
 2436SOL     OW18766   3.262   2.006   5.849  0.1124 -0.0933  0.4636
 2436SOL    HW118767   3.242   2.073   5.914 -2.0993 -1.5724  1.3032
 2436SOL    HW218768   3.294   1.932   5.901 -1.3408 -2.2791 -1.7250
 2437SOL     OW18769   0.309   1.300   2.815 -0.2653  0.5329  0.2496
 2437SOL    HW118770   0.301   1.357   2.738 -1.6647 -1.9887 -1.4596
 2437SOL    HW218771   0.372   1.349   2.867 -0.7261  0.8775  0.4867
 2438SOL     OW18772   3.238   4.561   2.662 -0.0698  0.0822 -0.3188
 2438SOL    HW118773   3.292   4.522   2.593  0.1622 -0.7026  0.3044
 2438SOL    HW218774   3.224   4.651   2.633  0.3353 -0.1639 -1.2929
 2439SOL     OW18775   4.335   3.067   2.881  0.1218  0.2208  0.1258
 2439SOL    HW118776   4.290   3.107   2.807 -0.1096  3.2698  1.9177
 2439SOL    HW218777   4.268   3.012   2.920  1.4969 -2.4528 -1.2872
 2440SOL     OW18778   4.723   0.930   2.717  0.3511  0.3172  0.1317
 2440SOL    HW118779   4.700   0.937   2.624 -0.0669 -1.1800  0.1097
 2440SOL    HW218780   0.088   0.967   2.718  0.2863  0.4642  0.2761
 2441SOL     OW18781   2.213   1.875   6.474  0.2662  0.2678 -1.0035
 2441SOL    HW118782   2.232   1.890   6.567  0.3725  0.7811 -1.1084
 2441SOL    HW218783   2.139   1.934   6.462  0.3399  0.2330 -1.6113
 2442SOL     OW18784   3.503   4.330   4.838 -0.1775 -0.4105  0.2022
 2442SOL    HW118785   3.510   4.345   4.932  0.3213 -2.0189  0.4330
 2442SOL    HW218786   3.590   4.302   4.809 -1.2995 -2.2906 -1.3985
 2443SOL     OW18787   4.631   1.321   2.691 -0.0685 -0.5416  0.2836
 2443SOL    HW118788   4.686   1.278   2.757 -1.9908 -2.2546  0.7938
 2443SOL    HW218789   4.644   1.412   2.716  1.9297 -0.2756 -1.7302
 2444SOL     OW18790   0.042   0.875   0.089 -0.1204  0.4169  0.4747
 2444SOL    HW118791   0.074   0.945   0.146  2.2382 -0.5522  0.3182
 2444SOL    HW218792   0.110   0.883   0.022 -0.4270 -1.8970 -0.0950
 2445SOL     OW18793   1.321   1.335   4.449  0.0421  0.3536  0.5174
 2445SOL    HW118794   1.231   1.357   4.426 -0.4789 -3.7050 -1.3527
 2445SOL    HW218795   1.336   1.259   4.394 -0.9041  0.2554  0.3976
 2446SOL     OW18796   3.514   4.457  16.268  0.3678 -0.6005 -0.1656
 2446SOL    HW118797   3.528   4.434  16.360 -0.5551 -2.3193 -0.4607
 2446SOL    HW218798   3.511   4.369  16.232 -0.9226 -0.1060 -1.2700
 2447SOL     OW18799   0.496   3.212  10.538 -0.6766  0.0711  0.1604
 2447SOL    HW118800   0.453   3.156  10.473  0.2983 -1.2686  0.6722
 2447SOL    HW218801   0.540   3.151  10.596 -0.9848  0.5536  0.8987
 2448SOL     OW18802   0.599   2.824  11.798  1.0447  0.0017  0.0122
 2448SOL    HW118803   0.676   2.807  11.744  1.1242  2.2828 -0.5866
 2448SOL    HW218804   0.604   2.755  11.864  1.6637  0.6271  0.6232
 2449SOL     OW18805   3.969   3.607  13.518  0.1553 -0.2458 -0.4746
 2449SOL    HW118806   4.044   3.582  13.570  0.3291 -1.4586 -1.3136
 2449SOL    HW218807   4.008   3.654  13.445 -0.7004  0.6238 -0.3805
 2450SOL     OW18808   0.016   0.782  16.133 -0.2923 -0.2088 -0.1124
 2450SOL    HW118809   0.014   0.856  16.194 -0.6672 -0.6280  0.3709
 2450SOL    HW218810   4.654   0.738  16.136 -1.2266  1.5488 -0.5707
 2451SOL     OW18811   0.897   0.981   3.988 -0.8509  0.6620  0.2083
 2451SOL    HW118812   0.856   0.896   3.971 -0.7378 -0.1106  3.7341
 2451SOL    HW218813   0.974   0.951   4.036 -2.1579 -3.5021 -0.2408
 2452SOL     OW18814   1.021   2.711   7.820  0.0926 -0.2898 -0.1854
 2452SOL    HW118815   1.062   2.741   7.739 -1.5330 -3.1815 -2.0976
 2452SOL    HW218816   0.931   2.736   7.797  1.1488  4.8525  1.4293
 2453SOL     OW18817   3.312   3.863   8.672  0.2021 -0.4778  0.4313
 2453SOL    HW118818   3.270   3.902   8.596  0.6628  0.6493  0.7433
 2453SOL    HW218819   3.396   3.909   8.680 -0.3533  1.0046 -2.3325
 2454SOL     OW18820   3.160   3.971   0.750  0.2838  0.4920  0.1132
 2454SOL    HW118821   3.228   4.025   0.709  1.0235 -0.1957  0.4190
 2454SOL    HW218822   3.084   4.011   0.709 -0.1251  2.7747  3.0623
 2455SOL     OW18823   4.090   3.735  12.049  0.4586 -0.5668 -0.2848
 2455SOL    HW118824   4.151   3.758  11.979  1.4188  0.7303  0.9980
 2455SOL    HW218825   4.041   3.817  12.040  2.4142  0.6501  0.0569
 2456SOL     OW18826   1.539   2.069  11.561 -0.3089 -0.2897  0.1806
 2456SOL    HW118827   1.447   2.043  11.566 -0.2356 -0.4920  0.4224
 2456SOL    HW218828   1.537   2.139  11.496  2.1239 -1.3624 -1.0475
 2457SOL     OW18829   2.377   0.576  11.596  0.2605 -0.2457 -0.1500
 2457SOL    HW118830   2.352   0.598  11.506 -2.8137 -1.4356  0.4112
 2457SOL    HW218831   2.469   0.596  11.580  0.4897 -1.7803 -0.7766
 2458SOL     OW18832   3.098   1.150   4.715  0.4668 -0.2896  0.2701
 2458SOL    HW118833   3.147   1.230   4.734  0.5859  0.1276 -1.7573
 2458SOL    HW218834   3.099   1.103   4.798  0.9419  0.2276  0.5593
 2459SOL     OW18835   3.581   3.712   8.684 -0.2024 -0.0190  0.5239
 2459SOL    HW118836   3.635   3.679   8.612 -1.5331 -1.5221  0.1949
 2459SOL    HW218837   3.591   3.807   8.688 -1.1445  0.1033  0.1904
 2460SOL     OW18838   1.098   1.531   0.740  0.7641  0.2550 -0.1388
 2460SOL    HW118839   1.158   1.499   0.807  0.6704 -1.9137 -1.1149
 2460SOL    HW218840   1.127   1.483   0.662 -1.8196  0.3532 -1.1827
 2461SOL     OW18841   1.494   0.873   0.297 -0.4337  0.4736  0.2319
 2461SOL    HW118842   1.527   0.899   0.383 -0.0635  4.5767 -1.1792
 2461SOL    HW218843   1.582   0.860   0.263 -0.5608 -1.6670  0.7084
 2462SOL     OW18844   0.018   2.478   6.833  0.1756 -0.8213 -0.0428
 2462SOL    HW118845   4.648   2.494   6.816  0.9832  2.8628 -1.0370
 2462SOL    HW218846   0.057   2.529   6.762  1.7341 -1.0527  0.6397
 2463SOL     OW18847   0.153   4.365   4.999  0.1405  0.1225  0.3504
 2463SOL    HW118848   0.233   4.344   4.952  0.7307 -2.0713  2.3138
 2463SOL    HW218849   0.096   4.299   4.960  3.0198 -2.1865  0.1068
 2464SOL     OW18850   2.834   0.373   1.145 -0.0089  0.0390  0.6079
 2464SOL    HW118851   2.827   0.334   1.232 -0.1263 -0.1282  0.5233
 2464SOL    HW218852   2.850   0.463   1.173  2.1646  0.2293 -1.2684
 2465SOL     OW18853   0.067   3.840   7.111 -0.2149 -0.1732  0.3631
 2465SOL    HW118854   0.065   3.755   7.155 -2.0876 -0.4483 -0.2382
 2465SOL    HW218855   4.705   3.875   7.139 -1.0638 -0.7557 -1.5330
 2466SOL     OW18856   0.821   3.077  14.331  0.0387  0.1715  0.4570
 2466SOL    HW118857   0.881   3.108  14.398  2.9013 -0.9875 -1.5565
 2466SOL    HW218858   0.746   3.134  14.347 -0.3022 -0.2343  0.3115
 2467SOL     OW18859   3.431   3.910   4.836  0.5655  0.2668 -0.0513
 2467SOL    HW118860   3.524   3.890   4.850  0.0384 -1.9058  0.2390
 2467SOL    HW218861   3.385   3.827   4.845  4.1340 -1.6417  0.5058
 2468SOL     OW18862   2.188   1.360   3.798  0.4224  0.2055 -0.0392
 2468SOL    HW118863   2.111   1.409   3.827 -0.2211 -1.8897  1.8596
 2468SOL    HW218864   2.224   1.424   3.737  0.7746 -0.9270 -1.0269
 2469SOL     OW18865   0.637   4.596  14.308  0.0703  0.4145  0.1550
 2469SOL    HW118866   0.699   4.649  14.358 -1.9390  0.9075  2.1702
 2469SOL    HW218867   0.670   4.509  14.329 -1.0736 -0.1415 -0.3562
 2470SOL     OW18868   0.333   0.764   3.888  0.6480  0.1617 -0.4404
 2470SOL    HW118869   0.274   0.834   3.859 -1.3839 -1.5983 -0.5748
 2470SOL    HW218870   0.278   0.696   3.849  0.5184 -0.4513  0.8084
 2471SOL     OW18871   0.800   2.288   8.143 -0.0875 -0.0900  0.1134
 2471SOL    HW118872   0.882   2.252   8.178 -0.4205 -0.4407  0.5319
 2471SOL    HW218873   0.778   2.223   8.077 -3.7327 -0.0789  1.3050
 2472SOL     OW18874   1.341   2.985   1.408  0.2055  0.6720  0.6136
 2472SOL    HW118875   1.302   2.929   1.340  1.6561 -0.5581  0.7824
 2472SOL    HW218876   1.323   2.937   1.489 -0.6913  0.6693  0.4068
 2473SOL     OW18877   2.856   1.166   6.954  0.0411 -0.6813  0.5651
 2473SOL    HW118878   2.906   1.090   6.923 -0.1814 -0.9012  0.7418
 2473SOL    HW218879   2.929   1.226   6.969  0.6071 -1.5145  1.2087
 2474SOL     OW18880   2.469   2.103   1.782 -0.2716  0.5428 -0.2016
 2474SOL    HW118881   2.411   2.107   1.858 -0.0452 -1.4762  0.0678
 2474SOL    HW218882   2.405   2.101   1.710  0.9554  2.0230 -1.3353
 2475SOL     OW18883   2.984   3.258   5.457  0.0594  0.1400 -0.1503
 2475SOL    HW118884   3.064   3.290   5.417 -0.1483  2.0112  0.9102
 2475SOL    HW218885   3.008   3.167   5.473  1.4331  0.4577 -0.4382
 2476SOL     OW18886   2.875   4.678  11.065 -0.0387 -0.7318  0.2729
 2476SOL    HW118887   2.798   4.652  11.015 -0.5922 -0.0959  0.7979
 2476SOL    HW218888   2.927   4.598  11.079  1.5660 -0.0348 -1.8014
 2477SOL     OW18889   1.577   3.845  11.048  0.0202 -0.2453  0.0401
 2477SOL    HW118890   1.635   3.778  11.085  0.3625  1.3205  2.3483
 2477SOL    HW218891   1.526   3.789  10.990 -1.1374  0.6014  0.2423
 2478SOL     OW18892   0.497   3.522   6.920 -0.2311 -0.8613 -0.7532
 2478SOL    HW118893   0.423   3.517   6.858 -0.1845 -0.9738 -0.8006
 2478SOL    HW218894   0.564   3.471   6.874  0.6892 -1.9912  1.8493
 2479SOL     OW18895   1.427   4.260   9.709  0.3149 -0.2564 -0.3643
 2479SOL    HW118896   1.357   4.293   9.653  1.6112  0.0888 -1.7818
 2479SOL    HW218897   1.471   4.337   9.746 -1.3005 -1.0188  3.0873
 2480SOL     OW18898   1.601   0.905   6.542  0.1947  0.2484  0.2270
 2480SOL    HW118899   1.631   0.959   6.469 -1.8533  1.4355  0.2718
 2480SOL    HW218900   1.596   0.970   6.611  0.3488 -0.5570  0.9961
 2481SOL     OW18901   4.166   4.533   2.203 -0.2266 -0.5535  0.9474
 2481SOL    HW118902   4.139   4.467   2.139 -2.7539 -0.3475  1.8040
 2481SOL    HW218903   4.185   4.611   2.150  3.1708 -0.5912  2.0947
 2482SOL     OW18904   3.949   3.730  16.640  0.0962 -0.2828 -0.4958
 2482SOL    HW118905   3.857   3.748  16.618 -0.2674  2.9894  3.5828
 2482SOL    HW218906   3.934   3.660  16.703 -0.7000 -1.5603 -2.1112
 2483SOL     OW18907   2.481   2.851   2.541  0.0244  0.0895  0.0277
 2483SOL    HW118908   2.488   2.800   2.621 -0.1804 -0.0159 -0.0214
 2483SOL    HW218909   2.571   2.863   2.509 -0.1750  1.3392 -0.0571
 2484SOL     OW18910   0.613   3.182   2.437 -0.4779 -0.0536  0.5324
 2484SOL    HW118911   0.521   3.201   2.421 -0.8207 -2.0943  0.0284
 2484SOL    HW218912   0.617   3.090   2.410 -0.7320 -0.4445  1.8055
 2485SOL     OW18913   3.322   3.463  13.897 -0.0794  0.3102  0.2443
 2485SOL    HW118914   3.313   3.379  13.942  1.9001  0.7171  1.3922
 2485SOL    HW218915   3.410   3.461  13.860 -0.1141 -2.7023  0.3180
 2486SOL     OW18916   2.626   4.459  14.763 -0.6051  0.1926 -0.2173
 2486SOL    HW118917   2.656   4.527  14.703 -0.0299  0.6944  0.6515
 2486SOL    HW218918   2.546   4.495  14.800 -0.5939 -0.5185  0.5098
 2487SOL     OW18919   2.594   3.159   4.970  0.0725 -0.1851 -0.4207
 2487SOL    HW118920   2.643   3.242   4.969 -1.9314  0.9965 -0.9257
 2487SOL    HW218921   2.589   3.140   4.876 -0.2386  0.9141 -0.6250
 2488SOL     OW18922   1.672   4.234  14.692  0.2627  0.1676  0.0748
 2488SOL    HW118923   1.639   4.145  14.705  0.6135 -0.2247 -1.6950
 2488SOL    HW218924   1.613   4.278  14.630  0.2096 -0.4264 -0.3051
 2489SOL     OW18925   2.676   3.961   4.530 -0.6091  0.5350  0.2398
 2489SOL    HW118926   2.647   3.957   4.621 -2.6839 -3.8270 -0.5837
 2489SOL    HW218927   2.644   4.049   4.511 -0.5538  0.4749 -0.1425
 2490SOL     OW18928   1.389   4.118   9.239 -0.4411 -0.4860  0.4072
 2490SOL    HW118929   1.449   4.148   9.170  1.2114 -0.5752  1.7849
 2490SOL    HW218930   1.324   4.064   9.194  1.1773 -0.1465 -2.3688
 2491SOL     OW18931   3.516   3.746   5.185  0.4540  0.1498  0.2482
 2491SOL    HW118932   3.549   3.676   5.128 -0.3860 -2.0609  2.5179
 2491SOL    HW218933   3.423   3.733   5.167  0.2158 -0.4207  1.9851
 2492SOL     OW18934   1.000   4.113  12.726  0.3678  0.0538 -0.5979
 2492SOL    HW118935   1.083   4.158  12.741  0.4359 -0.0781 -0.5818
 2492SOL    HW218936   0.984   4.113  12.632 -0.2719 -4.1668 -0.4655
 2493SOL     OW18937   1.649   2.154   4.247  0.0112 -0.1783  0.8374
 2493SOL    HW118938   1.566   2.186   4.211 -0.4883  1.1714  3.2302
 2493SOL    HW218939   1.686   2.117   4.166  0.7033  2.8287 -0.2213
 2494SOL     OW18940   2.990   0.321   5.415  0.1773  0.5867 -0.0605
 2494SOL    HW118941   3.005   0.331   5.321 -2.7926 -2.1356 -0.8287
 2494SOL    HW218942   2.976   0.413   5.438 -2.3439  1.0140 -3.4002
 2495SOL     OW18943   2.099   3.690   8.946  0.4044  0.5150 -0.7050
 2495SOL    HW118944   2.183   3.736   8.942  1.5869 -1.5173  0.1393
 2495SOL    HW218945   2.133   3.612   8.991 -0.7679  0.4836  0.1181
 2496SOL     OW18946   1.274   0.277   6.622  0.1607 -0.6057 -0.2344
 2496SOL    HW118947   1.352   0.296   6.675 -1.6141  1.9761  1.4172
 2496SOL    HW218948   1.317   0.208   6.571  1.6531  0.2671 -0.1696
 2497SOL     OW18949   0.875   4.669   5.245  0.3677 -0.5511  0.4431
 2497SOL    HW118950   0.891   4.582   5.283 -1.8852 -0.7085  1.0409
 2497SOL    HW218951   0.787   4.686   5.279  1.2580  0.8402  2.0476
 2498SOL     OW18952   1.503   1.213   5.410  0.0709 -0.4972  0.5013
 2498SOL    HW118953   1.462   1.297   5.386 -0.2638 -0.5637  0.8335
 2498SOL    HW218954   1.423   1.171   5.443 -0.6191  1.9139  1.9753
 2499SOL     OW18955   3.524   4.587  12.833  0.1780  0.4481 -0.1388
 2499SOL    HW118956   3.533   4.588  12.928  0.7216  1.2918 -0.1977
 2499SOL    HW218957   3.593   4.650  12.813  0.7218  0.3672  1.5021
 2500SOL     OW18958   0.541   1.903   5.875  0.1910 -0.6032  0.3034
 2500SOL    HW118959   0.489   1.862   5.943 -1.0218  0.4193 -0.0030
 2500SOL    HW218960   0.559   1.980   5.929 -1.6632 -0.0201  0.0790
 2501SOL     OW18961   2.699   1.156   2.117 -0.3861  0.6656 -0.5126
 2501SOL    HW118962   2.709   1.182   2.026  0.3003  0.9195 -0.3611
 2501SOL    HW218963   2.787   1.159   2.154 -1.0830  4.7251  0.8333
 2502SOL     OW18964   2.358   1.337   4.016 -0.3990  0.4051  0.2340
 2502SOL    HW118965   2.281   1.311   3.965 -1.2769  1.7368  0.8949
 2502SOL    HW218966   2.381   1.413   3.962  1.4560  0.5107  1.1685
 2503SOL     OW18967   3.343   1.223   0.391  0.2648 -0.0499 -0.1559
 2503SOL    HW118968   3.412   1.191   0.449 -0.9348 -0.9350  0.7984
 2503SOL    HW218969   3.331   1.157   0.323 -2.6267  1.7520 -1.3905
 2504SOL     OW18970   2.327   1.404   6.337  0.6529  0.0781 -0.3938
 2504SOL    HW118971   2.267   1.340   6.299 -0.5554  2.2745 -2.2469
 2504SOL    HW218972   2.308   1.489   6.297 -0.6050  0.7538  1.5977
 2505SOL     OW18973   3.323   0.352  14.380 -0.1693  0.3877  0.0116
 2505SOL    HW118974   3.303   0.415  14.310  0.7566 -1.2166 -1.7061
 2505SOL    HW218975   3.375   0.289  14.330 -1.3813  1.3889 -2.5128
 2506SOL     OW18976   0.929   0.128   4.008 -0.4850  0.2530 -0.6552
 2506SOL    HW118977   0.943   0.094   3.919 -1.2597  2.8281 -1.7598
 2506SOL    HW218978   0.863   0.069   4.046 -0.6903  0.4149 -0.7574
 2507SOL     OW18979   4.543   0.742   9.291  0.5432  0.0231  0.3704
 2507SOL    HW118980   4.544   0.711   9.382  0.7332 -1.7380 -0.2390
 2507SOL    HW218981   4.491   0.677   9.245  2.2531 -0.8814 -0.2847
 2508SOL     OW18982   0.704   0.041  11.785 -0.5627  0.3374  0.0743
 2508SOL    HW118983   0.712   0.052  11.880 -0.8707 -0.4089  0.1826
 2508SOL    HW218984   0.699   4.669  11.780  0.0090  0.1033  3.5594
 2509SOL     OW18985   2.847   1.032   2.597  0.1986  0.1209  0.2464
 2509SOL    HW118986   2.859   0.953   2.650  0.4072 -0.4920 -0.7343
 2509SOL    HW218987   2.752   1.031   2.609 -0.2200  0.0473 -3.1950
 2510SOL     OW18988   0.906   3.370   8.195  0.4986 -0.3217  0.5131
 2510SOL    HW118989   0.829   3.314   8.198 -0.1433  0.5039 -0.7126
 2510SOL    HW218990   0.943   3.348   8.280  1.6609  1.4486  0.4822
 2511SOL     OW18991   0.835   2.023   2.073  0.0904 -0.2391  0.1395
 2511SOL    HW118992   0.761   2.001   2.129  0.3097  0.1920  0.5968
 2511SOL    HW218993   0.875   2.090   2.128  2.4081 -1.1583 -0.4033
 2512SOL     OW18994   3.165   2.635   7.572  0.0714  0.0264 -0.1287
 2512SOL    HW118995   3.241   2.668   7.524  1.0363  0.0514  1.4237
 2512SOL    HW218996   3.157   2.708   7.632  2.4719 -0.1821  0.4223
 2513SOL     OW18997   1.091   0.002   8.053 -0.6398  0.3550 -0.0816
 2513SOL    HW118998   1.184   4.707   8.058 -0.4296  1.8505  1.2887
 2513SOL    HW218999   1.055   4.690   8.134 -3.2303 -0.1340 -1.4328
 2514SOL     OW19000   3.887   3.627   5.223  0.0703  0.1444 -0.4192
 2514SOL    HW119001   3.885   3.629   5.127  0.4825  0.3546 -0.4215
 2514SOL    HW219002   3.965   3.572   5.229 -0.0216  0.1482  0.7032
 2515SOL     OW19003   3.399   1.975   8.974  0.0041 -0.2007 -0.0858
 2515SOL    HW119004   3.398   1.888   8.934  1.9830  0.3137 -1.2380
 2515SOL    HW219005   3.328   1.959   9.037 -0.2391  1.8464  0.1493
 2516SOL     OW19006   1.765   2.236   3.273  0.7550 -0.0146 -0.2872
 2516SOL    HW119007   1.848   2.261   3.313  0.3007  0.2191  0.5168
 2516SOL    HW219008   1.710   2.202   3.344 -1.4705  1.2494 -1.4014
 2517SOL     OW19009   0.712   0.487  15.344  0.1322 -0.2496  0.8406
 2517SOL    HW119010   0.740   0.397  15.329  2.4447  0.4961  0.5799
 2517SOL    HW219011   0.707   0.480  15.439  0.2810  0.5305  0.9071
 2518SOL     OW19012   2.015   0.528   9.278 -0.0206  0.0643 -0.0487
 2518SOL    HW119013   1.953   0.596   9.251  1.3520  0.6102 -1.8134
 2518SOL    HW219014   2.100   0.571   9.274  1.8244 -3.7697 -1.9621
 2519SOL     OW19015   4.623   3.485  17.075  0.4524 -0.3198  0.2577
 2519SOL    HW119016   4.661   3.477  16.987 -1.8932 -0.9055 -0.7022
 2519SOL    HW219017   4.692   3.527  17.125 -0.2502  0.4502  0.5831
 2520SOL     OW19018   3.617   0.937   2.027  0.7112  0.1110 -0.0174
 2520SOL    HW119019   3.639   0.877   2.098 -0.4789  0.1358  0.3616
 2520SOL    HW219020   3.585   1.009   2.081 -0.4607  0.9978 -1.8997
 2521SOL     OW19021   4.085   4.092   6.673 -0.1933  0.5339 -0.1100
 2521SOL    HW119022   3.991   4.102   6.685 -1.0905 -3.6745 -3.4828
 2521SOL    HW219023   4.093   4.178   6.631  0.1741  1.0364  1.0043
 2522SOL     OW19024   2.038   0.916   9.411  0.4409  0.4059  0.0102
 2522SOL    HW119025   1.992   0.972   9.348  1.2457  2.3073  1.1288
 2522SOL    HW219026   2.080   0.854   9.351  1.2691 -1.1159  2.1622
 2523SOL     OW19027   3.656   2.682   2.410  0.4695 -0.5553 -0.5017
 2523SOL    HW119028   3.613   2.645   2.488 -0.1923 -0.5743 -0.8774
 2523SOL    HW219029   3.709   2.607   2.381 -0.1618 -1.4590  0.6443
 2524SOL     OW19030   3.495   3.153  10.999 -0.3923  0.4704  0.1247
 2524SOL    HW119031   3.550   3.231  10.996 -0.6337  0.6721  1.1002
 2524SOL    HW219032   3.509   3.120  10.910  3.5533  0.6641  0.6629
 2525SOL     OW19033   0.456   4.227   0.780 -0.0060  0.7712 -0.3525
 2525SOL    HW119034   0.532   4.285   0.771  0.6871 -0.5589 -2.8120
 2525SOL    HW219035   0.483   4.136   0.785  0.4772  0.8032 -2.3981
 2526SOL     OW19036   2.007   0.673   2.752  0.0883 -0.1433  0.0501
 2526SOL    HW119037   2.008   0.768   2.751 -1.5674 -0.1189  0.8158
 2526SOL    HW219038   2.013   0.661   2.657 -0.8265  1.8472 -0.2533
 2527SOL     OW19039   2.234   1.311   2.897  0.1179 -0.0614  0.0253
 2527SOL    HW119040   2.227   1.371   2.823 -1.7022 -1.3191 -0.8287
 2527SOL    HW219041   2.168   1.250   2.864 -0.3501 -0.2131  1.2437
 2528SOL     OW19042   0.711   2.340   6.484  0.0360 -0.3440 -0.5604
 2528SOL    HW119043   0.750   2.359   6.569 -2.5015  1.9275  0.0801
 2528SOL    HW219044   0.645   2.409   6.492  0.2056 -0.3316  0.6859
 2529SOL     OW19045   0.973   0.464   1.503 -0.2235  0.2378  0.2134
 2529SOL    HW119046   0.970   0.450   1.598  0.8641 -0.2311  0.1775
 2529SOL    HW219047   1.047   0.409   1.476 -0.9644 -0.8531  0.4010
 2530SOL     OW19048   3.999   2.278   8.615  0.2081  0.2375 -0.1494
 2530SOL    HW119049   4.001   2.305   8.523 -0.9778 -0.5130 -0.3977
 2530SOL    HW219050   4.089   2.250   8.633 -1.0763 -1.1489  4.0283
 2531SOL     OW19051   3.185   0.450   3.349  0.3545 -0.1316  0.0255
 2531SOL    HW119052   3.208   0.405   3.430  1.6862  2.1817  0.9252
 2531SOL    HW219053   3.271   0.446   3.308  1.3284 -0.7127  2.1541
 2532SOL     OW19054   2.201   3.091   1.056  0.1885  0.8543  0.6763
 2532SOL    HW119055   2.229   3.000   1.063  0.6558  0.8589 -1.3728
 2532SOL    HW219056   2.106   3.087   1.057  0.1436  1.3837 -3.3114
 2533SOL     OW19057   4.716   0.808   0.883 -0.5463  0.5072  0.0271
 2533SOL    HW119058   0.011   0.748   0.811 -0.3516 -0.6774  1.0744
 2533SOL    HW219059   4.718   0.889   0.831 -1.9036  0.5720  0.0740
 2534SOL     OW19060   3.754   3.897   7.532 -0.3364  0.3365 -0.5604
 2534SOL    HW119061   3.749   3.990   7.508  2.9584  0.4260 -0.8508
 2534SOL    HW219062   3.726   3.865   7.447 -0.5251  0.4504 -0.5428
 2535SOL     OW19063   2.303   2.921   2.320  0.0521 -0.2257 -0.1336
 2535SOL    HW119064   2.370   2.921   2.389 -1.1337  0.7553  1.0158
 2535SOL    HW219065   2.326   2.993   2.262  0.4041  1.7550  2.4666
 2536SOL     OW19066   1.928   1.786   7.659  0.0873 -0.1973  0.3030
 2536SOL    HW119067   1.993   1.850   7.629 -0.4293 -0.4688 -1.3774
 2536SOL    HW219068   1.894   1.844   7.727  2.9086  1.4734  0.2803
 2537SOL     OW19069   2.128   2.714   5.624 -0.2797 -0.1042  0.4342
 2537SOL    HW119070   2.080   2.765   5.690  1.0170  1.4668  0.1706
 2537SOL    HW219071   2.115   2.763   5.543 -1.2433  0.9488  1.2197
 2538SOL     OW19072   3.712   3.524  13.513 -0.1330  0.1094 -0.2178
 2538SOL    HW119073   3.700   3.489  13.425 -1.6645  0.8783 -0.3252
 2538SOL    HW219074   3.801   3.558  13.520 -0.3133  0.3588  0.8619
 2539SOL     OW19075   4.143   1.578   6.322 -0.1062  0.0914 -0.4399
 2539SOL    HW119076   4.129   1.669   6.299  2.3399  0.6304  0.2428
 2539SOL    HW219077   4.201   1.551   6.251 -1.1622 -2.0376 -0.4854
 2540SOL     OW19078   3.265   4.457   3.761 -0.0414  0.2221 -0.0922
 2540SOL    HW119079   3.174   4.486   3.767  0.6722  2.0561  1.7517
 2540SOL    HW219080   3.250   4.365   3.737  0.5597 -0.3865  1.8409
 2541SOL     OW19081   4.334   3.760   1.708 -0.0097 -0.3137  0.0833
 2541SOL    HW119082   4.363   3.756   1.617 -1.5178  2.1405 -0.4842
 2541SOL    HW219083   4.302   3.669   1.711  0.2646 -0.2985  3.7675
 2542SOL     OW19084   2.815   2.472   9.712 -0.2905 -0.3245 -0.0242
 2542SOL    HW119085   2.725   2.478   9.744  0.1792  2.0848  0.8550
 2542SOL    HW219086   2.874   2.511   9.777 -0.7228 -0.9739  0.7629
 2543SOL     OW19087   1.472   1.603   3.840 -0.6343 -0.1734  0.2078
 2543SOL    HW119088   1.382   1.620   3.812  0.3542  0.3161 -2.7505
 2543SOL    HW219089   1.521   1.669   3.791  2.1805 -1.7505  0.9224
 2544SOL     OW19090   1.495   0.025   6.637 -0.1549 -0.4270  0.4679
 2544SOL    HW119091   1.557   4.674   6.640 -0.0079 -0.3329 -0.1397
 2544SOL    HW219092   1.477   0.028   6.543  0.7744  1.5820  0.3576
 2545SOL     OW19093   1.301   2.178   7.539 -0.1023 -0.4131 -0.2596
 2545SOL    HW119094   1.265   2.143   7.621  1.1760 -0.0106  0.4720
 2545SOL    HW219095   1.347   2.251   7.580 -1.3390 -0.2291  0.8249
 2546SOL     OW19096   3.887   0.281  13.638 -0.3025 -0.2371  0.0458
 2546SOL    HW119097   3.973   0.265  13.600 -0.2667  0.6915 -0.2604
 2546SOL    HW219098   3.894   0.352  13.702  1.6137 -1.3690  1.0824
 2547SOL     OW19099   0.045   1.650   7.883 -0.3208 -0.4967 -0.2806
 2547SOL    HW119100   4.716   1.570   7.884 -1.1883  0.1035  1.4482
 2547SOL    HW219101   4.698   1.713   7.899 -0.6270 -0.5245 -1.4748
 2548SOL     OW19102   4.321   1.841   1.473  0.1504 -0.4012 -0.1031
 2548SOL    HW119103   4.324   1.747   1.460  0.2429 -0.5061  0.6958
 2548SOL    HW219104   4.380   1.866   1.402 -1.1200 -0.8205 -1.2934
 2549SOL     OW19105   0.753   0.063  12.073 -0.0619 -0.1738  0.0839
 2549SOL    HW119106   0.759   4.696  12.103 -0.0038 -1.6917 -4.5108
 2549SOL    HW219107   0.699   0.099  12.144  0.2617  0.1181  0.1861
 2550SOL     OW19108   3.164   4.327   3.204  0.0847 -1.2214  0.2180
 2550SOL    HW119109   3.079   4.347   3.165  0.0687 -2.5860 -0.4619
 2550SOL    HW219110   3.214   4.302   3.126 -0.3921  0.3466 -0.6045
 2551SOL     OW19111   1.628   3.794   2.765  0.4312 -0.3417  0.2853
 2551SOL    HW119112   1.676   3.766   2.843 -0.5414 -0.7561  0.7234
 2551SOL    HW219113   1.540   3.768   2.790  0.6874 -0.1500  1.4151
 2552SOL     OW19114   4.455   0.862   2.787 -0.1333  0.3921  0.0207
 2552SOL    HW119115   4.544   0.884   2.757 -0.5838  1.5167 -0.5164
 2552SOL    HW219116   4.461   0.897   2.876 -2.0242  0.6845  0.0324
 2553SOL     OW19117   1.804   3.972   7.827 -0.0289 -0.6487  0.1140
 2553SOL    HW119118   1.754   3.951   7.749  0.4933  1.0981 -0.6968
 2553SOL    HW219119   1.839   4.058   7.804 -1.4322 -0.0906  0.0654
 2554SOL     OW19120   3.162   4.489  12.117 -0.4361  0.5805  0.2890
 2554SOL    HW119121   3.214   4.567  12.095  0.8317 -0.6352 -0.9643
 2554SOL    HW219122   3.137   4.453  12.032 -1.5621  4.6440 -1.1078
 2555SOL     OW19123   2.574   1.453   9.973 -0.4775 -0.2738  0.3840
 2555SOL    HW119124   2.506   1.450   9.906  1.7716 -1.9452 -1.8017
 2555SOL    HW219125   2.533   1.508  10.040 -1.4115 -0.8014  0.2322
 2556SOL     OW19126   2.441   3.313   8.976  0.2617  0.2052  0.2525
 2556SOL    HW119127   2.418   3.226   8.943  1.4299  0.1008 -0.3139
 2556SOL    HW219128   2.488   3.294   9.058 -0.1031 -2.8726 -0.2373
 2557SOL     OW19129   1.286   1.070  14.220 -0.2316 -0.4404  0.0227
 2557SOL    HW119130   1.380   1.054  14.226 -0.1336  0.5530  1.1772
 2557SOL    HW219131   1.286   1.166  14.221  0.6041 -0.4298 -0.9371
 2558SOL     OW19132   1.163   1.399  14.516 -0.4639 -0.0296 -0.2911
 2558SOL    HW119133   1.210   1.375  14.436 -0.1086 -0.5359  0.0720
 2558SOL    HW219134   1.171   1.494  14.507  0.4898 -0.0103  0.8006
 2559SOL     OW19135   0.107   4.478   7.471  0.6848  0.4717  0.5915
 2559SOL    HW119136   0.080   4.484   7.563 -2.1287 -0.6290 -0.1409
 2559SOL    HW219137   0.025   4.443   7.437  1.4712 -3.0020  2.3440
 2560SOL     OW19138   3.836   1.768   2.848 -0.1056  0.0741 -0.2091
 2560SOL    HW119139   3.842   1.735   2.758  0.9940  1.3551 -0.6033
 2560SOL    HW219140   3.911   1.722   2.883  0.4607  0.8458 -0.4019
 2561SOL     OW19141   0.947   1.642   8.470  0.1940 -0.2042 -0.0554
 2561SOL    HW119142   0.900   1.581   8.527 -0.9132  0.2166 -0.5310
 2561SOL    HW219143   1.036   1.610   8.485  2.0117  4.3406 -0.8644
 2562SOL     OW19144   0.914   0.703  10.235  0.0459  0.1623 -0.0210
 2562SOL    HW119145   0.998   0.672  10.270  0.6700 -0.8640 -2.3735
 2562SOL    HW219146   0.865   0.719  10.315 -0.5245 -0.6173 -0.2188
 2563SOL     OW19147   3.692   4.649  15.374 -0.3646 -0.4549 -0.8600
 2563SOL    HW119148   3.627   4.651  15.304  0.1259 -0.2027 -1.3164
 2563SOL    HW219149   3.759   4.599  15.326 -1.1971 -1.2843 -1.1437
 2564SOL     OW19150   0.007   3.140   4.292 -0.0774 -0.1467  0.5402
 2564SOL    HW119151   0.012   3.198   4.369 -1.9734 -0.7105  1.0883
 2564SOL    HW219152   4.690   3.210   4.241  2.7637 -0.3846 -2.0172
 2565SOL     OW19153   3.511   2.348   1.342 -0.0132  0.1527  0.4639
 2565SOL    HW119154   3.460   2.408   1.287  0.0860 -1.8583 -1.8482
 2565SOL    HW219155   3.601   2.378   1.346  0.5747 -1.5436 -0.0950
 2566SOL     OW19156   2.477   4.315   4.099 -0.2333  0.0115 -0.1469
 2566SOL    HW119157   2.493   4.339   4.190  0.3343 -0.5305 -0.1002
 2566SOL    HW219158   2.500   4.222   4.102 -1.3246 -0.1919  2.0909
 2567SOL     OW19159   3.154   0.258   0.388  0.4453  0.4862 -0.6289
 2567SOL    HW119160   3.194   0.172   0.404 -1.1561  0.0399  1.0351
 2567SOL    HW219161   3.068   0.227   0.360 -0.6554  0.4852  2.7030
 2568SOL     OW19162   2.249   0.895   3.567  0.2344 -0.3359 -0.1146
 2568SOL    HW119163   2.293   0.875   3.649 -1.2419 -2.2380  0.2318
 2568SOL    HW219164   2.160   0.859   3.573 -0.0379 -0.1741 -3.0816
 2569SOL     OW19165   2.733   2.639   2.963 -0.2478 -0.4141 -0.2509
 2569SOL    HW119166   2.684   2.578   2.908 -1.9311 -0.9323  1.8346
 2569SOL    HW219167   2.727   2.724   2.919 -0.4744  0.6095  1.7446
 2570SOL     OW19168   2.330   1.460   2.194  0.0464  0.4878  0.1586
 2570SOL    HW119169   2.355   1.373   2.225  1.0521  0.6292 -0.2808
 2570SOL    HW219170   2.237   1.455   2.216  0.2790  0.6777  1.1700
 2571SOL     OW19171   1.393   0.774  12.722 -0.0372  0.1112  0.8200
 2571SOL    HW119172   1.457   0.822  12.775 -1.4434  2.1598  0.6548
 2571SOL    HW219173   1.426   0.777  12.632 -0.7111  1.4286  0.6246
 2572SOL     OW19174   4.003   0.006  16.643 -0.4703 -0.1029 -0.4197
 2572SOL    HW119175   4.044   4.652  16.603  0.6564  0.7309 -0.8695
 2572SOL    HW219176   3.916   4.708  16.609 -0.5658 -2.2888  1.1253
 2573SOL     OW19177   3.285   0.178   6.999 -0.5013  0.0036 -0.2345
 2573SOL    HW119178   3.260   0.133   7.080  0.6572 -0.2408 -0.0117
 2573SOL    HW219179   3.365   0.129   6.980  0.8865  1.5997  1.4292
 2574SOL     OW19180   0.010   0.820   4.003 -0.4755  0.7974 -0.2616
 2574SOL    HW119181   0.059   0.867   3.935  0.7083  0.6595  0.5005
 2574SOL    HW219182   0.063   0.742   4.019 -0.8863  0.2901 -1.3710
 2575SOL     OW19183   1.477   1.679   5.241 -0.0419  0.2632 -0.6544
 2575SOL    HW119184   1.498   1.707   5.330  1.1727  0.0302 -0.8688
 2575SOL    HW219185   1.565   1.662   5.206 -0.4785 -0.6719 -1.2935
 2576SOL     OW19186   4.310   2.555   7.317  0.3093  0.2195  0.5706
 2576SOL    HW119187   4.346   2.641   7.341  1.3520 -0.0902  0.1390
 2576SOL    HW219188   4.220   2.568   7.346  0.8558 -0.4228  2.5250
 2577SOL     OW19189   1.888   1.437   3.673  0.0447  0.0613  0.3850
 2577SOL    HW119190   1.891   1.467   3.582  0.7153  0.9518  0.6959
 2577SOL    HW219191   1.876   1.344   3.656  1.2836  0.1479 -0.9738
 2578SOL     OW19192   3.317   2.372  10.611  0.4904  0.2242 -0.1043
 2578SOL    HW119193   3.317   2.323  10.529 -0.6144  0.2558 -0.1196
 2578SOL    HW219194   3.365   2.452  10.590  1.5015 -0.1959  0.5472
 2579SOL     OW19195   3.403   0.356  14.885 -0.4451  0.4256  0.1976
 2579SOL    HW119196   3.373   0.326  14.799  2.1602  1.7055 -1.1457
 2579SOL    HW219197   3.440   0.276  14.923  0.8465  0.0827 -1.8133
 2580SOL     OW19198   4.393   4.596  16.301 -0.0331 -0.4041 -0.2364
 2580SOL    HW119199   4.471   4.589  16.245 -0.1854 -1.8453 -0.2600
 2580SOL    HW219200   4.379   4.689  16.283 -2.5215 -0.4268  1.5246
 2581SOL     OW19201   1.392   0.732   2.502  0.2520  0.0808 -0.5421
 2581SOL    HW119202   1.468   0.712   2.556  0.3809  0.8784 -0.4309
 2581SOL    HW219203   1.422   0.682   2.426  0.7990  2.5533 -1.9284
 2582SOL     OW19204   2.611   0.149   2.380 -0.3608  0.5048  0.2487
 2582SOL    HW119205   2.640   0.239   2.397 -0.5688  0.8334 -1.1708
 2582SOL    HW219206   2.537   0.144   2.441 -1.4461 -1.3235 -1.2386
 2583SOL     OW19207   1.238   0.783   5.779  0.0093  0.0993 -0.2910
 2583SOL    HW119208   1.281   0.724   5.841 -2.0582  0.2818  1.3218
 2583SOL    HW219209   1.316   0.802   5.727  0.3966  0.0720  0.2742
 2584SOL     OW19210   3.884   0.501   3.971  0.3104  0.3526  0.0848
 2584SOL    HW119211   3.972   0.485   3.937 -0.3904 -1.1695 -1.0055
 2584SOL    HW219212   3.893   0.594   3.992  1.5604  0.3032 -0.2307
 2585SOL     OW19213   2.013   0.236  14.562  0.0938 -0.2546 -0.2331
 2585SOL    HW119214   1.920   0.233  14.584  0.0941  0.0451 -0.1861
 2585SOL    HW219215   2.048   0.171  14.622  0.1927  0.9692  1.0398
 2586SOL     OW19216   0.076   3.584   9.370 -0.5533 -0.4027 -0.4239
 2586SOL    HW119217   0.116   3.498   9.358 -0.2992 -0.1273 -1.4937
 2586SOL    HW219218   4.706   3.565   9.383 -0.4970 -0.4393 -0.0759
 2587SOL     OW19219   1.098   4.426   6.521 -0.1476 -0.2643  0.6696
 2587SOL    HW119220   1.059   4.414   6.434 -2.1844  1.9540  1.2890
 2587SOL    HW219221   1.190   4.409   6.501 -0.3133 -0.1400 -0.2164
 2588SOL     OW19222   2.845   2.916   3.270 -0.0352 -0.0480 -0.2119
 2588SOL    HW119223   2.866   2.995   3.220 -0.6704 -0.4062 -1.0643
 2588SOL    HW219224   2.831   2.946   3.359  2.4626 -0.1755  0.2006
 2589SOL     OW19225   1.322   4.551   3.866 -0.4522  0.3891  0.7396
 2589SOL    HW119226   1.251   4.556   3.930 -2.6550 -0.3976 -1.6626
 2589SOL    HW219227   1.388   4.618   3.888  0.1013  0.6292 -1.6564
 2590SOL     OW19228   0.889   4.379   7.837  0.9968 -0.4007  0.1720
 2590SOL    HW119229   0.896   4.338   7.924  2.0526  0.6610  0.5831
 2590SOL    HW219230   0.975   4.422   7.834  1.0593 -0.5092  0.3797
 2591SOL     OW19231   3.602   0.586   1.370  0.3148 -0.1114 -0.1495
 2591SOL    HW119232   3.695   0.593   1.346  0.7279 -5.2406 -0.1062
 2591SOL    HW219233   3.565   0.577   1.282  0.6773  4.2909 -0.7279
 2592SOL     OW19234   0.374   3.351  14.398 -0.6211 -0.6143  0.2365
 2592SOL    HW119235   0.358   3.291  14.471  1.6124 -1.5722 -0.0595
 2592SOL    HW219236   0.300   3.410  14.388  0.7968  0.8084 -1.8202
 2593SOL     OW19237   4.628   1.857  16.984  0.2767 -0.4865 -0.0969
 2593SOL    HW119238   4.533   1.865  16.979  0.2421 -2.2651 -2.1135
 2593SOL    HW219239   4.638   1.776  17.035 -2.3510 -0.5549  0.3030
 2594SOL     OW19240   3.600   4.396   3.481 -0.0903 -0.1958  1.1216
 2594SOL    HW119241   3.602   4.340   3.559 -0.6659  0.3222  1.5069
 2594SOL    HW219242   3.545   4.344   3.423  0.5983  1.1077 -0.6835
 2595SOL     OW19243   0.006   2.633   9.000  0.3901 -0.2171 -0.0988
 2595SOL    HW119244   4.694   2.722   8.994 -0.6189 -0.5398  0.9127
 2595SOL    HW219245   4.674   2.600   9.071 -0.8148  1.2814 -0.3246
 2596SOL     OW19246   4.697   3.126  14.487 -0.7947 -0.9759 -0.0871
 2596SOL    HW119247   4.663   3.037  14.494  0.9115 -1.5606  0.7251
 2596SOL    HW219248   4.692   3.163  14.575  2.7640 -0.6542 -0.0133
 2597SOL     OW19249   0.001   1.081  10.650 -0.2497  0.7187  0.1274
 2597SOL    HW119250   4.667   1.158  10.662 -0.9229 -0.1220  2.3038
 2597SOL    HW219251   0.063   1.098  10.721 -1.1199  1.3842  0.7396
 2598SOL     OW19252   0.934   3.199   8.421 -0.0606  0.1314  0.0833
 2598SOL    HW119253   1.017   3.220   8.461  0.4070  0.6133 -1.1266
 2598SOL    HW219254   0.899   3.141   8.489  1.7546  0.5712  1.3621
 2599SOL     OW19255   3.692   4.277  16.831  0.3736 -0.1256  0.2235
 2599SOL    HW119256   3.605   4.264  16.869  0.1793 -1.5648 -0.6695
 2599SOL    HW219257   3.699   4.204  16.769  0.0424  0.9077 -1.0391
 2600SOL     OW19258   2.252   2.203   9.620  0.0953  0.0104 -0.4104
 2600SOL    HW119259   2.158   2.196   9.603  0.0765 -1.2256  0.1822
 2600SOL    HW219260   2.279   2.284   9.577 -2.7517  0.0594 -2.0817
 2601SOL     OW19261   3.957   2.704  16.138 -0.0289  1.1119 -0.2508
 2601SOL    HW119262   3.871   2.667  16.122  1.0253 -0.6265 -1.9077
 2601SOL    HW219263   3.923   2.792  16.156  1.3491  1.4193  0.8398
 2602SOL     OW19264   2.228   0.242   0.809  0.2963 -0.1062  0.3556
 2602SOL    HW119265   2.228   0.222   0.715 -0.7618 -1.2599  0.5984
 2602SOL    HW219266   2.226   0.337   0.819  0.4794 -0.1768  1.0758
 2603SOL     OW19267   0.629   3.141   6.384  0.2773  0.1212  0.1099
 2603SOL    HW119268   0.628   3.147   6.480 -1.7063  0.7923  0.0489
 2603SOL    HW219269   0.592   3.053   6.378  1.7480 -0.5011  0.2261
 2604SOL     OW19270   0.321   2.148  11.162 -0.0776 -0.1911 -0.1532
 2604SOL    HW119271   0.400   2.113  11.122 -0.8345  2.2488 -3.8207
 2604SOL    HW219272   0.311   2.231  11.115  0.8455  1.1502  2.0141
 2605SOL     OW19273   0.410   0.234   9.267  0.6679 -0.3473  0.1442
 2605SOL    HW119274   0.438   0.238   9.358 -1.9753  1.5452  0.9029
 2605SOL    HW219275   0.321   0.269   9.271  0.4123 -0.9872  0.0556
 2606SOL     OW19276   0.227   1.067  11.209  0.2734  0.4865  0.1263
 2606SOL    HW119277   0.259   1.011  11.138 -1.4181  2.6081 -2.3471
 2606SOL    HW219278   0.270   1.019  11.280  0.3679  1.3072  0.6246
 2607SOL     OW19279   3.623   1.697   7.379  0.3515 -0.0870 -0.1451
 2607SOL    HW119280   3.630   1.657   7.293  1.0013 -4.4076  1.9360
 2607SOL    HW219281   3.540   1.661   7.408  0.3748 -0.5206 -0.6237
 2608SOL     OW19282   0.003   0.903   7.114 -0.1435 -0.4113  0.0274
 2608SOL    HW119283   0.014   0.998   7.110 -1.6093 -0.0794  3.2586
 2608SOL    HW219284   0.085   0.872   7.153 -0.0009  1.0893  0.9208
 2609SOL     OW19285   3.075   3.422   9.434  0.5907 -0.3799  0.9400
 2609SOL    HW119286   3.005   3.394   9.493  0.8901 -2.1525  0.4585
 2609SOL    HW219287   3.037   3.441   9.348 -0.3206 -1.1869  1.1662
 2610SOL     OW19288   2.798   3.500  17.563  0.5255 -0.2938  0.0595
 2610SOL    HW119289   2.816   3.419  17.610  1.7194 -0.7812 -1.2250
 2610SOL    HW219290   2.887   3.535  17.557  0.6572 -0.8901 -1.6940
 2611SOL     OW19291   4.378   3.186   5.559  0.5091  0.4209  0.3358
 2611SOL    HW119292   4.361   3.179   5.465  1.8874  0.0740  0.1118
 2611SOL    HW219293   4.413   3.275   5.572 -1.9384  1.1324  2.0797
 2612SOL     OW19294   3.044   2.010  10.707  0.2990 -0.4730 -0.3265
 2612SOL    HW119295   3.099   1.953  10.653  2.3192 -0.7736  2.0107
 2612SOL    HW219296   3.113   2.058  10.754  1.7457 -3.2471  0.4314
 2613SOL     OW19297   0.517   3.188   3.400 -0.1304  0.5510  0.0507
 2613SOL    HW119298   0.569   3.258   3.359  0.7323 -0.4368 -0.5492
 2613SOL    HW219299   0.433   3.231   3.383  0.1152  2.1389  2.8243
 2614SOL     OW19300   3.570   3.515  12.890 -0.1244  0.1393  0.3220
 2614SOL    HW119301   3.659   3.494  12.863 -0.0468  0.5718  0.2417
 2614SOL    HW219302   3.510   3.481  12.824 -0.7110 -1.0591  1.4837
 2615SOL     OW19303   0.363   2.941   1.565  0.3925 -0.1447 -0.0003
 2615SOL    HW119304   0.270   2.922   1.549  0.1634 -0.0876  1.2593
 2615SOL    HW219305   0.396   2.851   1.564  0.6376 -0.0381 -1.8261
 2616SOL     OW19306   1.068   0.983   1.458  0.1233 -0.6912  0.2147
 2616SOL    HW119307   1.053   0.912   1.521 -2.0330 -1.0461 -0.6801
 2616SOL    HW219308   1.002   1.052   1.469  1.0089  0.0069  1.2219
 2617SOL     OW19309   0.350   3.506  17.473 -0.0021  0.0607  0.2659
 2617SOL    HW119310   0.382   3.417  17.491  1.9443  0.3425 -1.8744
 2617SOL    HW219311   0.302   3.487  17.392 -0.8974 -0.5362  0.9307
 2618SOL     OW19312   2.929   0.256   7.700  0.0192 -0.1719 -0.2822
 2618SOL    HW119313   2.957   0.250   7.791 -1.3784 -0.1230  0.1400
 2618SOL    HW219314   2.887   0.341   7.706  1.0307  0.3481 -0.5579
 2619SOL     OW19315   3.106   2.686   6.742 -0.7084  0.0760  0.1978
 2619SOL    HW119316   3.140   2.683   6.832 -1.6299 -2.5812  0.4565
 2619SOL    HW219317   3.189   2.703   6.697 -1.1411 -2.1578 -1.4634
 2620SOL     OW19318   2.064   2.491   8.867  0.5213 -0.6206  0.2455
 2620SOL    HW119319   2.088   2.571   8.915 -1.1805 -0.7302  1.2861
 2620SOL    HW219320   1.995   2.469   8.929 -1.1343 -2.2993 -2.2401
 2621SOL     OW19321   4.672   0.163   5.136  0.1540  0.0518 -0.6377
 2621SOL    HW119322   4.626   0.135   5.215  0.3606  0.7512 -0.2593
 2621SOL    HW219323   4.602   0.157   5.071 -1.7336 -0.3742  1.4115
 2622SOL     OW19324   4.446   1.347   2.205  0.0487 -0.0810  0.1783
 2622SOL    HW119325   4.428   1.316   2.117  0.0426 -1.7788  0.7652
 2622SOL    HW219326   4.403   1.433   2.205  1.5659  0.6722 -1.2987
 2623SOL     OW19327   2.701   1.126   4.785  0.0324 -0.4812 -0.5852
 2623SOL    HW119328   2.638   1.059   4.759 -0.6592 -0.1287  0.1706
 2623SOL    HW219329   2.640   1.190   4.822  0.9037  0.5599 -0.9228
 2624SOL     OW19330   3.851   1.064   2.800 -0.3076 -0.4025 -0.1370
 2624SOL    HW119331   3.782   1.074   2.735 -0.5666 -1.0410  0.0336
 2624SOL    HW219332   3.906   1.141   2.788 -2.0959  1.0595  1.0348
 2625SOL     OW19333   2.513   2.402   8.545  0.4699  0.4488  0.6011
 2625SOL    HW119334   2.485   2.321   8.502  1.1458  0.1294  0.7663
 2625SOL    HW219335   2.458   2.457   8.489  1.7823  0.3336 -0.8274
 2626SOL     OW19336   2.204   1.455   6.929 -0.0200 -0.1482  0.0179
 2626SOL    HW119337   2.172   1.394   6.863 -0.0273  1.2329 -1.2543
 2626SOL    HW219338   2.154   1.532   6.904  1.6347  0.9034 -0.0600
 2627SOL     OW19339   4.266   1.987   3.314 -0.0551 -0.4635 -0.2622
 2627SOL    HW119340   4.294   2.077   3.331  2.3128 -1.0114 -1.2211
 2627SOL    HW219341   4.323   1.961   3.242  0.5213 -0.7705  0.3076
 2628SOL     OW19342   0.696   2.797   6.822 -0.2745  0.2652  0.0399
 2628SOL    HW119343   0.668   2.865   6.882  1.6769 -0.0228  1.2866
 2628SOL    HW219344   0.630   2.730   6.837 -0.6019  0.8076  1.0014
 2629SOL     OW19345   2.968   2.503   8.218  0.8106  0.2222  0.0057
 2629SOL    HW119346   3.030   2.433   8.198  0.3372 -0.1098 -0.2928
 2629SOL    HW219347   2.999   2.590   8.193 -1.9190  1.3153  0.4019
 2630SOL     OW19348   3.472   0.077   8.011  0.1826  0.2108 -0.1160
 2630SOL    HW119349   3.430   0.150   8.056  0.3659 -0.6961  1.4967
 2630SOL    HW219350   3.518   0.036   8.084  0.0611  0.5551  0.1546
 2631SOL     OW19351   4.383   2.934  10.751 -0.1900  0.0193 -0.2574
 2631SOL    HW119352   4.472   2.958  10.723 -1.0905  1.5676 -1.7905
 2631SOL    HW219353   4.356   3.017  10.791 -1.0251  0.0079 -0.8047
 2632SOL     OW19354   3.084   1.559  12.498 -0.7352  0.5253 -0.2458
 2632SOL    HW119355   3.126   1.634  12.456  0.5666 -1.5374 -2.6384
 2632SOL    HW219356   3.020   1.524  12.436 -0.7034 -1.1931  0.6940
 2633SOL     OW19357   0.042   3.755   1.404 -0.4155  0.5836  0.4775
 2633SOL    HW119358   0.067   3.664   1.420  2.1554  1.4348  1.2203
 2633SOL    HW219359   4.685   3.741   1.353  0.8462 -0.0562 -1.3151
 2634SOL     OW19360   1.508   2.270   7.723  0.4534 -0.3010 -0.1396
 2634SOL    HW119361   1.521   2.364   7.736 -0.7769  0.0384 -1.3819
 2634SOL    HW219362   1.446   2.256   7.794 -1.5987  0.6916 -1.7200
 2635SOL     OW19363   1.074   4.553   5.641 -0.2792  0.3903 -0.1625
 2635SOL    HW119364   1.027   4.629   5.607 -0.7923 -0.2161 -0.8050
 2635SOL    HW219365   1.159   4.592   5.624  0.5054 -2.0037 -1.7071
 2636SOL     OW19366   2.951   2.013   5.221  0.2478 -0.1188 -0.2360
 2636SOL    HW119367   3.039   2.013   5.260 -0.4498  2.7902  1.3385
 2636SOL    HW219368   2.888   2.016   5.293 -0.8480  1.0396 -1.2556
 2637SOL     OW19369   4.324   4.103  17.251 -0.2870 -0.8704  0.2200
 2637SOL    HW119370   4.289   4.156  17.179  1.8233  0.3203  0.0419
 2637SOL    HW219371   4.261   4.032  17.262 -0.3754 -1.2465 -2.7404
 2638SOL     OW19372   4.540   1.959  16.258 -0.0575 -0.6127  0.1951
 2638SOL    HW119373   4.550   1.955  16.163 -1.1624  0.5119  0.0282
 2638SOL    HW219374   4.465   1.900  16.269  0.0586 -0.5220  1.5827
 2639SOL     OW19375   1.245   0.652  10.749  0.0830 -0.1090  0.0260
 2639SOL    HW119376   1.185   0.661  10.823 -0.1584 -2.3139  0.0717
 2639SOL    HW219377   1.196   0.591  10.694  0.7910  0.0496 -0.7903
 2640SOL     OW19378   2.504   1.362   1.769  0.0865 -0.4627  0.4126
 2640SOL    HW119379   2.425   1.379   1.822 -0.1724 -1.7614  0.4400
 2640SOL    HW219380   2.502   1.449   1.728 -0.5379  0.4035  2.2701
 2641SOL     OW19381   1.586   0.077   6.182 -0.4283 -0.0080 -0.0897
 2641SOL    HW119382   1.554   0.077   6.091  2.1609 -0.2775 -1.0157
 2641SOL    HW219383   1.672   0.120   6.174 -0.8696  0.9274  0.2234
 2642SOL     OW19384   1.847   0.707   9.115 -0.5546  0.3207  0.0689
 2642SOL    HW119385   1.836   0.798   9.141  0.4898  0.8644 -1.4482
 2642SOL    HW219386   1.809   0.713   9.028 -2.7715 -1.7267  0.8977
 2643SOL     OW19387   0.978   4.355   3.104  0.3394  0.1911 -0.0036
 2643SOL    HW119388   1.053   4.309   3.065 -0.4552  0.4329 -1.8068
 2643SOL    HW219389   0.941   4.421   3.044 -0.8515 -1.4635 -1.0930
 2644SOL     OW19390   3.743   4.642   5.040  0.1421  0.2108  0.1490
 2644SOL    HW119391   3.760   4.686   5.123 -1.5031 -1.6843  1.4917
 2644SOL    HW219392   3.806   4.570   5.045 -1.6774 -1.2457  2.5056
 2645SOL     OW19393   1.363   1.256   7.740  0.1870  0.7089 -0.0670
 2645SOL    HW119394   1.417   1.315   7.791  1.6013 -1.7818  1.3353
 2645SOL    HW219395   1.339   1.194   7.810  2.4501  0.2964  0.3257
 2646SOL     OW19396   3.676   1.895   6.734 -0.3348 -0.0779 -0.2129
 2646SOL    HW119397   3.675   1.890   6.638  2.0556  0.3812 -0.2612
 2646SOL    HW219398   3.632   1.811   6.744 -0.7372 -0.0167 -1.5482
 2647SOL     OW19399   4.354   3.245  10.696 -0.2017 -0.2041 -0.2201
 2647SOL    HW119400   4.321   3.201  10.775  0.2978 -1.1261 -0.5194
 2647SOL    HW219401   4.410   3.310  10.737  0.6503 -1.9599  1.4049
 2648SOL     OW19402   0.369   0.227   6.825  0.0941  0.1549  0.8486
 2648SOL    HW119403   0.422   0.204   6.902  0.9208 -0.0013  0.2325
 2648SOL    HW219404   0.420   0.178   6.760 -2.3092 -1.4307  0.1823
 2649SOL     OW19405   4.484   3.397  17.667  0.1523  0.3909  0.5418
 2649SOL    HW119406   4.484   3.493  17.671 -1.7557  0.2398  4.0940
 2649SOL    HW219407   4.559   3.370  17.613  0.3621  1.7441  0.1564
 2650SOL     OW19408   3.825   4.048   2.034 -0.3757  0.1060 -0.3999
 2650SOL    HW119409   3.842   4.092   2.117  2.0088  1.3011 -1.5355
 2650SOL    HW219410   3.820   3.958   2.066 -1.8433 -0.1225 -1.2670
 2651SOL     OW19411   3.575   0.545   5.043  0.0683 -0.2070  0.0998
 2651SOL    HW119412   3.623   0.487   5.103 -0.5701 -0.0065  0.8106
 2651SOL    HW219413   3.621   0.533   4.960 -1.5383  2.2138 -1.1493
 2652SOL     OW19414   4.488   2.401   7.964 -0.0014  1.0296  0.0783
 2652SOL    HW119415   4.396   2.378   7.976  0.3681  0.3270  1.5570
 2652SOL    HW219416   4.529   2.335   8.020 -0.0194  0.1753 -0.8973
 2653SOL     OW19417   3.973   0.953  12.171  0.2162 -0.2131 -0.1894
 2653SOL    HW119418   3.881   0.973  12.187 -0.2218 -1.7492 -0.8307
 2653SOL    HW219419   3.992   0.905  12.252  1.6123 -1.0106 -0.9908
 2654SOL     OW19420   2.474   4.173   4.978 -0.3239  0.0066  0.7657
 2654SOL    HW119421   2.459   4.265   4.998 -1.6634  0.2995 -1.6468
 2654SOL    HW219422   2.490   4.136   5.065 -0.8607 -1.8706  0.0757
 2655SOL     OW19423   2.827   3.507   6.459  0.3838 -0.2176 -0.4553
 2655SOL    HW119424   2.819   3.413   6.446  1.4775 -0.3881  0.0553
 2655SOL    HW219425   2.738   3.532   6.435  0.6633  0.3390 -0.9003
 2656SOL     OW19426   4.380   1.888  13.482 -0.4103 -0.0249 -0.5508
 2656SOL    HW119427   4.387   1.843  13.397  0.5909  1.8298 -1.4329
 2656SOL    HW219428   4.453   1.862  13.537  0.1796  0.0991 -1.2849
 2657SOL     OW19429   0.504   0.548   1.382  0.4311 -0.6186  0.1943
 2657SOL    HW119430   0.416   0.522   1.409  0.5192 -0.2400  0.8446
 2657SOL    HW219431   0.537   0.586   1.463  0.6982 -1.5921  0.5523
 2658SOL     OW19432   0.612   2.977   1.489  0.0029 -0.1294 -0.2690
 2658SOL    HW119433   0.618   3.063   1.447  0.0738  0.0564  0.1184
 2658SOL    HW219434   0.521   2.979   1.518 -0.7900  0.5999 -2.8752
 2659SOL     OW19435   3.152   4.137   2.546  0.2757  0.0588 -0.1354
 2659SOL    HW119436   3.149   4.194   2.623  0.0941  1.9778 -1.5562
 2659SOL    HW219437   3.170   4.052   2.586 -0.4757  0.9614  2.1174
 2660SOL     OW19438   4.131   3.655   6.104 -0.5920 -0.0191  0.0556
 2660SOL    HW119439   4.067   3.705   6.053 -1.9619 -1.8053  0.0124
 2660SOL    HW219440   4.193   3.654   6.032 -0.0207  1.6977  0.5439
 2661SOL     OW19441   0.585   2.748   8.524 -0.3087  0.0193 -0.0789
 2661SOL    HW119442   0.670   2.734   8.565  0.6360  0.1133 -2.0216
 2661SOL    HW219443   0.548   2.661   8.536 -0.9947  0.4635  0.9869
 2662SOL     OW19444   4.046   1.651   7.405 -0.5428  0.1933 -0.3682
 2662SOL    HW119445   4.012   1.565   7.431 -1.4850  0.7877  0.3554
 2662SOL    HW219446   4.092   1.677   7.484  1.0833  1.3123 -1.6854
 2663SOL     OW19447   0.803   1.703   6.787  0.0601  0.2918 -0.6360
 2663SOL    HW119448   0.778   1.695   6.880 -4.1929 -1.1007 -1.9157
 2663SOL    HW219449   0.817   1.797   6.777 -2.7580  0.9222  1.3719
 2664SOL     OW19450   1.407   0.810   1.208  0.0114 -0.4017  0.4031
 2664SOL    HW119451   1.467   0.806   1.283  1.2712  1.2571 -0.5276
 2664SOL    HW219452   1.371   0.723   1.222  0.5398 -0.9555 -1.7477
 2665SOL     OW19453   2.119   3.074   9.755 -0.3387  0.2525  0.3537
 2665SOL    HW119454   2.031   3.039   9.767 -0.6419  0.9879  0.2539
 2665SOL    HW219455   2.114   3.116   9.669 -1.7041  0.1873  0.4161
 2666SOL     OW19456   2.658   0.563   9.879 -0.7745 -0.0703 -0.1257
 2666SOL    HW119457   2.689   0.585   9.966  0.7666 -0.8531 -0.4706
 2666SOL    HW219458   2.663   0.467   9.875  1.3937  0.1508 -2.7535
 2667SOL     OW19459   3.763   2.204  12.724  0.1318  0.2905  0.4673
 2667SOL    HW119460   3.823   2.276  12.745  1.3758 -0.3565 -0.7966
 2667SOL    HW219461   3.699   2.248  12.670 -0.9193  0.0918  1.5544
 2668SOL     OW19462   0.124   0.648   4.177  0.5311 -0.2403  0.4902
 2668SOL    HW119463   0.099   0.728   4.223  1.2579  1.0671 -1.3677
 2668SOL    HW219464   0.218   0.647   4.194  0.3606  0.0863  1.4691
 2669SOL     OW19465   0.882   3.210   2.500  0.0745 -0.1709 -0.1210
 2669SOL    HW119466   0.788   3.224   2.505  0.1342  0.2833 -0.1894
 2669SOL    HW219467   0.897   3.291   2.450 -0.1793  0.5325  0.9423
 2670SOL     OW19468   0.382   1.829   6.080  0.0466  0.0744 -0.4460
 2670SOL    HW119469   0.320   1.880   6.132 -2.8344 -0.1681 -3.6291
 2670SOL    HW219470   0.459   1.815   6.135  0.5269 -0.9446 -1.3617
 2671SOL     OW19471   3.874   2.510  13.551 -0.2083  0.1853 -0.2378
 2671SOL    HW119472   3.799   2.466  13.511  1.6596 -3.2899  0.0301
 2671SOL    HW219473   3.886   2.464  13.635  0.1388  1.7180  0.5430
 2672SOL     OW19474   4.640   3.310  11.511 -0.2951 -0.2497  0.0717
 2672SOL    HW119475   4.651   3.279  11.601  2.5863  0.4579 -0.0294
 2672SOL    HW219476   4.682   3.242  11.459  0.1860 -0.5046  0.7999
 2673SOL     OW19477   1.581   4.489  17.482 -0.1310 -0.4404 -0.5853
 2673SOL    HW119478   1.534   4.415  17.521 -0.1621 -0.2141 -0.1959
 2673SOL    HW219479   1.555   4.490  17.390 -0.3457  1.5792 -0.4988
 2674SOL     OW19480   1.514   4.636   8.605  0.4122 -0.1536  0.1052
 2674SOL    HW119481   1.510   4.544   8.631  0.7767 -0.4947 -1.0396
 2674SOL    HW219482   1.560   4.613   8.524  0.2081  2.1185 -0.6526
 2675SOL     OW19483   3.816   3.519   5.777  0.1371  0.1583  0.3526
 2675SOL    HW119484   3.764   3.570   5.840 -1.3707  0.4909 -1.1479
 2675SOL    HW219485   3.869   3.467   5.838 -1.9281 -1.3920  0.8585
 2676SOL     OW19486   0.316   2.943  17.125  0.4075  0.4364  0.5251
 2676SOL    HW119487   0.247   3.009  17.123  1.0903  1.2381  3.0470
 2676SOL    HW219488   0.264   2.863  17.116  0.9529  0.1194  0.1475
 2677SOL     OW19489   0.331   2.323   1.703  0.6480  0.8533  0.3046
 2677SOL    HW119490   0.417   2.287   1.680  1.4575  3.7827 -1.3465
 2677SOL    HW219491   0.344   2.414   1.675  0.9120  1.2790  1.8041
 2678SOL     OW19492   2.227   2.634   6.224 -0.4847  0.0213 -0.1387
 2678SOL    HW119493   2.192   2.667   6.141  3.1969  0.9129 -1.3500
 2678SOL    HW219494   2.149   2.595   6.264  0.9707  0.2598  2.9268
 2679SOL     OW19495   4.701   1.692   6.303 -1.0878  0.5029  0.4566
 2679SOL    HW119496   0.048   1.640   6.342 -2.4578 -2.0044 -0.4367
 2679SOL    HW219497   0.030   1.770   6.283  1.8630 -1.3500  0.8074
 2680SOL     OW19498   2.486   2.133   4.866 -0.0859  0.5522  0.2094
 2680SOL    HW119499   2.565   2.079   4.872 -0.2426  0.0229 -2.2316
 2680SOL    HW219500   2.431   2.086   4.803 -1.0135 -0.6602  1.9298
 2681SOL     OW19501   3.176   0.353   4.959  0.4686  0.4769 -0.5415
 2681SOL    HW119502   3.239   0.398   4.904 -0.7508  1.7169 -0.9286
 2681SOL    HW219503   3.149   0.281   4.902 -0.7975 -1.8584  2.9922
 2682SOL     OW19504   3.924   2.916   4.589 -1.0242  1.1191  0.0590
 2682SOL    HW119505   3.947   2.968   4.512 -0.1265  0.2022 -0.3030
 2682SOL    HW219506   3.829   2.921   4.598 -1.0218 -1.3747  1.2926
 2683SOL     OW19507   2.139   2.041   7.691 -0.3482  0.0502 -0.1491
 2683SOL    HW119508   2.082   2.076   7.622  0.3886  0.4642 -0.5455
 2683SOL    HW219509   2.227   2.074   7.671 -0.3195 -1.0857 -1.8946
 2684SOL     OW19510   3.215   3.762   2.000  0.2252 -0.4099  0.4800
 2684SOL    HW119511   3.186   3.777   1.910 -1.5057  1.7870  1.4029
 2684SOL    HW219512   3.223   3.667   1.991  1.6493 -0.5128  2.8752
 2685SOL     OW19513   4.580   4.566   1.350 -0.5116  0.3327 -0.3650
 2685SOL    HW119514   4.496   4.612   1.358 -1.5054 -1.6830  0.8126
 2685SOL    HW219515   4.620   4.564   1.437  0.8599 -0.2537 -1.0168
 2686SOL     OW19516   2.197   2.968   2.584 -0.4662 -0.6002 -0.5699
 2686SOL    HW119517   2.289   2.961   2.610 -0.9866  0.4178  1.5099
 2686SOL    HW219518   2.187   2.892   2.527  2.8104 -2.0713  0.8484
 2687SOL     OW19519   3.048   1.094   3.740 -0.2604  0.6806  0.1922
 2687SOL    HW119520   2.977   1.147   3.705 -1.0281  0.8065  1.9820
 2687SOL    HW219521   3.004   1.039   3.805  0.9230 -1.0645 -0.4852
 2688SOL     OW19522   3.062   1.830   8.828  0.0084 -0.1326 -0.3024
 2688SOL    HW119523   3.059   1.925   8.813 -2.7632 -0.4739 -1.8771
 2688SOL    HW219524   2.980   1.802   8.789 -1.2505  2.3629  0.5182
 2689SOL     OW19525   0.492   1.183   4.309 -0.0636 -0.0774  0.1149
 2689SOL    HW119526   0.481   1.095   4.274  0.9961  1.1319 -3.1884
 2689SOL    HW219527   0.536   1.156   4.389 -2.6378 -0.1532  1.5360
 2690SOL     OW19528   2.792   0.457   2.745 -0.4159 -0.5916 -0.4610
 2690SOL    HW119529   2.766   0.391   2.809 -2.3577  0.4077 -0.2187
 2690SOL    HW219530   2.873   0.485   2.789 -1.3304  1.0796  0.1762
 2691SOL     OW19531   1.539   0.634   2.715  0.2897 -0.1783  0.2197
 2691SOL    HW119532   1.586   0.646   2.798  1.4724  0.3773 -0.5299
 2691SOL    HW219533   1.461   0.587   2.745  0.7476  0.1835  2.0076
 2692SOL     OW19534   3.159   0.832  15.484  0.2880  0.3289  0.8970
 2692SOL    HW119535   3.073   0.871  15.501 -0.1879 -1.3672  2.3126
 2692SOL    HW219536   3.128   0.749  15.519 -0.3992  0.5787  0.8817
 2693SOL     OW19537   1.643   3.729   2.241  0.1479 -0.6647 -0.3254
 2693SOL    HW119538   1.728   3.703   2.274  0.7987 -0.3214 -1.7354
 2693SOL    HW219539   1.596   3.755   2.321  0.4816 -1.6622  0.1872
 2694SOL     OW19540   3.950   1.004   3.305 -0.2983  0.5469  0.5506
 2694SOL    HW119541   3.987   1.046   3.228  0.4898 -1.2462 -0.0449
 2694SOL    HW219542   3.995   0.920   3.309 -0.7552  0.3084  0.6879
 2695SOL     OW19543   4.680   0.717  10.076  0.0489  0.0287  0.4976
 2695SOL    HW119544   0.047   0.739  10.099  0.9269 -1.3175 -1.7206
 2695SOL    HW219545   4.694   0.624  10.059 -1.2050  0.1236 -1.0812
 2696SOL     OW19546   1.364   3.486  14.882 -0.0987 -0.3676  0.6657
 2696SOL    HW119547   1.388   3.397  14.855  0.2403 -1.2182  3.8363
 2696SOL    HW219548   1.404   3.492  14.969  0.0496 -1.1675  0.6481
 2697SOL     OW19549   1.226   3.176  14.183  0.2066 -0.2023  0.3008
 2697SOL    HW119550   1.229   3.264  14.219 -0.6791  0.2366 -0.6932
 2697SOL    HW219551   1.279   3.124  14.244 -1.1163 -1.5669  0.2889
 2698SOL     OW19552   3.246   2.866   7.160 -0.3093 -0.0995 -0.7653
 2698SOL    HW119553   3.261   2.916   7.079  1.6425  0.7496  0.1274
 2698SOL    HW219554   3.255   2.775   7.131  2.8873 -0.0348  0.0067
 2699SOL     OW19555   2.475   3.658   7.744 -0.3516 -0.5445  0.0217
 2699SOL    HW119556   2.506   3.639   7.656 -0.8798 -1.8455  0.1268
 2699SOL    HW219557   2.383   3.635   7.738 -0.3673 -0.2048 -0.9665
 2700SOL     OW19558   0.398   2.531   4.501 -0.0091 -0.4648 -0.0491
 2700SOL    HW119559   0.393   2.519   4.406  0.4462 -0.7415 -0.0364
 2700SOL    HW219560   0.310   2.500   4.524  0.0831 -1.6649 -1.3389
 2701SOL     OW19561   3.802   2.605   0.994 -0.3386  0.2378  0.4688
 2701SOL    HW119562   3.777   2.537   1.057 -1.6506  0.4499  0.1868
 2701SOL    HW219563   3.764   2.685   1.031 -1.5239  0.0345 -0.2948
 2702SOL     OW19564   1.845   4.577  17.049 -0.7743  0.0294  0.5516
 2702SOL    HW119565   1.858   4.533  17.133 -0.2311 -1.2833 -0.2225
 2702SOL    HW219566   1.936   4.601  17.036 -1.2471  1.9886  0.9164
 2703SOL     OW19567   3.610   1.450   7.572  0.0652 -0.3189  0.1387
 2703SOL    HW119568   3.550   1.517   7.605  0.9173 -0.7416  2.5485
 2703SOL    HW219569   3.599   1.377   7.633  1.5431 -1.3455 -0.8251
 2704SOL     OW19570   0.459   0.117   3.763  0.3712  0.6873  0.1141
 2704SOL    HW119571   0.416   0.199   3.788 -0.2969 -0.2677  2.0990
 2704SOL    HW219572   0.414   0.091   3.682  0.2247  0.5383  0.2446
 2705SOL     OW19573   0.998   1.564   6.665 -0.2312 -0.0500  0.5801
 2705SOL    HW119574   1.066   1.629   6.686  0.1386  0.7298 -3.0095
 2705SOL    HW219575   0.923   1.613   6.700 -1.2625 -1.2044 -0.0468
 2706SOL     OW19576   2.311   2.138   5.936 -0.0735  0.4091  0.0242
 2706SOL    HW119577   2.403   2.154   5.916 -0.3352  1.3360 -0.4421
 2706SOL    HW219578   2.290   2.063   5.880 -0.2921 -0.0118  0.6660
 2707SOL     OW19579   2.498   3.210   7.171 -0.2410 -0.1560  0.0614
 2707SOL    HW119580   2.461   3.283   7.121 -1.5075 -0.4321  0.6027
 2707SOL    HW219581   2.572   3.242   7.223 -0.2577  0.7715 -0.4715
 2708SOL     OW19582   1.241   1.839   0.053 -0.6848 -0.0797  0.1770
 2708SOL    HW119583   1.216   1.847   0.145 -3.1352  0.5684 -0.5263
 2708SOL    HW219584   1.320   1.786   0.055  0.0825  1.0930  1.0462
 2709SOL     OW19585   1.905   3.267   2.783 -0.1899  0.5676  0.1919
 2709SOL    HW119586   1.932   3.175   2.795 -0.4230  0.3997 -0.5762
 2709SOL    HW219587   1.898   3.298   2.873 -1.9211 -0.0455  0.2635
 2710SOL     OW19588   1.129   0.755   5.054 -0.3541  0.4183 -0.0228
 2710SOL    HW119589   1.191   0.820   5.023  1.6996 -0.0496  3.0710
 2710SOL    HW219590   1.167   0.675   5.017 -0.3481  1.1280 -1.5215
 2711SOL     OW19591   3.843   2.823   8.405 -0.1567  0.2282  0.2288
 2711SOL    HW119592   3.829   2.740   8.359 -1.4112  1.2332 -1.2136
 2711SOL    HW219593   3.752   2.852   8.402  0.3973  1.8519 -0.6019
 2712SOL     OW19594   0.280   4.048   2.702  0.3216  0.2760 -0.4025
 2712SOL    HW119595   0.196   4.092   2.711  0.0017 -0.4367  0.1107
 2712SOL    HW219596   0.279   3.971   2.759  2.0397  0.9261  0.5154
 2713SOL     OW19597   4.019   4.579  11.597 -0.2295  0.0080 -0.1626
 2713SOL    HW119598   3.968   4.511  11.640 -2.0479  0.5501 -1.4504
 2713SOL    HW219599   4.020   4.557  11.504 -1.2523  1.1025 -0.4403
 2714SOL     OW19600   1.831   0.785   4.487  0.1989 -0.3926 -0.6694
 2714SOL    HW119601   1.912   0.741   4.459 -0.8161 -2.7448  0.1143
 2714SOL    HW219602   1.843   0.875   4.458  2.5610 -0.9890 -1.5899
 2715SOL     OW19603   0.948   3.284  13.518  0.2595  0.3887  0.2485
 2715SOL    HW119604   0.960   3.364  13.569  4.1049 -0.8240  1.2280
 2715SOL    HW219605   0.985   3.311  13.433 -2.5940  0.9222 -0.8214
 2716SOL     OW19606   1.909   0.435  15.612 -0.4506 -0.1621 -0.2284
 2716SOL    HW119607   1.960   0.515  15.628  1.6957 -1.4884 -0.4861
 2716SOL    HW219608   1.963   0.382  15.554 -0.0311 -2.9937  2.7615
 2717SOL     OW19609   3.882   0.541  15.855  0.3331 -0.2387  0.0852
 2717SOL    HW119610   3.953   0.510  15.798  0.5105  2.4866 -1.1674
 2717SOL    HW219611   3.928   0.601  15.913 -0.9428  0.8516 -0.0244
 2718SOL     OW19612   1.318   3.685   1.065 -0.2488 -0.5517 -0.3510
 2718SOL    HW119613   1.331   3.653   0.976 -2.5924  3.2473 -2.0767
 2718SOL    HW219614   1.408   3.664   1.090 -0.8506 -0.9887  1.4203
 2719SOL     OW19615   2.261   1.047  17.449  0.2728 -0.2553  0.4733
 2719SOL    HW119616   2.279   1.123  17.504 -1.4204  0.7850 -0.4188
 2719SOL    HW219617   2.198   1.082  17.386  1.3808  1.1382  0.1483
 2720SOL     OW19618   0.338   2.101   5.338 -0.3358  0.2029  0.4209
 2720SOL    HW119619   0.276   2.164   5.301  3.1500  2.5862 -1.3398
 2720SOL    HW219620   0.316   2.031   5.276 -1.7783 -0.6824  1.9326
 2721SOL     OW19621   3.987   1.961   5.956 -1.0702 -0.1650  0.6531
 2721SOL    HW119622   4.014   1.875   5.925  0.5402 -0.5276  3.0823
 2721SOL    HW219623   4.036   1.972   6.038  0.3587 -0.8393 -0.1053
 2722SOL     OW19624   1.441   3.912  12.898 -1.1008  0.8132 -0.3227
 2722SOL    HW119625   1.495   3.838  12.928  0.8016  1.8322 -1.2699
 2722SOL    HW219626   1.505   3.960  12.845  0.9861  0.3212  1.7424
 2723SOL     OW19627   2.531   3.354   4.629  0.4563  0.1598 -0.1448
 2723SOL    HW119628   2.592   3.308   4.686  0.4079 -1.2140 -1.1961
 2723SOL    HW219629   2.549   3.446   4.649 -1.9481  0.6467 -0.1784
 2724SOL     OW19630   1.012   2.994   2.423 -0.1839  0.8470  0.2357
 2724SOL    HW119631   0.985   3.073   2.471  0.4967 -0.1118  2.2222
 2724SOL    HW219632   1.022   3.037   2.338  0.0192 -0.0726 -0.2056
 2725SOL     OW19633   2.770   3.333  15.420 -0.0188 -0.0074 -0.3323
 2725SOL    HW119634   2.737   3.422  15.422 -0.1572 -0.0460 -1.0861
 2725SOL    HW219635   2.778   3.316  15.326 -0.4455 -0.1848 -0.3367
 2726SOL     OW19636   0.676   4.482   8.784 -0.2754  0.4899  0.4035
 2726SOL    HW119637   0.581   4.486   8.787 -0.3322  0.6064 -1.1352
 2726SOL    HW219638   0.702   4.438   8.865  0.9988 -0.4829 -0.5164
 2727SOL     OW19639   3.290   2.968   8.782 -0.0521  0.0244  0.3248
 2727SOL    HW119640   3.287   2.895   8.845  2.2241 -0.3416  0.0058
 2727SOL    HW219641   3.220   3.022   8.818 -0.0435 -0.4858  1.0950
 2728SOL     OW19642   3.329   1.830   3.701  0.4294  0.5113  0.5368
 2728SOL    HW119643   3.272   1.766   3.658  1.9171  0.2661 -1.0632
 2728SOL    HW219644   3.267   1.899   3.724 -1.1441 -0.8422  0.3674
 2729SOL     OW19645   0.560   3.215   8.478 -0.0855  0.3102  0.8240
 2729SOL    HW119646   0.492   3.275   8.508  1.0781  0.3182  3.5207
 2729SOL    HW219647   0.519   3.129   8.488  0.3307 -0.0492 -0.5970
 2730SOL     OW19648   1.224   2.359   6.471 -0.1222  0.5560  0.1073
 2730SOL    HW119649   1.158   2.378   6.404 -1.5946  0.0540  1.4462
 2730SOL    HW219650   1.264   2.280   6.436 -0.2213  1.7186 -2.6451
 2731SOL     OW19651   3.286   4.347   7.822 -0.4617  0.5432  0.1382
 2731SOL    HW119652   3.304   4.349   7.916 -1.7819  1.5748  0.3703
 2731SOL    HW219653   3.190   4.339   7.821 -0.4096 -0.4736  2.0148
 2732SOL     OW19654   0.573   1.506  12.280  0.0041  0.2539 -0.1857
 2732SOL    HW119655   0.646   1.491  12.340  1.5329 -2.2855 -2.6636
 2732SOL    HW219656   0.617   1.501  12.195 -0.3629 -1.6518 -0.2601
 2733SOL     OW19657   2.576   0.183   3.510 -0.6257 -0.2311 -0.3163
 2733SOL    HW119658   2.571   0.277   3.528  1.5967 -0.3583  1.0543
 2733SOL    HW219659   2.666   0.175   3.477 -0.6621 -0.8866 -0.2534
 2734SOL     OW19660   3.410   1.285   3.501 -0.2358  0.6572  0.2309
 2734SOL    HW119661   3.449   1.369   3.477  2.6114 -0.9689 -0.8448
 2734SOL    HW219662   3.426   1.285   3.595  2.3272  1.5148 -0.1813
 2735SOL     OW19663   1.526   4.369   2.016 -0.2857 -0.7657  0.6449
 2735SOL    HW119664   1.527   4.338   2.107 -0.3792 -1.6896  0.3324
 2735SOL    HW219665   1.494   4.291   1.970  0.8947 -0.3475 -0.8851
 2736SOL     OW19666   2.661   1.691   3.656 -0.0779 -0.0416  0.3652
 2736SOL    HW119667   2.727   1.744   3.700 -0.0500  0.7972 -0.7001
 2736SOL    HW219668   2.622   1.666   3.740 -2.5383  2.1944 -0.0892
 2737SOL     OW19669   4.694   0.857  16.687  0.0216 -0.2604  0.0234
 2737SOL    HW119670   0.060   0.857  16.723  0.1044 -0.8721 -0.1792
 2737SOL    HW219671   4.715   0.801  16.612 -0.4895 -1.7700  1.0029
 2738SOL     OW19672   2.242   3.803   7.016  0.1799 -0.0851  0.0164
 2738SOL    HW119673   2.290   3.868   7.067  0.0328 -0.9955  1.3139
 2738SOL    HW219674   2.224   3.736   7.082  1.0093  1.1666  1.5092
 2739SOL     OW19675   2.440   1.734   6.400 -0.3995  0.0603 -0.0906
 2739SOL    HW119676   2.495   1.812   6.397  0.2864 -0.3979  0.6638
 2739SOL    HW219677   2.365   1.765   6.451  1.6601  2.7933  1.2528
 2740SOL     OW19678   3.300   2.174  10.780  0.4150  0.3042 -0.1340
 2740SOL    HW119679   3.288   2.249  10.722 -2.6226  0.5306  0.7925
 2740SOL    HW219680   3.394   2.182  10.793  0.3604  1.0362 -0.1680
 2741SOL     OW19681   4.261   0.623  11.829 -0.0354 -0.2909 -0.1896
 2741SOL    HW119682   4.204   0.551  11.856  1.2714 -1.8787 -1.6604
 2741SOL    HW219683   4.237   0.687  11.896  2.1944 -2.4248  2.6391
 2742SOL     OW19684   4.410   0.787   6.687 -0.4293 -0.5721  0.1816
 2742SOL    HW119685   4.456   0.760   6.766 -0.6928 -0.3888  0.3997
 2742SOL    HW219686   4.422   0.882   6.696  0.3633 -0.7589  1.0262
 2743SOL     OW19687   0.753   0.751   3.978 -0.6123 -0.0354 -0.3630
 2743SOL    HW119688   0.737   0.709   3.893 -1.5671  1.8619 -1.1203
 2743SOL    HW219689   0.730   0.678   4.035 -1.0054  0.2761 -0.1259
 2744SOL     OW19690   2.554   2.090  11.733  0.3280 -0.2908  0.0124
 2744SOL    HW119691   2.484   2.126  11.787  1.0993  0.4238  0.5314
 2744SOL    HW219692   2.601   2.042  11.801 -0.4345 -0.9060  0.1119
 2745SOL     OW19693   2.512   1.736   2.602  0.2966  0.0725  0.0804
 2745SOL    HW119694   2.509   1.702   2.691  1.6979 -1.9847 -0.6739
 2745SOL    HW219695   2.451   1.809   2.614 -0.7097 -0.3853 -2.0924
 2746SOL     OW19696   1.287   0.051   7.404  0.0068  0.2044  0.0801
 2746SOL    HW119697   1.369   0.040   7.355 -0.2681 -0.2307 -0.2796
 2746SOL    HW219698   1.293   4.697   7.462 -2.2366  1.0176  1.3782
 2747SOL     OW19699   0.017   1.211   3.741 -0.0659 -0.1156 -0.4293
 2747SOL    HW119700   4.678   1.253   3.681 -0.5766  0.3644  0.4216
 2747SOL    HW219701   0.018   1.278   3.810 -3.4696 -0.7823  0.2874
 2748SOL     OW19702   0.923   0.714  16.607  0.3007  0.0055 -0.4724
 2748SOL    HW119703   1.003   0.703  16.556  0.7857  0.9809  0.0654
 2748SOL    HW219704   0.951   0.764  16.684 -3.5083  2.9632 -1.0354
 2749SOL     OW19705   0.113   0.853   5.937  0.3510  0.4133  0.4360
 2749SOL    HW119706   0.117   0.767   5.895  1.2031  1.1182 -0.9322
 2749SOL    HW219707   0.200   0.885   5.914 -0.8054  2.4323 -1.1285
 2750SOL     OW19708   0.941   0.807  17.684  0.6408 -0.4558  0.2861
 2750SOL    HW119709   0.884   0.741   0.030 -1.1413  2.0652  1.8822
 2750SOL    HW219710   0.976   0.762  17.607 -1.0641 -2.3874  0.6503
 2751SOL     OW19711   0.353   0.887  11.368  0.6201  0.5307  0.3538
 2751SOL    HW119712   0.341   0.807  11.419  1.1143 -0.9752 -1.8765
 2751SOL    HW219713   0.373   0.943  11.443 -0.2828  0.8850  0.3347
 2752SOL     OW19714   2.431   0.478   8.566  0.0745 -0.4500 -0.2800
 2752SOL    HW119715   2.474   0.517   8.489  1.6249 -0.0230  0.7878
 2752SOL    HW219716   2.338   0.493   8.550 -0.1389 -1.3112  0.1768
 2753SOL     OW19717   3.315   3.414   6.630  0.0654 -0.3404 -0.1391
 2753SOL    HW119718   3.225   3.390   6.611  0.4907 -2.2979  0.2242
 2753SOL    HW219719   3.360   3.358   6.566  2.2484 -0.0918  1.1643
 2754SOL     OW19720   0.549   2.566   6.535 -0.4002 -0.2478  0.1245
 2754SOL    HW119721   0.474   2.592   6.482  0.1211  2.3744  0.6733
 2754SOL    HW219722   0.546   2.633   6.604 -2.7391 -1.4879  1.2097
 2755SOL     OW19723   0.527   2.076   6.062  0.6569  0.5178  0.0284
 2755SOL    HW119724   0.433   2.058   6.057  0.7199 -0.2094  1.5903
 2755SOL    HW219725   0.532   2.068   6.157 -0.5332 -2.2292 -0.1437
 2756SOL     OW19726   1.952   0.932   4.770 -0.5139 -0.1920 -0.5563
 2756SOL    HW119727   1.981   0.921   4.679  1.2580 -2.6692  0.2919
 2756SOL    HW219728   1.976   1.022   4.792  1.7914 -1.3524  1.6588
 2757SOL     OW19729   4.153   0.058  14.363  0.2915  0.3012  0.7539
 2757SOL    HW119730   4.095   0.080  14.435 -0.6845 -0.4815  0.1983
 2757SOL    HW219731   4.152   4.687  14.381 -0.3898 -0.3013 -2.3996
 2758SOL     OW19732   1.120   2.685   6.329  0.4279 -0.2251 -0.4496
 2758SOL    HW119733   1.166   2.607   6.299  2.2124  0.2908  0.9287
 2758SOL    HW219734   1.135   2.695   6.424 -1.1353 -1.0973 -0.1200
 2759SOL     OW19735   1.322   4.475   4.224 -0.1943  0.2913 -0.1834
 2759SOL    HW119736   1.241   4.477   4.173 -1.1315 -0.8548  1.2975
 2759SOL    HW219737   1.300   4.476   4.317  2.4393 -0.1171  0.4503
 2760SOL     OW19738   0.899   0.114   5.021  0.1331 -0.1810  0.7255
 2760SOL    HW119739   0.807   0.119   4.994 -0.2287  0.4246  2.0729
 2760SOL    HW219740   0.894   0.057   5.098 -1.4711  0.1465  0.8705
 2761SOL     OW19741   4.359   4.274   6.301 -0.0178  0.1332 -0.3049
 2761SOL    HW119742   4.269   4.243   6.316  0.1439 -1.0590 -1.7220
 2761SOL    HW219743   4.359   4.360   6.342  0.0051 -0.6858  1.3993
 2762SOL     OW19744   1.119   2.523   3.783  0.4914  0.1827  0.0050
 2762SOL    HW119745   1.094   2.505   3.692 -0.2772  0.6560  0.1263
 2762SOL    HW219746   1.152   2.437   3.810  1.6286 -0.0246 -2.0190
 2763SOL     OW19747   3.936   0.208   4.369 -0.5259 -0.4073 -0.1246
 2763SOL    HW119748   3.877   0.213   4.444 -0.9389 -0.1862 -0.4630
 2763SOL    HW219749   3.889   0.265   4.308  0.0730 -2.1105 -2.1796
 2764SOL     OW19750   2.841   2.207   2.327 -0.5847 -0.6356  0.2058
 2764SOL    HW119751   2.890   2.272   2.377  2.7950 -1.6496 -1.7760
 2764SOL    HW219752   2.791   2.265   2.269  0.9920 -1.1191 -1.6350
 2765SOL     OW19753   0.064   0.401   9.532 -0.1692  0.0056 -0.0085
 2765SOL    HW119754   0.128   0.445   9.589 -1.8480  1.8442  0.4527
 2765SOL    HW219755   0.096   0.433   9.447  1.7679 -2.7413 -0.3400
 2766SOL     OW19756   0.467   0.555   2.476 -0.2654  0.3452  0.0969
 2766SOL    HW119757   0.550   0.508   2.470 -1.3163 -1.2796 -1.3997
 2766SOL    HW219758   0.414   0.486   2.516  1.0319 -2.2467 -2.7043
 2767SOL     OW19759   2.198   3.462  10.349  0.1447  0.1078 -0.3512
 2767SOL    HW119760   2.282   3.509  10.349  0.8352 -1.1218 -1.6634
 2767SOL    HW219761   2.190   3.441  10.255  0.4524  0.9980 -0.5774
 2768SOL     OW19762   0.363   4.049  10.581 -0.4554  0.9465  0.0045
 2768SOL    HW119763   0.281   4.038  10.630 -0.5500  0.4593 -0.2658
 2768SOL    HW219764   0.359   4.143  10.562  1.4821  0.9831 -0.2411
 2769SOL     OW19765   3.282   4.658   7.160 -0.2033  0.2628 -0.3285
 2769SOL    HW119766   3.351   4.664   7.226  1.2535 -0.0874 -1.8316
 2769SOL    HW219767   3.218   4.600   7.202 -1.0494  0.8197 -0.8504
 2770SOL     OW19768   1.757   2.987   4.313  0.0679 -0.3644  0.3480
 2770SOL    HW119769   1.754   3.068   4.261  3.8786 -0.6976 -0.3894
 2770SOL    HW219770   1.833   2.999   4.370 -0.6498  0.9007  1.0529
 2771SOL     OW19771   1.123   3.071   7.574 -0.3567 -0.4332 -0.5151
 2771SOL    HW119772   1.054   3.121   7.531  1.1484  2.2264  0.0830
 2771SOL    HW219773   1.193   3.137   7.576  0.5199 -1.3211 -1.7571
 2772SOL     OW19774   2.215   2.430   3.034 -0.7127  0.2926 -0.1117
 2772SOL    HW119775   2.169   2.465   3.111  1.2594  3.7376 -0.5052
 2772SOL    HW219776   2.298   2.413   3.078  0.4677 -1.2544 -2.9653
 2773SOL     OW19777   2.733   4.121   0.989 -0.3403  0.2628  0.2470
 2773SOL    HW119778   2.774   4.035   0.992  1.3514  1.0797  0.4911
 2773SOL    HW219779   2.640   4.099   1.001 -0.2356 -0.5172 -0.3637
 2774SOL     OW19780   2.016   3.882   0.199 -0.3737  0.7104 -0.3702
 2774SOL    HW119781   2.056   3.797   0.218 -2.0331  0.2943  1.2331
 2774SOL    HW219782   2.048   3.896   0.110 -1.1128 -1.9822 -1.0791
 2775SOL     OW19783   2.325   2.599  13.573 -0.9735 -0.0275  0.4412
 2775SOL    HW119784   2.308   2.547  13.495 -1.6349  0.4134  0.2829
 2775SOL    HW219785   2.285   2.529  13.625 -1.4508 -1.8959 -2.4381
 2776SOL     OW19786   3.782   3.658   0.782 -0.4451 -0.4195 -0.7643
 2776SOL    HW119787   3.690   3.661   0.755 -1.3189  0.1030  2.2219
 2776SOL    HW219788   3.749   3.685   0.868 -1.5059 -0.3651 -1.1846
 2777SOL     OW19789   4.243   0.131   7.385  0.0259 -0.1428  0.3888
 2777SOL    HW119790   4.331   0.127   7.347  0.5788  0.7406  1.5709
 2777SOL    HW219791   4.191   0.115   7.306  0.4790  3.2636 -0.5969
 2778SOL     OW19792   1.018   2.811   4.606 -0.1823 -0.1209  0.5578
 2778SOL    HW119793   1.082   2.870   4.648 -1.2669  1.3546  0.1458
 2778SOL    HW219794   1.021   2.733   4.661  0.8479 -0.5410 -0.0956
 2779SOL     OW19795   4.377   1.079   5.854  0.3163  0.2021  0.0894
 2779SOL    HW119796   4.372   1.174   5.868  1.3465  0.3058 -0.2518
 2779SOL    HW219797   4.470   1.078   5.833  0.1280  2.2978 -0.8100
 2780SOL     OW19798   3.078   3.562   4.112  0.2934 -0.2508  0.2814
 2780SOL    HW119799   3.049   3.578   4.023  0.4475  1.4919  0.5416
 2780SOL    HW219800   3.112   3.474   4.100  1.6284 -0.0023  2.1512
 2781SOL     OW19801   1.646   1.613  13.839 -1.0461  0.2701 -0.2647
 2781SOL    HW119802   1.665   1.635  13.748  0.7922 -1.7246 -0.3705
 2781SOL    HW219803   1.553   1.589  13.837 -0.5653 -1.8554  2.7382
 2782SOL     OW19804   4.048   1.077   6.282 -0.0866  0.0969 -0.7407
 2782SOL    HW119805   4.000   1.138   6.338  1.0079  1.2573 -1.0602
 2782SOL    HW219806   4.132   1.124   6.289 -0.5966  0.6977  1.5887
 2783SOL     OW19807   0.961   1.630   7.261 -0.1196 -0.6883 -0.6166
 2783SOL    HW119808   0.924   1.576   7.332  2.6839 -3.2898 -1.1181
 2783SOL    HW219809   1.022   1.682   7.314  0.1934 -0.6569 -1.0149
 2784SOL     OW19810   3.468   1.078  13.488  0.2080 -0.4120 -0.3860
 2784SOL    HW119811   3.398   1.116  13.539  0.4556 -0.6989  0.1681
 2784SOL    HW219812   3.546   1.079  13.544 -0.4487  0.0082  0.5058
 2785SOL     OW19813   1.394   1.963   8.475  0.1848  0.0266  0.1983
 2785SOL    HW119814   1.320   1.931   8.526 -0.9325  1.1464 -0.6995
 2785SOL    HW219815   1.393   2.057   8.494 -0.2775  0.0213  0.1813
 2786SOL     OW19816   3.465   4.509   6.974  0.0721 -0.6313 -0.0880
 2786SOL    HW119817   3.417   4.522   7.056 -1.5377  1.0954 -1.3229
 2786SOL    HW219818   3.495   4.597   6.954 -0.3552 -0.4761 -0.0386
 2787SOL     OW19819   2.173   3.684   0.865 -0.2369  0.0364  0.0374
 2787SOL    HW119820   2.246   3.647   0.915  0.1506  1.5823  0.6414
 2787SOL    HW219821   2.121   3.731   0.930 -0.5189 -0.8646  0.4621
 2788SOL     OW19822   1.631   4.044   1.328 -0.0800 -0.4941 -0.8968
 2788SOL    HW119823   1.585   4.107   1.383  0.9696  0.2750 -0.8963
 2788SOL    HW219824   1.558   4.010   1.277  0.2080  2.5680 -3.3345
 2789SOL     OW19825   4.490   3.516   4.757 -0.2635  0.2610 -0.0174
 2789SOL    HW119826   4.470   3.559   4.674 -0.2013 -0.4401 -0.3957
 2789SOL    HW219827   4.406   3.480   4.784 -0.0537  0.3860  0.8031
 2790SOL     OW19828   4.553   2.916   3.696 -0.9472 -0.1958  0.4520
 2790SOL    HW119829   4.642   2.918   3.658 -0.6267  0.0923  1.2251
 2790SOL    HW219830   4.530   2.826   3.673  0.4685 -0.0619 -1.5621
 2791SOL     OW19831   4.288   4.526   2.604  0.4344 -0.1179  0.0517
 2791SOL    HW119832   4.319   4.556   2.690  1.3790 -0.7614 -0.0765
 2791SOL    HW219833   4.260   4.613   2.574  0.1956  0.1840  1.1417
 2792SOL     OW19834   2.664   3.326  13.145 -0.4856 -0.2958 -0.0068
 2792SOL    HW119835   2.649   3.280  13.228 -3.1268 -0.3158 -0.4841
 2792SOL    HW219836   2.730   3.273  13.101 -1.0408 -2.2226  1.4907
 2793SOL     OW19837   3.282   1.044  11.733 -0.1447  0.6390 -0.4341
 2793SOL    HW119838   3.263   1.048  11.640  0.2555  0.2780 -0.5309
 2793SOL    HW219839   3.316   0.955  11.738 -0.0911  0.5847 -1.8542
 2794SOL     OW19840   0.144   4.304   4.354  0.2921 -0.2816 -0.2781
 2794SOL    HW119841   0.166   4.216   4.385 -0.3447 -0.6476 -0.8649
 2794SOL    HW219842   0.128   4.341   4.441 -2.7073 -0.7747 -0.6055
 2795SOL     OW19843   2.856   2.035   3.835  0.3194 -0.3399 -0.2505
 2795SOL    HW119844   2.893   1.972   3.773  0.1601 -0.6921  0.0144
 2795SOL    HW219845   2.810   2.093   3.775 -1.0718  0.0301  1.1923
 2796SOL     OW19846   1.793   4.381   3.430  0.3853  0.0166 -0.8307
 2796SOL    HW119847   1.808   4.331   3.510 -1.5003 -2.2597 -1.8983
 2796SOL    HW219848   1.748   4.317   3.374  1.3079 -1.4704  0.1151
 2797SOL     OW19849   1.337   1.384  12.343 -0.2484 -0.5867  0.4368
 2797SOL    HW119850   1.429   1.389  12.319 -0.6164  2.0324 -0.3454
 2797SOL    HW219851   1.300   1.375  12.255 -0.5081 -1.8165  0.6735
 2798SOL     OW19852   3.125   4.698   4.050 -0.2137 -0.2720 -0.0458
 2798SOL    HW119853   3.098   4.720   3.961 -0.8346  3.7593  1.1252
 2798SOL    HW219854   3.069   4.623   4.072  0.4353 -0.5293  0.7496
 2799SOL     OW19855   4.650   3.528  12.230 -0.3297  0.0333 -0.3974
 2799SOL    HW119856   4.574   3.558  12.180 -0.3591 -0.7434 -0.8206
 2799SOL    HW219857   4.612   3.473  12.298  1.7306 -1.1615 -0.2121
 2800SOL     OW19858   1.115   0.754   2.104  0.2083 -0.0019  0.5884
 2800SOL    HW119859   1.143   0.845   2.117  2.5575 -0.8365  1.2588
 2800SOL    HW219860   1.146   0.714   2.185 -2.1859 -0.8613  1.0890
 2801SOL     OW19861   3.673   1.002   4.819  0.1619  0.1329  0.0855
 2801SOL    HW119862   3.608   1.073   4.825 -0.2085 -0.2767  1.0494
 2801SOL    HW219863   3.640   0.934   4.878  2.3103 -1.7082 -0.8508
 2802SOL     OW19864   0.032   3.600   2.051 -0.3197  0.4096 -0.8060
 2802SOL    HW119865   0.121   3.629   2.068 -0.1916 -0.9777  0.8347
 2802SOL    HW219866   0.033   3.528   1.987 -1.4420  0.2799 -0.6816
 2803SOL     OW19867   0.115   1.143   7.224  0.0027 -0.4972  0.1087
 2803SOL    HW119868   0.088   1.235   7.216 -2.2633 -1.0118  1.7867
 2803SOL    HW219869   0.159   1.143   7.139  0.2164  1.7352  0.2188
 2804SOL     OW19870   4.608   0.302   3.479  0.6819  0.2645 -0.2718
 2804SOL    HW119871   4.641   0.355   3.552 -2.0749 -0.2261  1.3536
 2804SOL    HW219872   4.530   0.257   3.512 -1.3928  2.9879 -1.4324
 2805SOL     OW19873   3.532   4.143  11.303  0.7058  0.0190 -0.5079
 2805SOL    HW119874   3.557   4.232  11.327 -1.7634  0.2970  0.9619
 2805SOL    HW219875   3.599   4.125  11.237 -1.1000 -0.4100 -2.2284
 2806SOL     OW19876   1.897   1.384   1.279 -0.1573  0.0559 -0.2130
 2806SOL    HW119877   1.941   1.450   1.225 -0.7089  0.7398  0.1601
 2806SOL    HW219878   1.812   1.428   1.288 -1.2930 -2.0664 -0.6610
 2807SOL     OW19879   2.288   0.299  15.484  0.8773  0.0126 -0.6102
 2807SOL    HW119880   2.247   0.266  15.564 -0.5407  2.2002 -0.4502
 2807SOL    HW219881   2.222   0.280  15.418 -1.2227  1.0768  1.1823
 2808SOL     OW19882   2.590   3.244   3.732 -0.4454 -0.1229  0.2507
 2808SOL    HW119883   2.499   3.248   3.702 -1.1745  1.1223  2.6020
 2808SOL    HW219884   2.623   3.193   3.658  1.0340  3.5425 -1.6395
 2809SOL     OW19885   0.193   1.142  10.844  0.0692 -0.6818 -0.1444
 2809SOL    HW119886   0.222   1.183  10.926  1.0819  1.0056 -1.3476
 2809SOL    HW219887   0.176   1.058  10.886  2.0541 -1.2896 -0.5456
 2810SOL     OW19888   3.967   0.944   7.575 -0.1892 -0.0025  0.2186
 2810SOL    HW119889   3.903   0.876   7.598 -0.1651 -0.4382 -1.0103
 2810SOL    HW219890   4.031   0.890   7.529 -1.0821 -0.5466 -0.3840
 2811SOL     OW19891   2.196   0.342   5.650 -0.5442  0.6582  0.1302
 2811SOL    HW119892   2.224   0.434   5.651  1.8476 -0.0810  0.1338
 2811SOL    HW219893   2.283   0.308   5.629 -0.3431  0.3412  1.4852
 2812SOL     OW19894   4.426   3.838  17.455 -0.0991  0.0427 -0.0271
 2812SOL    HW119895   4.427   3.928  17.488  0.2058 -0.4936  1.4195
 2812SOL    HW219896   4.438   3.783  17.532  0.8630 -0.3127 -0.4393
 2813SOL     OW19897   2.789   4.353   1.129  0.6563 -0.2071  0.0873
 2813SOL    HW119898   2.832   4.279   1.172  1.9360  0.5590  0.1648
 2813SOL    HW219899   2.768   4.315   1.044  0.2902  0.9111 -0.3220
 2814SOL     OW19900   3.039   2.775  14.762 -0.2680 -0.0132 -0.4157
 2814SOL    HW119901   2.979   2.703  14.740 -0.1348 -1.4291  3.8302
 2814SOL    HW219902   3.044   2.754  14.855 -1.3868 -2.8464 -0.9783
 2815SOL     OW19903   2.181   4.407   2.809 -0.4447  0.3373  0.0330
 2815SOL    HW119904   2.124   4.401   2.886 -0.0089 -0.0899  0.3280
 2815SOL    HW219905   2.173   4.318   2.777  0.3998  0.0161  0.6970
 2816SOL     OW19906   0.953   2.376   1.115 -0.0711 -0.0134 -0.0624
 2816SOL    HW119907   1.033   2.333   1.085 -0.5023 -1.6355  1.0753
 2816SOL    HW219908   0.953   2.350   1.207 -0.2621  3.9017  1.0333
 2817SOL     OW19909   3.730   1.390   2.030  0.2444  0.0661  0.2542
 2817SOL    HW119910   3.817   1.429   2.043  0.3143 -0.8905  2.6980
 2817SOL    HW219911   3.679   1.416   2.107  0.3442  0.9826  0.0079
 2818SOL     OW19912   2.631   3.964   2.345  0.3155  0.6209  0.4062
 2818SOL    HW119913   2.661   4.029   2.409  0.1001  1.2409 -0.1195
 2818SOL    HW219914   2.682   4.008   2.276 -1.1708 -2.3978 -2.6185
 2819SOL     OW19915   3.823   2.393   9.451  0.5856  0.1034  0.4798
 2819SOL    HW119916   3.795   2.372   9.362  2.2346  2.1884 -0.5439
 2819SOL    HW219917   3.818   2.489   9.455  2.4068  0.3122 -2.2352
 2820SOL     OW19918   2.467   1.989   7.104 -0.1799  0.0890 -0.4142
 2820SOL    HW119919   2.550   1.950   7.130  0.1358 -0.0572 -1.6391
 2820SOL    HW219920   2.427   1.998   7.191  0.4140 -0.2340 -0.1115
 2821SOL     OW19921   1.643   1.803  16.704 -0.7837  0.9008  0.7406
 2821SOL    HW119922   1.559   1.756  16.697 -0.0029 -0.3296 -0.3741
 2821SOL    HW219923   1.631   1.881  16.650  0.5937  1.4181  1.1959
 2822SOL     OW19924   0.062   3.798  12.884 -0.1777 -0.4675  0.2025
 2822SOL    HW119925   0.035   3.770  12.797 -0.6498  0.9224 -0.1013
 2822SOL    HW219926   0.052   3.718  12.936  4.1224 -1.4318 -0.4631
 2823SOL     OW19927   1.311   2.765   1.598  0.4834  0.2017 -0.2693
 2823SOL    HW119928   1.303   2.793   1.689 -2.2871  0.3918 -0.5931
 2823SOL    HW219929   1.246   2.695   1.591  0.6792  0.0126 -0.2068
 2824SOL     OW19930   1.330   4.045   3.236  0.4770 -0.5552 -0.1762
 2824SOL    HW119931   1.236   4.057   3.244  0.6308  1.0615 -0.9235
 2824SOL    HW219932   1.354   4.131   3.203 -1.4054  0.3497  0.8674
 2825SOL     OW19933   1.236   0.202   9.494  0.0587 -0.4716  0.1988
 2825SOL    HW119934   1.316   0.211   9.546  0.5486 -0.0816 -0.6282
 2825SOL    HW219935   1.268   0.226   9.407  1.1234 -0.6573  0.5475
 2826SOL     OW19936   0.268   0.107   0.727 -0.3861  0.2753 -0.2615
 2826SOL    HW119937   0.338   0.085   0.789 -2.1060  1.2136  2.0327
 2826SOL    HW219938   0.195   0.071   0.777 -1.4111  0.2861 -1.7582
 2827SOL     OW19939   0.862   3.060  11.495  0.0181 -0.5050  0.1805
 2827SOL    HW119940   0.937   3.119  11.505  0.8504 -1.4690 -0.4019
 2827SOL    HW219941   0.833   3.102  11.414  0.5932  0.1121  0.2879
 2828SOL     OW19942   3.590   0.844   7.070  0.0902  0.2044 -0.2738
 2828SOL    HW119943   3.637   0.823   7.151  0.2788 -0.6155 -0.5927
 2828SOL    HW219944   3.500   0.853   7.101  0.7147 -0.8885  1.7973
 2829SOL     OW19945   3.686   1.306  16.875 -0.4749 -0.6780  0.4832
 2829SOL    HW119946   3.592   1.326  16.877 -0.3323  0.0457 -0.6914
 2829SOL    HW219947   3.713   1.331  16.788  1.2291  0.9549  1.5036
 2830SOL     OW19948   3.229   2.559   8.803  0.2312 -0.3625 -0.0390
 2830SOL    HW119949   3.229   2.627   8.870 -0.0177 -0.1323 -0.2731
 2830SOL    HW219950   3.174   2.604   8.739  0.9902 -0.4490 -0.7418
 2831SOL     OW19951   2.161   1.365   0.624 -0.4608 -0.2638  0.0600
 2831SOL    HW119952   2.093   1.300   0.640 -0.6502 -0.2113 -0.5518
 2831SOL    HW219953   2.124   1.437   0.676 -2.8869 -2.0979  0.8816
 2832SOL     OW19954   2.026   1.654   5.497  0.3750 -0.4469  0.0091
 2832SOL    HW119955   2.114   1.627   5.470  0.5428  0.4242 -0.3069
 2832SOL    HW219956   2.045   1.709   5.574  0.0181 -1.3542  0.7528
 2833SOL     OW19957   0.563   4.489  10.113 -0.2064 -0.3891 -0.1973
 2833SOL    HW119958   0.548   4.541  10.034 -1.4188  0.3638  0.5269
 2833SOL    HW219959   0.647   4.448  10.097  0.9785  1.8420  0.3304
 2834SOL     OW19960   3.074   3.461   5.299 -0.5440  0.3206 -0.3995
 2834SOL    HW119961   2.999   3.520   5.306 -0.0358  0.9662 -0.5309
 2834SOL    HW219962   3.047   3.381   5.253 -1.2265 -0.4327  1.2792
 2835SOL     OW19963   1.597   4.210   1.033 -0.3631 -0.3232  0.2092
 2835SOL    HW119964   1.589   4.116   1.047 -1.2792 -0.4642 -1.2826
 2835SOL    HW219965   1.533   4.214   0.961 -1.1806  0.1109  0.9564
 2836SOL     OW19966   1.868   0.453   8.415 -0.6602  0.7359  0.8027
 2836SOL    HW119967   1.785   0.443   8.369  1.2934 -0.8056 -2.3926
 2836SOL    HW219968   1.851   0.418   8.502  0.1834 -2.7165 -0.4183
 2837SOL     OW19969   3.270   3.264   2.683 -0.7719  0.3345  0.2916
 2837SOL    HW119970   3.338   3.200   2.662 -0.0644  0.6616  1.6210
 2837SOL    HW219971   3.235   3.284   2.596  2.0238  0.9458 -0.6741
 2838SOL     OW19972   1.519   4.454  13.508  0.3410  0.2634  0.4320
 2838SOL    HW119973   1.474   4.370  13.500 -1.6869  1.2327  1.8722
 2838SOL    HW219974   1.599   4.435  13.459  0.2342 -0.0271  0.3708
 2839SOL     OW19975   0.028   3.446   5.172 -0.0096  0.3351  0.3381
 2839SOL    HW119976   0.106   3.499   5.185  0.6962 -0.6847  0.3274
 2839SOL    HW219977   4.701   3.502   5.114  0.2132  0.0954 -0.0884
 2840SOL     OW19978   4.097   3.055   6.280 -0.2220 -0.2070 -0.4779
 2840SOL    HW119979   4.055   3.135   6.311 -3.1016 -1.9629  0.1642
 2840SOL    HW219980   4.160   3.043   6.351 -0.0878  1.5260 -0.3153
 2841SOL     OW19981   3.644   0.210   1.412  0.3628 -0.7358 -0.5786
 2841SOL    HW119982   3.668   0.159   1.335 -1.8805 -0.5742 -1.4003
 2841SOL    HW219983   3.586   0.278   1.376  1.9063  0.2982 -1.0783
 2842SOL     OW19984   1.730   4.185   5.386 -0.5177  0.7665  0.4955
 2842SOL    HW119985   1.714   4.159   5.295  0.8541 -1.5050  0.9006
 2842SOL    HW219986   1.824   4.172   5.394 -0.8581 -3.2555 -2.1721
 2843SOL     OW19987   4.481   0.373   6.657 -0.2026  0.4911 -0.2476
 2843SOL    HW119988   4.435   0.406   6.735 -0.9510 -1.9599  0.3206
 2843SOL    HW219989   4.419   0.306   6.630 -1.5972  0.9868  1.6710
 2844SOL     OW19990   0.516   3.737   2.645 -0.1658  0.1309 -0.5052
 2844SOL    HW119991   0.428   3.737   2.684 -0.7671 -1.7664 -1.8700
 2844SOL    HW219992   0.555   3.688   2.718  0.1039 -0.0412 -0.7638
 2845SOL     OW19993   1.674   2.094  16.008  0.0919 -0.7649  0.0073
 2845SOL    HW119994   1.739   2.089  15.938 -2.1255 -1.0262 -2.0569
 2845SOL    HW219995   1.609   2.031  15.976 -0.1381 -0.0966 -0.8494
 2846SOL     OW19996   0.820   0.333  14.562 -0.1304  0.1486  0.0996
 2846SOL    HW119997   0.909   0.300  14.561 -0.7173 -1.4479  0.1177
 2846SOL    HW219998   0.826   0.421  14.599  0.1656 -0.0895  0.6063
 2847SOL     OW19999   1.316   0.824   3.375 -0.0558 -0.2073 -0.2547
 2847SOL    HW120000   1.386   0.812   3.438  0.4527  0.7487 -0.6286
 2847SOL    HW220001   1.333   0.917   3.360 -0.4557 -0.3455 -1.5696
 2848SOL     OW20002   1.000   2.829   6.953 -0.0799  0.6570  0.1240
 2848SOL    HW120003   0.977   2.884   7.029 -1.4738  0.5033 -0.1770
 2848SOL    HW220004   0.914   2.799   6.925 -0.0993  2.7894 -2.0846
 2849SOL     OW20005   1.739   2.127   5.482  0.3159 -0.8971 -0.5806
 2849SOL    HW120006   1.779   2.081   5.555  1.4057  1.1717  0.1423
 2849SOL    HW220007   1.799   2.110   5.409 -1.2397 -0.7539 -1.9112
 2850SOL     OW20008   0.710   4.506   2.576  0.0159  0.1387 -0.4582
 2850SOL    HW120009   0.653   4.521   2.500 -0.3281 -1.3723 -0.4995
 2850SOL    HW220010   0.655   4.559   2.634  0.2285  0.5562 -0.6369
 2851SOL     OW20011   4.529   0.498   2.296 -0.6537  0.5378 -0.0822
 2851SOL    HW120012   4.494   0.573   2.344 -1.4975 -0.5880  1.0861
 2851SOL    HW220013   4.612   0.531   2.262 -1.1471  1.5893 -0.2644
 2852SOL     OW20014   3.874   3.885   3.520 -0.1049 -0.0402  0.3808
 2852SOL    HW120015   3.809   3.956   3.514  0.9742  0.9374  0.3258
 2852SOL    HW220016   3.945   3.927   3.473 -1.7762  0.3581 -1.7433
 2853SOL     OW20017   3.998   1.837   7.225 -0.1000 -0.6367 -0.2310
 2853SOL    HW120018   4.007   1.783   7.303  0.9970  1.7412  1.2594
 2853SOL    HW220019   3.911   1.874   7.241  0.5747  0.6368  0.4486
 2854SOL     OW20020   0.116   3.464   3.434 -0.3755 -0.1268 -0.0133
 2854SOL    HW120021   0.042   3.426   3.387  0.8924 -1.1568 -1.1644
 2854SOL    HW220022   0.186   3.414   3.394 -0.3900  1.2520 -1.7606
 2855SOL     OW20023   2.115   0.994   5.508 -0.4748  0.1976  0.0738
 2855SOL    HW120024   2.161   1.077   5.523  1.8626 -0.9841 -0.5840
 2855SOL    HW220025   2.094   0.965   5.597  0.6263  0.1740  0.3292
 2856SOL     OW20026   0.834   4.313   6.627 -0.5289 -0.2565 -0.2526
 2856SOL    HW120027   0.926   4.338   6.625 -1.2507  2.1984 -2.9718
 2856SOL    HW220028   0.826   4.290   6.534  0.1471 -2.5185  0.2668
 2857SOL     OW20029   1.947   0.916   0.347  0.0674  0.2658  0.1542
 2857SOL    HW120030   1.994   0.833   0.359 -0.6072  0.0555  1.3836
 2857SOL    HW220031   1.938   0.915   0.251  1.9997  1.0349 -0.0155
 2858SOL     OW20032   2.676   2.501  15.242 -0.0177 -0.7526  0.2798
 2858SOL    HW120033   2.736   2.575  15.253  0.4554 -1.2113  0.7796
 2858SOL    HW220034   2.628   2.505  15.325  0.6061 -0.4678  0.6308
 2859SOL     OW20035   3.663   2.954  16.368  0.2462 -0.3463  0.0794
 2859SOL    HW120036   3.608   2.912  16.302  1.3996 -0.3492 -0.8834
 2859SOL    HW220037   3.598   2.971  16.435  1.4949 -2.8360  1.8781
 2860SOL     OW20038   0.957   3.013   9.403 -0.2111 -0.0395  0.0923
 2860SOL    HW120039   1.003   2.929   9.405  0.9561  0.6146  0.8782
 2860SOL    HW220040   0.912   3.006   9.487 -3.7803 -2.2512 -2.0023
 2861SOL     OW20041   3.291   2.903   6.125  0.0362  0.3048  0.4623
 2861SOL    HW120042   3.362   2.909   6.061  0.9811  1.6380  1.6303
 2861SOL    HW220043   3.244   2.827   6.091  2.0498 -0.8443  0.1805
 2862SOL     OW20044   0.841   0.540   6.180  0.1895 -0.0442  0.3067
 2862SOL    HW120045   0.876   0.614   6.229 -0.4840  0.7273 -0.3724
 2862SOL    HW220046   0.914   0.480   6.194  0.7673  0.7183  0.5589
 2863SOL     OW20047   3.297   1.017   2.507 -0.1976 -0.2956  0.2471
 2863SOL    HW120048   3.287   1.096   2.561 -0.0092  1.1047 -1.7488
 2863SOL    HW220049   3.319   0.950   2.571 -0.1716  1.9110  2.5168
 2864SOL     OW20050   4.144   4.268  11.061  0.0778  0.0053 -0.3344
 2864SOL    HW120051   4.234   4.295  11.042 -0.5900  1.6733 -1.1288
 2864SOL    HW220052   4.160   4.254  11.155  1.8299  1.5951 -0.4019
 2865SOL     OW20053   0.005   0.172   9.659 -0.4283  0.1635  0.2188
 2865SOL    HW120054   4.683   0.207   9.736 -0.4070 -0.9366  0.7266
 2865SOL    HW220055   0.049   0.244   9.613 -0.4079 -0.3311 -0.5471
 2866SOL     OW20056   3.172   3.947  14.476 -0.2390  0.5693 -0.5049
 2866SOL    HW120057   3.094   3.998  14.499 -0.6986 -0.3820  0.0591
 2866SOL    HW220058   3.170   3.868  14.530 -0.9388  0.3387 -0.8694
 2867SOL     OW20059   2.618   3.076   3.515  0.1092 -0.3629 -0.2734
 2867SOL    HW120060   2.598   3.011   3.448  0.2270 -0.5786 -0.0987
 2867SOL    HW220061   2.712   3.059   3.526 -0.3245 -1.1439  2.0949
 2868SOL     OW20062   2.523   2.808   4.008 -0.0031 -0.9737  0.1033
 2868SOL    HW120063   2.591   2.763   3.958 -1.0227 -2.2946 -0.0714
 2868SOL    HW220064   2.549   2.789   4.098  1.2028  0.7972  0.1403
 2869SOL     OW20065   2.742   0.747  11.359 -0.3238 -0.5092  0.6929
 2869SOL    HW120066   2.682   0.704  11.420 -0.4603 -1.2464  0.0427
 2869SOL    HW220067   2.687   0.814  11.319  0.9767 -0.2039 -0.5737
 2870SOL     OW20068   4.708   1.548   3.744  0.2946 -0.2030  0.2998
 2870SOL    HW120069   4.714   1.636   3.782  0.2680 -0.8987  1.9194
 2870SOL    HW220070   4.717   1.488   3.818  1.5183 -0.5100 -0.1041
 2871SOL     OW20071   1.903   2.415   7.874  0.0253  0.0941 -0.1414
 2871SOL    HW120072   1.939   2.331   7.902  0.6823  0.6390  0.6618
 2871SOL    HW220073   1.913   2.408   7.779  0.1534 -1.4463 -0.0046
 2872SOL     OW20074   1.750   0.088   5.744  0.0965  0.1022 -0.4743
 2872SOL    HW120075   1.838   0.120   5.767  0.6161 -0.7918 -1.2015
 2872SOL    HW220076   1.784   0.026   5.679  2.9275  0.2638  0.8558
 2873SOL     OW20077   3.628   4.130   4.378 -0.6151 -0.3240 -0.3349
 2873SOL    HW120078   3.662   4.207   4.424 -1.7698 -0.3987  0.6378
 2873SOL    HW220079   3.577   4.090   4.449 -0.4866  1.1357  0.5751
 2874SOL     OW20080   4.079   1.369   4.284  0.1302  0.1903  1.2200
 2874SOL    HW120081   4.025   1.425   4.228  2.7223  0.1909 -1.3245
 2874SOL    HW220082   4.032   1.381   4.366  0.4209  1.5352  1.1868
 2875SOL     OW20083   1.707   0.738   1.643 -0.3533  0.3116  0.3049
 2875SOL    HW120084   1.713   0.650   1.681 -1.6152 -0.7595 -1.9187
 2875SOL    HW220085   1.791   0.751   1.598 -0.1891  0.2475  0.5964
 2876SOL     OW20086   1.098   1.386   4.328 -0.6106  0.0148  0.0650
 2876SOL    HW120087   1.087   1.359   4.237  0.4010 -0.8071  0.1854
 2876SOL    HW220088   1.009   1.409   4.356 -1.2129 -1.1335 -0.9052
 2877SOL     OW20089   1.653   1.660   7.735 -0.5827 -0.0757  0.2336
 2877SOL    HW120090   1.609   1.728   7.684  0.7182 -0.9973 -2.1039
 2877SOL    HW220091   1.681   1.709   7.812 -0.3318  3.0299 -1.8155
 2878SOL     OW20092   4.715   2.502   7.687  0.1874  0.0025  0.2163
 2878SOL    HW120093   4.684   2.545   7.766 -0.9212  0.6126 -0.5612
 2878SOL    HW220094   0.031   2.425   7.729 -0.8918 -0.9693 -0.5621
 2879SOL     OW20095   0.276   2.726   4.179  0.2667 -0.4405  0.0412
 2879SOL    HW120096   0.310   2.707   4.092  1.2110 -1.8754  0.7143
 2879SOL    HW220097   0.188   2.689   4.185  1.0232 -2.2362  0.0567
 2880SOL     OW20098   1.576   0.563   3.416  0.1978 -0.5223  0.0007
 2880SOL    HW120099   1.584   0.650   3.376  0.0004 -0.0819  0.9065
 2880SOL    HW220100   1.497   0.577   3.468  0.9707 -2.1051  1.5968
 2881SOL     OW20101   4.417   0.525   5.439 -0.3167 -0.0177  0.1025
 2881SOL    HW120102   4.337   0.561   5.477 -0.2857  1.7332 -1.4808
 2881SOL    HW220103   4.415   0.432   5.461  2.3062  0.3760  2.0840
 2882SOL     OW20104   0.080   1.452   5.011  0.5503 -0.3034 -0.0835
 2882SOL    HW120105   0.057   1.428   4.922 -1.8293 -0.0368  0.4511
 2882SOL    HW220106   0.153   1.513   5.003  0.2625  0.0491 -0.0634
 2883SOL     OW20107   1.739   2.539   7.621  0.6135  0.4319  0.3337
 2883SOL    HW120108   1.689   2.461   7.646  1.7471  0.0054  1.2846
 2883SOL    HW220109   1.721   2.607   7.686 -1.8375  0.8712 -0.7983
 2884SOL     OW20110   0.043   1.036   5.039 -0.0596 -0.4266 -0.4491
 2884SOL    HW120111   0.039   0.952   5.083  0.9934  0.2796  0.9907
 2884SOL    HW220112   4.676   1.071   5.043  0.7996  1.7341 -0.1210
 2885SOL     OW20113   1.291   3.658  11.522 -0.3126 -0.6303 -0.0050
 2885SOL    HW120114   1.314   3.598  11.451 -1.4856 -1.0347 -0.0300
 2885SOL    HW220115   1.306   3.596  11.593 -1.3373 -0.9097 -0.0336
 2886SOL     OW20116   3.386   2.756   3.990 -0.1927 -0.8351 -0.3795
 2886SOL    HW120117   3.405   2.673   3.947  2.0972 -0.4571 -0.1317
 2886SOL    HW220118   3.433   2.821   3.937  0.6655 -0.4247  0.8727
 2887SOL     OW20119   0.280   2.956   7.482 -0.2457  0.6713  0.6228
 2887SOL    HW120120   0.293   3.013   7.407  3.2004 -0.6809  0.1909
 2887SOL    HW220121   0.191   2.925   7.468  0.2295 -0.1263 -0.6061
 2888SOL     OW20122   0.612   3.577   5.297 -0.3425 -0.0321 -0.0313
 2888SOL    HW120123   0.526   3.615   5.312  0.1957  0.7439  1.0970
 2888SOL    HW220124   0.590   3.486   5.276  0.7462 -0.1993 -0.4942
 2889SOL     OW20125   2.090   1.686   5.005 -0.2799 -0.2871  0.4883
 2889SOL    HW120126   2.029   1.612   4.995  0.0049 -0.5204  0.4984
 2889SOL    HW220127   2.169   1.633   5.011 -0.3313 -0.4152  0.0041
 2890SOL     OW20128   2.623   4.571   4.660 -0.4632 -0.6948  0.0424
 2890SOL    HW120129   2.589   4.605   4.743  0.2893 -1.7481  0.7871
 2890SOL    HW220130   2.567   4.494   4.655  0.7677 -1.5553 -0.3787
 2891SOL     OW20131   1.397   3.026   3.420 -0.3992  0.5747  0.0964
 2891SOL    HW120132   1.381   2.950   3.475 -0.3092 -0.0049 -0.6681
 2891SOL    HW220133   1.473   3.065   3.463 -0.7400  0.5447  0.7252
 2892SOL     OW20134   1.126   3.131   5.210  0.1199 -1.2734 -0.1966
 2892SOL    HW120135   1.147   3.073   5.284  1.4659 -0.1143  0.3260
 2892SOL    HW220136   1.066   3.082   5.154 -0.3687  0.3797 -1.0874
 2893SOL     OW20137   0.580   3.471   4.269  0.0560  0.0232 -0.1775
 2893SOL    HW120138   0.661   3.500   4.227 -0.6033  3.0543  0.6921
 2893SOL    HW220139   0.611   3.447   4.357  0.6288 -0.1215 -0.4200
 2894SOL     OW20140   1.627   0.562   5.434 -0.5839 -0.3022 -0.0937
 2894SOL    HW120141   1.587   0.495   5.379 -3.2231 -0.1896  1.6398
 2894SOL    HW220142   1.665   0.512   5.507 -1.5056 -0.8701 -0.0035
 2895SOL     OW20143   3.332   0.423   8.392 -0.8449 -0.5021  0.4182
 2895SOL    HW120144   3.257   0.395   8.444 -1.6031 -2.0227 -1.4994
 2895SOL    HW220145   3.402   0.402   8.455 -1.1731 -3.5181 -0.2420
 2896SOL     OW20146   1.982   0.670   6.004 -0.1394  0.2960 -0.7366
 2896SOL    HW120147   2.014   0.753   5.970  1.2391 -0.1291 -0.4724
 2896SOL    HW220148   2.068   0.629   6.016 -0.8526 -0.8798  0.4104
 2897SOL     OW20149   3.523   1.234   4.799 -0.4042  0.9610 -0.6399
 2897SOL    HW120150   3.505   1.208   4.709  2.1802  0.9244 -1.1217
 2897SOL    HW220151   3.434   1.249   4.832 -0.2008  0.4042  0.1664
 2898SOL     OW20152   3.999   1.723   8.863 -0.3438  0.0763  0.2625
 2898SOL    HW120153   4.001   1.628   8.853 -1.7665  0.1618 -0.8899
 2898SOL    HW220154   3.941   1.733   8.939  0.6792  0.5205  0.9798
 2899SOL     OW20155   4.247   2.804   1.868 -0.6399  0.0401  0.0856
 2899SOL    HW120156   4.291   2.737   1.816 -0.1748 -1.0030  1.8224
 2899SOL    HW220157   4.195   2.755   1.931 -1.6272  0.4969 -0.3782
 2900SOL     OW20158   2.175   2.711   5.953 -0.2611  0.1737  0.3341
 2900SOL    HW120159   2.145   2.763   5.878  1.9585  0.4870 -0.3629
 2900SOL    HW220160   2.271   2.721   5.947 -0.1584 -1.2106 -0.3354
 2901SOL     OW20161   1.211   1.922   2.384 -0.5514  0.2942  0.0507
 2901SOL    HW120162   1.266   1.959   2.314 -0.0571 -0.1999  0.1864
 2901SOL    HW220163   1.269   1.943   2.456  1.4993 -0.5880 -1.3565
 2902SOL     OW20164   0.353   2.755  16.873  0.5195 -0.3875 -0.5518
 2902SOL    HW120165   0.271   2.760  16.824 -1.7021  1.4950  3.4546
 2902SOL    HW220166   0.392   2.838  16.844 -1.0716 -0.0660 -1.7680
 2903SOL     OW20167   3.369   3.513  15.878 -0.0464 -0.6407 -0.0143
 2903SOL    HW120168   3.274   3.523  15.870 -0.0900 -1.1903 -0.2002
 2903SOL    HW220169   3.400   3.603  15.882  2.6119 -1.6465  2.2617
 2904SOL     OW20170   0.270   1.909  11.355 -0.3578  0.1247  0.0098
 2904SOL    HW120171   0.308   1.970  11.292  2.2496 -0.7709  0.7355
 2904SOL    HW220172   0.275   1.966  11.431 -2.0982  1.5302 -0.9272
 2905SOL     OW20173   3.703   3.612  11.629 -0.4557  0.7556 -0.2922
 2905SOL    HW120174   3.655   3.529  11.624  0.1686  0.4002 -0.3444
 2905SOL    HW220175   3.686   3.631  11.537 -0.8148 -0.7013 -0.5266
 2906SOL     OW20176   1.108   3.598   5.514 -0.1777 -0.1969 -0.0538
 2906SOL    HW120177   1.052   3.655   5.463  1.8664  0.3886 -1.6312
 2906SOL    HW220178   1.055   3.595   5.594 -0.2960  1.5678 -0.0725
 2907SOL     OW20179   1.509   4.049   3.448  0.0476 -0.1039 -0.0434
 2907SOL    HW120180   1.523   4.127   3.393  1.7765  0.8946  1.8041
 2907SOL    HW220181   1.427   4.015   3.414 -0.3875 -0.8018  1.7051
 2908SOL     OW20182   4.525   2.231   4.436 -0.0041  0.2651  0.0665
 2908SOL    HW120183   4.485   2.178   4.505 -0.8331 -0.6721 -1.1340
 2908SOL    HW220184   4.600   2.263   4.486  0.2988  2.0911 -1.5299
 2909SOL     OW20185   3.109   3.287   2.455  0.1174 -0.4557 -0.6958
 2909SOL    HW120186   3.034   3.320   2.406  1.2952  0.2797 -1.9986
 2909SOL    HW220187   3.165   3.247   2.388  0.9728  2.1356 -1.5003
 2910SOL     OW20188   1.613   1.216   3.380 -0.3083  0.2640 -0.0569
 2910SOL    HW120189   1.610   1.270   3.458 -0.5923 -0.2125  0.2650
 2910SOL    HW220190   1.698   1.174   3.391 -0.6977 -0.8137 -1.1271
 2911SOL     OW20191   2.666   0.738   8.093 -0.0890  0.0997 -0.0347
 2911SOL    HW120192   2.645   0.648   8.068  1.6509 -0.9019  2.2218
 2911SOL    HW220193   2.647   0.740   8.187 -1.0536  0.1261 -0.2207
 2912SOL     OW20194   1.410   2.553   4.773 -0.2627  0.6589 -0.1065
 2912SOL    HW120195   1.482   2.549   4.835 -0.6018 -0.6967  0.1969
 2912SOL    HW220196   1.370   2.466   4.777 -0.9585  1.1075  2.5687
 2913SOL     OW20197   2.587   0.378   2.040  0.3571 -0.0575 -0.2170
 2913SOL    HW120198   2.600   0.347   1.951  2.1679  0.8720 -0.2623
 2913SOL    HW220199   2.659   0.353   2.098  0.2735 -1.3955 -0.6862
 2914SOL     OW20200   0.266   3.046   3.155  0.2252  0.4225 -0.2113
 2914SOL    HW120201   0.341   2.987   3.157 -0.5612 -0.5763 -0.1723
 2914SOL    HW220202   0.210   3.005   3.089  0.5152 -3.9703  2.2693
 2915SOL     OW20203   4.469   0.806   5.340 -0.2080  0.3260  0.3459
 2915SOL    HW120204   4.418   0.887   5.344 -4.1408 -2.0904 -0.3237
 2915SOL    HW220205   4.412   0.730   5.329  0.0932 -0.3977  3.6400
 2916SOL     OW20206   1.598   2.760   9.414  0.1895  0.4613 -0.7921
 2916SOL    HW120207   1.635   2.672   9.415  1.0977  0.8463 -0.8390
 2916SOL    HW220208   1.558   2.763   9.500  1.8957  0.0409  0.0101
 2917SOL     OW20209   2.818   1.595   6.830 -0.0493 -0.1137  0.2744
 2917SOL    HW120210   2.864   1.621   6.911  1.2030 -2.2737  0.2410
 2917SOL    HW220211   2.899   1.596   6.779 -1.1521 -0.7220 -1.4577
 2918SOL     OW20212   0.449   0.472   4.426 -0.0846 -0.2099 -0.2481
 2918SOL    HW120213   0.508   0.486   4.352  1.5260  0.5535  1.1564
 2918SOL    HW220214   0.437   0.563   4.454 -0.2272 -0.6103  1.0146
 2919SOL     OW20215   2.626   2.488   2.765  0.6865 -0.1640  0.2227
 2919SOL    HW120216   2.601   2.395   2.763  1.1615 -0.2829 -0.2799
 2919SOL    HW220217   2.691   2.488   2.695 -1.0925  0.6630 -1.4457
 2920SOL     OW20218   1.123   1.135   1.126 -0.1495  1.0311  0.3646
 2920SOL    HW120219   1.070   1.130   1.046 -0.3989  1.3381  0.5100
 2920SOL    HW220220   1.053   1.162   1.187 -2.0098 -1.3799 -0.7234
 2921SOL     OW20221   3.476   2.390  11.843  0.1497  0.9509  0.0688
 2921SOL    HW120222   3.401   2.346  11.804  0.4517  0.8911 -0.4462
 2921SOL    HW220223   3.478   2.468  11.787 -0.0008  0.5728 -0.4669
 2922SOL     OW20224   2.528   2.614   8.934  0.3653  0.8692  0.0754
 2922SOL    HW120225   2.518   2.686   8.996  2.4213  1.0654  0.1777
 2922SOL    HW220226   2.599   2.648   8.880 -0.0596 -0.2758 -1.2212
 2923SOL     OW20227   2.457   3.971   7.819 -0.3709 -0.0320  0.1579
 2923SOL    HW120228   2.498   3.897   7.774  0.6888  1.9909 -2.1825
 2923SOL    HW220229   2.528   4.036   7.816  1.3420 -1.7466  3.2194
 2924SOL     OW20230   3.236   3.498   9.673  0.4303  0.0563  0.0413
 2924SOL    HW120231   3.308   3.435   9.670 -1.6769 -2.4527  2.1537
 2924SOL    HW220232   3.189   3.491   9.590 -1.7280  2.7032  1.0160
 2925SOL     OW20233   3.436   4.122   0.695 -0.4951 -0.6638 -0.2094
 2925SOL    HW120234   3.441   4.178   0.773  0.3705  0.4741 -1.0832
 2925SOL    HW220235   3.484   4.046   0.728  0.7756  0.0295 -0.4657
 2926SOL     OW20236   3.406   3.857   8.090 -0.0586 -0.4790  0.1007
 2926SOL    HW120237   3.447   3.853   8.003 -0.9336 -2.1258 -0.2199
 2926SOL    HW220238   3.376   3.948   8.078  0.1925 -0.7066 -2.4154
 2927SOL     OW20239   0.136   0.023  13.550  0.7772 -0.8096 -0.0575
 2927SOL    HW120240   0.089   4.683  13.495 -1.3656  0.2401  0.6072
 2927SOL    HW220241   0.224   4.708  13.552  0.8464 -0.7117 -1.3466
 2928SOL     OW20242   2.241   1.629  14.618 -0.1557 -0.1792  0.0385
 2928SOL    HW120243   2.324   1.607  14.575 -0.4463 -0.1715 -0.5225
 2928SOL    HW220244   2.250   1.567  14.691  0.0920 -2.7986 -2.2037
 2929SOL     OW20245   3.484   2.842   3.751 -0.1177  0.6048  0.1790
 2929SOL    HW120246   3.549   2.780   3.720 -0.1094  1.2206 -1.0096
 2929SOL    HW220247   3.529   2.926   3.764 -1.0048  1.1679 -0.4400
 2930SOL     OW20248   3.483   4.635  14.872  0.2607  0.0532 -0.1089
 2930SOL    HW120249   3.404   4.656  14.821 -0.4278 -0.2763  0.8189
 2930SOL    HW220250   3.540   4.585  14.814 -1.2343  0.5006 -2.0108
 2931SOL     OW20251   0.908   0.814   6.935 -0.1611 -0.1272  0.0501
 2931SOL    HW120252   0.916   0.721   6.953  3.9775  0.8849  3.2806
 2931SOL    HW220253   0.983   0.822   6.875 -1.1216 -0.4581 -1.1998
 2932SOL     OW20254   2.089   1.838   5.702  1.0666 -0.2963  0.5464
 2932SOL    HW120255   2.093   1.796   5.788  1.3218 -0.3145  0.5271
 2932SOL    HW220256   2.023   1.906   5.715  1.3582  0.2282 -0.7303
 2933SOL     OW20257   2.144   2.486  12.282  0.7147  0.2004  0.4299
 2933SOL    HW120258   2.074   2.424  12.263  1.9073 -1.0362  0.0404
 2933SOL    HW220259   2.176   2.435  12.357  0.7535  4.5602  3.4330
 2934SOL     OW20260   2.783   3.131  12.065  0.2237  0.7361  0.2415
 2934SOL    HW120261   2.805   3.111  12.156  0.4142 -0.8875 -0.1644
 2934SOL    HW220262   2.704   3.186  12.069 -1.0056 -0.8307 -2.4961
 2935SOL     OW20263   0.905   4.645  17.269  0.0427  0.1792  0.3271
 2935SOL    HW120264   0.988   4.601  17.253  0.6544  0.8362  1.7360
 2935SOL    HW220265   0.851   4.580  17.223 -1.1132  1.6349 -0.3911
 2936SOL     OW20266   3.661   3.066   5.660  0.5960 -0.3314  0.2270
 2936SOL    HW120267   3.671   3.158   5.687 -1.3026 -0.5517  1.7323
 2936SOL    HW220268   3.575   3.037   5.693  0.4750 -0.1193  0.1006
 2937SOL     OW20269   2.252   1.152   4.808 -0.3922  0.0876  0.2535
 2937SOL    HW120270   2.263   1.098   4.886  4.9620  0.3622 -0.3235
 2937SOL    HW220271   2.161   1.181   4.816 -0.0886  1.5973 -1.7043
 2938SOL     OW20272   3.251   0.307   9.049 -0.1476  0.3223 -0.1872
 2938SOL    HW120273   3.250   0.316   9.144 -1.5766 -1.0395 -0.0850
 2938SOL    HW220274   3.260   0.401   9.036  0.2774  0.5810  1.9436
 2939SOL     OW20275   4.575   1.997   0.957  0.1290  0.1456 -0.0154
 2939SOL    HW120276   4.662   2.033   0.975  0.8344  0.7110 -4.4590
 2939SOL    HW220277   4.552   1.954   1.039  1.5809 -0.2780  0.1754
 2940SOL     OW20278   2.242   4.622   3.492 -0.2566  0.0795 -0.1255
 2940SOL    HW120279   2.182   4.587   3.426 -0.0129 -0.9563  0.2026
 2940SOL    HW220280   2.289   4.691   3.444 -2.3290  2.1187  0.7672
 2941SOL     OW20281   2.407   1.908   9.920  0.4545  0.4618  0.9591
 2941SOL    HW120282   2.480   1.867   9.966  0.8967  0.0939 -0.0718
 2941SOL    HW220283   2.372   1.969   9.984  1.6054  1.0310  1.0376
 2942SOL     OW20284   0.324   2.995  17.491  0.2608 -0.8848  0.1178
 2942SOL    HW120285   0.309   2.903  17.468  0.1688 -1.0248  0.7527
 2942SOL    HW220286   0.334   2.989  17.586 -0.4560 -1.1997  0.1696
 2943SOL     OW20287   4.550   1.706   9.100  0.1130  0.2674  1.0457
 2943SOL    HW120288   4.525   1.619   9.132  1.1753 -0.3622  0.1796
 2943SOL    HW220289   4.517   1.766   9.167  0.5781 -0.1175  1.6224
 2944SOL     OW20290   2.042   3.002   6.210 -0.0186 -0.2253 -0.0813
 2944SOL    HW120291   1.952   2.994   6.179 -0.8748 -0.8799  2.6568
 2944SOL    HW220292   2.027   3.063   6.283 -2.0550 -1.1921  0.2962
 2945SOL     OW20293   2.446   4.301   1.658  0.4396 -0.1089 -0.2969
 2945SOL    HW120294   2.405   4.215   1.650  3.5339 -1.9085  3.6450
 2945SOL    HW220295   2.409   4.337   1.738 -1.3982 -1.3898 -0.5573
 2946SOL     OW20296   1.410   0.605   4.254 -0.2581 -0.6092  0.2707
 2946SOL    HW120297   1.403   0.513   4.230 -1.7055 -1.2984  3.3030
 2946SOL    HW220298   1.500   0.618   4.285 -0.7110  0.0419  1.3102
 2947SOL     OW20299   1.120   2.779   2.043  0.3729  0.0124  0.3895
 2947SOL    HW120300   1.111   2.729   2.124 -0.1816 -0.6991 -0.1023
 2947SOL    HW220301   1.036   2.824   2.034 -0.2095 -0.9752  0.8868
 2948SOL     OW20302   1.917   0.164   8.114  0.1747  0.2244  0.0396
 2948SOL    HW120303   2.009   0.168   8.139  0.5741 -2.9715 -0.9755
 2948SOL    HW220304   1.894   0.161   8.207  1.0745  0.9833  0.2910
 2949SOL     OW20305   3.730   0.522   7.890 -0.1477 -0.1081  0.7297
 2949SOL    HW120306   3.652   0.515   7.834  1.4746  0.8961 -1.6363
 2949SOL    HW220307   3.759   0.432   7.907  0.8462  0.4824  2.1250
 2950SOL     OW20308   1.823   3.831   3.904  0.1245  0.7341 -0.1233
 2950SOL    HW120309   1.813   3.840   3.809 -0.0680  2.7926  0.0983
 2950SOL    HW220310   1.915   3.814   3.924  0.1998  0.5484 -0.6290
 2951SOL     OW20311   2.879   3.359   2.694  0.1164  0.2113 -0.2633
 2951SOL    HW120312   2.803   3.367   2.635 -0.1402  2.3243  0.3729
 2951SOL    HW220313   2.938   3.324   2.627  0.1942  0.9765 -0.5905
 2952SOL     OW20314   1.011   1.050   8.107  0.0697 -0.1904 -0.1280
 2952SOL    HW120315   1.046   0.985   8.168  1.3360 -0.1767 -0.8326
 2952SOL    HW220316   0.918   1.032   8.100  0.1898 -0.6808 -0.4027
 2953SOL     OW20317   2.366   0.298  14.709 -0.2642  0.9707  0.4140
 2953SOL    HW120318   2.290   0.240  14.705 -0.3849  1.1378  0.2589
 2953SOL    HW220319   2.318   0.378  14.687  0.7423  1.4401 -0.0919
 2954SOL     OW20320   3.873   4.214  12.792  0.0203  0.2675  0.4846
 2954SOL    HW120321   3.925   4.139  12.764  1.5159  0.4675  2.7409
 2954SOL    HW220322   3.897   4.204  12.884 -0.2706  2.0040  0.7480
 2955SOL     OW20323   0.319   4.370   9.461  0.4425  0.2091  0.2105
 2955SOL    HW120324   0.352   4.330   9.381  0.2501  3.3667 -1.4666
 2955SOL    HW220325   0.240   4.415   9.431  0.7750 -0.2981 -1.4513
 2956SOL     OW20326   1.262   1.611   4.298  0.1132  0.0612 -0.5167
 2956SOL    HW120327   1.220   1.528   4.317  1.1937  0.0630  1.8902
 2956SOL    HW220328   1.202   1.680   4.327 -0.3990 -1.7065  2.5966
 2957SOL     OW20329   0.589   1.167   5.659  0.5265  0.1868 -0.0541
 2957SOL    HW120330   0.657   1.142   5.596 -0.2264  1.8093 -1.5051
 2957SOL    HW220331   0.624   1.245   5.704 -0.9750 -0.1932  1.7552
 2958SOL     OW20332   0.893   1.543   0.995  0.1464 -0.1346 -0.2864
 2958SOL    HW120333   0.876   1.622   0.943 -0.6019 -0.5267 -0.6391
 2958SOL    HW220334   0.972   1.498   0.968 -0.3138 -1.8410  1.2261
 2959SOL     OW20335   0.332   2.534   3.029  0.3216  0.8690 -0.2690
 2959SOL    HW120336   0.378   2.595   2.972  2.7729  0.3913  1.1824
 2959SOL    HW220337   0.364   2.462   2.976 -0.0127  0.2053  0.4278
 2960SOL     OW20338   3.612   2.727   3.182 -0.0669  0.5655  0.0170
 2960SOL    HW120339   3.624   2.637   3.212  0.1720  0.4142 -0.5517
 2960SOL    HW220340   3.587   2.765   3.267  1.2855 -0.1617  0.7201
 2961SOL     OW20341   2.481   4.472   5.033  0.2502 -0.6250 -0.1520
 2961SOL    HW120342   2.564   4.520   5.023 -0.9376  1.4045 -0.1377
 2961SOL    HW220343   2.442   4.507   5.112  0.8934  0.9257 -0.5274
 2962SOL     OW20344   3.573   3.663   8.958  0.1460  1.2560 -0.0525
 2962SOL    HW120345   3.541   3.706   8.878 -1.7980  0.1771  0.1518
 2962SOL    HW220346   3.652   3.716   8.966  1.6104 -0.9750  0.3003
 2963SOL     OW20347   0.475   3.661   1.606 -0.1485 -0.1595  0.0524
 2963SOL    HW120348   0.431   3.623   1.682  0.1830 -2.2366 -0.7800
 2963SOL    HW220349   0.430   3.745   1.608 -0.1809 -0.2058  1.3368
 2964SOL     OW20350   1.267   4.339   5.421 -0.4738  0.1395 -0.5031
 2964SOL    HW120351   1.273   4.244   5.422 -1.0925  0.0954 -1.0348
 2964SOL    HW220352   1.355   4.358   5.454 -1.2973  0.9530  1.2479
 2965SOL     OW20353   1.648   2.674   0.682  0.0157  0.5662  0.2736
 2965SOL    HW120354   1.724   2.672   0.624  1.0351 -0.1858  1.6301
 2965SOL    HW220355   1.599   2.732   0.624 -1.7726 -1.2759 -0.0424
 2966SOL     OW20356   0.084   3.873   3.329 -0.7843  0.8253 -0.2204
 2966SOL    HW120357   0.095   3.926   3.408 -0.7015 -2.6017  2.0761
 2966SOL    HW220358   4.713   3.888   3.318 -1.2164 -0.7731  1.1936
 2967SOL     OW20359   3.614   1.325  16.234 -0.3828 -0.0992 -0.0701
 2967SOL    HW120360   3.595   1.415  16.209  1.0402 -0.3952 -2.2806
 2967SOL    HW220361   3.707   1.312  16.215  0.0737  1.5556  1.0761
 2968SOL     OW20362   2.530   0.847   3.385  0.2962 -0.4263 -0.2315
 2968SOL    HW120363   2.571   0.766   3.353 -2.1163 -1.4610 -0.6589
 2968SOL    HW220364   2.456   0.820   3.438 -0.1656  1.2091 -0.0408
 2969SOL     OW20365   0.503   1.314  13.889  0.2571 -0.4148  0.0241
 2969SOL    HW120366   0.477   1.223  13.894 -2.3810  0.3063 -0.6548
 2969SOL    HW220367   0.590   1.315  13.931  1.0653  1.0106 -1.6814
 2970SOL     OW20368   0.471   0.638   0.439 -0.0467  0.1251 -0.2556
 2970SOL    HW120369   0.448   0.581   0.512 -0.2059 -2.3408 -2.2059
 2970SOL    HW220370   0.562   0.662   0.455 -0.2591  1.7601 -1.5631
 2971SOL     OW20371   4.639   4.677   7.559 -0.6395 -0.0531 -0.2162
 2971SOL    HW120372   4.705   4.718   7.615 -0.6640  0.0476 -0.2603
 2971SOL    HW220373   4.573   4.652   7.624 -0.8990 -1.6138 -1.1023
 2972SOL     OW20374   4.475   1.391   5.342 -0.1552 -0.2195 -0.2520
 2972SOL    HW120375   4.426   1.382   5.424  1.4822 -0.5690  0.6958
 2972SOL    HW220376   4.465   1.483   5.318  0.7279  0.5055  2.1787
 2973SOL     OW20377   0.665   1.725   5.570  0.9111 -0.7681 -0.5259
 2973SOL    HW120378   0.587   1.687   5.528 -0.6296  0.8040  0.9195
 2973SOL    HW220379   0.710   1.734   5.486  0.1132 -0.7204 -0.9467
 2974SOL     OW20380   3.280   2.999  13.831 -0.0329 -0.0164  0.1570
 2974SOL    HW120381   3.253   3.002  13.739 -1.5542  1.3712  0.6460
 2974SOL    HW220382   3.302   2.907  13.844  2.2334  0.3543 -1.0215
 2975SOL     OW20383   1.836   2.758   5.444  0.1447 -0.4103 -0.5921
 2975SOL    HW120384   1.822   2.692   5.376  2.3310 -1.0270 -0.4454
 2975SOL    HW220385   1.839   2.702   5.521  2.4380  0.2053 -0.2231
 2976SOL     OW20386   0.589   0.760   5.778 -0.5436 -0.0213 -0.0912
 2976SOL    HW120387   0.579   0.676   5.822 -1.5886 -0.4283 -1.1133
 2976SOL    HW220388   0.662   0.798   5.827 -0.1065  1.2118 -1.6934
 2977SOL     OW20389   1.929   4.642   5.624 -0.2664 -0.3272  0.4886
 2977SOL    HW120390   2.016   4.608   5.644 -0.1315  0.1141  0.6555
 2977SOL    HW220391   1.916   4.607   5.536 -1.1650 -1.8365  1.2082
 2978SOL     OW20392   4.325   1.159   6.403 -0.5741 -0.3193  0.5491
 2978SOL    HW120393   4.399   1.123   6.451 -0.1632  0.3863  0.4448
 2978SOL    HW220394   4.372   1.234   6.367 -1.7370 -0.2095 -0.7395
 2979SOL     OW20395   4.244   2.874   8.786  0.1816 -0.4072  0.3254
 2979SOL    HW120396   4.191   2.883   8.865 -0.1195  0.6354  0.0002
 2979SOL    HW220397   4.178   2.871   8.717 -1.9024  0.9918  2.2722
 2980SOL     OW20398   0.007   0.458  10.086 -0.4293 -0.0389 -0.2684
 2980SOL    HW120399   4.701   0.381  10.037  0.7174 -0.8938  0.4021
 2980SOL    HW220400   4.718   0.428  10.176  0.2090 -1.8180 -0.7736
 2981SOL     OW20401   3.817   3.244   1.020 -0.2163  0.0729  0.2322
 2981SOL    HW120402   3.745   3.292   0.981 -2.0432 -1.7489  1.3120
 2981SOL    HW220403   3.785   3.255   1.110 -1.4251 -2.9016  0.1811
 2982SOL     OW20404   3.625   2.423  13.487 -0.6096  0.1800  0.3271
 2982SOL    HW120405   3.547   2.420  13.432 -0.1615 -2.9379 -0.1500
 2982SOL    HW220406   3.618   2.344  13.541 -0.3375 -0.8897 -1.2177
 2983SOL     OW20407   3.087   2.571   7.877  0.2330  0.1540 -0.6545
 2983SOL    HW120408   3.076   2.639   7.810 -0.3496 -0.5195 -1.2481
 2983SOL    HW220409   3.077   2.629   7.953  0.1825 -0.3744 -0.2595
 2984SOL     OW20410   2.359   2.868   1.325 -0.4597 -0.0398  0.7856
 2984SOL    HW120411   2.347   2.882   1.419  2.6772  2.4958  0.7789
 2984SOL    HW220412   2.385   2.956   1.299 -0.5317 -0.0119  0.8071
 2985SOL     OW20413   2.811   0.386  11.265  0.1430 -0.0813 -0.1619
 2985SOL    HW120414   2.772   0.423  11.344 -1.3639 -4.0839  1.0088
 2985SOL    HW220415   2.818   0.461  11.207 -0.5547 -1.4876 -2.0814
 2986SOL     OW20416   0.917   1.884   9.861 -0.2156  0.2911 -0.7129
 2986SOL    HW120417   0.940   1.796   9.833 -0.3539 -0.3375  1.1409
 2986SOL    HW220418   0.902   1.926   9.776 -0.7550 -1.3074 -1.3967
 2987SOL     OW20419   0.996   1.897   7.611 -0.8986  0.0699  0.1462
 2987SOL    HW120420   0.964   1.987   7.618 -1.2445 -0.1388  1.2675
 2987SOL    HW220421   0.912   1.856   7.592 -1.6314  1.5960  0.0515
 2988SOL     OW20422   1.532   1.524  10.216 -0.1105  0.3826 -0.8936
 2988SOL    HW120423   1.510   1.570  10.298  0.6233 -2.2383  0.7600
 2988SOL    HW220424   1.551   1.432  10.235 -0.1729  0.2006 -1.7158
 2989SOL     OW20425   4.582   2.897  14.560  0.0835  0.0311 -0.8572
 2989SOL    HW120426   4.546   2.831  14.500 -0.7275  0.1632 -0.5156
 2989SOL    HW220427   4.586   2.839  14.636 -1.0910 -0.0602 -0.8688
 2990SOL     OW20428   3.339   4.669   6.065  0.1362 -0.3020  0.3019
 2990SOL    HW120429   3.268   4.606   6.080  1.2292 -1.5951  0.0398
 2990SOL    HW220430   3.289   0.027   6.078 -1.1970 -1.4866  2.5213
 2991SOL     OW20431   0.623   2.594  14.378  0.1521  0.0565 -0.0629
 2991SOL    HW120432   0.662   2.599  14.291  1.1048  1.2533  0.4250
 2991SOL    HW220433   0.659   2.675  14.414  2.2493  0.4233 -3.0030
 2992SOL     OW20434   1.043   2.627   5.425  0.2169  0.4554 -0.1353
 2992SOL    HW120435   0.976   2.581   5.476 -0.4663  0.1764 -1.2971
 2992SOL    HW220436   1.001   2.604   5.342  1.6543 -0.6411 -0.5416
 2993SOL     OW20437   0.559   2.646   6.132  0.4051  0.3024  0.3358
 2993SOL    HW120438   0.608   2.696   6.198  0.6942  0.3160  0.1087
 2993SOL    HW220439   0.607   2.666   6.052 -0.6406  0.0858 -0.3432
 2994SOL     OW20440   1.838   2.214   8.400 -0.0899 -0.7379 -0.4756
 2994SOL    HW120441   1.800   2.211   8.487  0.3450 -1.3606 -0.3040
 2994SOL    HW220442   1.841   2.122   8.375  1.3212 -1.1118  1.1061
 2995SOL     OW20443   4.212   2.950   2.198  0.2223 -0.1724 -0.4732
 2995SOL    HW120444   4.284   2.923   2.254 -1.1012 -1.3044  0.6846
 2995SOL    HW220445   4.178   2.867   2.163  0.1179 -0.0363 -0.6981
 2996SOL     OW20446   4.291   1.425   6.951 -0.4303 -0.0188  0.2651
 2996SOL    HW120447   4.325   1.513   6.963 -1.0487  0.3888 -0.9317
 2996SOL    HW220448   4.343   1.375   7.013 -0.0661 -0.7211 -0.5993
 2997SOL     OW20449   4.152   0.800  13.360  0.2915  0.3590  0.4689
 2997SOL    HW120450   4.106   0.839  13.286 -1.1179 -0.3562  0.9682
 2997SOL    HW220451   4.129   0.858  13.432 -0.5722  1.3860 -0.6301
 2998SOL     OW20452   1.407   1.617   2.217  0.5263  0.1107 -0.4949
 2998SOL    HW120453   1.464   1.678   2.263  0.9735 -0.3860 -0.3882
 2998SOL    HW220454   1.413   1.648   2.127  0.1789 -0.3099 -0.6630
 2999SOL     OW20455   1.140   2.652  10.010  0.1517 -0.1795 -0.0938
 2999SOL    HW120456   1.232   2.658   9.983 -0.1326  0.1581 -0.9907
 2999SOL    HW220457   1.146   2.708  10.087  0.2566 -0.2914 -0.0194
 3000SOL     OW20458   2.466   2.205   8.916 -0.3150 -0.2844  0.1035
 3000SOL    HW120459   2.493   2.141   8.850  0.7394  1.4087 -1.0958
 3000SOL    HW220460   2.379   2.228   8.884  1.1664  2.6635 -1.8761
 3001SOL     OW20461   0.114   1.096   2.424  0.8544  0.2867  0.6302
 3001SOL    HW120462   0.043   1.158   2.406 -1.4120 -2.0567  1.3860
 3001SOL    HW220463   0.182   1.153   2.458  2.1899 -0.4705 -0.7637
 3002SOL     OW20464   2.553   2.390   9.354 -0.6963  0.0134 -0.7468
 3002SOL    HW120465   2.536   2.406   9.262  0.5029  0.9548 -0.8072
 3002SOL    HW220466   2.627   2.449   9.366 -1.8368  1.7337 -2.1446
 3003SOL     OW20467   2.514   2.792  13.649 -0.2857  0.3788 -0.3558
 3003SOL    HW120468   2.450   2.857  13.679  1.7015  3.0512 -1.9278
 3003SOL    HW220469   2.458   2.745  13.588 -0.3650 -0.8300  0.6600
 3004SOL     OW20470   2.208   2.126   3.903 -0.2663  0.3670 -0.1683
 3004SOL    HW120471   2.139   2.123   3.968 -0.5362  2.1708 -0.3578
 3004SOL    HW220472   2.232   2.218   3.918 -1.4293  0.7566 -0.7207
 3005SOL     OW20473   0.599   3.063  14.650 -0.3257  0.2640  0.1261
 3005SOL    HW120474   0.582   3.044  14.558 -2.0500  0.6961  0.3498
 3005SOL    HW220475   0.542   3.140  14.645 -0.4795  0.0926 -0.8293
 3006SOL     OW20476   0.870   1.202   4.652  0.2368  0.4416 -0.1609
 3006SOL    HW120477   0.956   1.203   4.695  0.5090 -2.9736 -0.5927
 3006SOL    HW220478   0.884   1.142   4.579 -0.7274  0.3926 -0.2986
 3007SOL     OW20479   3.340   4.215   3.017  0.2582 -0.3502 -0.0379
 3007SOL    HW120480   3.287   4.254   2.947  0.4153  2.4362  1.3827
 3007SOL    HW220481   3.419   4.197   2.966  0.0354 -1.1091 -0.1170
 3008SOL     OW20482   1.129   1.162   6.007 -0.0406  0.3098  0.2642
 3008SOL    HW120483   1.089   1.080   5.980 -0.5610  0.8755 -0.7165
 3008SOL    HW220484   1.182   1.188   5.931  1.2755 -4.0321 -0.2952
 3009SOL     OW20485   3.093   0.231  16.579 -0.0791  0.4904 -0.1574
 3009SOL    HW120486   3.125   0.144  16.558  0.1807  0.1698  1.5361
 3009SOL    HW220487   3.042   0.212  16.658 -0.2657 -0.6438 -0.5542
 3010SOL     OW20488   0.453   2.572  14.115  0.3785  0.3762  0.0154
 3010SOL    HW120489   0.541   2.548  14.145  0.2437 -0.3713 -0.1930
 3010SOL    HW220490   0.450   2.539  14.025  0.1274 -2.9279  1.2221
 3011SOL     OW20491   4.634   0.027  12.624 -0.4407 -1.0341 -0.1857
 3011SOL    HW120492   4.651   0.033  12.530  1.5593  0.2687  0.2777
 3011SOL    HW220493   4.666   4.660  12.638  2.4821  0.4575  2.5423
 3012SOL     OW20494   3.539   4.332  15.302 -0.3360  0.0485 -0.3417
 3012SOL    HW120495   3.626   4.318  15.341 -0.0850  1.4658 -0.4075
 3012SOL    HW220496   3.573   4.385  15.230  1.4314  2.1656  2.0228
 3013SOL     OW20497   0.273   1.887   4.066  0.7101 -0.1559 -0.4881
 3013SOL    HW120498   0.221   1.809   4.046  3.0913 -1.6465 -0.8287
 3013SOL    HW220499   0.268   1.934   3.983 -0.4212 -3.1257 -2.0700
 3014SOL     OW20500   4.271   1.244   4.533 -0.5826  0.3540  0.3609
 3014SOL    HW120501   4.326   1.252   4.611  1.3905  0.7774 -1.0704
 3014SOL    HW220502   4.184   1.218   4.564  0.3003 -1.7054  1.1542
 3015SOL     OW20503   4.102   0.958   0.643  0.1677  0.1349  0.0617
 3015SOL    HW120504   4.062   0.912   0.569  0.9261 -0.3433 -0.0555
 3015SOL    HW220505   4.050   1.038   0.648  1.4519  0.9904 -0.1911
 3016SOL     OW20506   2.511   0.941   5.633 -0.6396  0.3623  0.1211
 3016SOL    HW120507   2.561   1.006   5.585 -1.9813  1.2373 -0.0782
 3016SOL    HW220508   2.568   0.864   5.634 -0.1247  0.7475 -0.2533
 3017SOL     OW20509   3.356   2.095   4.702  0.7557 -0.7571 -0.8043
 3017SOL    HW120510   3.261   2.091   4.709  0.7806  0.7337  0.3517
 3017SOL    HW220511   3.367   2.025   4.638 -1.0452 -0.6923 -1.1777
 3018SOL     OW20512   1.946   0.064  17.567 -0.6822  0.5665 -0.6657
 3018SOL    HW120513   1.985   0.109  17.492 -0.6907  0.1834 -0.8982
 3018SOL    HW220514   1.953   4.697  17.534 -1.8839  0.1429  0.2681
 3019SOL     OW20515   0.096   1.633   3.520  0.1958 -0.0824 -0.0302
 3019SOL    HW120516   0.037   1.619   3.595  0.6415  2.6571  0.8013
 3019SOL    HW220517   0.181   1.597   3.545  1.3035  0.3961 -3.0765
 3020SOL     OW20518   0.856   4.298  13.020 -0.0815  0.1034  0.2370
 3020SOL    HW120519   0.868   4.311  12.926 -1.1739  2.2258  0.4037
 3020SOL    HW220520   0.921   4.229  13.039 -1.0453 -0.4901  1.4006
 3021SOL     OW20521   1.150   2.257  17.689 -0.1401  1.1072 -0.1118
 3021SOL    HW120522   1.232   2.218  17.657 -1.1786 -1.9502  0.9910
 3021SOL    HW220523   1.178   2.299   0.076 -1.6234  1.3533  0.2673
 3022SOL     OW20524   0.309   2.577  14.355  0.1291  0.4606  0.0244
 3022SOL    HW120525   0.299   2.600  14.262  0.8951 -0.0805 -0.1905
 3022SOL    HW220526   0.404   2.577  14.366  0.1542 -0.4494 -0.2457
 3023SOL     OW20527   0.001   0.760   3.535  0.4181 -0.6516 -0.4684
 3023SOL    HW120528   4.662   0.829   3.554  0.2072 -1.3167  1.2695
 3023SOL    HW220529   4.683   0.711   3.463  1.4444  0.1135 -1.5777
 3024SOL     OW20530   2.885   2.643  12.678  0.3774 -0.1576 -0.5026
 3024SOL    HW120531   2.862   2.733  12.655  0.3658 -0.0997 -0.2689
 3024SOL    HW220532   2.798   2.607  12.659 -0.1723  1.1014 -0.3187
 3025SOL     OW20533   1.517   0.909   6.895 -0.2056 -0.9055 -0.3031
 3025SOL    HW120534   1.527   0.845   6.824  0.9164  0.2277 -1.1846
 3025SOL    HW220535   1.511   0.990   6.844  2.0880 -0.1440  0.6725
 3026SOL     OW20536   0.538   3.834   7.460 -0.8393 -0.4076 -0.2327
 3026SOL    HW120537   0.456   3.815   7.506  0.0568 -1.3587  0.9634
 3026SOL    HW220538   0.585   3.751   7.466 -0.0683  0.0228 -0.3296
 3027SOL     OW20539   3.939   3.240   5.672 -0.3682 -0.2549  0.0740
 3027SOL    HW120540   4.013   3.178   5.671  0.8536  1.2340 -0.9664
 3027SOL    HW220541   3.863   3.182   5.682  1.4209 -2.5246  0.5779
 3028SOL     OW20542   1.760   2.515   8.801 -0.0916 -0.6321 -0.0492
 3028SOL    HW120543   1.809   2.512   8.883  1.0108 -0.9780 -0.7164
 3028SOL    HW220544   1.815   2.566   8.741 -0.8517  0.0711 -0.1512
 3029SOL     OW20545   2.510   0.483   0.613  0.0058 -0.6298 -0.3566
 3029SOL    HW120546   2.434   0.483   0.672  1.1534 -0.5597  1.1168
 3029SOL    HW220547   2.528   0.389   0.604  3.3679 -0.0770  0.7305
 3030SOL     OW20548   0.048   0.463  17.228 -0.3881 -0.1723 -0.2985
 3030SOL    HW120549   4.706   0.478  17.297  0.0732  1.1401 -0.1351
 3030SOL    HW220550   0.001   0.475  17.145 -0.9015 -0.4791 -0.0503
 3031SOL     OW20551   3.658   2.974   4.658 -0.2195  0.5668 -0.0821
 3031SOL    HW120552   3.573   2.940   4.687 -0.1439  0.4359 -0.0147
 3031SOL    HW220553   3.696   3.011   4.738 -1.6759 -0.8279  1.2429
 3032SOL     OW20554   2.907   4.088  15.130 -0.1658 -0.0168  0.1603
 3032SOL    HW120555   2.965   4.164  15.135  0.4766 -0.5045  0.1462
 3032SOL    HW220556   2.907   4.044  15.215  0.0704 -2.1122 -0.9390
 3033SOL     OW20557   4.457   0.719  12.976 -0.2935 -0.0613  0.0317
 3033SOL    HW120558   4.462   0.695  12.883 -0.1129 -0.9192  0.2648
 3033SOL    HW220559   4.400   0.647  13.003  1.9519 -1.5004  0.8748
 3034SOL     OW20560   4.090   1.629  13.213 -0.3060 -0.1630 -1.1659
 3034SOL    HW120561   4.037   1.582  13.147 -0.6952 -0.2793 -0.7684
 3034SOL    HW220562   4.025   1.646  13.280  0.8358 -0.4388  0.0114
 3035SOL     OW20563   2.760   3.786   4.332  0.0638  0.2089 -0.2551
 3035SOL    HW120564   2.706   3.707   4.330  0.4307 -0.0621  0.6509
 3035SOL    HW220565   2.733   3.843   4.404  2.2239  2.9629 -1.6237
 3036SOL     OW20566   4.390   0.113   0.179 -0.1274 -0.2113  0.2234
 3036SOL    HW120567   4.448   0.042   0.206 -1.1804 -0.6920  1.2595
 3036SOL    HW220568   4.309   0.063   0.167 -0.8211  1.1645 -0.7097
 3037SOL     OW20569   0.426   0.730   4.565 -0.0592 -0.7096  0.0159
 3037SOL    HW120570   0.386   0.759   4.647  1.5689  1.8221 -0.0878
 3037SOL    HW220571   0.515   0.700   4.584 -0.0772 -0.5365  0.3820
 3038SOL     OW20572   2.774   2.622  11.377  0.1782  0.3677  0.1728
 3038SOL    HW120573   2.735   2.671  11.449 -1.3396 -0.1378 -0.3125
 3038SOL    HW220574   2.745   2.673  11.301  0.5471 -0.4761 -0.5471
 3039SOL     OW20575   1.136   3.424   8.051  0.3200  0.8164 -0.4554
 3039SOL    HW120576   1.154   3.342   8.006  0.3433  0.3866  0.3463
 3039SOL    HW220577   1.053   3.405   8.095 -0.0390  2.2723 -0.4904
 3040SOL     OW20578   0.611   1.059  12.966 -0.4285  0.1623  0.3888
 3040SOL    HW120579   0.705   1.055  12.950 -0.0343  2.0476  2.2258
 3040SOL    HW220580   0.573   1.040  12.880  1.7544 -2.5552  0.0210
 3041SOL     OW20581   1.160   3.200   2.812 -0.6835  0.8804  0.1346
 3041SOL    HW120582   1.095   3.134   2.787 -0.9212  1.0894  0.2031
 3041SOL    HW220583   1.155   3.256   2.735  1.0727 -2.1487 -2.1801
 3042SOL     OW20584   3.536   3.049  17.182 -0.2423  0.2576 -0.7245
 3042SOL    HW120585   3.544   2.956  17.159  0.1388  0.6032 -2.0142
 3042SOL    HW220586   3.616   3.061  17.232 -0.6105 -3.4244  0.7781
 3043SOL     OW20587   0.322   1.491   3.577  0.1032  0.5656 -0.4611
 3043SOL    HW120588   0.401   1.459   3.534 -0.2053 -0.1539 -0.4981
 3043SOL    HW220589   0.349   1.469   3.666 -0.0288 -0.2792 -0.6271
 3044SOL     OW20590   3.971   2.788   1.796  0.2586 -0.4078 -0.1096
 3044SOL    HW120591   4.047   2.826   1.839 -0.2232 -0.4049  0.7452
 3044SOL    HW220592   3.903   2.793   1.863  1.5825 -2.2196  1.3502
 3045SOL     OW20593   3.694   2.171  10.041  0.2889  0.1898 -0.1511
 3045SOL    HW120594   3.677   2.166   9.947 -1.4305 -3.9416  0.3598
 3045SOL    HW220595   3.697   2.079  10.068  0.7289  0.3555  0.3516
 3046SOL     OW20596   1.003   1.844   5.140  0.5986  0.4517  0.1172
 3046SOL    HW120597   0.982   1.802   5.056 -1.0567  1.3273  0.0929
 3046SOL    HW220598   1.092   1.879   5.130  0.1191  0.9547 -2.4057
 3047SOL     OW20599   0.917   4.168   8.556  0.3145  0.0202  0.1707
 3047SOL    HW120600   0.965   4.238   8.601  0.0905  1.9895 -2.6282
 3047SOL    HW220601   0.924   4.212   8.472  1.0568 -0.1534  0.1412
 3048SOL     OW20602   4.192   3.897   5.236  0.3860 -0.2173  0.3005
 3048SOL    HW120603   4.272   3.945   5.215  0.8057 -0.3915  1.5084
 3048SOL    HW220604   4.232   3.811   5.245  0.1103 -0.3265  0.4671
 3049SOL     OW20605   4.665   2.068  13.455 -0.1992  0.7355 -0.6138
 3049SOL    HW120606   4.616   2.121  13.518 -0.7663 -1.6862  0.9886
 3049SOL    HW220607   4.606   2.058  13.379 -0.4177  2.0063 -0.6010
 3050SOL     OW20608   2.296   2.890  14.964 -0.0212 -0.4650  0.5169
 3050SOL    HW120609   2.322   2.922  14.877  0.7750  2.0086  1.6393
 3050SOL    HW220610   2.381   2.874  15.004  1.1085 -0.7219 -1.9932
 3051SOL     OW20611   1.218   3.568   6.861  0.3169  0.4309 -0.7109
 3051SOL    HW120612   1.270   3.631   6.812  0.4408  2.6048  2.1797
 3051SOL    HW220613   1.266   3.487   6.844  0.8584  0.5571  0.2366
 3052SOL     OW20614   2.464   0.070   8.348  0.6795  0.8390  0.0833
 3052SOL    HW120615   2.472   4.718   8.289  1.8989 -0.2825  1.6980
 3052SOL    HW220616   2.550   0.110   8.337  1.2047 -0.8731 -1.9908
 3053SOL     OW20617   3.005   1.828  17.460 -0.7485 -0.4166 -0.2295
 3053SOL    HW120618   2.922   1.837  17.507  1.3245  0.7164  3.1766
 3053SOL    HW220619   3.026   1.921  17.453 -1.1018 -0.1748  1.8084
 3054SOL     OW20620   2.879   2.414   9.411  0.0957 -0.2078 -0.4454
 3054SOL    HW120621   2.893   2.421   9.505 -1.0261  2.2768 -0.4627
 3054SOL    HW220622   2.877   2.321   9.389 -0.6846 -0.4378  0.6034
 3055SOL     OW20623   4.526   1.440   8.029  0.1008 -0.3688 -0.3247
 3055SOL    HW120624   4.509   1.485   8.112 -0.5967 -0.6682 -0.2956
 3055SOL    HW220625   4.458   1.484   7.978 -0.8055  0.0272  1.2194
 3056SOL     OW20626   0.113   3.780   2.294  0.1521  0.0046 -0.0156
 3056SOL    HW120627   0.173   3.817   2.358  0.3622  1.8085 -1.2668
 3056SOL    HW220628   0.158   3.701   2.263 -1.0008 -0.0075 -1.6275
 3057SOL     OW20629   1.506   0.977   3.033 -0.3927  0.1591 -0.0568
 3057SOL    HW120630   1.505   1.072   3.044  0.8111  0.1520  0.1905
 3057SOL    HW220631   1.451   0.969   2.955 -2.1086  2.5714  0.9316
 3058SOL     OW20632   2.852   0.642   6.757 -0.2047  0.4322  0.8810
 3058SOL    HW120633   2.833   0.564   6.704  1.5998  0.8477 -0.3943
 3058SOL    HW220634   2.781   0.645   6.821 -0.7069 -2.0612  0.4547
 3059SOL     OW20635   0.305   1.288   7.886  0.2790  0.2097 -0.0779
 3059SOL    HW120636   0.341   1.199   7.883  0.1778  0.2504 -2.4641
 3059SOL    HW220637   0.212   1.269   7.884  0.4048 -0.3568 -0.6468
 3060SOL     OW20638   3.582   0.324   5.755 -0.0644 -0.7358 -0.2137
 3060SOL    HW120639   3.525   0.251   5.728  0.7426 -0.8639 -1.5749
 3060SOL    HW220640   3.572   0.393   5.690  0.7288  1.0254  1.5493
 3061SOL     OW20641   3.809   3.029   6.505 -0.3691 -0.2611  0.6474
 3061SOL    HW120642   3.870   3.091   6.546 -2.5600  1.4134  1.3486
 3061SOL    HW220643   3.788   3.069   6.421  2.1919  0.5544  0.3855
 3062SOL     OW20644   1.127   0.927   9.832  0.3550 -0.3839  0.4210
 3062SOL    HW120645   1.082   0.988   9.890 -0.8239 -0.0071 -0.8872
 3062SOL    HW220646   1.119   0.836   9.861  0.1775 -0.7659 -0.8122
 3063SOL     OW20647   0.460   4.454   3.876  0.1797  0.3372  0.7048
 3063SOL    HW120648   0.435   4.413   3.793  1.5009  3.8175 -1.3783
 3063SOL    HW220649   0.523   4.519   3.847  1.5557 -1.5159 -0.4474
 3064SOL     OW20650   4.269   0.886   6.326  0.3713 -0.1214  0.1946
 3064SOL    HW120651   4.361   0.861   6.338  0.3140 -0.9177 -1.0506
 3064SOL    HW220652   4.262   0.979   6.348  0.7024  0.4717 -2.2175
 3065SOL     OW20653   3.914   0.814   2.105  0.4136  0.0550  0.4842
 3065SOL    HW120654   3.827   0.782   2.125 -0.0393  1.7229  1.2003
 3065SOL    HW220655   3.955   0.729   2.088 -0.5187 -0.1034 -0.9865
 3066SOL     OW20656   4.411   0.169   3.604 -0.2340 -0.3773  0.2830
 3066SOL    HW120657   4.432   0.104   3.670  0.1732  0.1924  0.7200
 3066SOL    HW220658   4.317   0.172   3.619  0.0484  1.0418  1.8088
 3067SOL     OW20659   2.708   3.318   5.430  0.3214 -0.0968 -0.4490
 3067SOL    HW120660   2.792   3.273   5.432  1.4478  2.0745  1.2481
 3067SOL    HW220661   2.724   3.389   5.492  2.4019  0.0099 -1.1003
 3068SOL     OW20662   4.241   2.119   6.091  0.3838 -0.0423 -0.0603
 3068SOL    HW120663   4.215   2.164   6.010 -1.4570 -1.0586 -0.0465
 3068SOL    HW220664   4.325   2.084   6.062 -0.2603 -2.3984  0.9685
 3069SOL     OW20665   1.715   1.461   1.657 -0.1598 -0.1780  0.3415
 3069SOL    HW120666   1.747   1.549   1.636 -1.4933 -0.1709 -1.6912
 3069SOL    HW220667   1.743   1.462   1.749  0.9532  0.1858  0.0026
 3070SOL     OW20668   3.319   3.320   3.835  0.0895  0.3780  0.4760
 3070SOL    HW120669   3.285   3.362   3.756  2.3311  3.2045  1.0041
 3070SOL    HW220670   3.377   3.250   3.804  1.7848  1.5049  1.1352
 3071SOL     OW20671   2.367   0.688   0.015 -0.1341 -0.4513 -0.3646
 3071SOL    HW120672   2.332   0.775   0.036  0.0393  0.0831 -2.2821
 3071SOL    HW220673   2.402   0.697  17.620  2.9705  0.1350  0.9366
 3072SOL     OW20674   4.467   2.333   5.434  0.0291 -0.4186 -0.0641
 3072SOL    HW120675   4.558   2.343   5.462  0.1697 -0.1424 -0.6401
 3072SOL    HW220676   4.443   2.279   5.510 -1.0529 -0.2197 -0.2656
 3073SOL     OW20677   1.324   2.507   0.690  0.2486 -0.3073  0.1018
 3073SOL    HW120678   1.284   2.583   0.731  3.1327  2.0462 -1.4594
 3073SOL    HW220679   1.246   2.461   0.659  0.0305 -0.6911  1.2125
 3074SOL     OW20680   0.399   4.681  13.520 -0.2378  0.4093  0.0492
 3074SOL    HW120681   0.432   4.597  13.552  0.3514  0.7783  0.4211
 3074SOL    HW220682   0.476   0.014  13.532  0.9751 -0.7534 -2.3006
 3075SOL     OW20683   2.792   1.154   6.234 -0.1739  0.6192 -0.3571
 3075SOL    HW120684   2.826   1.065   6.222  0.9829  1.1769 -1.1719
 3075SOL    HW220685   2.714   1.154   6.178 -0.1393 -1.8301 -0.4149
 3076SOL     OW20686   1.167   3.036   3.573  0.3236 -0.1424  0.4215
 3076SOL    HW120687   1.175   2.941   3.561  1.1341  0.2512 -2.1166
 3076SOL    HW220688   1.101   3.064   3.508  0.0277  1.0222  1.2373
 3077SOL     OW20689   4.386   3.117   0.229 -0.2268  0.0550 -0.5477
 3077SOL    HW120690   4.407   3.075   0.312  2.1671  1.9999 -0.1845
 3077SOL    HW220691   4.295   3.144   0.244 -0.7608 -0.4371 -2.8624
 3078SOL     OW20692   3.360   3.041  10.052  0.6049  0.2674 -0.0770
 3078SOL    HW120693   3.414   2.969  10.086  1.8886  1.0377 -0.4731
 3078SOL    HW220694   3.418   3.116  10.068 -0.0698  0.7830 -0.0759
 3079SOL     OW20695   2.254   1.375   5.299  0.1818  0.1441 -0.2725
 3079SOL    HW120696   2.272   1.282   5.303 -1.2121 -0.1815 -1.7216
 3079SOL    HW220697   2.249   1.383   5.204 -0.8963 -0.9988 -0.3063
 3080SOL     OW20698   1.272   0.310  15.193 -0.5958  0.2375 -0.3378
 3080SOL    HW120699   1.180   0.322  15.169 -0.5943  0.0192 -0.4500
 3080SOL    HW220700   1.306   0.397  15.215 -1.4446  0.7118 -0.8686
 3081SOL     OW20701   2.660   2.791  11.023  0.4100 -0.0569  0.5377
 3081SOL    HW120702   2.607   2.825  11.095  1.9085 -0.2907  1.7486
 3081SOL    HW220703   2.626   2.701  11.019 -0.0263  0.0948  0.8894
 3082SOL     OW20704   1.747   1.414   3.167  0.1783  0.6670 -0.1919
 3082SOL    HW120705   1.673   1.385   3.113 -2.5371  4.1672  1.5983
 3082SOL    HW220706   1.743   1.363   3.247  1.9183  0.1011 -0.4621
 3083SOL     OW20707   2.186   0.075  14.401 -0.4590 -0.6919 -0.2658
 3083SOL    HW120708   2.129   0.013  14.448 -2.3736  0.6595 -0.7734
 3083SOL    HW220709   2.158   0.159  14.439 -0.9079 -0.8966 -0.1425
 3084SOL     OW20710   0.610   3.838   8.820 -0.2751 -0.3458 -0.0933
 3084SOL    HW120711   0.601   3.927   8.786 -0.3059  0.5566  2.2110
 3084SOL    HW220712   0.680   3.804   8.764  0.1890 -0.5957  0.6307
 3085SOL     OW20713   0.139   1.323   1.138  0.0249 -0.2645  0.1594
 3085SOL    HW120714   0.129   1.235   1.102 -0.7963 -1.2433  2.7287
 3085SOL    HW220715   0.047   1.336   1.161 -0.0328 -0.2020 -0.1134
 3086SOL     OW20716   4.625   4.086   6.646  0.2383  0.2674 -0.1226
 3086SOL    HW120717   4.687   4.039   6.703  0.2061  0.7966  0.3530
 3086SOL    HW220718   4.545   4.064   6.694 -1.9699  3.0718 -2.5830
 3087SOL     OW20719   1.189   3.548   5.957  0.1906 -0.7111 -0.0935
 3087SOL    HW120720   1.282   3.526   5.962  0.9882  2.3072 -1.7132
 3087SOL    HW220721   1.162   3.469   5.910 -1.7437  1.3021 -2.3046
 3088SOL     OW20722   1.211   2.220   8.722  0.4871  0.2240  0.0565
 3088SOL    HW120723   1.251   2.237   8.637 -2.0530  0.3100 -1.1148
 3088SOL    HW220724   1.127   2.183   8.698  1.1903 -0.4241 -1.3543
 3089SOL     OW20725   1.471   4.178   2.516  0.8888  0.0550  0.2445
 3089SOL    HW120726   1.474   4.185   2.611 -1.0161 -1.1182  0.3893
 3089SOL    HW220727   1.400   4.116   2.503  0.4856  1.2952 -3.4459
 3090SOL     OW20728   4.391   3.218   6.018 -0.1864  0.4522 -0.0419
 3090SOL    HW120729   4.435   3.137   5.991  1.5056  1.9755 -1.7742
 3090SOL    HW220730   4.460   3.282   6.004  0.7119 -1.1551 -2.9198
 3091SOL     OW20731   2.826   3.542   1.947  0.1248 -0.5997  0.0592
 3091SOL    HW120732   2.891   3.501   2.004  0.3546 -2.0275 -1.2181
 3091SOL    HW220733   2.888   3.586   1.889 -0.7002  4.6031  3.1095
 3092SOL     OW20734   3.578   1.475   5.599 -0.4206  0.3128 -0.5332
 3092SOL    HW120735   3.503   1.488   5.541 -1.9481 -2.4475  0.7935
 3092SOL    HW220736   3.646   1.520   5.550 -1.8712  0.3889 -2.4547
 3093SOL     OW20737   0.179   0.490   8.275  0.3358 -0.4030  0.2030
 3093SOL    HW120738   0.247   0.432   8.311 -0.3712 -1.6625 -0.4819
 3093SOL    HW220739   0.103   0.435   8.297 -0.3326  0.7430  0.7186
 3094SOL     OW20740   4.140   4.685   4.206 -0.0028  0.7450  0.1358
 3094SOL    HW120741   4.187   4.715   4.284 -0.6583 -1.0049  1.2141
 3094SOL    HW220742   4.055   4.691   4.249 -1.8270  1.1218 -3.5606
 3095SOL     OW20743   3.369   4.235  12.731 -0.2687 -0.1393  0.1219
 3095SOL    HW120744   3.332   4.319  12.756 -0.2307  0.1098 -0.6474
 3095SOL    HW220745   3.462   4.258  12.727 -0.1970 -0.5717 -0.9072
 3096SOL     OW20746   4.520   2.486   6.515  0.0440 -0.0397 -0.6439
 3096SOL    HW120747   4.429   2.469   6.490 -0.6138  0.3432  1.4811
 3096SOL    HW220748   4.504   2.477   6.609  1.1291  2.9466 -0.1755
 3097SOL     OW20749   1.414   1.730   3.093  0.0927 -0.4042 -0.1760
 3097SOL    HW120750   1.392   1.810   3.045 -0.3054 -0.9851 -0.9602
 3097SOL    HW220751   1.387   1.766   3.178 -0.8065 -0.6584 -0.3578
 3098SOL     OW20752   1.351   3.757   5.502 -0.5262  0.5580  0.1012
 3098SOL    HW120753   1.427   3.701   5.483  0.7110  2.1091  0.5279
 3098SOL    HW220754   1.271   3.704   5.499  0.1755 -0.2901 -2.9499
 3099SOL     OW20755   1.833   0.665   1.335 -0.3976  0.1340  0.6071
 3099SOL    HW120756   1.856   0.574   1.353 -1.2159 -0.0917  0.5113
 3099SOL    HW220757   1.888   0.710   1.399 -2.0887  1.0784  1.3883
 3100SOL     OW20758   3.868   3.761   8.557  0.2249 -1.3244 -0.6199
 3100SOL    HW120759   3.932   3.707   8.510  0.8372 -0.2672 -0.9825
 3100SOL    HW220760   3.885   3.851   8.531  0.2834 -0.9606  0.7033
 3101SOL     OW20761   1.354   3.488   5.221  0.0633 -0.2499 -0.0489
 3101SOL    HW120762   1.347   3.416   5.284 -0.8342  0.2317  0.4094
 3101SOL    HW220763   1.411   3.455   5.152 -0.0584 -3.3379  1.3099
 3102SOL     OW20764   3.519   2.136   6.679  0.1205  0.2628  0.3452
 3102SOL    HW120765   3.575   2.065   6.711 -0.1538 -1.6173 -3.3739
 3102SOL    HW220766   3.436   2.116   6.723 -0.7858  1.4286 -0.8712
 3103SOL     OW20767   1.912   4.716   3.733 -0.1786 -0.1007  0.0485
 3103SOL    HW120768   1.902   4.633   3.778  0.2840 -1.6445 -2.6682
 3103SOL    HW220769   1.879   4.692   3.646  0.0677  2.2116 -0.6958
 3104SOL     OW20770   0.580   1.819  11.240  0.4286 -0.3340 -0.1521
 3104SOL    HW120771   0.491   1.784  11.242  0.3815 -0.2850 -1.3163
 3104SOL    HW220772   0.573   1.895  11.183  0.1534  0.9081  1.5266
 3105SOL     OW20773   1.375   1.650   8.406 -0.3339 -0.3063  0.5520
 3105SOL    HW120774   1.456   1.608   8.436 -0.1968 -0.5813 -0.2085
 3105SOL    HW220775   1.394   1.743   8.410 -0.4301 -0.1967 -1.9268
 3106SOL     OW20776   3.013   1.977   7.277 -0.2895  0.2377 -0.0994
 3106SOL    HW120777   3.010   1.981   7.182 -1.3519 -1.7613 -0.1468
 3106SOL    HW220778   3.023   2.069   7.303  1.9683  0.1177 -0.4911
 3107SOL     OW20779   3.479   2.330   2.705  0.2717 -0.0551  0.1977
 3107SOL    HW120780   3.479   2.298   2.795 -1.5786  1.2155  0.6381
 3107SOL    HW220781   3.516   2.252   2.664  1.0568  0.2168  0.3766
 3108SOL     OW20782   1.664   4.431   1.430 -0.2634  0.1428 -0.0593
 3108SOL    HW120783   1.709   4.391   1.505  1.1039 -0.6968 -1.3295
 3108SOL    HW220784   1.573   4.411   1.453 -0.3582 -0.9041 -1.3140
 3109SOL     OW20785   3.200   2.623   6.998 -0.5098 -0.1728 -0.0766
 3109SOL    HW120786   3.190   2.547   7.056 -2.0758  0.3395  0.3232
 3109SOL    HW220787   3.289   2.615   6.964 -0.2394 -0.0653  0.5883
 3110SOL     OW20788   1.362   2.185   5.646 -0.0118  0.2581 -0.0988
 3110SOL    HW120789   1.403   2.197   5.561  0.5880  0.7613  0.2551
 3110SOL    HW220790   1.388   2.269   5.684 -0.7690  0.7660 -0.7138
 3111SOL     OW20791   3.249   2.391   6.033  0.3628 -0.0063 -0.6298
 3111SOL    HW120792   3.283   2.328   6.095 -1.6327  0.2110  0.6749
 3111SOL    HW220793   3.264   2.354   5.945 -0.5266 -3.2437  0.5815
 3112SOL     OW20794   3.624   1.236   6.284  0.0185  0.5375  0.1783
 3112SOL    HW120795   3.564   1.240   6.358 -1.0298 -2.7515 -0.4904
 3112SOL    HW220796   3.580   1.293   6.222  0.9598 -1.4827 -2.3614
 3113SOL     OW20797   3.063   0.772   5.741  0.0600  0.2409 -0.1003
 3113SOL    HW120798   3.143   0.773   5.794  2.3602 -0.1547 -3.5991
 3113SOL    HW220799   3.016   0.694   5.774  1.3878  0.4135  2.2274
 3114SOL     OW20800   3.372   2.891  14.272 -0.0053 -0.0777  1.3490
 3114SOL    HW120801   3.449   2.936  14.239  0.3821 -2.6525 -1.2841
 3114SOL    HW220802   3.307   2.959  14.293 -1.6099 -0.9124 -0.9536
 3115SOL     OW20803   2.910   3.174   3.995 -0.0143 -0.2639 -0.2664
 3115SOL    HW120804   2.869   3.260   3.993  1.5889  0.5069 -0.1277
 3115SOL    HW220805   2.843   3.118   4.036 -0.8327  0.5706 -0.4687
 3116SOL     OW20806   2.756   3.216   6.398  0.1476 -0.4073 -0.3479
 3116SOL    HW120807   2.805   3.136   6.417 -0.3960 -1.0725 -1.8012
 3116SOL    HW220808   2.674   3.196   6.442 -0.9230  2.2126 -1.1831
 3117SOL     OW20809   0.496   1.580  12.858  0.1971  0.2171 -0.1210
 3117SOL    HW120810   0.541   1.498  12.878 -0.8515  0.1824  2.0918
 3117SOL    HW220811   0.405   1.551  12.862 -0.0093  0.6511 -1.6431
 3118SOL     OW20812   3.375   0.147   8.493 -0.3988  0.2273  0.4422
 3118SOL    HW120813   3.350   0.110   8.577  1.1622 -0.6151  0.5165
 3118SOL    HW220814   3.412   0.229   8.527 -1.2457  1.2589 -1.0662
 3119SOL     OW20815   3.077   4.418   1.783  0.1807  0.3942 -0.3317
 3119SOL    HW120816   3.046   4.397   1.871  0.0554 -1.5277 -0.8241
 3119SOL    HW220817   3.145   4.483   1.801 -1.4829  2.6172 -2.1812
 3120SOL     OW20818   0.039   2.240  11.757  0.3792 -0.2438 -0.8049
 3120SOL    HW120819   0.036   2.169  11.820  2.4312  1.7883  1.6188
 3120SOL    HW220820   0.043   2.180  11.683 -0.4787  0.8878 -1.7721
 3121SOL     OW20821   2.042   3.287  15.765  0.2813 -0.2557 -0.7860
 3121SOL    HW120822   1.995   3.347  15.707  0.4027 -0.2962 -0.9282
 3121SOL    HW220823   2.017   3.199  15.738  0.5213 -1.3629  2.5699
 3122SOL     OW20824   1.989   0.046   7.528  0.1897  0.3148  0.0706
 3122SOL    HW120825   2.059   0.111   7.520  1.2420 -0.5293  2.6093
 3122SOL    HW220826   1.998   0.032   7.622 -0.4968  2.1030  0.3988
 3123SOL     OW20827   1.672   2.855  11.202  0.3602  0.7971 -0.3235
 3123SOL    HW120828   1.747   2.816  11.248 -1.4097 -1.1575  0.9287
 3123SOL    HW220829   1.619   2.875  11.279 -1.1528 -1.1857 -0.8456
 3124SOL     OW20830   3.775   4.173   7.494  0.2605  0.2737  0.1666
 3124SOL    HW120831   3.857   4.223   7.495 -1.0633  2.4900 -2.2413
 3124SOL    HW220832   3.718   4.227   7.549 -0.3192  1.2030 -1.3580
 3125SOL     OW20833   4.091   2.425  16.042 -0.4605 -0.2054  0.5803
 3125SOL    HW120834   4.043   2.424  16.125 -1.1697  0.6379  0.1791
 3125SOL    HW220835   4.028   2.374  15.990 -1.0021  1.4378 -0.3491
 3126SOL     OW20836   3.632   4.302  12.704 -0.6114  0.0828 -0.4874
 3126SOL    HW120837   3.630   4.397  12.695 -1.1067 -0.1414 -2.9185
 3126SOL    HW220838   3.719   4.277  12.734 -0.2430  0.0380 -1.5936
 3127SOL     OW20839   1.794   4.238   6.911 -0.1021  0.0210 -0.8524
 3127SOL    HW120840   1.786   4.187   6.992  3.0912  0.9720  0.0525
 3127SOL    HW220841   1.792   4.327   6.946  1.3676 -0.8242  1.3561
 3128SOL     OW20842   0.819   1.619   6.273 -0.0730  0.4607  0.9379
 3128SOL    HW120843   0.853   1.607   6.362 -0.5264  0.8932  1.1709
 3128SOL    HW220844   0.727   1.597   6.286  0.0537 -0.5087  0.1900
 3129SOL     OW20845   1.466   3.190  10.721 -0.3144 -0.3603  0.0629
 3129SOL    HW120846   1.546   3.242  10.733 -2.3009  2.5302  0.8175
 3129SOL    HW220847   1.446   3.196  10.815  2.9830  0.1536  0.7453
 3130SOL     OW20848   0.697   2.328  14.468  0.0881 -0.0397 -0.9161
 3130SOL    HW120849   0.650   2.403  14.431  1.0116  0.5320 -0.9262
 3130SOL    HW220850   0.781   2.371  14.488 -0.6811  1.4729 -0.9268
 3131SOL     OW20851   4.611   3.025   8.364 -0.2984 -0.2317 -0.2459
 3131SOL    HW120852   4.638   2.987   8.448  1.4371 -0.2011 -0.7806
 3131SOL    HW220853   4.587   2.956   8.304 -0.1064  0.7391 -1.4455
 3132SOL     OW20854   0.907   1.614  15.117  0.3937  0.1953  0.0229
 3132SOL    HW120855   0.937   1.535  15.162  2.0796 -0.0518 -1.5525
 3132SOL    HW220856   0.902   1.662  15.200  1.5560 -0.2594  0.3661
 3133SOL     OW20857   0.399   0.658  11.528  0.3859 -0.0441  0.4873
 3133SOL    HW120858   0.474   0.662  11.469 -0.0770  1.9129  0.0212
 3133SOL    HW220859   0.439   0.616  11.604  1.2894  2.7736  1.5940
 3134SOL     OW20860   3.351   3.109  10.506  0.4133 -0.3375 -0.3016
 3134SOL    HW120861   3.358   3.025  10.461 -1.2526  0.1365 -1.4393
 3134SOL    HW220862   3.277   3.148  10.460  0.6846  1.6648  0.9655
 3135SOL     OW20863   3.089   1.645  14.391  0.1874  0.1544  0.0371
 3135SOL    HW120864   3.115   1.616  14.304  0.4210 -0.0174  0.1644
 3135SOL    HW220865   3.144   1.722  14.404 -0.4619  0.5309  0.5611
 3136SOL     OW20866   1.716   3.920   4.162 -0.1670 -0.3904  0.3602
 3136SOL    HW120867   1.734   3.882   4.076 -1.5666  0.6497 -0.3934
 3136SOL    HW220868   1.671   3.846   4.202  0.5617 -0.5083  0.9615
 3137SOL     OW20869   0.704   4.467   9.102  0.5692 -0.0316  0.0487
 3137SOL    HW120870   0.775   4.474   9.166  1.0144 -0.4301 -0.3984
 3137SOL    HW220871   0.676   4.556   9.083 -0.6130 -0.2489  0.7834
 3138SOL     OW20872   4.123   1.888   8.327 -0.1692 -0.0832 -0.1111
 3138SOL    HW120873   4.080   1.953   8.270 -1.5894  0.6219  1.7589
 3138SOL    HW220874   4.081   1.921   8.406  1.8767 -2.6547  2.0475
 3139SOL     OW20875   2.868   3.313   9.598 -0.5059 -0.2967  0.2813
 3139SOL    HW120876   2.867   3.218   9.616  1.8255  0.0905  2.5614
 3139SOL    HW220877   2.874   3.357   9.683 -3.1839  1.6862 -0.5736
 3140SOL     OW20878   1.000   4.426   9.691  0.0597 -0.3931  0.1676
 3140SOL    HW120879   1.092   4.445   9.673 -0.3511 -1.7782 -3.3962
 3140SOL    HW220880   1.005   4.335   9.719 -0.1177  0.0434  1.6063
 3141SOL     OW20881   0.281   3.188  16.940  0.6500  0.5282 -0.1118
 3141SOL    HW120882   0.360   3.161  16.985  1.0375  0.4182 -0.8564
 3141SOL    HW220883   0.297   3.154  16.851  3.0716  1.1426  0.1078
 3142SOL     OW20884   4.571   3.317  11.122 -0.6639  0.2865 -0.1234
 3142SOL    HW120885   4.513   3.242  11.132 -0.2745  0.0946  0.6861
 3142SOL    HW220886   4.545   3.371  11.196 -0.3014 -1.5630  1.3586
 3143SOL     OW20887   3.747   1.261   4.944  0.1762  0.6154  0.2495
 3143SOL    HW120888   3.673   1.249   4.885 -0.6991  1.8940  1.0902
 3143SOL    HW220889   3.738   1.354   4.964  1.8507  1.3581 -2.4101
 3144SOL     OW20890   3.120   0.327  17.282 -0.8181  0.0416 -0.4150
 3144SOL    HW120891   3.135   0.367  17.196  2.7243  0.5140  0.4223
 3144SOL    HW220892   3.065   0.391  17.327  1.8122  1.3549  0.9332
 3145SOL     OW20893   2.050   1.599   0.740  0.3551 -0.1057  0.0186
 3145SOL    HW120894   1.968   1.582   0.787  0.0357 -0.6097 -0.7228
 3145SOL    HW220895   2.095   1.656   0.803 -0.9132  0.2947  0.5760
 3146SOL     OW20896   3.483   3.560   3.915 -0.4174 -0.7951  0.3970
 3146SOL    HW120897   3.568   3.519   3.897  0.5184  1.7700 -0.9945
 3146SOL    HW220898   3.427   3.484   3.903 -1.3110 -0.2440  1.1519
 3147SOL     OW20899   4.551   2.474   8.325  0.0814 -0.4512  0.2349
 3147SOL    HW120900   4.541   2.382   8.302 -0.1559 -0.6293  1.0498
 3147SOL    HW220901   4.457   2.492   8.330  0.1040 -0.2829  0.0391
 3148SOL     OW20902   3.451   1.789   9.502 -0.2165  0.2571 -0.2178
 3148SOL    HW120903   3.421   1.844   9.574 -0.1275 -0.3686  0.3021
 3148SOL    HW220904   3.376   1.787   9.444 -0.4803 -1.6057  0.1874
 3149SOL     OW20905   1.520   3.937  11.830  0.3022  0.1650  0.1069
 3149SOL    HW120906   1.568   3.960  11.750 -3.4746  1.2223 -1.8328
 3149SOL    HW220907   1.578   3.976  11.896 -1.6318 -0.1872  1.9998
 3150SOL     OW20908   3.552   1.213   0.804  0.4321 -0.0930 -0.2301
 3150SOL    HW120909   3.505   1.167   0.735  3.7398 -2.7651 -0.7300
 3150SOL    HW220910   3.525   1.305   0.801  2.0521  0.4402  1.5555
 3151SOL     OW20911   0.033   4.428   3.295 -0.5019 -0.6105  0.6921
 3151SOL    HW120912   4.714   4.489   3.356  1.8099  0.4243  1.2227
 3151SOL    HW220913   0.041   4.353   3.353  1.4360  1.0790  2.5974
 3152SOL     OW20914   0.991   0.444   1.787 -0.0497 -0.6978  0.2512
 3152SOL    HW120915   1.077   0.403   1.787  0.4634  0.3968  0.3888
 3152SOL    HW220916   0.940   0.376   1.832 -1.8355  1.0183  0.7981
 3153SOL     OW20917   3.639   0.205   7.161 -0.1051  0.2540 -0.4218
 3153SOL    HW120918   3.616   0.288   7.203 -2.4899 -1.2655  1.2616
 3153SOL    HW220919   3.734   0.199   7.171  0.0414  3.1666 -0.0202
 3154SOL     OW20920   3.592   1.262  12.285  0.0739  0.1636  0.3681
 3154SOL    HW120921   3.602   1.316  12.207  1.0787  0.0475  0.4113
 3154SOL    HW220922   3.514   1.210  12.264  0.5675 -0.3530 -0.1884
 3155SOL     OW20923   4.271   4.224  10.643 -0.2596  0.0704  0.1044
 3155SOL    HW120924   4.227   4.304  10.671  0.0453 -0.3156  1.6463
 3155SOL    HW220925   4.317   4.198  10.723 -0.6804  3.2788  1.3914
 3156SOL     OW20926   0.789   1.418   2.763  0.7603  0.0753 -0.6542
 3156SOL    HW120927   0.801   1.373   2.680 -0.4250 -0.9380 -0.2783
 3156SOL    HW220928   0.770   1.508   2.737 -1.4812  0.2454  1.5764
 3157SOL     OW20929   1.558   2.434   3.606 -0.3825  0.8608 -0.2482
 3157SOL    HW120930   1.609   2.418   3.685 -0.7742  0.2703 -0.1095
 3157SOL    HW220931   1.500   2.357   3.602  1.2095 -0.4316  2.1791
 3158SOL     OW20932   2.067   0.355  11.051 -0.1215  0.3558 -0.4399
 3158SOL    HW120933   2.046   0.370  11.143  0.7724  1.9396 -0.5011
 3158SOL    HW220934   1.985   0.377  11.007 -0.4562 -1.2306 -0.6046
 3159SOL     OW20935   1.007   3.129   6.108  0.0066 -0.1397 -0.2158
 3159SOL    HW120936   0.975   3.196   6.168  1.0882  0.3525 -0.1835
 3159SOL    HW220937   1.035   3.063   6.171 -0.7911  1.0139  1.3552
 3160SOL     OW20938   1.135   3.382   2.592  0.1875 -0.2021  0.3410
 3160SOL    HW120939   1.065   3.355   2.533 -1.2098 -0.2850  2.0470
 3160SOL    HW220940   1.202   3.428   2.542  1.5680 -1.9174  0.6026
 3161SOL     OW20941   3.003   1.781   5.710 -0.0470  0.1080 -0.0481
 3161SOL    HW120942   2.995   1.845   5.781  1.6053 -0.4118  0.6087
 3161SOL    HW220943   3.056   1.718   5.759  0.5532  1.5623  1.1610
 3162SOL     OW20944   0.190   3.306   5.900  0.3302  0.0980  0.1395
 3162SOL    HW120945   0.118   3.252   5.867 -2.1286  1.9353  2.5478
 3162SOL    HW220946   0.258   3.258   5.851 -1.1509 -1.9788  0.1082
 3163SOL     OW20947   3.013   2.043   4.326  0.2932  0.1087  0.4533
 3163SOL    HW120948   3.107   2.059   4.331  0.5336 -0.8486 -0.9359
 3163SOL    HW220949   2.997   2.051   4.232 -0.9275  0.6381  0.7103
 3164SOL     OW20950   0.129   1.648   6.912  0.2118 -0.2174  0.8679
 3164SOL    HW120951   0.218   1.665   6.944  0.3431 -1.3456  1.1015
 3164SOL    HW220952   0.083   1.653   6.996 -1.1430  1.3990  0.0301
 3165SOL     OW20953   4.523   1.564   3.000  0.6932 -0.0716  0.2511
 3165SOL    HW120954   4.588   1.526   3.059  0.8057  1.1843  0.9301
 3165SOL    HW220955   4.567   1.541   2.919  2.3692  1.9864  0.5604
 3166SOL     OW20956   0.444   4.374   7.906 -0.1830  0.3923 -0.3486
 3166SOL    HW120957   0.389   4.337   7.837 -1.7657  1.0017  0.6107
 3166SOL    HW220958   0.476   4.295   7.951 -2.0785 -0.4712 -0.4994
 3167SOL     OW20959   0.215   3.225   9.610 -0.3099 -0.6455  0.2198
 3167SOL    HW120960   0.296   3.243   9.657  0.0789 -1.1964 -0.2367
 3167SOL    HW220961   0.166   3.307   9.616  1.6298  0.5761 -0.8353
 3168SOL     OW20962   1.384   4.016  15.891  0.0358 -0.1292  0.2009
 3168SOL    HW120963   1.448   3.977  15.950  0.7446 -0.8461 -1.0519
 3168SOL    HW220964   1.397   3.963  15.813  0.8693 -0.4312  0.5519
 3169SOL     OW20965   1.656   1.185   7.701 -0.0377  0.4040  0.1622
 3169SOL    HW120966   1.663   1.270   7.658  0.1937  1.3267  2.0337
 3169SOL    HW220967   1.589   1.139   7.652  0.1023 -0.7255  1.0393
 3170SOL     OW20968   3.916   0.524   2.098 -0.1425  0.2480  0.2282
 3170SOL    HW120969   3.963   0.494   2.019  1.0405 -0.1236  1.0680
 3170SOL    HW220970   3.909   0.438   2.137 -2.3309  0.7117  0.8152
 3171SOL     OW20971   2.825   3.474   9.836 -0.3645 -0.3358  0.2026
 3171SOL    HW120972   2.749   3.474   9.894 -1.2998  0.6460 -1.0198
 3171SOL    HW220973   2.891   3.478   9.905 -1.2412  3.5858  0.7935
 3172SOL     OW20974   2.930   0.572   4.706 -0.5605  0.0870  0.2181
 3172SOL    HW120975   2.948   0.595   4.797 -0.8720 -0.0624  0.3190
 3172SOL    HW220976   3.014   0.548   4.667 -1.4583 -3.4615  0.4665
 3173SOL     OW20977   4.484   3.895   4.315  0.3390  0.1717  0.0658
 3173SOL    HW120978   4.532   3.965   4.360 -0.0837  0.2172  0.4493
 3173SOL    HW220979   4.553   3.829   4.315  0.5741  0.4123 -0.0462
 3174SOL     OW20980   3.749   4.567  10.787 -0.2836  0.3679  0.5769
 3174SOL    HW120981   3.836   4.570  10.827  0.8639 -0.0666 -1.8628
 3174SOL    HW220982   3.744   4.474  10.765 -0.1074  0.5632 -0.2860
 3175SOL     OW20983   2.027   0.636   4.813  0.0610  0.0815 -0.2832
 3175SOL    HW120984   2.004   0.561   4.758  0.2820 -1.1373  1.2946
 3175SOL    HW220985   1.966   0.703   4.784 -0.4075  0.4627  1.6034
 3176SOL     OW20986   2.784   4.429   9.003 -0.1810  0.6462 -0.0780
 3176SOL    HW120987   2.731   4.363   9.047  1.0701  0.5296  1.2742
 3176SOL    HW220988   2.748   4.507   9.045 -3.2268 -2.0168  2.2568
 3177SOL     OW20989   4.465   0.673   3.802 -0.1331 -0.6701  0.2031
 3177SOL    HW120990   4.406   0.697   3.874 -0.3846  0.7504 -0.4654
 3177SOL    HW220991   4.535   0.739   3.811 -0.1914 -0.8055  1.6412
 3178SOL     OW20992   3.665   2.416  11.179  0.0636  0.0010 -0.2822
 3178SOL    HW120993   3.582   2.374  11.201  0.6431 -0.2665  1.3647
 3178SOL    HW220994   3.692   2.444  11.266 -0.8772  1.5534 -0.5048
 3179SOL     OW20995   1.600   3.388   8.473  0.1809 -0.3218  0.5227
 3179SOL    HW120996   1.595   3.390   8.378  1.5493  0.5620  0.4631
 3179SOL    HW220997   1.541   3.313   8.482  0.2572 -0.5823 -1.2132
 3180SOL     OW20998   2.586   0.593   2.605  0.1776 -0.3837  0.1565
 3180SOL    HW120999   2.631   0.518   2.643  1.3946  0.0281 -0.4607
 3180SOL    HW221000   2.591   0.646   2.685 -0.2080 -1.0146  0.5993
 3181SOL     OW21001   2.742   3.024   9.549 -0.3804 -0.7497 -0.4316
 3181SOL    HW121002   2.742   2.993   9.639 -3.8432 -2.2167 -0.9457
 3181SOL    HW221003   2.836   3.006   9.537 -0.4865 -1.4494 -0.2021
 3182SOL     OW21004   1.429   2.219   8.016 -0.4706  0.2749 -0.0904
 3182SOL    HW121005   1.512   2.261   8.042  0.5514 -2.3674  0.8396
 3182SOL    HW221006   1.374   2.285   8.058  2.7538  3.3553 -0.6143
 3183SOL     OW21007   1.337   1.589   8.121 -0.1756  0.1606 -1.1116
 3183SOL    HW121008   1.345   1.627   8.209 -3.2877 -2.2148  0.2122
 3183SOL    HW221009   1.250   1.624   8.104 -0.9261 -1.0530  0.1990
 3184SOL     OW21010   0.528   0.638  15.233 -0.2325  0.3048 -0.1506
 3184SOL    HW121011   0.597   0.580  15.263 -1.5302 -0.8061  0.7043
 3184SOL    HW221012   0.572   0.720  15.254 -0.5238  0.4236  0.0044
 3185SOL     OW21013   3.243   3.627   7.879 -0.3208  0.0261 -0.0368
 3185SOL    HW121014   3.317   3.575   7.846  0.9670  1.4729  0.6011
 3185SOL    HW221015   3.233   3.712   7.837  0.5070  0.3209  0.3649
 3186SOL     OW21016   3.155   1.613   5.880  0.1663 -0.4615  0.3681
 3186SOL    HW121017   3.235   1.640   5.924  0.8916  1.4695 -2.1934
 3186SOL    HW221018   3.102   1.586   5.956  0.0262 -0.5971  0.2222
 3187SOL     OW21019   2.308   4.191  16.377 -0.0939 -0.5120  0.7532
 3187SOL    HW121020   2.363   4.163  16.304 -1.2656  0.7015 -0.5897
 3187SOL    HW221021   2.378   4.197  16.443  0.6045  1.1029 -0.1249
 3188SOL     OW21022   2.750   4.340  11.541 -0.0044  0.4184  0.5161
 3188SOL    HW121023   2.705   4.270  11.587 -0.0095  0.4201  0.5136
 3188SOL    HW221024   2.681   4.360  11.477 -0.1774  0.8356  0.8341
 3189SOL     OW21025   4.600   2.062   4.772 -0.2606  0.1314  0.2130
 3189SOL    HW121026   4.625   1.970   4.776  1.8117  0.6839  0.1716
 3189SOL    HW221027   4.524   2.054   4.714 -1.3761  0.5572  1.6399
 3190SOL     OW21028   3.753   1.680   6.283 -0.0677 -0.1094  0.1415
 3190SOL    HW121029   3.781   1.636   6.202 -2.0584  0.6449 -0.9486
 3190SOL    HW221030   3.658   1.679   6.276 -0.0348  1.6115 -0.6564
 3191SOL     OW21031   1.556   0.056   7.307  0.1449  0.5777  0.3439
 3191SOL    HW121032   1.639   0.009   7.309  0.3634  1.0281  1.7394
 3191SOL    HW221033   1.558   0.083   7.215 -1.0933  1.6425  0.6352
 3192SOL     OW21034   1.727   3.474  15.970 -0.1101 -0.3636 -0.1152
 3192SOL    HW121035   1.681   3.415  16.028  1.4736 -0.3081  1.2022
 3192SOL    HW221036   1.658   3.533  15.939 -1.9790 -2.8497 -0.6869
 3193SOL     OW21037   2.269   4.632  16.297 -0.5745  0.1906 -0.1619
 3193SOL    HW121038   2.274   4.708  16.238  0.7900 -0.5677 -1.0314
 3193SOL    HW221039   2.226   4.675  16.371 -0.3311 -0.6916  0.4888
 3194SOL     OW21040   1.030   4.355   8.971  0.1682 -0.4619 -0.2401
 3194SOL    HW121041   0.978   4.291   9.020  0.8234 -0.2280  0.7523
 3194SOL    HW221042   1.112   4.379   9.014 -0.9277  0.3409  1.3948
 3195SOL     OW21043   2.001   3.450   2.059 -0.1565 -0.1298  0.0523
 3195SOL    HW121044   2.043   3.378   2.106 -1.1762 -0.1242  0.9388
 3195SOL    HW221045   2.079   3.479   2.011 -0.6512  0.3723 -0.4462
 3196SOL     OW21046   2.780   0.429   6.586  0.2716  0.3951  0.1397
 3196SOL    HW121047   2.693   0.390   6.597  0.1719  0.3200 -0.8832
 3196SOL    HW221048   2.841   0.357   6.570  1.2163  1.0720  0.7106
 3197SOL     OW21049   3.118   2.506   4.694 -0.4001 -0.5551 -0.2656
 3197SOL    HW121050   3.056   2.438   4.722  0.5715  0.3363  4.0938
 3197SOL    HW221051   3.196   2.452   4.709  0.1828  0.0760 -1.0063
 3198SOL     OW21052   0.013   4.360   7.726  0.1348 -0.9690 -0.3645
 3198SOL    HW121053   4.688   4.379   7.806  1.3084 -0.0903  0.1327
 3198SOL    HW221054   4.663   4.365   7.665 -1.7751 -0.9469  1.9168
 3199SOL     OW21055   0.303   3.136   5.326  0.1744 -0.2820  0.0043
 3199SOL    HW121056   0.282   3.042   5.327  0.8454 -0.4075  2.5425
 3199SOL    HW221057   0.234   3.165   5.266  0.1730 -1.0597 -0.3829
 3200SOL     OW21058   1.027   3.215   3.074 -0.0879  0.0621  0.1744
 3200SOL    HW121059   1.075   3.220   2.991 -1.2952 -2.7289 -0.7005
 3200SOL    HW221060   1.067   3.282   3.129  1.6589  0.4977 -1.6361
 3201SOL     OW21061   3.014   3.354   5.705  0.3543  0.3790  0.3404
 3201SOL    HW121062   3.041   3.275   5.751 -2.5125 -0.5847  0.3675
 3201SOL    HW221063   3.005   3.321   5.616 -0.4813  1.1955  0.1141
 3202SOL     OW21064   1.716   0.101   2.845  0.2279  0.3580  0.0730
 3202SOL    HW121065   1.753   0.160   2.911  1.6285  0.9926 -1.3017
 3202SOL    HW221066   1.770   0.120   2.769  0.0284  1.7073  0.2568
 3203SOL     OW21067   1.351   3.640   6.246 -0.3391  0.0510 -0.7030
 3203SOL    HW121068   1.270   3.590   6.233 -0.6572 -0.0751  1.6784
 3203SOL    HW221069   1.380   3.603   6.329 -1.5894  0.2249 -0.1957
 3204SOL     OW21070   0.842   1.970  16.547 -0.2931 -0.3007  0.3016
 3204SOL    HW121071   0.848   1.896  16.486 -1.3362 -0.3834  0.3019
 3204SOL    HW221072   0.749   1.975  16.570  0.2333 -0.1374  2.3788
 3205SOL     OW21073   4.568   1.771   7.511 -0.0619 -0.8288 -0.5362
 3205SOL    HW121074   4.588   1.683   7.479  1.2780 -0.8636  0.3903
 3205SOL    HW221075   4.646   1.799   7.559 -2.1625  4.1897 -0.1167
 3206SOL     OW21076   3.516   3.552   2.997 -0.4285 -0.1212 -0.7285
 3206SOL    HW121077   3.533   3.646   2.989 -0.6939 -0.1185 -1.2188
 3206SOL    HW221078   3.526   3.534   2.904 -2.5277  3.3567 -1.6465
 3207SOL     OW21079   0.781   2.285   2.850  0.0898  0.1932 -0.3561
 3207SOL    HW121080   0.720   2.232   2.800  0.7157 -0.6368 -0.2336
 3207SOL    HW221081   0.861   2.275   2.797  1.2879 -0.9341  1.6880
 3208SOL     OW21082   3.014   3.133   7.636  0.1583  0.1238 -0.5740
 3208SOL    HW121083   2.978   3.080   7.565  1.6913 -0.5425 -0.8660
 3208SOL    HW221084   2.940   3.114   7.694  0.0674  1.4810 -0.2558
 3209SOL     OW21085   0.177   4.375   3.717 -0.2651 -0.0114  0.4380
 3209SOL    HW121086   0.267   4.345   3.703 -0.3769  0.9203 -2.1985
 3209SOL    HW221087   0.124   4.295   3.713  0.4217 -0.2790 -3.0783
 3210SOL     OW21088   2.909   3.002   6.466  0.2238  0.3996 -0.3348
 3210SOL    HW121089   2.991   2.966   6.432  0.9700  1.2198  0.6139
 3210SOL    HW221090   2.899   2.939   6.537 -3.6170 -0.9327 -2.0455
 3211SOL     OW21091   1.981   0.046  10.659 -0.3520 -0.3643 -0.4960
 3211SOL    HW121092   1.979   0.139  10.685  1.3479 -0.3554 -0.3904
 3211SOL    HW221093   1.901   0.039  10.608 -1.3846  1.2559  0.8891
 3212SOL     OW21094   0.224   4.060   5.513  0.6449 -0.1752 -0.1163
 3212SOL    HW121095   0.282   4.045   5.439 -0.2032 -0.5964 -0.6887
 3212SOL    HW221096   0.149   4.095   5.465  0.5861  1.0902  0.8894
 3213SOL     OW21097   1.347   2.311   2.875 -0.5198  0.2546 -0.0819
 3213SOL    HW121098   1.433   2.351   2.860 -0.7226  0.7337  0.0248
 3213SOL    HW221099   1.361   2.275   2.962  0.1042 -0.2830 -0.4056
 3214SOL     OW21100   0.783   4.597   4.097 -0.5695 -0.9788  0.3726
 3214SOL    HW121101   0.793   4.505   4.119 -1.0842 -1.3307 -0.8553
 3214SOL    HW221102   0.705   4.596   4.041 -1.0078 -2.6254  1.0221
 3215SOL     OW21103   3.297   0.569   7.410  0.5568 -0.3863 -0.8803
 3215SOL    HW121104   3.245   0.531   7.482  1.3835  0.1531  0.0074
 3215SOL    HW221105   3.241   0.574   7.333 -2.5387  2.0765  1.4802
 3216SOL     OW21106   0.738   1.069  10.842  0.3761 -0.2929  0.4857
 3216SOL    HW121107   0.831   1.077  10.863  0.8890 -1.0602 -1.4889
 3216SOL    HW221108   0.727   1.078  10.747  1.9928 -2.0613  0.1341
 3217SOL     OW21109   3.452   2.502   4.599 -0.0658 -0.2434 -0.7887
 3217SOL    HW121110   3.409   2.516   4.515 -2.1103  0.8022  0.4467
 3217SOL    HW221111   3.528   2.457   4.562  1.0901  1.0555 -0.0009
 3218SOL     OW21112   4.377   0.526   2.016 -0.0982 -0.2827 -0.0871
 3218SOL    HW121113   4.349   0.604   1.967 -0.6852 -0.4335  0.0159
 3218SOL    HW221114   4.456   0.561   2.058  1.0623 -4.8450  1.5267
 3219SOL     OW21115   1.984   0.423   7.248 -0.1683  0.4761  0.1976
 3219SOL    HW121116   2.065   0.451   7.291  0.9917 -1.3877 -0.7370
 3219SOL    HW221117   1.925   0.417   7.322  1.7732 -1.5069  1.5867
 3220SOL     OW21118   4.674   2.737   2.285 -0.4256  0.0720  0.2884
 3220SOL    HW121119   4.711   2.721   2.372  1.6320  0.6293 -0.4808
 3220SOL    HW221120   0.030   2.761   2.237 -1.1908 -0.9678 -1.4811
 3221SOL     OW21121   0.337   4.181   6.750 -0.1945 -0.2661 -0.1401
 3221SOL    HW121122   0.317   4.193   6.843 -0.9764 -0.3291 -0.3027
 3221SOL    HW221123   0.394   4.104   6.743  0.6823  0.3199  0.4866
 3222SOL     OW21124   0.766   3.683   1.204 -0.1576 -0.2201 -0.0364
 3222SOL    HW121125   0.748   3.606   1.150 -1.2057  1.4345 -2.0426
 3222SOL    HW221126   0.860   3.688   1.182 -0.6010  3.7045 -0.9539
 3223SOL     OW21127   2.005   3.285   0.288  0.6562  0.2412 -0.1133
 3223SOL    HW121128   2.096   3.265   0.311  0.9080  0.7743 -0.6811
 3223SOL    HW221129   1.999   3.375   0.320 -2.5238  0.6362 -1.8455
 3224SOL     OW21130   2.272   3.438   8.699 -0.8472 -0.0859  0.2239
 3224SOL    HW121131   2.301   3.477   8.782  3.2215 -0.7210 -0.8944
 3224SOL    HW221132   2.249   3.514   8.645  0.7268 -1.6571 -2.6534
 3225SOL     OW21133   1.741   3.326   5.851 -0.0239  0.2245 -0.4799
 3225SOL    HW121134   1.699   3.240   5.852  0.3971  0.0228  0.0670
 3225SOL    HW221135   1.691   3.373   5.918  0.8193  1.8166 -0.9539
 3226SOL     OW21136   0.575   3.796  17.174  0.1373 -0.1208 -0.2500
 3226SOL    HW121137   0.506   3.737  17.203 -0.9506  1.2483 -0.0309
 3226SOL    HW221138   0.564   3.872  17.231 -1.0256 -2.0910  2.1464
 3227SOL     OW21139   0.291   0.167   8.608 -1.1338  0.4456 -0.1220
 3227SOL    HW121140   0.362   0.192   8.668 -2.0922 -1.1937  1.7030
 3227SOL    HW221141   0.284   0.073   8.624  2.3071  0.5388  1.9905
 3228SOL     OW21142   1.030   0.060   4.801 -0.2464 -0.5033 -0.0853
 3228SOL    HW121143   0.957   0.102   4.756 -0.2012 -2.6013 -2.1486
 3228SOL    HW221144   0.990   0.062   4.888 -1.4871  0.5837 -0.6896
 3229SOL     OW21145   3.673   3.338  14.515  0.1935  0.1816 -0.4848
 3229SOL    HW121146   3.657   3.432  14.521  1.9219  0.3527  1.4550
 3229SOL    HW221147   3.761   3.340  14.553  0.5217 -1.7623 -1.1466
 3230SOL     OW21148   2.989   2.616   2.883 -0.4103  0.2508  0.0315
 3230SOL    HW121149   2.932   2.542   2.865  0.9244 -0.8901  0.5313
 3230SOL    HW221150   2.929   2.677   2.928 -0.5946 -0.4717  0.7619
 3231SOL     OW21151   0.379   2.635   8.836 -0.3608 -0.1486 -0.4285
 3231SOL    HW121152   0.381   2.611   8.743  0.8197 -0.3663 -0.3524
 3231SOL    HW221153   0.337   2.561   8.879 -0.6906 -0.2393 -0.9137
 3232SOL     OW21154   3.167   4.137   6.691 -0.7984 -0.1335  0.0209
 3232SOL    HW121155   3.157   4.079   6.615  0.3330 -1.5667  0.9554
 3232SOL    HW221156   3.232   4.197   6.655 -0.1688 -1.8516 -1.6987
 3233SOL     OW21157   3.173   1.627   5.055  1.2054  0.7299  0.1656
 3233SOL    HW121158   3.177   1.538   5.089 -1.8725  1.9080  3.5298
 3233SOL    HW221159   3.091   1.652   5.096 -0.3217 -1.6815 -1.4182
 3234SOL     OW21160   1.312   2.735  10.689  0.1455 -0.4024  0.0111
 3234SOL    HW121161   1.298   2.821  10.650  0.5833 -1.9285 -3.4907
 3234SOL    HW221162   1.408   2.736  10.692  0.0829  1.2916  1.4742
 3235SOL     OW21163   0.944   3.027   5.478 -0.5808  0.0737 -0.2646
 3235SOL    HW121164   0.987   2.942   5.468 -1.8603 -0.6129  0.1063
 3235SOL    HW221165   0.893   3.029   5.397  1.5889 -1.0911 -1.6746
 3236SOL     OW21166   1.437   3.614  12.655 -0.6904 -0.3212 -0.1634
 3236SOL    HW121167   1.482   3.603  12.571 -0.5446 -1.1006  0.0161
 3236SOL    HW221168   1.462   3.702  12.680  2.1182 -1.0976 -0.2174
 3237SOL     OW21169   4.553   3.372  12.436 -0.6476 -0.1406 -0.4192
 3237SOL    HW121170   4.534   3.443  12.498 -0.0974  0.8847 -1.4484
 3237SOL    HW221171   4.491   3.311  12.477 -1.2286  1.8561  1.6781
 3238SOL     OW21172   1.411   2.707   8.252 -0.2511  0.5719 -0.1264
 3238SOL    HW121173   1.369   2.698   8.337 -0.0827 -2.4000 -0.3632
 3238SOL    HW221174   1.352   2.778   8.226  1.1930  0.7596 -2.9876
 3239SOL     OW21175   2.639   2.990   1.166 -0.1975 -1.0083  0.0937
 3239SOL    HW121176   2.632   3.003   1.260 -1.0242 -0.9962  0.0273
 3239SOL    HW221177   2.700   3.061   1.146 -1.9929  0.8910  1.4813
 3240SOL     OW21178   1.777   3.157   6.166 -0.0707 -0.2251  0.0981
 3240SOL    HW121179   1.736   3.079   6.204  0.6519  0.0484  1.4492
 3240SOL    HW221180   1.741   3.235   6.210  1.2141  0.6249 -0.3850
 3241SOL     OW21181   1.999   1.869   8.681  0.3604  0.0734 -0.3336
 3241SOL    HW121182   1.911   1.847   8.649 -0.6990  5.0511 -0.8214
 3241SOL    HW221183   2.026   1.779   8.698  1.1873  0.5255  0.7282
 3242SOL     OW21184   1.010   1.930   8.370  0.5087  0.8996  0.5204
 3242SOL    HW121185   0.939   1.957   8.428  0.2060  1.1857  0.0175
 3242SOL    HW221186   1.043   1.860   8.427 -0.2854 -1.0451 -1.4193
 3243SOL     OW21187   3.160   2.627   2.637 -0.0396  0.6467  0.0758
 3243SOL    HW121188   3.170   2.533   2.629 -3.1931  0.2864  0.3636
 3243SOL    HW221189   3.115   2.626   2.721 -0.7730 -0.9343 -0.3474
 3244SOL     OW21190   0.826   3.670   2.337  0.3387  0.1282 -0.2737
 3244SOL    HW121191   0.890   3.718   2.284  0.5974 -0.5921 -0.6174
 3244SOL    HW221192   0.738   3.707   2.328 -0.5011 -1.5841  0.8147
 3245SOL     OW21193   2.381   4.501   2.397  0.5548  0.2173  0.3161
 3245SOL    HW121194   2.468   4.516   2.434  0.5914 -1.4239  0.9199
 3245SOL    HW221195   2.374   4.406   2.406  0.7212 -0.0328 -2.4226
 3246SOL     OW21196   4.031   1.998   5.164  0.2388 -0.2085 -0.1778
 3246SOL    HW121197   4.004   2.077   5.211 -0.6644 -0.0808 -0.9167
 3246SOL    HW221198   4.010   2.020   5.073  0.5527 -1.1453 -0.4808
 3247SOL     OW21199   2.275   1.122   0.960 -0.5926 -0.6127 -0.4051
 3247SOL    HW121200   2.298   1.070   1.037 -0.0223 -0.4887 -0.4951
 3247SOL    HW221201   2.360   1.153   0.929 -0.8876 -0.2160 -0.8142
 3248SOL     OW21202   2.618   4.055   4.774 -0.7669  0.0669 -0.1456
 3248SOL    HW121203   2.557   4.101   4.831  1.2873  1.5254  0.8722
 3248SOL    HW221204   2.698   4.105   4.790 -0.7627 -0.1482  0.4866
 3249SOL     OW21205   0.855   0.585   2.807 -0.1186  0.3170 -0.0279
 3249SOL    HW121206   0.942   0.625   2.810  0.7107 -1.2825 -2.8975
 3249SOL    HW221207   0.874   0.493   2.823 -0.3565  0.0768 -1.1294
 3250SOL     OW21208   0.873   3.999   5.648 -0.0137  0.0919 -0.0425
 3250SOL    HW121209   0.789   3.954   5.642  1.2946 -2.6874  2.5037
 3250SOL    HW221210   0.856   4.078   5.596  1.6313 -0.1238 -0.9358
 3251SOL     OW21211   3.500   4.186   6.994  0.2331  0.2021  0.2909
 3251SOL    HW121212   3.424   4.239   7.019  0.3127  0.7017 -0.5334
 3251SOL    HW221213   3.554   4.166   7.071  0.8236 -0.3386 -0.2590
 3252SOL     OW21214   0.461   3.988  12.938  0.8605  0.2450 -0.0332
 3252SOL    HW121215   0.552   3.977  12.964  0.7480 -0.9582 -0.1269
 3252SOL    HW221216   0.479   4.053  12.871  3.6331 -1.8742 -1.3070
 3253SOL     OW21217   1.629   1.558  14.179  0.1806  0.3324 -0.1414
 3253SOL    HW121218   1.660   1.547  14.089  0.4883  1.5507 -0.1876
 3253SOL    HW221219   1.544   1.516  14.170  1.3247 -1.7835 -1.1598
 3254SOL     OW21220   0.687   4.043   7.604 -0.0477 -0.5809  0.1334
 3254SOL    HW121221   0.626   4.029   7.532  0.5312 -1.3858 -0.1946
 3254SOL    HW221222   0.760   3.989   7.576  0.3436  0.1526 -0.2579
 3255SOL     OW21223   0.848   0.516   8.175  0.3363  0.2253  0.0754
 3255SOL    HW121224   0.914   0.486   8.113  0.5857  0.4825  0.2177
 3255SOL    HW221225   0.806   0.590   8.131  1.6454  0.6088 -0.5030
 3256SOL     OW21226   2.758   1.879   6.071  0.5982 -0.1339 -0.3859
 3256SOL    HW121227   2.726   1.968   6.056  0.5358 -0.2344 -0.8644
 3256SOL    HW221228   2.834   1.888   6.014  1.0576  0.7299  0.3606
 3257SOL     OW21229   4.313   3.206  17.685  0.9293 -0.5400 -0.1615
 3257SOL    HW121230   4.382   3.273  17.679  1.0917 -0.6139  0.8191
 3257SOL    HW221231   4.333   3.175   0.079  2.4349  0.7075 -0.0567
 3258SOL     OW21232   0.181   2.958   6.412 -0.2762  0.6200 -0.1048
 3258SOL    HW121233   0.120   2.992   6.347  0.1249  1.3528 -0.0994
 3258SOL    HW221234   0.254   3.019   6.407  1.8525 -1.8559  0.9484
 3259SOL     OW21235   4.598   2.453   1.656 -0.8329 -0.1169 -0.4502
 3259SOL    HW121236   4.504   2.466   1.671 -0.4169  0.0475  1.9966
 3259SOL    HW221237   4.604   2.379   1.595 -0.9334  0.4488 -1.1399
 3260SOL     OW21238   2.790   1.847  10.606 -0.0883  0.2601  0.2458
 3260SOL    HW121239   2.817   1.755  10.603  1.6191  0.7959 -0.4719
 3260SOL    HW221240   2.828   1.885  10.527  0.8146 -1.0681  0.0367
 3261SOL     OW21241   3.878   0.628   1.312 -0.3282  0.3758  0.4103
 3261SOL    HW121242   3.879   0.675   1.228 -0.4245 -3.5123 -1.7318
 3261SOL    HW221243   3.903   0.693   1.378 -0.0269 -0.2039  0.8674
 3262SOL     OW21244   1.748   2.695   5.730  0.1218 -0.6911  0.1337
 3262SOL    HW121245   1.664   2.675   5.772 -0.5199  1.3405 -0.1745
 3262SOL    HW221246   1.772   2.609   5.695  0.8479 -0.4295 -0.0064
 3263SOL     OW21247   4.137   2.309   5.941 -0.1170  0.5730 -0.3066
 3263SOL    HW121248   4.150   2.246   5.870 -0.8747  0.4000 -0.2943
 3263SOL    HW221249   4.134   2.396   5.901  1.7165  0.7714  0.0073
 3264SOL     OW21250   1.777   4.612   8.041 -0.8963  0.2114  0.4881
 3264SOL    HW121251   1.777   4.707   8.056 -0.0186  0.1284  1.0068
 3264SOL    HW221252   1.793   4.592   8.133 -1.0321  0.3217  0.5359
 3265SOL     OW21253   2.974   1.609   5.448 -0.3161 -0.6641  0.1562
 3265SOL    HW121254   2.922   1.610   5.367  1.2477 -3.1064 -0.8930
 3265SOL    HW221255   2.974   1.702   5.469  1.2981 -1.0653  1.8650
 3266SOL     OW21256   3.050   0.253   5.828 -0.0796 -0.4184  0.3710
 3266SOL    HW121257   2.986   0.213   5.887 -0.1940 -0.0266  0.5116
 3266SOL    HW221258   3.010   0.234   5.743  0.0490 -2.4002  0.7531
 3267SOL     OW21259   1.270   4.442   9.605  0.3425 -0.1328 -0.0295
 3267SOL    HW121260   1.325   4.517   9.583  0.0567  1.1685  3.7155
 3267SOL    HW221261   1.273   4.385   9.528 -0.1234  0.1878 -0.2841
 3268SOL     OW21262   1.019   1.544  12.124  0.4373 -0.1297 -0.7034
 3268SOL    HW121263   1.104   1.516  12.088  0.8435  0.2722 -0.0554
 3268SOL    HW221264   1.031   1.535  12.218  1.5463 -0.2932 -0.8566
 3269SOL     OW21265   2.642   3.866   9.155 -0.0418  0.4906  0.1484
 3269SOL    HW121266   2.570   3.929   9.149  0.2024  0.8438  0.9005
 3269SOL    HW221267   2.626   3.843   9.247  0.7455  1.2647  0.4826
 3270SOL     OW21268   4.678   0.182  16.001  0.4440  0.1303  0.0152
 3270SOL    HW121269   4.702   0.126  15.927  1.6621  0.1515  0.3920
 3270SOL    HW221270   4.586   0.156  16.006  0.5684 -0.2055  0.4999
 3271SOL     OW21271   0.024   4.170   2.762 -0.3752  0.5719  0.3674
 3271SOL    HW121272   4.713   4.156   2.851 -0.9678 -1.0569 -0.1186
 3271SOL    HW221273   0.053   4.261   2.765  0.9828  0.1195  0.7049
 3272SOL     OW21274   1.591   0.532   3.018  0.2849 -0.7725 -0.3714
 3272SOL    HW121275   1.519   0.588   3.045  0.7892  0.8234 -2.3617
 3272SOL    HW221276   1.556   0.446   3.040 -0.5522 -0.4833 -0.6018
 3273SOL     OW21277   3.784   2.201  15.043 -0.7448  0.5204 -0.4791
 3273SOL    HW121278   3.834   2.250  14.977 -1.2768  2.1447  0.3244
 3273SOL    HW221279   3.777   2.116  15.000 -1.5684  1.6266 -2.5907
 3274SOL     OW21280   0.763   1.426  10.567 -0.2559 -0.1478  0.2271
 3274SOL    HW121281   0.857   1.429  10.549 -0.2925 -1.3737 -0.1522
 3274SOL    HW221282   0.728   1.380  10.490  0.0676 -1.5829  0.9433
 3275SOL     OW21283   2.624   3.813   3.639  0.3311  0.5524 -0.0642
 3275SOL    HW121284   2.558   3.859   3.692 -0.5828 -0.8795  0.0531
 3275SOL    HW221285   2.593   3.724   3.620 -0.3809  0.9138 -0.6208
 3276SOL     OW21286   4.053   2.959   5.371 -0.2327  0.0660  0.5162
 3276SOL    HW121287   4.137   2.950   5.326 -1.1381 -1.2444 -0.9119
 3276SOL    HW221288   4.004   2.909   5.306  0.9501 -0.5596  0.0995
 3277SOL     OW21289   3.538   0.116  15.031 -0.1067 -0.7346 -0.1565
 3277SOL    HW121290   3.519   0.046  14.967 -1.0570  2.4274 -3.3214
 3277SOL    HW221291   3.493   0.085  15.110 -0.7183  2.2807  0.6652
 3278SOL     OW21292   2.062   4.322   8.402 -0.0138 -0.1906  0.1997
 3278SOL    HW121293   1.985   4.312   8.346  0.0723 -3.2261  0.6442
 3278SOL    HW221294   2.082   4.230   8.416 -0.4957 -0.1509  1.1422
 3279SOL     OW21295   2.014   2.870   4.690 -0.2845 -0.1909  0.3900
 3279SOL    HW121296   2.084   2.814   4.658  1.5960  1.8096  0.9757
 3279SOL    HW221297   2.003   2.844   4.782 -1.0250 -1.9396 -0.2064
 3280SOL     OW21298   4.318   1.183   6.808 -0.2923 -0.4373 -0.5255
 3280SOL    HW121299   4.248   1.119   6.807 -1.0132  0.3364 -0.1850
 3280SOL    HW221300   4.281   1.241   6.875  0.2425 -0.2161 -0.4172
 3281SOL     OW21301   2.549   1.115   3.856  0.3392  0.5403 -0.1338
 3281SOL    HW121302   2.454   1.110   3.848  0.4950 -1.0334 -1.2072
 3281SOL    HW221303   2.573   1.047   3.793 -0.4964  1.0183 -0.9667
 3282SOL     OW21304   3.976   4.538   6.797  0.6443  0.5344 -0.0137
 3282SOL    HW121305   4.061   4.551   6.756 -0.4040 -0.1441 -2.4565
 3282SOL    HW221306   3.928   4.582   6.727  2.0920  1.1871 -0.5803
 3283SOL     OW21307   1.374   4.226   8.826 -0.2952  0.3558 -0.2453
 3283SOL    HW121308   1.289   4.229   8.870  1.2100  0.2046  2.7259
 3283SOL    HW221309   1.425   4.157   8.869 -0.3187  0.5165  0.0467
 3284SOL     OW21310   0.904   3.038   3.482 -0.1705  0.0155  0.3243
 3284SOL    HW121311   0.876   3.042   3.391 -0.9124  0.6615  0.5793
 3284SOL    HW221312   0.883   3.129   3.503  0.6784  0.2224  0.3013
 3285SOL     OW21313   4.083   2.776  16.393  0.1739 -0.4989  0.4001
 3285SOL    HW121314   4.032   2.848  16.355 -0.5194 -1.3808 -0.3719
 3285SOL    HW221315   4.111   2.730  16.314 -0.8452 -0.0493 -0.2284
 3286SOL     OW21316   2.439   0.485   3.857  0.2672 -0.2424  0.3209
 3286SOL    HW121317   2.501   0.509   3.926  0.9707 -0.4473 -0.2356
 3286SOL    HW221318   2.371   0.551   3.870  1.2854  0.5519  1.5875
 3287SOL     OW21319   1.257   3.728  16.845  0.5138 -0.2059 -0.1044
 3287SOL    HW121320   1.241   3.730  16.940 -0.0896 -1.5685 -0.1772
 3287SOL    HW221321   1.353   3.722  16.837  0.0540  0.5776 -5.9400
 3288SOL     OW21322   3.256   2.220  17.014  0.1139  0.1422 -0.4579
 3288SOL    HW121323   3.259   2.206  16.920  3.2911  0.9746 -0.4637
 3288SOL    HW221324   3.351   2.222  17.026 -0.3198  0.0645  3.0650
 3289SOL     OW21325   1.978   1.503   6.252 -0.2313 -0.5525  0.1501
 3289SOL    HW121326   2.009   1.419   6.220 -2.0292 -0.9536 -0.5171
 3289SOL    HW221327   2.004   1.499   6.344 -0.7208  2.0717  0.4180
 3290SOL     OW21328   0.325   1.973   5.058 -0.0407 -0.2173 -0.7327
 3290SOL    HW121329   0.300   1.944   4.970 -3.2424 -1.1101  0.4639
 3290SOL    HW221330   0.390   2.042   5.040 -1.4778  1.0805 -0.9300
 3291SOL     OW21331   0.463   0.690  12.494  0.3834 -0.0035 -0.6851
 3291SOL    HW121332   0.524   0.719  12.561 -0.8854  0.7139  0.1569
 3291SOL    HW221333   0.503   0.716  12.411  1.2541  0.1329 -0.2221
 3292SOL     OW21334   4.228   2.443  15.584 -0.2884 -0.0869 -0.6795
 3292SOL    HW121335   4.139   2.446  15.618 -0.2490 -0.4294 -0.5439
 3292SOL    HW221336   4.233   2.498  15.506  1.0045 -0.1340 -0.6417
 3293SOL     OW21337   2.018   0.931   1.885  0.5584  0.2566  0.3058
 3293SOL    HW121338   1.974   0.987   1.821  1.2419  2.4041  1.7332
 3293SOL    HW221339   2.057   0.862   1.831 -1.5686 -1.7440  1.3024
 3294SOL     OW21340   0.784   4.055   2.026  0.8636  0.2154  0.4350
 3294SOL    HW121341   0.731   4.009   2.091 -0.0025  0.3296 -0.1877
 3294SOL    HW221342   0.722   4.075   1.956 -0.8830  0.2947  1.9840
 3295SOL     OW21343   2.356   0.810  17.459 -0.6510  0.5262  0.2759
 3295SOL    HW121344   2.320   0.897  17.474 -3.0686 -0.7314  1.9607
 3295SOL    HW221345   2.297   0.794  17.385 -0.0587 -0.9528  0.1204
 3296SOL     OW21346   3.526   3.117   5.991 -0.3743  0.3576  0.3224
 3296SOL    HW121347   3.608   3.162   6.007  0.2357  0.0195 -1.9046
 3296SOL    HW221348   3.555   3.026   5.991 -1.3720  0.0536 -2.1601
 3297SOL     OW21349   3.601   4.601   6.402 -0.2301 -0.3608  0.2514
 3297SOL    HW121350   3.609   4.676   6.461  1.0648 -0.7070  0.5220
 3297SOL    HW221351   3.508   4.580   6.412 -0.1910 -0.5844  0.1588
 3298SOL     OW21352   2.660   4.106   8.249 -0.2265 -0.1257 -0.1149
 3298SOL    HW121353   2.751   4.135   8.254 -0.4101  0.4126  0.1151
 3298SOL    HW221354   2.624   4.123   8.336  2.3102 -1.6660  1.2416
 3299SOL     OW21355   3.569   1.114  13.195 -0.3457  0.0253 -0.6695
 3299SOL    HW121356   3.651   1.066  13.206  1.6369  3.4086 -0.7711
 3299SOL    HW221357   3.508   1.089  13.264  0.1778 -0.0169 -0.2242
 3300SOL     OW21358   0.100   2.868   1.266  0.3126 -0.3729  0.1214
 3300SOL    HW121359   0.172   2.835   1.213  1.1022  1.3311  0.1333
 3300SOL    HW221360   0.128   2.857   1.357 -1.3015 -0.9348  0.5373
 3301SOL     OW21361   1.445   4.502   8.191  0.5309  0.4848 -0.1157
 3301SOL    HW121362   1.394   4.449   8.130 -0.1392 -0.1610  1.0144
 3301SOL    HW221363   1.394   4.507   8.271  2.4775 -1.6509  1.2229
 3302SOL     OW21364   1.917   4.519   6.500  0.4583  0.0238 -0.3726
 3302SOL    HW121365   1.850   4.512   6.432  2.4841 -1.8959 -2.1656
 3302SOL    HW221366   1.912   4.437   6.548 -1.4500  0.0427 -0.5309
 3303SOL     OW21367   4.555   2.806   1.259 -0.1912 -0.0840  0.2653
 3303SOL    HW121368   4.560   2.742   1.330 -0.7631 -2.6645 -1.9880
 3303SOL    HW221369   4.644   2.841   1.260  1.0531 -3.1840  0.3010
 3304SOL     OW21370   3.948   1.100   1.279 -0.4058 -0.2184 -0.1557
 3304SOL    HW121371   4.014   1.111   1.210  0.9341 -1.3396  0.9588
 3304SOL    HW221372   3.895   1.029   1.243  1.1027 -1.2647 -0.3033
 3305SOL     OW21373   1.130   4.192   8.237 -0.3078  0.5868 -0.5544
 3305SOL    HW121374   1.170   4.198   8.324 -0.0733 -3.0408 -0.4112
 3305SOL    HW221375   1.202   4.226   8.184 -0.9678  0.9453 -1.2082
 3306SOL     OW21376   1.973   1.153   1.376 -0.1840  0.7367  0.4332
 3306SOL    HW121377   1.910   1.092   1.339  0.0818  0.4588  0.4351
 3306SOL    HW221378   1.949   1.236   1.337  0.4889  0.0146 -1.5079
 3307SOL     OW21379   2.127   3.334   7.538 -0.2294  0.1517 -0.0148
 3307SOL    HW121380   2.200   3.379   7.497 -0.2715 -0.1885 -0.4640
 3307SOL    HW221381   2.096   3.266   7.478 -2.6805  1.8968 -0.7463
 3308SOL     OW21382   1.293   3.286   7.628 -0.1680  0.6225  0.0461
 3308SOL    HW121383   1.362   3.286   7.695 -0.6883 -2.0807  0.5960
 3308SOL    HW221384   1.216   3.299   7.683  0.0185  2.2092 -0.0699
 3309SOL     OW21385   3.583   1.484  12.086  0.6475 -0.5754  0.2541
 3309SOL    HW121386   3.596   1.509  11.994  0.8615 -1.0204  0.1640
 3309SOL    HW221387   3.489   1.496  12.095  1.1507  2.1134  1.9457
 3310SOL     OW21388   3.858   3.275  13.375 -0.1499  0.9556  0.2944
 3310SOL    HW121389   3.923   3.336  13.411  0.6559  0.0884  0.3100
 3310SOL    HW221390   3.814   3.242  13.454 -0.9779  0.3244 -0.4390
 3311SOL     OW21391   2.669   0.339   6.007  0.4303 -0.2996 -1.1052
 3311SOL    HW121392   2.706   0.251   6.013 -0.7252 -0.6906  0.2799
 3311SOL    HW221393   2.745   0.388   6.037 -2.5989  3.3410  0.6872
 3312SOL     OW21394   2.133   0.965   5.968  0.0961  0.3303  0.0717
 3312SOL    HW121395   2.221   0.966   5.931 -0.1160  0.7864 -0.4157
 3312SOL    HW221396   2.073   0.986   5.897 -0.3570 -0.1748  0.3036
 3313SOL     OW21397   2.269   3.425   1.677  0.0801 -0.4444 -0.3323
 3313SOL    HW121398   2.284   3.436   1.583 -0.2975  0.3976 -0.3007
 3313SOL    HW221399   2.184   3.381   1.674 -1.1351  1.9092 -0.3818
 3314SOL     OW21400   1.070   4.295   3.518  0.1457 -0.0336  0.0313
 3314SOL    HW121401   1.091   4.202   3.523  0.3605  0.0838  1.3640
 3314SOL    HW221402   1.157   4.329   3.496 -0.1644  3.0871  3.5235
 3315SOL     OW21403   2.534   2.890   5.052 -0.5999  0.6278 -0.4391
 3315SOL    HW121404   2.589   2.947   4.999  0.1613  0.8721  0.5940
 3315SOL    HW221405   2.591   2.870   5.126  0.1452  0.6894 -1.0033
 3316SOL     OW21406   2.820   1.580  10.631  0.1211  0.7218  0.2850
 3316SOL    HW121407   2.861   1.506  10.587  2.8744  0.6635  2.9464
 3316SOL    HW221408   2.758   1.538  10.690  2.3120 -2.1620  0.5244
 3317SOL     OW21409   2.788   2.952   4.497  0.7096 -0.1853  0.7574
 3317SOL    HW121410   2.787   3.043   4.526  0.3075  0.3435 -0.9608
 3317SOL    HW221411   2.877   2.918   4.492  1.4910  2.2155 -1.1758
 3318SOL     OW21412   2.984   3.572   3.544 -0.1329 -0.9384  0.5289
 3318SOL    HW121413   2.937   3.637   3.596 -0.5915 -1.6230  0.9837
 3318SOL    HW221414   3.030   3.627   3.482  0.0865 -0.8947  0.7314
 3319SOL     OW21415   0.394   1.252   9.087  0.3611  0.5947 -0.3140
 3319SOL    HW121416   0.338   1.307   9.031  0.5251  0.1692 -0.9003
 3319SOL    HW221417   0.348   1.257   9.170  0.1504  0.1523 -0.4073
 3320SOL     OW21418   1.487   2.330   6.629  0.3681 -0.3411 -0.1907
 3320SOL    HW121419   1.399   2.315   6.594  0.3100  3.6435 -1.7177
 3320SOL    HW221420   1.536   2.262   6.582  0.3384 -0.6223  0.1809
 3321SOL     OW21421   1.978   4.106   7.160 -0.7834 -0.2455  0.2817
 3321SOL    HW121422   1.982   4.178   7.223  2.6958  0.6566 -0.9825
 3321SOL    HW221423   2.060   4.114   7.111 -0.7231  1.1409  0.5913
 3322SOL     OW21424   2.655   0.438   5.024 -0.5242  0.3208 -0.4555
 3322SOL    HW121425   2.633   0.508   4.963  1.4387  1.2452 -0.0979
 3322SOL    HW221426   2.608   0.364   4.985 -0.8981  0.8599 -1.0305
 3323SOL     OW21427   2.949   1.738   3.766 -0.1577 -0.5684 -0.0580
 3323SOL    HW121428   2.988   1.655   3.740  0.0649 -0.4328 -0.1645
 3323SOL    HW221429   3.011   1.765   3.833 -1.9276 -0.3232  1.4881
 3324SOL     OW21430   3.706   3.309  14.222 -0.1513  0.1991 -0.4547
 3324SOL    HW121431   3.686   3.302  14.315 -1.0017  1.6616 -0.5303
 3324SOL    HW221432   3.666   3.393  14.202 -1.9866 -0.8199 -1.1052
 3325SOL     OW21433   4.567   2.364  10.072 -0.2122  0.1981 -0.2004
 3325SOL    HW121434   4.528   2.344   9.987 -0.2155  0.3919 -0.2446
 3325SOL    HW221435   4.601   2.449  10.046  1.5179 -0.7983 -1.1233
 3326SOL     OW21436   2.936   1.073  16.219 -0.5145  0.0790  0.3998
 3326SOL    HW121437   2.997   1.123  16.164 -0.3750  0.6916  1.1047
 3326SOL    HW221438   2.914   1.131  16.293  0.3669  0.4026  0.4066
 3327SOL     OW21439   2.088   2.347   4.799 -0.0219 -0.3837  0.1772
 3327SOL    HW121440   2.161   2.300   4.759 -0.6447 -0.8529 -0.4019
 3327SOL    HW221441   2.030   2.274   4.779  0.3599 -1.1235  1.7970
 3328SOL     OW21442   0.397   3.068  13.179  0.5592  0.2006  0.1473
 3328SOL    HW121443   0.423   3.146  13.131  1.9208  1.3642  2.7583
 3328SOL    HW221444   0.304   3.055  13.159  0.6495  0.6279 -0.5371
 3329SOL     OW21445   4.458   4.214  13.391 -0.1563 -0.0072 -0.0226
 3329SOL    HW121446   4.496   4.287  13.440 -2.2425  0.0418  1.5452
 3329SOL    HW221447   4.380   4.262  13.360  0.4412 -0.3936 -2.1265
 3330SOL     OW21448   3.653   2.574   0.771  0.0934  0.2862 -0.3508
 3330SOL    HW121449   3.721   2.577   0.839  1.0158 -1.9381 -1.1702
 3330SOL    HW221450   3.692   2.641   0.714 -0.0462  1.4932  0.9852
 3331SOL     OW21451   3.970   3.765   5.904 -0.3335 -0.2194 -0.6802
 3331SOL    HW121452   3.899   3.824   5.928  3.1410  3.2978  0.8877
 3331SOL    HW221453   3.993   3.796   5.817 -1.9096  0.6198 -0.8025
 3332SOL     OW21454   4.141   4.336   2.022 -0.0999  0.1619  0.4676
 3332SOL    HW121455   4.140   4.243   2.000  0.9969  0.0528  0.8523
 3332SOL    HW221456   4.196   4.363   1.948  0.6154 -0.4010  0.7975
 3333SOL     OW21457   4.050   0.994  13.505  0.1818  0.8106  0.0939
 3333SOL    HW121458   4.079   1.065  13.561  1.4657  2.1059 -2.2382
 3333SOL    HW221459   3.969   1.037  13.478 -0.9099 -0.8505  0.7134
 3334SOL     OW21460   2.473   4.362   2.901  1.0117  0.2246  0.1445
 3334SOL    HW121461   2.406   4.339   2.966  1.4200  1.2432  0.9225
 3334SOL    HW221462   2.420   4.378   2.822 -2.0313  1.8169  2.5191
 3335SOL     OW21463   1.934   2.126   4.797 -0.0123 -1.0668  0.3151
 3335SOL    HW121464   1.858   2.086   4.840 -0.9555 -0.8578 -1.1342
 3335SOL    HW221465   1.983   2.047   4.774  0.3642 -1.0430  1.0370
 3336SOL     OW21466   4.720   0.170   8.144 -0.1057  0.4922 -0.8532
 3336SOL    HW121467   4.697   0.196   8.234  0.3931  1.8760 -1.1355
 3336SOL    HW221468   0.011   0.255   8.103 -1.0172  1.2082  0.3050
 3337SOL     OW21469   3.125   1.775   3.263 -0.2848  0.2087  0.6301
 3337SOL    HW121470   3.031   1.756   3.260 -0.0956 -0.7960  1.0729
 3337SOL    HW221471   3.156   1.703   3.209  1.0842  0.8026  0.6311
 3338SOL     OW21472   3.877   3.904  14.803  0.6610  0.3628 -0.1669
 3338SOL    HW121473   3.964   3.887  14.769  1.1524  1.9277  0.3095
 3338SOL    HW221474   3.828   3.944  14.731 -1.5401  1.3188  1.8699
 3339SOL     OW21475   3.473   4.138  15.935  0.3910 -0.0239  0.2140
 3339SOL    HW121476   3.510   4.050  15.947  0.6957 -0.2325 -2.2218
 3339SOL    HW221477   3.499   4.172  16.020 -1.9686 -0.7689  1.2281
 3340SOL     OW21478   1.514   0.345   5.278 -0.2128 -0.2903 -0.1733
 3340SOL    HW121479   1.502   0.345   5.183  1.5433  0.9627 -0.3914
 3340SOL    HW221480   1.424   0.325   5.305  0.5329 -1.5733  1.3133
 3341SOL     OW21481   3.844   2.130   7.424  0.0939  0.7225  0.4235
 3341SOL    HW121482   3.838   2.050   7.372 -1.7152 -0.2090  2.0640
 3341SOL    HW221483   3.767   2.176   7.391  0.1730  0.2232 -0.4546
 3342SOL     OW21484   2.777   2.930   2.905 -0.5172 -0.3807  0.1316
 3342SOL    HW121485   2.812   2.962   2.823 -1.1843 -0.6303 -0.2524
 3342SOL    HW221486   2.805   3.001   2.963 -0.9785 -0.9952  1.1244
 3343SOL     OW21487   3.132   1.298   2.280 -0.1903  0.0889 -0.0825
 3343SOL    HW121488   3.201   1.276   2.344  1.4432 -3.9036 -3.2398
 3343SOL    HW221489   3.120   1.211   2.241  1.8937 -0.3688  0.2593
 3344SOL     OW21490   4.541   2.385   4.891 -0.0614  0.3877 -0.0189
 3344SOL    HW121491   4.595   2.307   4.904 -0.2254  0.1020 -1.0295
 3344SOL    HW221492   4.452   2.355   4.911  0.3873  0.3184  1.8070
 3345SOL     OW21493   0.684   1.183   6.279 -0.0040  0.6411 -0.0569
 3345SOL    HW121494   0.599   1.152   6.309  0.2405 -0.9457 -1.0133
 3345SOL    HW221495   0.703   1.247   6.347 -1.6687 -0.7957  1.7574
 3346SOL     OW21496   3.019   3.650  10.274  0.6218 -0.1236  0.0141
 3346SOL    HW121497   3.085   3.720  10.282  0.0722  0.2623  1.2184
 3346SOL    HW221498   2.959   3.646  10.348 -0.3204  0.0316 -0.7542
 3347SOL     OW21499   2.674   3.983   9.453 -0.7520 -0.1476 -0.5243
 3347SOL    HW121500   2.606   4.047   9.476  0.4192  0.1020  2.2877
 3347SOL    HW221501   2.624   3.905   9.476  0.1192 -1.1728 -2.0771
 3348SOL     OW21502   2.464   3.539   1.256 -0.0627  0.0224 -0.6547
 3348SOL    HW121503   2.517   3.460   1.246 -2.5416 -1.4623 -2.0406
 3348SOL    HW221504   2.537   3.593   1.287  0.8761 -2.3268  1.2297
 3349SOL     OW21505   4.378   2.090   8.253  0.2006  0.5431  0.3517
 3349SOL    HW121506   4.456   2.120   8.207  1.0304 -2.4768 -0.2077
 3349SOL    HW221507   4.409   2.101   8.343 -1.6736 -0.1352  1.0820
 3350SOL     OW21508   1.237   3.093  11.352 -0.1874  0.1382  0.1600
 3350SOL    HW121509   1.214   3.149  11.277 -0.4025  0.4748  0.4754
 3350SOL    HW221510   1.184   3.140  11.417  2.2881  5.0117 -1.3505
 3351SOL     OW21511   0.191   3.388  15.234  0.4610  0.0418 -0.1190
 3351SOL    HW121512   0.192   3.409  15.140 -1.7193 -1.4111 -0.4546
 3351SOL    HW221513   0.108   3.341  15.237 -0.7780  2.2227 -0.0338
 3352SOL     OW21514   1.502   2.745   3.981  0.8323  0.4135 -0.0992
 3352SOL    HW121515   1.581   2.721   3.932  1.4659 -2.8149  2.5441
 3352SOL    HW221516   1.514   2.837   4.004  1.6336  0.0397  0.9803
 3353SOL     OW21517   1.140   1.420   5.820  0.1941  0.4931  0.3406
 3353SOL    HW121518   1.123   1.513   5.833  2.2157  0.6021  2.0849
 3353SOL    HW221519   1.059   1.370   5.830  0.4883 -0.6170 -2.6124
 3354SOL     OW21520   2.379   0.488   6.966 -0.3081  0.3962  0.4091
 3354SOL    HW121521   2.313   0.525   7.025  0.5450  3.3961 -0.5580
 3354SOL    HW221522   2.327   0.416   6.931 -0.2693  1.0741 -1.0160
 3355SOL     OW21523   2.781   1.478  17.397 -0.9174 -0.3126  0.0312
 3355SOL    HW121524   2.707   1.417  17.401 -0.5016 -0.9848 -2.4294
 3355SOL    HW221525   2.732   1.560  17.401 -3.0801 -1.6891  1.4033
 3356SOL     OW21526   3.199   4.207  13.589  0.0586  0.1108  0.1021
 3356SOL    HW121527   3.248   4.280  13.550 -0.8407  0.3630 -0.5623
 3356SOL    HW221528   3.118   4.254  13.609  0.0401 -0.0914  0.5063
 3357SOL     OW21529   4.482   4.553   4.012 -0.0833 -0.8476  0.2525
 3357SOL    HW121530   4.574   4.529   4.000  0.1557 -0.0053  0.3582
 3357SOL    HW221531   4.455   4.563   3.921  2.8176  0.2778 -0.4902
 3358SOL     OW21532   0.801   3.746   8.661  0.5620 -0.4373 -0.3603
 3358SOL    HW121533   0.844   3.668   8.695  1.0129  1.1072  2.6492
 3358SOL    HW221534   0.866   3.814   8.679 -0.0427  0.2862 -0.8990
 3359SOL     OW21535   0.827   0.159   4.666 -0.2380  0.0358 -0.2380
 3359SOL    HW121536   0.775   0.097   4.614  1.0691  1.4867 -3.2881
 3359SOL    HW221537   0.758   0.213   4.705 -0.0071 -0.5152  0.9398
 3360SOL     OW21538   3.207   1.574   2.563  0.0305 -0.1556 -0.2654
 3360SOL    HW121539   3.152   1.500   2.537 -2.7009  2.3399 -1.6477
 3360SOL    HW221540   3.148   1.650   2.556  2.0245  1.5710  1.5249
 3361SOL     OW21541   2.874   1.175   1.291 -0.2347  0.3552 -0.0977
 3361SOL    HW121542   2.910   1.175   1.202 -0.6079  3.8234 -0.2503
 3361SOL    HW221543   2.799   1.117   1.273  1.5616 -0.4071 -5.1620
 3362SOL     OW21544   0.579   0.484  15.646  0.4159 -0.3579  0.1325
 3362SOL    HW121545   0.520   0.480  15.570  1.0868  1.7544 -0.4849
 3362SOL    HW221546   0.529   0.422  15.700  2.2246 -1.6346  0.3316
 3363SOL     OW21547   0.673   0.413   1.705 -0.2506 -0.4836 -0.1932
 3363SOL    HW121548   0.760   0.448   1.724 -0.3684 -0.0117 -0.5144
 3363SOL    HW221549   0.653   0.366   1.786  0.4406  1.5036  1.1525
 3364SOL     OW21550   4.275   0.028   2.472  0.3635  0.1273 -0.7021
 3364SOL    HW121551   4.268   0.122   2.491  0.9985 -0.1128  0.7490
 3364SOL    HW221552   4.199   0.013   2.416  0.0766 -1.0168 -0.0040
 3365SOL     OW21553   1.147   4.660   5.156  0.1770  0.2547 -0.3886
 3365SOL    HW121554   1.055   4.660   5.181  0.2153  1.1838 -0.2267
 3365SOL    HW221555   1.170   4.568   5.165 -1.6088 -0.3224 -1.6609
 3366SOL     OW21556   4.067   1.054   5.785  0.1324  0.4687  0.0079
 3366SOL    HW121557   4.128   1.012   5.845 -0.2646  1.1120  0.8732
 3366SOL    HW221558   3.979   1.030   5.815  0.0839 -1.0563 -1.3072
 3367SOL     OW21559   0.558   3.180   7.446  0.2472 -0.2818 -0.2622
 3367SOL    HW121560   0.475   3.164   7.402 -1.5863  0.7481  2.8186
 3367SOL    HW221561   0.524   3.199   7.533  0.7157  1.2730 -0.4242
 3368SOL     OW21562   1.637   4.666  10.765  0.2683  0.2139  0.1539
 3368SOL    HW121563   1.583   4.711  10.699  1.2737 -1.3971 -1.7456
 3368SOL    HW221564   1.696   4.610  10.715 -0.3698 -1.4290  1.2698
 3369SOL     OW21565   3.773   1.060  12.308  0.0339 -0.0680 -0.2848
 3369SOL    HW121566   3.716   1.136  12.295  0.4224  0.4006  0.7256
 3369SOL    HW221567   3.719   1.019  12.376 -0.0345  1.1770  0.4125
 3370SOL     OW21568   0.303   0.035   2.504 -0.1028 -0.2191  0.2069
 3370SOL    HW121569   0.281   4.678   2.552 -2.6161  1.4435  1.8518
 3370SOL    HW221570   0.260   0.018   2.420 -1.5193 -1.4682  1.1761
 3371SOL     OW21571   3.814   2.561   8.292  0.1204  0.1301  0.0547
 3371SOL    HW121572   3.897   2.555   8.340  0.5010  0.2424 -0.5770
 3371SOL    HW221573   3.771   2.478   8.310  0.3300  0.2053  0.9004
 3372SOL     OW21574   4.365   3.087   8.729  0.2190  0.7109 -0.1614
 3372SOL    HW121575   4.326   3.004   8.758  1.4557 -0.1450 -0.9269
 3372SOL    HW221576   4.416   3.108   8.807  1.4352 -1.3882 -0.3876
 3373SOL     OW21577   4.119   0.850   5.421  0.3997 -0.7191  0.4722
 3373SOL    HW121578   4.044   0.861   5.480 -0.9532 -2.0153 -1.0024
 3373SOL    HW221579   4.138   0.761   5.449  1.5022 -0.5634  0.2294
 3374SOL     OW21580   0.962   2.612   0.652  0.3260 -0.3128  0.1575
 3374SOL    HW121581   1.023   2.538   0.652  1.0417  0.2660 -1.2089
 3374SOL    HW221582   0.882   2.565   0.628  1.8356 -2.2416 -1.0917
 3375SOL     OW21583   2.747   3.156  11.134 -0.7386  0.6074  0.1680
 3375SOL    HW121584   2.819   3.105  11.097  0.6537  2.6873 -0.0106
 3375SOL    HW221585   2.684   3.094  11.171 -0.1103  0.2140  0.5770
 3376SOL     OW21586   3.879   4.346   0.504  0.3783  0.1576  0.3138
 3376SOL    HW121587   3.868   4.254   0.481  1.1865  0.0158  0.4938
 3376SOL    HW221588   3.951   4.336   0.566 -0.1138  0.7378  0.9865
 3377SOL     OW21589   4.549   2.549  13.685  0.1808 -0.0499  0.1977
 3377SOL    HW121590   4.572   2.624  13.629 -0.6938 -0.1920 -0.3475
 3377SOL    HW221591   4.480   2.589  13.738 -0.2389 -1.8872  1.0180
 3378SOL     OW21592   1.493   1.804   6.830  0.2031  0.0250 -1.1704
 3378SOL    HW121593   1.545   1.737   6.785 -0.0791 -0.4477 -0.7881
 3378SOL    HW221594   1.489   1.764   6.917  1.7646 -1.1485 -1.6359
 3379SOL     OW21595   3.988   4.020   8.487 -0.1621 -0.3732  0.0584
 3379SOL    HW121596   3.980   4.061   8.574  1.8104  0.6888 -0.2543
 3379SOL    HW221597   4.080   3.998   8.478 -0.5639 -2.3568  0.8581
 3380SOL     OW21598   2.350   2.413   6.088 -0.0336  0.6093 -0.1283
 3380SOL    HW121599   2.264   2.373   6.075  0.5910 -0.5089 -0.7846
 3380SOL    HW221600   2.327   2.497   6.129  0.8217  1.4808 -1.4312
 3381SOL     OW21601   3.843   2.668   5.417 -0.3727  0.1677  0.6150
 3381SOL    HW121602   3.814   2.580   5.393 -2.4200  0.5906  1.4736
 3381SOL    HW221603   3.847   2.717   5.334  0.7221 -1.1588 -0.1087
 3382SOL     OW21604   0.647   4.195   8.511 -0.1330 -0.0792 -0.4220
 3382SOL    HW121605   0.611   4.185   8.599  0.1745  0.1453 -0.2733
 3382SOL    HW221606   0.738   4.168   8.521 -0.3901 -1.7473 -2.4709
 3383SOL     OW21607   4.076   0.186   1.784  0.2427  0.2305 -0.0692
 3383SOL    HW121608   4.016   0.130   1.735  1.4287 -2.1316  1.1703
 3383SOL    HW221609   4.034   0.166   1.868  1.0588  2.2511  0.8375
 3384SOL     OW21610   1.623   0.823   5.362 -0.3116 -0.3996  0.0263
 3384SOL    HW121611   1.662   0.852   5.280 -1.3293 -0.9994 -0.6672
 3384SOL    HW221612   1.630   0.728   5.365  0.2857 -0.2631  2.9384
 3385SOL     OW21613   0.193   0.831   7.646  0.2174 -0.4483 -0.5713
 3385SOL    HW121614   0.144   0.874   7.577 -0.6834  3.0870  2.2986
 3385SOL    HW221615   0.242   0.774   7.586  0.1865  0.1289 -1.1444
 3386SOL     OW21616   3.987   0.700   2.600 -0.1482 -0.2197 -0.1743
 3386SOL    HW121617   4.059   0.669   2.545  0.5769  0.7714  0.2148
 3386SOL    HW221618   4.027   0.774   2.645 -1.3519  1.4662 -1.9168
 3387SOL     OW21619   2.474   1.591  15.147 -0.0707  0.8507 -0.0430
 3387SOL    HW121620   2.464   1.683  15.120 -2.9200  0.2407 -0.9919
 3387SOL    HW221621   2.548   1.576  15.088 -1.8262 -1.7789 -1.5577
 3388SOL     OW21622   4.079   0.730  15.247  0.1399  0.0574  0.3424
 3388SOL    HW121623   4.110   0.670  15.179  1.1072  0.1590  0.6958
 3388SOL    HW221624   3.992   0.693  15.264 -0.0343 -0.0199 -0.7505
 3389SOL     OW21625   3.464   4.139  17.384 -0.5341 -0.4203  0.3546
 3389SOL    HW121626   3.500   4.151  17.471 -1.3849 -0.3541  0.6952
 3389SOL    HW221627   3.386   4.086  17.402 -0.9476 -0.2235 -0.8277
 3390SOL     OW21628   1.916   1.726   6.096  0.0160  0.2987 -0.7057
 3390SOL    HW121629   1.931   1.667   6.170 -2.0644  2.9799  1.8584
 3390SOL    HW221630   1.961   1.673   6.030  0.8487  0.5201 -0.3098
 3391SOL     OW21631   3.310   2.668  10.536  0.2020 -0.7986  0.4080
 3391SOL    HW121632   3.245   2.694  10.602  1.1939  0.0401  1.0572
 3391SOL    HW221633   3.267   2.700  10.457  1.4789  0.4782  0.2168
 3392SOL     OW21634   2.473   2.136   0.979  0.6225 -0.1748 -0.0357
 3392SOL    HW121635   2.415   2.156   0.905  0.7081  0.1569 -0.0119
 3392SOL    HW221636   2.541   2.203   0.972  0.6413 -0.1786  0.1306
 3393SOL     OW21637   3.928   3.342  17.528 -0.3861  0.4062 -0.2704
 3393SOL    HW121638   3.835   3.360  17.540 -0.3779  0.7086 -0.6400
 3393SOL    HW221639   3.970   3.381  17.604  0.5510  1.4476 -1.3061
 3394SOL     OW21640   0.081   0.576   5.822  0.2707 -0.5682 -0.0999
 3394SOL    HW121641   0.041   0.605   5.740  0.5427 -1.1059 -0.4188
 3394SOL    HW221642   0.134   0.500   5.799  0.4646 -0.3136 -0.4975
 3395SOL     OW21643   1.119   4.107   6.397  0.1763  0.3425 -0.2076
 3395SOL    HW121644   1.187   4.119   6.463 -0.1239  0.5910  0.0540
 3395SOL    HW221645   1.154   4.031   6.352  0.0534  1.4161 -2.1349
 3396SOL     OW21646   1.504   0.202   9.414 -0.5385  0.2157 -0.7649
 3396SOL    HW121647   1.496   0.260   9.339  1.5942  0.5771 -0.7028
 3396SOL    HW221648   1.559   0.253   9.474 -1.6327  0.0970  0.3350
 3397SOL     OW21649   2.463   2.821   3.606  0.1487 -0.5996 -0.4542
 3397SOL    HW121650   2.550   2.801   3.640 -0.9177 -2.2511  1.3501
 3397SOL    HW221651   2.482   2.848   3.517  0.6320  0.5901  0.0016
 3398SOL     OW21652   4.612   2.031   5.477  0.4276 -0.3089 -0.8320
 3398SOL    HW121653   4.665   1.982   5.539 -1.3075 -0.9271  0.1642
 3398SOL    HW221654   4.649   2.119   5.475  2.4041 -1.1243  0.6385
 3399SOL     OW21655   2.113   2.324   3.628 -0.0466 -0.8638  0.1246
 3399SOL    HW121656   2.067   2.248   3.664 -1.8341  0.2786  0.2404
 3399SOL    HW221657   2.130   2.374   3.709  0.2947  0.7526 -0.9471
 3400SOL     OW21658   1.287   2.319   2.473  0.4579 -0.0073  0.7600
 3400SOL    HW121659   1.211   2.340   2.418 -0.1226 -2.3505  0.6769
 3400SOL    HW221660   1.247   2.259   2.536  1.2961 -0.3229  0.9983
 3401SOL     OW21661   3.889   4.203   8.013  0.0404 -0.2410 -0.0976
 3401SOL    HW121662   3.840   4.129   8.048 -4.5472  2.4081 -0.9462
 3401SOL    HW221663   3.904   4.167   7.926 -0.5765  0.9531 -0.6877
 3402SOL     OW21664   4.364   4.150   8.644 -0.9609  0.3370 -0.4212
 3402SOL    HW121665   4.335   4.085   8.580  2.6082 -1.0265 -0.6820
 3402SOL    HW221666   4.457   4.157   8.624 -0.4833 -3.0935  0.6743
 3403SOL     OW21667   0.956   3.214   7.403  0.2694  0.0716  0.4145
 3403SOL    HW121668   0.996   3.288   7.356 -2.1720  0.3809 -1.1633
 3403SOL    HW221669   0.873   3.209   7.356  1.1289 -1.0013 -1.0124
 3404SOL     OW21670   1.184   4.481  12.845 -0.3899  0.0450  0.1177
 3404SOL    HW121671   1.259   4.455  12.899  0.3312  0.4453 -0.6974
 3404SOL    HW221672   1.193   4.575  12.833 -0.6216 -0.2839 -2.4578
 3405SOL     OW21673   0.852   2.503   4.412 -0.3506  0.0982  0.4052
 3405SOL    HW121674   0.849   2.457   4.329 -1.0046 -0.4638  0.7370
 3405SOL    HW221675   0.917   2.572   4.397  0.2596 -0.7907 -0.9805
 3406SOL     OW21676   1.263   1.090   5.470 -0.0863  0.3166  0.3771
 3406SOL    HW121677   1.216   1.166   5.438  1.2662 -0.3387 -3.1947
 3406SOL    HW221678   1.246   1.025   5.402 -1.4318 -0.1754  1.1776
 3407SOL     OW21679   2.389   1.032  15.316 -0.6063 -0.4541  0.2057
 3407SOL    HW121680   2.429   1.005  15.233  0.8370 -2.7013  1.6419
 3407SOL    HW221681   2.389   0.944  15.355 -3.2085 -0.9308 -0.8978
 3408SOL     OW21682   1.847   0.084   0.529  0.1569  0.0155 -0.1549
 3408SOL    HW121683   1.887   0.087   0.616 -1.1935 -1.5218  0.5157
 3408SOL    HW221684   1.923   0.113   0.478 -1.5419  0.4562 -2.4288
 3409SOL     OW21685   1.160   2.848  11.258  0.1178 -0.3091  0.2594
 3409SOL    HW121686   1.167   2.920  11.320 -1.3192  1.8762 -2.1478
 3409SOL    HW221687   1.071   2.859  11.226 -0.7445  0.0167  2.7882
 3410SOL     OW21688   3.262   0.165   4.392  0.3165  0.1391  0.5925
 3410SOL    HW121689   3.315   0.164   4.472  1.9956  2.4662 -0.4912
 3410SOL    HW221690   3.252   0.072   4.373  0.0327 -0.1771  2.2109
 3411SOL     OW21691   3.500   2.946  14.780 -0.4729  0.0389 -0.6724
 3411SOL    HW121692   3.446   3.020  14.752 -2.6587 -1.3073  0.0419
 3411SOL    HW221693   3.561   2.941  14.706 -0.3993 -2.0767 -0.4627
 3412SOL     OW21694   3.959   2.473  12.534  0.3238 -0.6225 -0.0649
 3412SOL    HW121695   3.942   2.443  12.445 -4.0323  1.5642  0.0254
 3412SOL    HW221696   3.996   2.559  12.514  1.2079 -0.4342  2.3198
 3413SOL     OW21697   1.542   2.955  16.773  0.2077  0.5667  0.1745
 3413SOL    HW121698   1.462   2.991  16.734 -0.3844 -0.7805  0.1205
 3413SOL    HW221699   1.515   2.935  16.863 -0.8094 -3.5913 -1.0388
 3414SOL     OW21700   1.037   0.853   1.220 -0.2311 -0.6181  0.4046
 3414SOL    HW121701   0.961   0.895   1.179  0.3387 -1.7259 -1.8180
 3414SOL    HW221702   1.035   0.886   1.310  1.2084  1.9150 -0.5051
 3415SOL     OW21703   2.188   2.966  14.508 -0.0998 -0.4151  0.2655
 3415SOL    HW121704   2.202   2.909  14.433  0.8962  0.5310 -0.2732
 3415SOL    HW221705   2.270   3.016  14.504 -0.7280  0.4504 -2.1632
 3416SOL     OW21706   2.880   0.161   6.054  0.2102  0.2521 -0.3948
 3416SOL    HW121707   2.968   0.161   6.091 -0.7267  1.2870  1.8493
 3416SOL    HW221708   2.850   0.073   6.076  2.1812 -0.3314 -0.0518
 3417SOL     OW21709   1.231   2.442   5.505  0.3540 -0.3812 -0.4738
 3417SOL    HW121710   1.179   2.510   5.464  2.2645  1.6227  0.4437
 3417SOL    HW221711   1.178   2.364   5.489  1.8016 -1.9254  2.2240
 3418SOL     OW21712   3.520   2.488   5.315  0.0028  0.1551  0.1184
 3418SOL    HW121713   3.470   2.509   5.237  0.8211 -0.1721 -0.4897
 3418SOL    HW221714   3.478   2.543   5.382  0.1584 -1.8234  1.8328
 3419SOL     OW21715   3.153   0.225  12.898 -0.5402  0.1645 -0.1827
 3419SOL    HW121716   3.215   0.253  12.966  1.0514 -0.0545 -1.5257
 3419SOL    HW221717   3.098   0.304  12.900 -0.7716 -0.0268  0.8102
 3420SOL     OW21718   0.678   0.381   2.431  0.2286  0.6865  0.4597
 3420SOL    HW121719   0.611   0.316   2.410 -0.3033  0.8845  1.5734
 3420SOL    HW221720   0.750   0.319   2.427 -0.6324 -0.3561  1.1213
 3421SOL     OW21721   2.405   1.648  16.161  0.4248 -0.6178  0.3717
 3421SOL    HW121722   2.452   1.721  16.120  0.9606 -1.1584  0.0297
 3421SOL    HW221723   2.466   1.575  16.154  1.5472  0.2977  0.5760
 3422SOL     OW21724   4.612   2.160   3.181  0.1243 -0.1401 -0.1758
 3422SOL    HW121725   4.565   2.079   3.203 -1.7132  0.5391 -1.6169
 3422SOL    HW221726   4.545   2.221   3.152 -2.4325 -1.1094  3.7358
 3423SOL     OW21727   2.453   4.121   4.346 -0.2256 -0.0755 -0.4013
 3423SOL    HW121728   2.410   4.130   4.431  1.5002  1.0041  0.3587
 3423SOL    HW221729   2.487   4.210   4.331 -0.6566  0.2279  0.4043
 3424SOL     OW21730   0.072   2.998   6.657  0.1148 -0.4735  0.2667
 3424SOL    HW121731   0.103   3.081   6.694 -2.2605  1.2716 -1.6690
 3424SOL    HW221732   0.117   2.978   6.575 -1.5298  0.3454 -0.8317
 3425SOL     OW21733   1.275   3.063   2.512 -0.2810  0.7463 -0.5473
 3425SOL    HW121734   1.294   3.108   2.430 -0.3333  2.0419  0.1533
 3425SOL    HW221735   1.199   3.016   2.477  0.6431 -1.5678  0.5507
 3426SOL     OW21736   4.661   0.723   5.626 -0.0724 -0.0305  0.6895
 3426SOL    HW121737   4.690   0.794   5.568  1.6341 -0.3903  1.1038
 3426SOL    HW221738   4.595   0.683   5.569 -0.7601  1.4434  0.4409
 3427SOL     OW21739   2.652   1.892   3.188  0.4382 -0.5880  0.1146
 3427SOL    HW121740   2.697   1.966   3.228 -0.9519 -0.0968  0.7789
 3427SOL    HW221741   2.593   1.882   3.263 -1.6052 -0.2961 -1.4443
 3428SOL     OW21742   4.407   0.137   6.561  0.8229 -0.3109 -0.3162
 3428SOL    HW121743   4.382   0.137   6.469  1.3229  3.7015 -0.4573
 3428SOL    HW221744   4.499   0.113   6.548  0.9204  0.1430 -0.4558
 3429SOL     OW21745   3.203   4.521   5.050  0.0672  0.0423 -0.2102
 3429SOL    HW121746   3.175   4.594   4.995 -1.5483 -0.8476 -0.5966
 3429SOL    HW221747   3.295   4.541   5.038 -0.0263 -0.0250 -1.0685
 3430SOL     OW21748   4.181   0.399   6.773  0.5951  0.2748  0.1456
 3430SOL    HW121749   4.219   0.412   6.686  2.3533  0.1510  0.8815
 3430SOL    HW221750   4.162   0.486   6.807  0.9452  0.5224 -0.2977
 3431SOL     OW21751   0.761   2.018  10.218 -0.1118  0.2871 -0.2145
 3431SOL    HW121752   0.741   1.988  10.306  1.6625 -1.4060 -0.3753
 3431SOL    HW221753   0.796   1.938  10.178 -1.8548 -0.7282  0.2768
 3432SOL     OW21754   2.623   4.555   1.970 -0.1732 -0.4430 -0.4283
 3432SOL    HW121755   2.589   4.627   2.022  1.5780 -0.3684  0.6203
 3432SOL    HW221756   2.670   4.506   2.037 -0.7105 -1.3188 -0.6946
 3433SOL     OW21757   2.818   0.957  12.707 -0.2963  0.8312 -0.5412
 3433SOL    HW121758   2.898   0.905  12.706 -1.0727 -0.3653 -0.2869
 3433SOL    HW221759   2.748   0.894  12.689  0.6720 -0.6208  0.8691
 3434SOL     OW21760   0.823   4.181   5.116  0.7324  0.1637  0.1878
 3434SOL    HW121761   0.824   4.088   5.139  2.4002  0.3782  1.0354
 3434SOL    HW221762   0.860   4.216   5.197 -2.2546  2.0095  0.7253
 3435SOL     OW21763   4.376   2.061   5.067 -0.6474  0.3512 -0.4718
 3435SOL    HW121764   4.346   2.071   4.977 -2.5481  0.3470  0.1782
 3435SOL    HW221765   4.341   2.136   5.116 -0.2471 -0.5323  1.1767
 3436SOL     OW21766   2.043   4.310   8.107  0.5532  0.7576 -0.8402
 3436SOL    HW121767   1.951   4.287   8.097  0.8243 -0.1866 -1.1283
 3436SOL    HW221768   2.076   4.226   8.139  0.9127  0.3385 -2.3344
 3437SOL     OW21769   0.627   1.321  12.884  0.0973 -0.6898  0.2285
 3437SOL    HW121770   0.630   1.238  12.932  1.1168 -0.6403  0.2596
 3437SOL    HW221771   0.583   1.288  12.806 -1.7766 -2.6742  2.1347
 3438SOL     OW21772   0.512   1.944   7.029 -0.3001  0.3131 -0.1962
 3438SOL    HW121773   0.606   1.926   7.030 -0.1737  1.0524  1.0409
 3438SOL    HW221774   0.521   2.039   7.021  0.8755  0.1148 -1.3209
 3439SOL     OW21775   0.620   2.139  11.273 -0.1489  0.1906 -0.4809
 3439SOL    HW121776   0.539   2.170  11.314 -0.0987 -0.2308 -0.0616
 3439SOL    HW221777   0.586   2.084  11.203  2.2427 -0.5803 -1.0338
 3440SOL     OW21778   4.053   3.014   9.537  0.4635 -0.2175 -0.4083
 3440SOL    HW121779   3.962   3.009   9.567 -0.3649 -0.5133 -2.9611
 3440SOL    HW221780   4.052   2.931   9.489 -0.1566  1.3074 -3.0987
 3441SOL     OW21781   3.149   0.798   8.910  0.8227  0.3000 -0.0701
 3441SOL    HW121782   3.168   0.870   8.971 -0.1207 -0.3386  0.9675
 3441SOL    HW221783   3.084   0.838   8.853 -0.1743 -0.9088  0.2296
 3442SOL     OW21784   3.283   0.862  10.794 -0.1238 -0.0183  0.8287
 3442SOL    HW121785   3.356   0.852  10.855 -1.3971  0.3244  2.4079
 3442SOL    HW221786   3.332   0.915  10.732 -0.3392  0.1910  0.8408
 3443SOL     OW21787   2.592   2.957  11.262 -0.1061 -0.1600  0.4121
 3443SOL    HW121788   2.605   2.972  11.356  1.3100  2.6615 -0.2264
 3443SOL    HW221789   2.498   2.944  11.254 -0.2148 -0.7130  2.4560
 3444SOL     OW21790   2.140   0.449   8.443  0.0896 -0.1042  0.2990
 3444SOL    HW121791   2.052   0.441   8.405  1.6062 -2.3130 -2.7818
 3444SOL    HW221792   2.157   0.355   8.450  0.3597 -0.0783  0.0030
 3445SOL     OW21793   2.616   2.364   6.053 -0.1771 -0.2106 -0.3048
 3445SOL    HW121794   2.521   2.370   6.041 -0.1033  0.9064 -0.3322
 3445SOL    HW221795   2.643   2.441   6.105  0.2015 -1.3026  1.1290
 3446SOL     OW21796   2.095   0.311   6.277 -0.2604 -0.3019 -0.1604
 3446SOL    HW121797   2.147   0.306   6.197 -3.5650 -1.1566 -2.2624
 3446SOL    HW221798   2.042   0.390   6.264 -0.3909 -0.4533 -0.5767
 3447SOL     OW21799   3.442   2.968   2.302  0.4794 -0.1928  0.4457
 3447SOL    HW121800   3.411   2.933   2.386  0.9734  2.8403  1.9215
 3447SOL    HW221801   3.468   2.887   2.258  0.6469  0.1683 -0.1156
 3448SOL     OW21802   3.495   0.700   5.747 -0.0334  0.2076 -0.1457
 3448SOL    HW121803   3.458   0.785   5.770 -0.1938  0.4769 -1.3647
 3448SOL    HW221804   3.414   0.648   5.742  0.9568 -1.0232 -3.5449
 3449SOL     OW21805   3.103   0.641  17.296  0.0361 -0.3866  0.5718
 3449SOL    HW121806   3.050   0.602  17.366  1.3103 -0.1776  1.6526
 3449SOL    HW221807   3.176   0.580  17.287 -2.2074 -2.9202 -0.1316
 3450SOL     OW21808   2.182   4.664   2.698  0.2138 -0.2285  0.4585
 3450SOL    HW121809   2.137   4.642   2.617  0.0222 -0.0567  0.5188
 3450SOL    HW221810   2.195   4.577   2.736 -2.0842 -1.0275 -0.5774
 3451SOL     OW21811   1.334   3.709   9.041  0.9293  0.0577 -0.0049
 3451SOL    HW121812   1.358   3.679   9.129 -1.0741 -0.2423  0.4351
 3451SOL    HW221813   1.280   3.787   9.055 -0.0706 -0.4288 -1.2399
 3452SOL     OW21814   1.954   4.435   9.439  0.7765  0.1414 -0.3633
 3452SOL    HW121815   2.030   4.389   9.475 -0.3029 -1.1712  0.2836
 3452SOL    HW221816   1.918   4.483   9.514 -1.2018 -0.2801 -1.0311
 3453SOL     OW21817   2.999   0.299   6.869  0.0863  0.1430 -0.0284
 3453SOL    HW121818   3.073   0.239   6.874  0.0100  0.1334  0.9158
 3453SOL    HW221819   2.951   0.274   6.791 -0.4597  0.2127  0.2884
 3454SOL     OW21820   3.657   2.818   2.803  0.1679  0.2505 -0.2673
 3454SOL    HW121821   3.578   2.767   2.822  0.9243 -1.3424 -1.4177
 3454SOL    HW221822   3.691   2.842   2.889 -2.3349 -0.9723  1.0894
 3455SOL     OW21823   3.220   1.760   6.674  0.0353  0.2717 -0.2406
 3455SOL    HW121824   3.214   1.736   6.766  0.7095 -0.1487 -0.3009
 3455SOL    HW221825   3.212   1.854   6.689 -2.3892 -0.1480  0.9686
 3456SOL     OW21826   1.436   3.802  17.585  0.0503 -0.3567  0.4182
 3456SOL    HW121827   1.425   3.894  17.612  1.8385  0.4608 -1.5839
 3456SOL    HW221828   1.408   3.746  17.657 -3.5158  0.7056 -0.1443
 3457SOL     OW21829   0.101   2.041  11.093 -0.4701  0.1531  0.0557
 3457SOL    HW121830   0.185   2.080  11.119  0.7351 -2.5434  0.2579
 3457SOL    HW221831   0.114   2.024  11.000 -0.7919  1.1138 -0.1607
 3458SOL     OW21832   0.289   1.768   5.784 -0.3382 -0.0891 -0.3669
 3458SOL    HW121833   0.244   1.837   5.832 -0.3509 -0.2317 -0.1750
 3458SOL    HW221834   0.321   1.815   5.707 -1.1736  1.2644  0.1125
 3459SOL     OW21835   0.554   3.810   9.104  0.0821  0.6300  0.6347
 3459SOL    HW121836   0.556   3.816   9.009  2.4601 -2.9639  0.4488
 3459SOL    HW221837   0.473   3.858   9.121 -1.4667 -1.9070  0.4696
 3460SOL     OW21838   1.339   4.717  16.219 -0.2095 -0.0003  0.1310
 3460SOL    HW121839   1.324   4.678  16.133  0.3505 -0.8855  0.4393
 3460SOL    HW221840   1.324   0.089  16.210 -1.9804 -0.3325 -0.4953
 3461SOL     OW21841   0.249   3.161   8.616  0.0588 -0.5078 -0.3366
 3461SOL    HW121842   0.284   3.248   8.595  2.9441 -1.7919 -0.9301
 3461SOL    HW221843   0.222   3.177   8.707 -1.1408  1.5802 -1.0575
 3462SOL     OW21844   1.070   2.076  10.176  0.1708  0.0732 -0.1290
 3462SOL    HW121845   1.085   2.147  10.114 -3.0782  0.2381 -0.7346
 3462SOL    HW221846   1.132   2.085  10.247  1.6559  2.2133 -1.7123
 3463SOL     OW21847   1.818   0.461   4.272  0.1292  0.3697  0.2679
 3463SOL    HW121848   1.912   0.451   4.291 -0.1028 -1.1585  0.6654
 3463SOL    HW221849   1.796   0.368   4.261 -1.1550  0.8036 -0.7553
 3464SOL     OW21850   1.666   2.886   3.130 -0.2894 -0.3388  0.6473
 3464SOL    HW121851   1.671   2.798   3.167 -1.3366  0.1533  1.9349
 3464SOL    HW221852   1.571   2.898   3.127 -0.1656  0.5321  0.1840
 3465SOL     OW21853   2.958   3.986   3.529  0.3890 -0.4628  0.0795
 3465SOL    HW121854   2.960   4.071   3.485  0.1403  1.4386  3.7528
 3465SOL    HW221855   3.040   3.950   3.495  0.0570 -0.8004 -0.3672
 3466SOL     OW21856   4.600   2.618   8.592 -0.1768 -0.0171 -0.3122
 3466SOL    HW121857   4.528   2.618   8.654 -0.0474  0.0700 -0.1631
 3466SOL    HW221858   4.572   2.549   8.531 -2.9211  0.2462  0.6771
 3467SOL     OW21859   2.701   4.191   3.527  0.7418  0.0344  0.0386
 3467SOL    HW121860   2.713   4.097   3.511 -0.9170 -0.5796  2.5578
 3467SOL    HW221861   2.705   4.208   3.433  0.9475 -2.4451 -0.4168
 3468SOL     OW21862   1.046   1.872  12.526  0.0352 -0.4914 -0.2401
 3468SOL    HW121863   0.956   1.864  12.495 -1.0528  3.3240  1.9543
 3468SOL    HW221864   1.030   1.860  12.620  1.5635  0.6912  0.1845
 3469SOL     OW21865   0.367   2.252  17.061  0.3632  0.2141 -0.2115
 3469SOL    HW121866   0.411   2.330  17.028 -0.2097  0.9554  0.7683
 3469SOL    HW221867   0.340   2.288  17.146  0.2272  1.9750 -1.0113
 3470SOL     OW21868   4.314   1.419   8.352 -0.4771  0.1218 -0.0274
 3470SOL    HW121869   4.369   1.495   8.332 -0.0026 -0.7408 -1.9562
 3470SOL    HW221870   4.307   1.382   8.264 -2.5220 -1.7456  0.9266
 3471SOL     OW21871   2.113   4.028   8.494 -0.2117  0.3239 -0.4892
 3471SOL    HW121872   2.147   4.022   8.584 -2.9633  0.1077  0.5330
 3471SOL    HW221873   2.050   3.957   8.483 -1.2401  0.8511  1.9096
 3472SOL     OW21874   0.786   1.797  12.377  0.1160  0.3289  0.1400
 3472SOL    HW121875   0.744   1.798  12.291 -0.5971 -0.2929  0.4830
 3472SOL    HW221876   0.777   1.705  12.403 -1.2059  0.2138 -0.6894
 3473SOL     OW21877   1.050   0.992   2.963 -0.5743  0.5868  0.2630
 3473SOL    HW121878   0.979   0.991   3.027 -2.2288  1.6662 -1.5693
 3473SOL    HW221879   1.068   1.084   2.942  2.2866  0.0139  0.1238
 3474SOL     OW21880   2.164   1.144   7.574 -0.4396 -0.1635  0.2960
 3474SOL    HW121881   2.220   1.199   7.519 -1.9091  1.1694  0.1413
 3474SOL    HW221882   2.076   1.178   7.559 -0.9157 -0.7037  1.8203
 3475SOL     OW21883   0.549   4.590   4.903  0.0279 -0.3194 -0.5762
 3475SOL    HW121884   0.611   4.544   4.959 -0.0326 -2.0899 -1.9749
 3475SOL    HW221885   0.568   4.556   4.815 -0.2766 -1.5733 -0.1570
 3476SOL     OW21886   2.557   1.739  10.061 -0.4830  0.3061 -0.2536
 3476SOL    HW121887   2.572   1.744  10.156 -2.8103 -0.9560  0.1855
 3476SOL    HW221888   2.628   1.681  10.035  0.0065  1.7562 -2.1383
 3477SOL     OW21889   1.664   2.660   4.911 -0.0458  0.5802  0.1770
 3477SOL    HW121890   1.600   2.713   4.958  0.9635  2.4886 -0.5787
 3477SOL    HW221891   1.739   2.719   4.922  0.9687 -0.1981 -2.4405
 3478SOL     OW21892   0.474   4.642   7.140  0.1724 -0.1409  0.4114
 3478SOL    HW121893   0.506   4.574   7.199  1.6217 -0.4616 -0.7471
 3478SOL    HW221894   0.384   4.656   7.170 -0.0093 -1.5132  0.5207
 3479SOL     OW21895   1.532   0.956   0.746  0.6197 -0.4714 -0.8423
 3479SOL    HW121896   1.592   0.938   0.673 -0.6235  1.4191 -2.3386
 3479SOL    HW221897   1.451   0.988   0.707 -0.0346  1.1275  1.8397
 3480SOL     OW21898   1.007   4.661   0.988 -0.7382  0.2215  0.1325
 3480SOL    HW121899   0.964   4.719   1.052 -0.2107 -0.3114  0.9638
 3480SOL    HW221900   0.981   4.577   1.026 -1.2371  0.6334  0.7118
 3481SOL     OW21901   0.739   0.898   2.484  0.7746  0.1384  0.1145
 3481SOL    HW121902   0.781   0.882   2.400 -0.2339  0.4863 -0.4451
 3481SOL    HW221903   0.799   0.958   2.529  2.8372 -0.3744 -1.9493
 3482SOL     OW21904   4.025   2.387   0.368 -0.7077 -0.0908 -0.3239
 3482SOL    HW121905   4.017   2.473   0.329  1.4715  0.2102 -0.1274
 3482SOL    HW221906   4.105   2.404   0.418  0.2442  1.7329 -2.5036
 3483SOL     OW21907   2.549   1.154   0.619 -0.1336 -0.3961 -0.3523
 3483SOL    HW121908   2.498   1.091   0.567 -0.3174  0.2884 -0.9948
 3483SOL    HW221909   2.563   1.221   0.552 -0.9726  0.2545  0.1255
 3484SOL     OW21910   4.199   4.699   3.450 -0.1071  0.1677 -0.1217
 3484SOL    HW121911   4.105   4.706   3.467 -0.6812 -2.7988 -2.2189
 3484SOL    HW221912   4.201   4.606   3.428 -0.5750  0.3252 -0.8384
 3485SOL     OW21913   1.570   0.430   7.310  0.0382  0.3710  0.3915
 3485SOL    HW121914   1.544   0.380   7.233  1.4377  0.7464 -0.3267
 3485SOL    HW221915   1.594   0.358   7.368 -1.0137  1.2614  1.9565
 3486SOL     OW21916   0.204   4.715   0.480  0.0161  0.4891 -0.3063
 3486SOL    HW121917   0.124   0.029   0.441  0.3365  0.2683 -1.1760
 3486SOL    HW221918   0.229   0.051   0.551 -0.5841  0.1239  0.1992
 3487SOL     OW21919   3.623   3.759   1.906 -0.2381  0.3241  0.8581
 3487SOL    HW121920   3.657   3.803   1.984 -0.4462  0.8689  0.6431
 3487SOL    HW221921   3.579   3.830   1.859 -3.3623 -2.4252 -0.3107
 3488SOL     OW21922   3.673   0.241   3.274 -0.3431  0.1779 -0.3205
 3488SOL    HW121923   3.705   0.260   3.362  1.2319  0.9296 -1.0576
 3488SOL    HW221924   3.638   0.157   3.305  0.9143 -1.1341 -2.4463
 3489SOL     OW21925   2.565   1.096  15.873  0.2414  0.2608  0.1448
 3489SOL    HW121926   2.533   1.172  15.922  0.9307  0.2454  0.6055
 3489SOL    HW221927   2.488   1.088  15.816  0.2016  0.9564  0.0968
 3490SOL     OW21928   2.609   1.484   4.200 -0.1733  0.0268  0.5160
 3490SOL    HW121929   2.521   1.482   4.162  0.1328  0.4054 -0.2243
 3490SOL    HW221930   2.617   1.406   4.255 -2.3810 -1.6388 -1.5108
 3491SOL     OW21931   4.526   1.837  10.703  0.6567  0.3169  0.1136
 3491SOL    HW121932   4.531   1.880  10.789 -0.4344  1.1519 -0.2538
 3491SOL    HW221933   4.502   1.749  10.732  0.8643  0.1741 -0.1475
 3492SOL     OW21934   1.539   2.847   9.167 -0.4008 -0.8144  0.2397
 3492SOL    HW121935   1.520   2.941   9.168  0.3591 -0.6806  1.2773
 3492SOL    HW221936   1.565   2.826   9.257 -0.3179 -2.8331 -0.2541
 3493SOL     OW21937   3.593   2.522  13.161 -0.4933  0.1000  0.1475
 3493SOL    HW121938   3.599   2.577  13.083 -0.6637  0.2966  0.2719
 3493SOL    HW221939   3.563   2.589  13.223 -0.6344  0.5434 -0.3954
 3494SOL     OW21940   2.628   4.704   9.714 -0.0690  0.1668  0.0085
 3494SOL    HW121941   2.582   4.700   9.630 -1.5907  0.1415  0.8431
 3494SOL    HW221942   2.612   0.071   9.741  0.7390  0.6735 -1.2050
 3495SOL     OW21943   0.547   3.650   3.245  0.3701  0.2786  0.0862
 3495SOL    HW121944   0.497   3.606   3.177 -1.2851  0.6942  1.0371
 3495SOL    HW221945   0.480   3.712   3.275  0.1279  0.1377 -0.1705
 3496SOL     OW21946   1.507   3.467   7.006  0.4320 -0.5735  0.0230
 3496SOL    HW121947   1.575   3.530   6.982  1.0978 -1.3531 -0.1773
 3496SOL    HW221948   1.480   3.429   6.922  2.4620 -0.6129 -0.6303
 3497SOL     OW21949   4.230   3.574   4.937  0.6704  0.4124 -0.2108
 3497SOL    HW121950   4.233   3.500   4.875 -0.7634 -0.1365  0.3940
 3497SOL    HW221951   4.137   3.578   4.957  0.8216 -1.1100  0.7411
 3498SOL     OW21952   2.058   3.955   6.021 -0.3930 -0.6224  0.7679
 3498SOL    HW121953   2.073   3.970   6.114  0.6186  1.3706  0.2962
 3498SOL    HW221954   1.965   3.934   6.019 -0.2196 -1.4302  1.0567
 3499SOL     OW21955   0.297   2.414   5.127 -0.3011  0.5300  0.8635
 3499SOL    HW121956   0.335   2.367   5.053 -1.5231  0.0563  0.5329
 3499SOL    HW221957   0.373   2.430   5.184 -0.1042 -0.5112  0.8899
 3500SOL     OW21958   0.477   2.297   3.309 -0.2600 -0.3013 -0.8467
 3500SOL    HW121959   0.556   2.314   3.259 -0.9550  1.3716 -1.3722
 3500SOL    HW221960   0.419   2.372   3.297  0.9640  0.5311 -1.4867
 3501SOL     OW21961   3.469   4.285   3.268 -0.3720  0.2063  0.2658
 3501SOL    HW121962   3.405   4.356   3.267  0.4032  0.9086  0.2889
 3501SOL    HW221963   3.424   4.227   3.207  1.2489  0.8941 -1.5989
 3502SOL     OW21964   2.967   4.071   2.060 -0.5093  0.5596  0.0295
 3502SOL    HW121965   3.028   4.136   2.093 -1.1517  2.4250 -2.3802
 3502SOL    HW221966   2.951   4.121   1.980  3.3631  0.2630 -0.9161
 3503SOL     OW21967   1.188   0.294   2.147 -0.4476  0.1650  0.1434
 3503SOL    HW121968   1.127   0.224   2.171  1.0045 -1.4855 -0.9741
 3503SOL    HW221969   1.265   0.238   2.146  1.1742  2.3941  1.0798
 3504SOL     OW21970   1.639   4.114  11.019  0.6554  0.1444  0.1118
 3504SOL    HW121971   1.734   4.125  11.022  0.6546  0.3194 -0.7663
 3504SOL    HW221972   1.626   4.020  11.030 -1.4679  0.4805  0.3286
 3505SOL     OW21973   0.727   2.482   3.424 -0.0080 -0.2751 -0.1456
 3505SOL    HW121974   0.668   2.549   3.460  2.2636  1.3804  0.4870
 3505SOL    HW221975   0.764   2.521   3.345  1.6069  0.7818  1.1041
 3506SOL     OW21976   0.898   1.072   2.647 -0.6223  0.4363 -0.1907
 3506SOL    HW121977   0.872   1.157   2.611 -2.5727  0.4906  1.3115
 3506SOL    HW221978   0.927   1.093   2.736 -0.3194 -1.3771  0.1309
 3507SOL     OW21979   0.463   4.579  11.988  0.3061 -0.2991  0.0311
 3507SOL    HW121980   0.369   4.558  11.990  0.4346 -0.8483  0.1256
 3507SOL    HW221981   0.489   4.534  11.908  0.3586  1.0111 -0.6915
 3508SOL     OW21982   2.700   4.699   3.112 -0.5118  0.3234 -1.2018
 3508SOL    HW121983   2.673   4.667   3.026 -0.4859 -0.8976 -0.7629
 3508SOL    HW221984   2.640   0.051   3.112 -2.3895 -1.1866  2.9014
 3509SOL     OW21985   4.356   3.717  15.840  0.6448  0.1951 -0.1487
 3509SOL    HW121986   4.403   3.711  15.757  1.4675  0.3181  0.3070
 3509SOL    HW221987   4.400   3.785  15.890  0.6604 -0.4362  0.7046
 3510SOL     OW21988   3.367   1.063   3.769 -0.6674 -0.3924  0.4994
 3510SOL    HW121989   3.345   0.992   3.709  2.9437  0.3750 -1.6731
 3510SOL    HW221990   3.278   1.097   3.783 -0.5001  0.2799 -0.0689
 3511SOL     OW21991   3.671   1.218   5.653 -0.2226  0.3757  0.1820
 3511SOL    HW121992   3.671   1.169   5.571  1.4947 -0.5780  0.7414
 3511SOL    HW221993   3.641   1.304   5.625  0.0051  0.5329  0.4170
 3512SOL     OW21994   2.288   3.435   4.298 -0.0850 -0.0585  0.6247
 3512SOL    HW121995   2.346   3.370   4.339 -0.2681  1.0169  2.5448
 3512SOL    HW221996   2.216   3.375   4.276 -2.2030  1.6883  2.9090
 3513SOL     OW21997   3.658   3.640  13.952  0.3975 -0.9189 -0.0838
 3513SOL    HW121998   3.618   3.592  13.879 -2.2217  0.3519  0.5125
 3513SOL    HW221999   3.623   3.725  13.925  0.7369 -0.4875  0.8406
 3514SOL     OW22000   2.022   3.941   7.499  0.0247  0.8821  0.0403
 3514SOL    HW122001   2.080   3.941   7.576  0.0190  0.4570  0.0441
 3514SOL    HW222002   2.078   4.000   7.449  1.1371  0.9619  1.3737
 3515SOL     OW22003   2.284   2.143   1.987  0.3143 -0.0841 -0.3850
 3515SOL    HW122004   2.297   2.081   2.058 -0.1320  0.5939  0.2876
 3515SOL    HW222005   2.195   2.128   1.956 -0.4425  2.0906  0.7124
 3516SOL     OW22006   1.879   4.202   3.635  0.0114 -0.0138 -0.3167
 3516SOL    HW122007   1.965   4.244   3.641 -0.0818  0.1855 -0.3952
 3516SOL    HW222008   1.883   4.179   3.728  0.9384  0.7777 -0.1576
 3517SOL     OW22009   1.097   2.789   9.521 -0.4023  0.0170  0.0564
 3517SOL    HW122010   1.079   2.700   9.550 -1.1040 -0.8939 -3.1162
 3517SOL    HW222011   1.182   2.787   9.476 -0.9826  0.2998 -1.0466
 3518SOL     OW22012   0.777   1.139   3.040 -0.2657 -0.0250 -0.2035
 3518SOL    HW122013   0.702   1.102   2.994 -0.8384  2.2795 -1.1407
 3518SOL    HW222014   0.797   1.059   3.088  0.2275  1.0223  1.3794
 3519SOL     OW22015   2.256   4.507   7.336  0.0554  0.2184 -0.4143
 3519SOL    HW122016   2.213   4.496   7.421  0.0194  0.4938 -0.3962
 3519SOL    HW222017   2.186   4.558   7.296 -0.3350 -0.6484 -0.8204
 3520SOL     OW22018   1.436   2.547   5.086 -0.0005 -0.2257 -0.1982
 3520SOL    HW122019   1.467   2.636   5.067  0.8705 -0.9844 -2.3648
 3520SOL    HW222020   1.342   2.569   5.086 -0.2504 -1.2548 -1.4698
 3521SOL     OW22021   3.313   0.947   0.153 -0.0466  0.4129 -0.6027
 3521SOL    HW122022   3.289   0.870   0.101 -0.1537  0.3172 -0.4126
 3521SOL    HW222023   3.238   1.006   0.142  0.4611  0.9397 -1.2234
 3522SOL     OW22024   3.256   0.853   2.745 -0.3115  0.7202  0.2007
 3522SOL    HW122025   3.297   0.774   2.782 -1.9203 -0.0711  0.2714
 3522SOL    HW222026   3.177   0.817   2.704 -0.3713  0.9124  0.1506
 3523SOL     OW22027   1.290   4.583   0.977  0.1677 -0.4026 -0.1088
 3523SOL    HW122028   1.237   4.505   0.996 -1.7452  0.6514 -1.1492
 3523SOL    HW222029   1.219   4.647   0.973 -0.5326 -1.1777 -0.0602
 3524SOL     OW22030   0.050   1.961   3.598  0.4033 -0.0647  0.1040
 3524SOL    HW122031   0.097   1.895   3.548 -1.2917 -1.7957  0.8027
 3524SOL    HW222032   0.028   2.025   3.531 -1.2976  0.3007  1.0127
 3525SOL     OW22033   1.261   1.100   7.943 -0.3019  0.0754 -0.2076
 3525SOL    HW122034   1.322   1.041   7.988 -1.6326  0.9021  2.6601
 3525SOL    HW222035   1.188   1.109   8.004  0.5585  0.4999  0.7701
 3526SOL     OW22036   4.692   3.370   1.890  0.0761  0.6587  0.3374
 3526SOL    HW122037   0.013   3.286   1.905 -0.1754  0.5349  0.3837
 3526SOL    HW222038   4.655   3.339   1.807  0.5946  1.0666 -0.0465
 3527SOL     OW22039   0.543   0.647   2.235  0.3050  0.0354  0.2740
 3527SOL    HW122040   0.536   0.614   2.324 -1.5190  1.9496  0.8567
 3527SOL    HW222041   0.629   0.688   2.243  0.0399  0.7056 -0.2277
 3528SOL     OW22042   1.165   2.817   7.620 -0.3765  0.1505  0.3577
 3528SOL    HW122043   1.258   2.839   7.627 -0.0598 -0.8681 -0.5344
 3528SOL    HW222044   1.127   2.902   7.598 -0.1301  0.3811  0.8323
 3529SOL     OW22045   2.447   2.412   2.056  0.0126 -0.1411 -0.0812
 3529SOL    HW122046   2.377   2.352   2.031  0.3269 -1.0647  1.2720
 3529SOL    HW222047   2.408   2.451   2.135 -0.5016  0.9314 -0.8607
 3530SOL     OW22048   1.262   1.281   8.487  0.0328  0.4988  0.2146
 3530SOL    HW122049   1.305   1.303   8.405  0.5777  3.5620  1.3369
 3530SOL    HW222050   1.234   1.192   8.464 -0.9556  0.8422  0.0562
 3531SOL     OW22051   1.383   0.340   4.226 -0.1743 -0.5989 -0.1255
 3531SOL    HW122052   1.321   0.290   4.173 -0.2483  0.8438 -1.3864
 3531SOL    HW222053   1.431   0.273   4.275  3.8038  3.0810  0.9852
 3532SOL     OW22054   1.392   0.666   7.171 -0.8701 -0.1596  0.7010
 3532SOL    HW122055   1.342   0.632   7.245  1.6030  2.1849  3.4533
 3532SOL    HW222056   1.325   0.651   7.103  0.8918 -1.0026 -0.8311
 3533SOL     OW22057   2.272   0.456   4.539  0.5692  0.1989  0.6216
 3533SOL    HW122058   2.297   0.497   4.621  1.5253  0.0194  0.4115
 3533SOL    HW222059   2.350   0.413   4.505 -0.4492  0.5231 -2.1320
 3534SOL     OW22060   4.518   2.918   4.332  0.1850 -0.0467  0.2567
 3534SOL    HW122061   4.610   2.944   4.336 -0.2606  1.8470 -2.2651
 3534SOL    HW222062   4.529   2.823   4.337  0.7988  0.0692  1.0210
 3535SOL     OW22063   0.674   0.499  14.281  0.4178  0.5710 -0.2459
 3535SOL    HW122064   0.690   0.493  14.187 -1.4334  0.1592 -0.5231
 3535SOL    HW222065   0.739   0.566  14.303  0.5265  0.9752 -1.7510
 3536SOL     OW22066   4.548   4.531  12.454  0.3552  0.4389 -0.8976
 3536SOL    HW122067   4.456   4.521  12.429  0.2751 -1.4251  0.1645
 3536SOL    HW222068   4.571   4.603  12.394  3.3755  0.4140  0.2267
 3537SOL     OW22069   2.973   1.204   1.038  0.1164 -0.6881 -0.4592
 3537SOL    HW122070   3.038   1.250   0.985  1.5289 -0.1251  1.7827
 3537SOL    HW222071   2.926   1.154   0.971 -2.1026  0.6878  0.0669
 3538SOL     OW22072   2.696   0.933  12.412 -0.3580  0.4501  0.5404
 3538SOL    HW122073   2.657   0.925  12.499 -1.6653 -1.9384 -0.2579
 3538SOL    HW222074   2.746   0.851  12.409 -0.4900  0.3233  1.5556
 3539SOL     OW22075   0.521   2.242  10.675  0.2141  0.8061  0.1738
 3539SOL    HW122076   0.439   2.280  10.706  0.3706 -0.3388  1.9429
 3539SOL    HW222077   0.517   2.151  10.703 -4.6567  0.8899 -0.1694
 3540SOL     OW22078   4.281   3.690  16.994 -0.2296 -0.5727 -0.2742
 3540SOL    HW122079   4.326   3.774  17.009 -1.0882 -0.0648 -0.5483
 3540SOL    HW222080   4.204   3.728  16.951 -0.0231 -0.3388 -0.4387
 3541SOL     OW22081   2.316   1.472   0.454  0.6296  0.3254  0.4313
 3541SOL    HW122082   2.251   1.456   0.522 -0.8331 -1.3737 -1.3791
 3541SOL    HW222083   2.298   1.405   0.388  1.2396 -0.5622  1.1684
 3542SOL     OW22084   3.619   3.809   2.988 -0.3703 -0.0742 -0.2569
 3542SOL    HW122085   3.620   3.901   3.015 -1.1176  0.4078 -1.8947
 3542SOL    HW222086   3.690   3.809   2.924  0.4616 -2.9382  0.6456
 3543SOL     OW22087   3.088   2.130   1.995 -0.1028  0.5490 -0.2466
 3543SOL    HW122088   3.038   2.098   2.070  1.9822 -0.8367  0.5576
 3543SOL    HW222089   3.026   2.183   1.946 -2.0214 -1.2964  0.1681
 3544SOL     OW22090   4.063   1.189   2.542 -0.0620  0.1247 -0.2294
 3544SOL    HW122091   4.061   1.094   2.544 -2.7880  0.2302  1.1489
 3544SOL    HW222092   4.125   1.206   2.470 -0.2698 -0.5515 -0.5716
 3545SOL     OW22093   2.596   3.477  15.231 -0.8651 -0.1194  0.8698
 3545SOL    HW122094   2.542   3.533  15.175 -0.5157 -1.0118 -0.3642
 3545SOL    HW222095   2.624   3.414  15.164 -0.3165  0.7950  0.2461
 3546SOL     OW22096   2.888   1.606   8.313  0.1236  0.1137 -0.3033
 3546SOL    HW122097   2.865   1.538   8.377  3.4120 -1.1960 -0.4948
 3546SOL    HW222098   2.794   1.618   8.305  0.4438  1.7158 -1.5375
 3547SOL     OW22099   0.094   3.815   3.815 -0.2823 -0.0704  0.0068
 3547SOL    HW122100   0.045   3.814   3.897  0.2051  1.3115  0.3011
 3547SOL    HW222101   0.051   3.750   3.759 -0.4293  0.6596 -0.7239
 3548SOL     OW22102   2.654   3.384   2.496  0.0491 -0.0332 -0.5022
 3548SOL    HW122103   2.570   3.424   2.476 -0.7709 -0.6356  1.7512
 3548SOL    HW222104   2.720   3.451   2.476 -0.5841 -0.1108 -2.7392
 3549SOL     OW22105   4.091   3.722   4.708  0.3289 -0.1995 -0.0472
 3549SOL    HW122106   4.172   3.711   4.657  0.4092  0.9114 -0.1603
 3549SOL    HW222107   4.055   3.797   4.659 -1.2992 -0.1017  1.3122
 3550SOL     OW22108   2.598   0.066   3.772  0.4704  0.0382 -0.1127
 3550SOL    HW122109   2.585   0.092   3.681 -0.2033 -2.8469 -0.8235
 3550SOL    HW222110   2.533   0.116   3.821  0.5569 -0.5443  0.6007
 3551SOL     OW22111   2.584   3.864   2.881 -0.2665  0.2687 -0.1866
 3551SOL    HW122112   2.497   3.823   2.886 -0.4984  0.8411  0.5496
 3551SOL    HW222113   2.642   3.799   2.842  0.5614  0.8672  0.0330
 3552SOL     OW22114   3.172   2.095  12.215  0.3213 -0.0735 -0.5900
 3552SOL    HW122115   3.103   2.132  12.160 -0.5257  0.8716  1.1114
 3552SOL    HW222116   3.190   2.156  12.286 -0.6948  1.0974 -1.3369
 3553SOL     OW22117   2.818   4.095   1.350  0.1773  0.3174  0.7750
 3553SOL    HW122118   2.776   4.178   1.373  2.1076  1.4626  0.1415
 3553SOL    HW222119   2.754   4.045   1.300  0.9385  0.0843  0.0356
 3554SOL     OW22120   0.314   2.017  11.623 -0.0979  0.0031 -0.2276
 3554SOL    HW122121   0.329   1.986  11.713 -1.3780  0.3483  0.1065
 3554SOL    HW222122   0.392   2.071  11.608  1.0224 -1.2014  1.2246
 3555SOL     OW22123   1.102   3.968   3.556 -0.0337 -0.0612  0.0772
 3555SOL    HW122124   1.174   3.919   3.516  0.5692 -0.6577  1.8565
 3555SOL    HW222125   1.024   3.957   3.503  0.2114 -0.2035 -0.2547
 3556SOL     OW22126   2.972   1.386   4.353 -0.1120 -0.0592  0.1380
 3556SOL    HW122127   3.030   1.420   4.420  0.2364 -0.3320 -0.0229
 3556SOL    HW222128   2.920   1.333   4.414  0.1176 -0.9975 -0.4773
 3557SOL     OW22129   0.182   2.371   8.171 -0.0685  0.3487 -0.0692
 3557SOL    HW122130   0.159   2.377   8.078  1.9236  1.0083 -0.5163
 3557SOL    HW222131   0.131   2.296   8.200 -1.4569  0.9563 -0.9607
 3558SOL     OW22132   3.058   2.272   7.775  0.2095  0.4194  0.2480
 3558SOL    HW122133   3.126   2.328   7.814  1.0729 -0.0991 -0.5198
 3558SOL    HW222134   3.025   2.326   7.703  2.5743 -1.2863 -2.1194
 3559SOL     OW22135   0.287   1.765  10.897 -0.1155 -0.3225  0.6615
 3559SOL    HW122136   0.238   1.793  10.819  0.7389 -0.6920  0.0036
 3559SOL    HW222137   0.354   1.834  10.899  0.3436 -0.8162  1.8477
 3560SOL     OW22138   1.274   0.115  10.372  0.2003  0.1074  0.4415
 3560SOL    HW122139   1.197   0.075  10.412  0.6411  0.1674  1.3510
 3560SOL    HW222140   1.234   0.180  10.314 -0.0418 -0.4820 -0.0568
 3561SOL     OW22141   3.380   4.253   9.259  0.6139 -0.1029 -0.2048
 3561SOL    HW122142   3.442   4.305   9.311 -0.4035  1.2013 -0.2746
 3561SOL    HW222143   3.414   4.167   9.281 -1.8154 -1.1221 -0.4470
 3562SOL     OW22144   1.766   4.081   9.182 -0.2321  0.0560 -0.1080
 3562SOL    HW122145   1.752   4.112   9.272 -1.5324 -2.2107  0.4910
 3562SOL    HW222146   1.747   4.164   9.138  1.1914  0.7275  0.5667
 3563SOL     OW22147   2.836   1.622  14.379 -0.5094 -0.1434 -0.1511
 3563SOL    HW122148   2.931   1.630  14.386 -0.4968 -0.5088  0.1435
 3563SOL    HW222149   2.818   1.614  14.286 -0.6301  0.6264 -0.1962
 3564SOL     OW22150   2.810   1.018   5.285 -0.2013 -0.1553  0.3044
 3564SOL    HW122151   2.882   1.063   5.330  0.7324  0.4699 -1.8462
 3564SOL    HW222152   2.827   1.051   5.197 -0.0139 -1.3776 -0.1181
 3565SOL     OW22153   4.068   1.449   2.591 -0.3137 -0.1438 -0.1356
 3565SOL    HW122154   4.049   1.357   2.604 -0.8115 -0.0459 -0.1934
 3565SOL    HW222155   4.074   1.454   2.496  0.6228  2.0280  0.0186
 3566SOL     OW22156   2.169   3.936   8.758  0.3568 -0.2634  0.2787
 3566SOL    HW122157   2.221   3.999   8.809  1.3594 -0.1479 -0.8832
 3566SOL    HW222158   2.098   3.915   8.819  0.0511  0.4188  0.1581
 3567SOL     OW22159   0.453   4.564   6.267  0.7916  0.4469  0.4021
 3567SOL    HW122160   0.431   4.640   6.321  0.3869 -0.1522  1.0810
 3567SOL    HW222161   0.485   4.600   6.184  1.5608  0.3504  0.6531
 3568SOL     OW22162   4.569   0.651   9.845  0.1211  0.1943 -0.0289
 3568SOL    HW122163   4.496   0.712   9.849  1.1414  1.4314 -0.2300
 3568SOL    HW222164   4.621   0.688   9.916  0.6687  1.3964 -1.0338
 3569SOL     OW22165   0.095   3.145   2.402  0.7026 -0.6825  0.7087
 3569SOL    HW122166   0.089   3.071   2.462  2.6528 -2.1960 -0.9512
 3569SOL    HW222167   0.031   3.111   2.339  0.1001 -0.9535  1.4697
 3570SOL     OW22168   2.626   2.719   4.248  0.0502  0.5050 -0.2054
 3570SOL    HW122169   2.581   2.769   4.316  2.2589  0.1592  1.4963
 3570SOL    HW222170   2.704   2.688   4.293  1.0959  0.2727 -2.1960
 3571SOL     OW22171   3.200   0.011   5.717  0.9661 -0.2568 -0.1687
 3571SOL    HW122172   3.146   4.667   5.759  1.1588 -0.6890 -0.6074
 3571SOL    HW222173   3.126   0.054   5.674  0.2762 -3.0892 -1.8558
 3572SOL     OW22174   4.113   2.332   9.243 -0.1391 -0.9219  0.2313
 3572SOL    HW122175   4.039   2.287   9.201 -1.4772  0.7703  0.8126
 3572SOL    HW222176   4.175   2.320   9.170  0.1741  0.1814  0.3268
 3573SOL     OW22177   4.366   1.275   7.673  0.3085  0.1227 -0.2114
 3573SOL    HW122178   4.384   1.210   7.741  2.3691 -0.8981 -1.7396
 3573SOL    HW222179   4.271   1.286   7.681  0.1655  0.8312 -2.6891
 3574SOL     OW22180   1.769   0.753   8.870 -0.0285  0.3099 -0.3475
 3574SOL    HW122181   1.676   0.771   8.880 -0.2161 -0.5266 -0.6261
 3574SOL    HW222182   1.783   0.809   8.794  1.0388  1.9185  1.0449
 3575SOL     OW22183   4.483   0.885   7.249  0.2704  1.0928  0.6092
 3575SOL    HW122184   4.560   0.865   7.197  1.2757  2.3469  1.6224
 3575SOL    HW222185   4.530   0.927   7.321  0.7807  3.8196 -1.3340
 3576SOL     OW22186   1.997   2.170   4.075  0.1825  0.5001 -0.3045
 3576SOL    HW122187   2.041   2.141   4.154  2.0264  1.2221 -1.0496
 3576SOL    HW222188   1.942   2.247   4.093  0.3145  0.4738  0.1929
 3577SOL     OW22189   1.390   3.875   6.909 -0.0197  0.0144  0.6681
 3577SOL    HW122190   1.437   3.958   6.918  2.2379 -1.0061 -1.9283
 3577SOL    HW222191   1.446   3.817   6.961  1.0941  1.9303  1.6289
 3578SOL     OW22192   1.248   1.666   2.891  0.0938 -0.0636 -0.5759
 3578SOL    HW122193   1.214   1.589   2.936  1.8623 -0.9906 -0.8353
 3578SOL    HW222194   1.261   1.643   2.799 -1.1549  0.7482 -0.9539
 3579SOL     OW22195   2.431   1.224   2.489 -0.5631  0.4653 -0.0696
 3579SOL    HW122196   2.430   1.220   2.394 -0.4627  1.7926 -0.1306
 3579SOL    HW222197   2.338   1.234   2.507 -0.5960  0.1520 -0.0635
 3580SOL     OW22198   3.825   3.787   3.794 -0.2067 -0.0199  0.2024
 3580SOL    HW122199   3.791   3.819   3.710  0.7391  0.4230 -0.0034
 3580SOL    HW222200   3.916   3.766   3.774  0.4939  2.2536  1.0221
 3581SOL     OW22201   1.381   3.597   8.610  0.1300  0.3211  0.5293
 3581SOL    HW122202   1.364   3.521   8.665  0.6764  2.0061  3.0217
 3581SOL    HW222203   1.295   3.638   8.599  0.3089  0.5661  0.0475
 3582SOL     OW22204   0.925   0.288  11.939 -0.2553  0.3428 -0.2406
 3582SOL    HW122205   0.948   0.253  11.853  0.1175 -2.6540  1.0695
 3582SOL    HW222206   0.865   0.220  11.970  0.4658 -0.2107 -0.0329
 3583SOL     OW22207   0.047   4.250   8.913  0.4402  0.6194  0.0819
 3583SOL    HW122208   0.107   4.185   8.877  0.2676  0.4070  0.1774
 3583SOL    HW222209   0.022   4.213   8.998 -0.1386  0.1570 -0.2959
 3584SOL     OW22210   1.144   4.484  16.278 -0.3268  0.0680  0.4018
 3584SOL    HW122211   1.229   4.457  16.242 -1.2186 -1.2351 -0.7221
 3584SOL    HW222212   1.152   4.577  16.298  0.6547  0.4422 -1.7335
 3585SOL     OW22213   4.274   3.850  12.857 -0.5973  0.0433  0.2625
 3585SOL    HW122214   4.344   3.860  12.793  0.7960 -0.4963  1.7006
 3585SOL    HW222215   4.278   3.756  12.869 -0.6469 -0.1594 -1.2660
 3586SOL     OW22216   1.778   0.948   1.194  0.0420 -0.0754 -0.1361
 3586SOL    HW122217   1.871   0.934   1.177 -0.4118 -2.2772 -0.8212
 3586SOL    HW222218   1.753   0.861   1.226  1.3142 -2.0807 -4.5698
 3587SOL     OW22219   1.492   0.063   3.292 -0.3465 -0.4724  0.3042
 3587SOL    HW122220   1.506   0.057   3.197 -3.4352 -1.8403 -0.0798
 3587SOL    HW222221   1.401   0.094   3.290  0.4305  1.9174  2.0987
 3588SOL     OW22222   0.036   3.811  15.318  0.2923 -0.2988  0.3460
 3588SOL    HW122223   0.086   3.742  15.362  0.1225 -1.4450 -1.2739
 3588SOL    HW222224   0.061   3.791  15.228  0.9772  2.9579 -0.1969
 3589SOL     OW22225   0.739   1.466   5.373 -0.2058  0.1148 -0.4056
 3589SOL    HW122226   0.787   1.549   5.374 -1.1944  0.6338  3.9565
 3589SOL    HW222227   0.648   1.494   5.388 -0.1636 -0.1007  0.2586
 3590SOL     OW22228   0.153   0.310   5.034  1.2313  0.4305 -0.1000
 3590SOL    HW122229   0.095   0.315   4.958 -0.2863 -0.1381  1.0123
 3590SOL    HW222230   0.094   0.301   5.109  1.2360  0.9110 -0.0371
 3591SOL     OW22231   3.453   4.581   5.006 -0.3238  0.4217  0.1208
 3591SOL    HW122232   3.537   4.624   5.022 -0.5991  0.2261  2.0926
 3591SOL    HW222233   3.495   4.517   4.949 -0.1181  0.1093  0.6188
 3592SOL     OW22234   3.136   4.269   8.685 -0.3259  0.1768 -0.3247
 3592SOL    HW122235   3.075   4.306   8.748 -1.2744 -4.6823  1.5823
 3592SOL    HW222236   3.187   4.216   8.745 -0.3926 -1.5696 -1.7990
 3593SOL     OW22237   2.496   4.701   5.859 -0.2722 -0.4688 -0.1031
 3593SOL    HW122238   2.494   0.048   5.924  1.1443 -0.0908 -0.4699
 3593SOL    HW222239   2.482   0.031   5.781  1.9567 -0.8945 -0.7718
 3594SOL     OW22240   2.346   1.121   6.957  0.4217 -0.3887 -0.3307
 3594SOL    HW122241   2.276   1.151   7.015 -0.1948 -0.4755 -1.0361
 3594SOL    HW222242   2.293   1.071   6.895 -2.8474  1.6150  0.8927
 3595SOL     OW22243   2.737   2.531   1.147 -0.0779  0.7781  0.2296
 3595SOL    HW122244   2.696   2.455   1.106 -0.0390 -0.1535  1.8891
 3595SOL    HW222245   2.670   2.583   1.192  0.6609  1.5134  0.4716
 3596SOL     OW22246   3.118   3.392  15.582  0.6103 -0.2274  0.1964
 3596SOL    HW122247   3.191   3.349  15.627  1.4393 -0.0351 -0.9736
 3596SOL    HW222248   3.091   3.455  15.649  1.2829 -0.3936  0.6187
 3597SOL     OW22249   1.088   1.636   1.790 -0.3938  0.2259 -0.5128
 3597SOL    HW122250   1.148   1.701   1.828 -1.4840 -0.1218  1.8181
 3597SOL    HW222251   1.011   1.658   1.844  0.4654 -0.4946  1.0117
 3598SOL     OW22252   3.994   3.069   2.104 -0.0367  0.5042 -0.5058
 3598SOL    HW122253   3.942   3.066   2.184 -0.5628  1.1372 -0.8229
 3598SOL    HW222254   4.075   3.025   2.132  0.8178  2.3104 -0.1301
 3599SOL     OW22255   4.142   0.050   7.150 -0.1672 -0.1347 -0.1430
 3599SOL    HW122256   4.191   0.085   7.076 -1.1549  0.2805 -0.5978
 3599SOL    HW222257   4.129   4.681   7.124  3.1171 -0.4458 -0.7271
 3600SOL     OW22258   0.838   3.457   3.654  0.3278  0.7113 -0.6316
 3600SOL    HW122259   0.923   3.471   3.696 -0.1917  0.2759  0.5888
 3600SOL    HW222260   0.868   3.400   3.584 -1.7102  0.8874 -1.6292
 3601SOL     OW22261   4.363   2.790   5.782  0.3099 -0.3478 -0.0977
 3601SOL    HW122262   4.421   2.716   5.765 -0.1885 -1.0811  1.3577
 3601SOL    HW222263   4.351   2.814   5.690  1.1163  3.7496  0.8558
 3602SOL     OW22264   4.113   1.352   7.761 -0.5851  0.3702 -0.5784
 3602SOL    HW122265   4.072   1.411   7.824  0.1657 -1.4533  1.6231
 3602SOL    HW222266   4.064   1.270   7.767 -1.1739  0.8201  0.6984
 3603SOL     OW22267   2.825   4.683  14.843 -0.3354 -0.2943  0.2488
 3603SOL    HW122268   2.797   0.052  14.842  2.0525  0.4448 -0.1393
 3603SOL    HW222269   2.763   4.655  14.776 -1.1784 -3.4708  2.3634
 3604SOL     OW22270   4.590   3.927  15.768 -0.1564 -0.4818  0.3848
 3604SOL    HW122271   4.531   3.972  15.828  0.1007 -0.7203  0.8211
 3604SOL    HW222272   4.535   3.912  15.692 -1.7877 -0.7327  1.6143
 3605SOL     OW22273   3.300   4.241   5.209 -0.1097 -0.3000  0.6028
 3605SOL    HW122274   3.329   4.327   5.179  1.4539 -1.0844 -0.1215
 3605SOL    HW222275   3.375   4.188   5.182 -0.1187  0.1281 -0.2659
 3606SOL     OW22276   0.478   1.583  13.908  0.2741 -0.4092 -0.6578
 3606SOL    HW122277   0.554   1.629  13.940 -0.5503 -0.2976  1.1098
 3606SOL    HW222278   0.502   1.490  13.913  0.8506 -0.1323  1.3668
 3607SOL     OW22279   2.428   2.554   4.186  0.3827  0.0740  0.3860
 3607SOL    HW122280   2.384   2.623   4.236 -0.1665 -0.6861  0.9473
 3607SOL    HW222281   2.516   2.589   4.200 -0.4747  2.3396  0.1962
 3608SOL     OW22282   2.799   1.167  14.715  1.0233  0.5262 -0.2423
 3608SOL    HW122283   2.874   1.106  14.718  1.2661  0.7143 -2.2787
 3608SOL    HW222284   2.742   1.123  14.652  1.2638 -1.9599  1.2713
 3609SOL     OW22285   1.781   1.188  12.279 -0.1372 -0.2162 -0.7032
 3609SOL    HW122286   1.875   1.200  12.269 -0.1845 -0.8848 -1.9333
 3609SOL    HW222287   1.779   1.147  12.365 -3.4032 -1.2810 -1.2763
 3610SOL     OW22288   0.041   1.359   5.908  0.1377  0.1112  0.5697
 3610SOL    HW122289   0.008   1.311   5.984  0.7124 -1.8093 -0.3911
 3610SOL    HW222290   0.037   1.450   5.937  2.0491  1.3896 -3.1842
 3611SOL     OW22291   2.180   1.828  12.066  0.0371 -0.1883 -0.1453
 3611SOL    HW122292   2.239   1.869  12.130 -0.5149  0.3870 -0.0101
 3611SOL    HW222293   2.233   1.840  11.987 -2.1142 -0.4643 -1.6053
 3612SOL     OW22294   0.352   1.889   8.652 -0.3715 -0.0860  0.1615
 3612SOL    HW122295   0.385   1.807   8.689 -0.0333 -0.2857 -0.5789
 3612SOL    HW222296   0.258   1.880   8.668 -0.6578 -1.4249 -2.3870
 3613SOL     OW22297   3.101   3.702   7.259  0.5679  0.3203  0.2887
 3613SOL    HW122298   3.137   3.697   7.171 -1.2265  0.9994 -0.4813
 3613SOL    HW222299   3.084   3.609   7.277  0.1368  0.1833 -0.8290
 3614SOL     OW22300   0.692   0.238   3.548  0.2718 -0.1150 -0.1619
 3614SOL    HW122301   0.620   0.194   3.503 -0.3595  1.5851 -0.8158
 3614SOL    HW222302   0.761   0.172   3.548 -1.7349 -2.1897  1.0735
 3615SOL     OW22303   0.502   1.284  16.754  0.2058 -0.0611  0.2949
 3615SOL    HW122304   0.552   1.312  16.677  0.1456  0.8300  0.5804
 3615SOL    HW222305   0.416   1.321  16.737 -0.3814 -0.6205  1.9962
 3616SOL     OW22306   3.732   1.716  12.873 -0.4360 -0.0716 -0.3822
 3616SOL    HW122307   3.647   1.760  12.879 -0.5254 -0.1461 -1.0555
 3616SOL    HW222308   3.703   1.652  12.807 -0.6717 -0.5796  0.2078
 3617SOL     OW22309   1.683   0.260   6.594  0.3995 -0.0832  0.1563
 3617SOL    HW122310   1.765   0.212   6.594  1.4786  1.7129  2.5477
 3617SOL    HW222311   1.637   0.194   6.542 -0.9466  0.4225  0.7101
 3618SOL     OW22312   1.981   3.945   4.260 -0.5789  0.2347 -0.3713
 3618SOL    HW122313   1.912   3.918   4.199 -0.0099 -0.0041 -0.9133
 3618SOL    HW222314   2.051   3.881   4.249 -2.4311 -1.7259 -0.8377
 3619SOL     OW22315   3.707   4.093   3.065 -0.5767  0.6354 -0.4734
 3619SOL    HW122316   3.652   4.168   3.045 -0.6362  1.2733  2.1454
 3619SOL    HW222317   3.778   4.140   3.110 -1.2595  0.1433  1.1298
 3620SOL     OW22318   0.353   3.363   2.117  0.0572 -0.3903  0.1256
 3620SOL    HW122319   0.391   3.299   2.057 -2.0963 -0.0785 -1.5810
 3620SOL    HW222320   0.309   3.300   2.175  1.8420 -0.4360  1.4499
 3621SOL     OW22321   3.054   0.320  15.412  0.7105  0.0352  0.5431
 3621SOL    HW122322   3.085   0.274  15.334  1.1089 -1.0181  1.3198
 3621SOL    HW222323   2.978   0.364  15.374  0.5208 -0.9064 -0.1681
 3622SOL     OW22324   1.604   2.227   4.756  0.3080  0.0284 -0.1895
 3622SOL    HW122325   1.665   2.170   4.710  2.1854  0.6210  1.5732
 3622SOL    HW222326   1.518   2.198   4.726  0.3551  0.2781 -0.5628
 3623SOL     OW22327   3.203   4.526  16.125  0.1654 -0.2523 -0.0498
 3623SOL    HW122328   3.115   4.498  16.149  0.4234  0.4632  1.7369
 3623SOL    HW222329   3.216   4.459  16.058 -1.4999 -1.3168  0.6884
 3624SOL     OW22330   4.211   3.496   1.718 -0.3963 -0.3488  0.3921
 3624SOL    HW122331   4.169   3.440   1.653  0.0750  0.6690 -0.8042
 3624SOL    HW222332   4.181   3.446   1.793 -2.7391  1.4200  0.6579
 3625SOL     OW22333   2.161   4.077   5.146 -0.0038 -0.1234 -0.1011
 3625SOL    HW122334   2.256   4.075   5.136 -0.1065  0.6122 -1.2490
 3625SOL    HW222335   2.131   4.023   5.073  0.2526 -2.1499  1.2884
 3626SOL     OW22336   2.126   0.434   3.652 -0.0176 -0.2698 -0.4349
 3626SOL    HW122337   2.142   0.352   3.606  0.6594 -0.8298  0.7895
 3626SOL    HW222338   2.101   0.400   3.738  0.2897 -0.3753 -0.3849
 3627SOL     OW22339   0.502   1.421   8.013 -0.4748  0.2694  0.0940
 3627SOL    HW122340   0.423   1.368   8.000  0.4362 -1.2407  0.7010
 3627SOL    HW222341   0.527   1.381   8.096 -1.6283  1.4470  1.0034
 3628SOL     OW22342   3.838   3.933   2.797 -0.3894  0.2167 -0.1938
 3628SOL    HW122343   3.839   4.028   2.812  0.2439  0.1605  0.1054
 3628SOL    HW222344   3.933   3.927   2.789 -0.2507 -1.2604  2.5028
 3629SOL     OW22345   3.120   0.843  13.996 -0.2023  0.4238  0.8540
 3629SOL    HW122346   3.091   0.772  13.939  0.3322  0.3197  0.7183
 3629SOL    HW222347   3.100   0.823  14.088  2.4448  2.8943  1.9872
 3630SOL     OW22348   2.827   0.380   7.342 -0.0695 -0.5982  0.0289
 3630SOL    HW122349   2.847   0.411   7.254  1.1671 -2.4026 -0.3390
 3630SOL    HW222350   2.907   0.342   7.379 -0.4608 -1.0628  0.4062
 3631SOL     OW22351   1.379   1.377   2.773  0.3380  0.3512 -0.4528
 3631SOL    HW122352   1.357   1.408   2.685 -1.9393 -0.7994 -0.2963
 3631SOL    HW222353   1.409   1.288   2.755 -1.2206  0.1336 -1.8813
 3632SOL     OW22354   3.859   0.613   6.847  0.0442 -0.7114 -1.3655
 3632SOL    HW122355   3.902   0.530   6.868  0.2641  0.1022  1.4611
 3632SOL    HW222356   3.917   0.678   6.887 -0.1553 -0.6537 -1.1734
 3633SOL     OW22357   2.542   0.385   1.260 -0.3866  0.2277 -0.3282
 3633SOL    HW122358   2.530   0.365   1.353 -2.4887 -0.7198 -0.8045
 3633SOL    HW222359   2.608   0.318   1.242  0.8406  1.1459  0.7959
 3634SOL     OW22360   2.557   1.006   2.628 -0.5220  0.1209  0.4415
 3634SOL    HW122361   2.506   1.067   2.576  0.9528  1.2242  0.2971
 3634SOL    HW222362   2.573   0.937   2.563 -0.3888  1.1532 -0.6156
 3635SOL     OW22363   2.379   0.186   3.847  0.4036  0.5494 -0.1101
 3635SOL    HW122364   2.371   0.269   3.895  0.4227 -0.5969  1.8889
 3635SOL    HW222365   2.325   0.207   3.772  0.0646  1.9708  0.5283
 3636SOL     OW22366   0.458   2.976   8.520 -0.2245  0.4951  0.3435
 3636SOL    HW122367   0.494   2.889   8.535  3.0235  2.0899  1.8280
 3636SOL    HW222368   0.368   2.958   8.547  1.0643 -2.5029  2.6178
 3637SOL     OW22369   0.091   1.801   8.726 -0.2128  0.3567  0.1455
 3637SOL    HW122370   0.067   1.832   8.814  2.6464  1.8930  0.3834
 3637SOL    HW222371   0.057   1.713   8.741  0.7819 -0.2367 -1.1494
 3638SOL     OW22372   2.641   2.325   7.657 -0.2120 -0.2484  0.1235
 3638SOL    HW122373   2.674   2.267   7.725  0.0442  0.4836  0.6237
 3638SOL    HW222374   2.609   2.408   7.691  1.5184  1.8264 -3.3084
 3639SOL     OW22375   2.984   0.967  14.699  0.3660 -0.2742  0.1730
 3639SOL    HW122376   3.079   0.967  14.707  0.2475 -0.1279  1.4795
 3639SOL    HW222377   2.967   0.894  14.639  1.9604  1.1927 -2.0392
 3640SOL     OW22378   1.933   0.434   4.641  0.6088 -0.2790 -0.2586
 3640SOL    HW122379   1.994   0.405   4.573  1.1927  0.3383 -0.0008
 3640SOL    HW222380   1.846   0.430   4.602  0.2742  3.0407  0.1571
 3641SOL     OW22381   1.655   2.344  12.916  0.4083  0.5644 -0.2822
 3641SOL    HW122382   1.565   2.376  12.911  0.5672  1.2363  1.1754
 3641SOL    HW222383   1.665   2.336  13.011  1.4652  1.1858 -0.3433
 3642SOL     OW22384   0.746   0.394   4.984  0.5124  0.8470 -0.5316
 3642SOL    HW122385   0.733   0.303   5.010 -0.2967  1.2021  0.3024
 3642SOL    HW222386   0.676   0.434   5.035  1.0368  0.2161  0.6814
 3643SOL     OW22387   3.455   3.168   4.964  0.0677  0.4573 -0.0044
 3643SOL    HW122388   3.436   3.099   4.900  0.2296  0.1912  0.2333
 3643SOL    HW222389   3.412   3.116   5.032  0.4981 -2.8566 -2.2631
 3644SOL     OW22390   2.977   3.458   7.546 -0.0206 -0.1294  0.1646
 3644SOL    HW122391   3.034   3.443   7.470  0.3695  0.7989  0.2689
 3644SOL    HW222392   2.895   3.470   7.497  0.0079  1.2713  0.4642
 3645SOL     OW22393   0.886   0.008   5.594 -0.3267  0.0344  0.1944
 3645SOL    HW122394   0.815   0.019   5.531 -0.0990 -0.6899 -0.1818
 3645SOL    HW222395   0.857   4.663   5.655  0.9662  0.0797  0.8528
 3646SOL     OW22396   3.945   2.881   3.469 -0.0574  0.0944 -0.2351
 3646SOL    HW122397   4.015   2.946   3.473  1.2958 -1.4095  0.5325
 3646SOL    HW222398   3.977   2.798   3.432 -3.1923 -1.8819  1.4323
 3647SOL     OW22399   2.309   4.239   3.889  0.4976 -0.3588  0.4141
 3647SOL    HW122400   2.304   4.273   3.978 -0.3956 -0.1230  0.2704
 3647SOL    HW222401   2.401   4.258   3.868  0.3660  0.4734  0.6210
 3648SOL     OW22402   2.230   1.315   0.244  0.2756  0.8010  0.0470
 3648SOL    HW122403   2.197   1.306   0.155  1.4931 -1.6065 -0.1450
 3648SOL    HW222404   2.148   1.307   0.294  0.7425 -1.2729  0.4781
 3649SOL     OW22405   4.156   3.866  14.475 -0.7458 -0.3225 -0.1423
 3649SOL    HW122406   4.095   3.916  14.421  0.9063  0.9742 -0.8105
 3649SOL    HW222407   4.206   3.816  14.410  0.1205  0.9215 -0.4340
 3650SOL     OW22408   4.295   0.574   1.102 -0.2204 -0.8331 -0.1940
 3650SOL    HW122409   4.264   0.658   1.135  2.5589 -0.6329  1.8968
 3650SOL    HW222410   4.323   0.582   1.010  1.2384  2.9977  0.5941
 3651SOL     OW22411   3.413   2.854  16.502  0.5199 -0.0777  0.6539
 3651SOL    HW122412   3.388   2.780  16.447 -0.2705 -0.9406  2.1553
 3651SOL    HW222413   3.403   2.921  16.435 -0.5197 -0.2826  0.5984
 3652SOL     OW22414   1.373   3.152   7.088 -0.2529 -0.6425  0.3517
 3652SOL    HW122415   1.462   3.122   7.070 -0.8886 -2.0691 -0.4150
 3652SOL    HW222416   1.371   3.147   7.184 -0.1449 -0.8163  0.3448
 3653SOL     OW22417   1.953   1.177   0.405 -0.1462  0.6611  0.1911
 3653SOL    HW122418   1.972   1.087   0.378  0.1121 -0.1786  3.1328
 3653SOL    HW222419   1.975   1.179   0.498 -0.7386 -1.7945  0.3824
 3654SOL     OW22420   4.560   2.403  17.491 -0.5037 -0.1632  0.2722
 3654SOL    HW122421   4.466   2.393  17.505 -0.8478  0.7255 -1.4112
 3654SOL    HW222422   4.563   2.496  17.467  1.2311 -1.0795 -3.0828
 3655SOL     OW22423   1.095   1.442  10.372 -0.5284  0.1680 -0.8453
 3655SOL    HW122424   1.170   1.496  10.347 -0.0287  1.1444  2.7290
 3655SOL    HW222425   1.092   1.465  10.465  0.8007  0.9310 -0.9835
 3656SOL     OW22426   3.435   3.806  14.203  0.1007 -0.0351 -0.0528
 3656SOL    HW122427   3.384   3.836  14.128 -2.4297 -1.0533  1.2664
 3656SOL    HW222428   3.372   3.778  14.270  1.4317 -1.2340  0.6980
 3657SOL     OW22429   2.917   2.152   4.093  0.4086  0.2307  0.1152
 3657SOL    HW122430   2.893   2.121   4.005  2.0808  0.1070 -0.2902
 3657SOL    HW222431   2.839   2.203   4.115 -1.1328 -2.0560 -0.0229
 3658SOL     OW22432   0.816   4.522   2.137  0.2581  0.3609  0.5611
 3658SOL    HW122433   0.874   4.489   2.068 -0.5774  3.3576 -1.5882
 3658SOL    HW222434   0.802   4.437   2.180 -0.5346 -0.5630 -1.4849
 3659SOL     OW22435   1.947   0.419   6.831 -0.4192  0.0581  0.4489
 3659SOL    HW122436   1.974   0.330   6.808 -0.8354 -0.2583  1.1643
 3659SOL    HW222437   2.036   0.453   6.841 -0.3794 -0.2446  1.1589
 3660SOL     OW22438   4.403   4.178   4.892 -0.1096  0.5302  0.0910
 3660SOL    HW122439   4.394   4.205   4.984  1.3949  0.5082  0.2324
 3660SOL    HW222440   4.312   4.170   4.862  0.2941 -2.6926 -0.2733
 3661SOL     OW22441   2.130   2.555  17.506 -0.3311 -0.3179  0.0154
 3661SOL    HW122442   2.218   2.586  17.525 -0.1555 -2.7799  3.1983
 3661SOL    HW222443   2.068   2.625  17.529 -2.9311 -1.2075 -4.2041
 3662SOL     OW22444   0.695   2.651   7.417 -0.1012 -0.3955 -0.1913
 3662SOL    HW122445   0.634   2.716   7.452 -0.4210 -0.4800 -0.5925
 3662SOL    HW222446   0.684   2.577   7.477 -2.7492 -0.2349 -0.4549
 3663SOL     OW22447   0.325   3.186   7.327 -0.5022 -0.1981 -0.0875
 3663SOL    HW122448   0.312   3.281   7.321 -0.9755 -0.2317  0.3987
 3663SOL    HW222449   0.277   3.160   7.248 -3.5411  4.6143  0.1752
 3664SOL     OW22450   0.343   3.673   5.382 -0.4104 -0.5330  0.0131
 3664SOL    HW122451   0.283   3.728   5.432 -0.5937 -1.5365  0.8942
 3664SOL    HW222452   0.313   3.678   5.292  2.0796  1.4371 -0.7386
 3665SOL     OW22453   2.182   2.873   3.268  0.0330  0.3253 -0.2490
 3665SOL    HW122454   2.195   2.855   3.361 -1.3970 -0.1454 -0.1486
 3665SOL    HW222455   2.195   2.968   3.265  1.9672  0.1245  1.3643
 3666SOL     OW22456   0.474   2.439   5.333 -0.2626 -0.0485 -0.2106
 3666SOL    HW122457   0.399   2.445   5.392  0.1511 -2.6859  0.5923
 3666SOL    HW222458   0.536   2.376   5.371 -0.8139  0.6929  1.9499
 3667SOL     OW22459   1.707   3.550  10.650 -0.2057  0.4411  0.3086
 3667SOL    HW122460   1.734   3.628  10.698 -1.0000  0.6943  0.3471
 3667SOL    HW222461   1.780   3.526  10.592 -0.2077 -1.0203  0.8903
 3668SOL     OW22462   4.696   1.997   7.356 -0.9526 -0.2830 -0.2752
 3668SOL    HW122463   4.617   2.041   7.389  0.0878  2.0697 -0.8895
 3668SOL    HW222464   4.685   1.912   7.398 -0.8242 -0.6711 -1.0291
 3669SOL     OW22465   0.141   2.648   5.004  0.7162 -0.0810 -0.3019
 3669SOL    HW122466   0.178   2.578   5.058  0.9884 -0.6714 -1.2555
 3669SOL    HW222467   0.136   2.712   5.075 -0.3759 -0.3640 -0.1262
 3670SOL     OW22468   0.809   3.171   2.891 -0.0733 -0.4889 -0.4528
 3670SOL    HW122469   0.862   3.165   2.970 -0.6967 -1.0764 -0.0762
 3670SOL    HW222470   0.755   3.249   2.902  1.3424  0.1421  1.8834
 3671SOL     OW22471   2.149   4.710  16.537  0.2768  0.2354  0.6301
 3671SOL    HW122472   2.064   0.033  16.545  1.2681  2.7420 -3.0998
 3671SOL    HW222473   2.147   4.666  16.622  3.5290 -0.5184  0.2806
 3672SOL     OW22474   4.121   0.666   4.908 -0.1845  0.0909  0.6075
 3672SOL    HW122475   4.103   0.583   4.951 -1.2061  0.2919  0.5695
 3672SOL    HW222476   4.069   0.725   4.963 -2.8192 -0.4221 -1.3461
 3673SOL     OW22477   3.800   3.963  11.389  0.0305 -0.8491 -0.6452
 3673SOL    HW122478   3.852   4.030  11.433 -0.0013  0.9672 -3.3916
 3673SOL    HW222479   3.720   3.971  11.441  0.3714  0.2944 -0.3098
 3674SOL     OW22480   1.018   0.498   7.956 -0.8835  0.2713 -0.0617
 3674SOL    HW122481   1.019   0.537   7.868 -1.5070  0.4305  0.0072
 3674SOL    HW222482   1.001   0.405   7.940 -0.2263  0.0415  0.5567
 3675SOL     OW22483   1.747   0.283   6.075  0.4369  0.2744  0.7361
 3675SOL    HW122484   1.686   0.353   6.051  0.7139  0.2158 -0.1029
 3675SOL    HW222485   1.807   0.324   6.137  0.9445  2.9791 -1.5395
 3676SOL     OW22486   3.817   0.109   8.123 -0.5147  0.4566 -0.8609
 3676SOL    HW122487   3.749   0.120   8.189  1.1732  0.3273  0.9240
 3676SOL    HW222488   3.891   0.110   8.185  0.0850 -1.5981 -1.5308
 3677SOL     OW22489   2.258   3.183  11.096 -0.6690  0.2379  0.0529
 3677SOL    HW122490   2.275   3.096  11.058  1.9038  0.7233  0.0666
 3677SOL    HW222491   2.163   3.178  11.107 -0.5884  1.3018  1.2135
 3678SOL     OW22492   1.609   1.245   8.054 -0.4548  0.0838 -0.3086
 3678SOL    HW122493   1.660   1.278   7.979 -1.8713 -0.8768 -1.6895
 3678SOL    HW222494   1.519   1.232   8.026 -0.9265  0.7364  0.9481
 3679SOL     OW22495   4.687   4.571   1.104 -0.1369  0.6223 -0.0001
 3679SOL    HW122496   4.656   4.556   1.193  4.1980 -0.9322  1.2455
 3679SOL    HW222497   4.640   4.651   1.077 -0.0974  0.8303  0.5416
 3680SOL     OW22498   1.972   1.542   2.677 -0.4945 -0.6938  0.2259
 3680SOL    HW122499   2.062   1.560   2.705 -0.5481 -0.1423  0.0488
 3680SOL    HW222500   1.931   1.522   2.761 -0.1598 -1.0284  0.3141
 3681SOL     OW22501   2.229   3.776  10.181  0.2720 -0.5232 -0.5765
 3681SOL    HW122502   2.278   3.767  10.262  1.1720 -0.7062 -1.1402
 3681SOL    HW222503   2.138   3.786  10.209 -0.1480 -0.6008 -1.8781
 3682SOL     OW22504   3.920   1.935  13.023 -0.5868 -0.2743 -0.1647
 3682SOL    HW122505   3.860   1.892  12.963  0.5687  0.5276 -1.8813
 3682SOL    HW222506   3.925   2.026  12.993  1.5775  0.2447  1.7542
 3683SOL     OW22507   3.499   3.817   6.813  0.1634  0.0228 -0.2940
 3683SOL    HW122508   3.535   3.905   6.822  0.4970 -0.0251 -1.0875
 3683SOL    HW222509   3.492   3.812   6.717  2.6163  0.5839 -0.4981
 3684SOL     OW22510   4.371   0.426   8.141 -0.1009  0.3476 -0.1433
 3684SOL    HW122511   4.311   0.409   8.069 -0.5133  1.6606 -0.1073
 3684SOL    HW222512   4.373   0.345   8.193 -0.5989 -0.2022 -0.9781
 3685SOL     OW22513   4.225   0.881   5.154 -0.5234  0.1195  0.0471
 3685SOL    HW122514   4.143   0.878   5.105  1.0995 -2.2068 -2.5157
 3685SOL    HW222515   4.190   0.902   5.241  0.0375  1.1262  0.0335
 3686SOL     OW22516   2.809   3.797   6.761  0.0123  0.4785  0.3793
 3686SOL    HW122517   2.804   3.732   6.831 -3.5932  0.4643  0.1264
 3686SOL    HW222518   2.872   3.745   6.712 -1.4904 -1.5367  0.6074
 3687SOL     OW22519   3.481   3.022   3.469 -0.2114  0.1452 -0.5392
 3687SOL    HW122520   3.390   2.995   3.452 -0.3296  0.3539 -0.2228
 3687SOL    HW222521   3.517   2.934   3.481 -0.0549  0.5445  1.8416
 3688SOL     OW22522   2.342   1.673  10.733  0.4398  0.3583 -0.1753
 3688SOL    HW122523   2.404   1.746  10.727  1.8073 -0.6465  1.6938
 3688SOL    HW222524   2.266   1.721  10.701 -1.2936 -2.3349 -0.1269
 3689SOL     OW22525   4.483   3.758   6.419 -0.8881 -0.3797  0.0253
 3689SOL    HW122526   4.475   3.829   6.355 -0.1140  1.0670  1.5277
 3689SOL    HW222527   4.394   3.739   6.451 -0.6034 -1.3273  0.2433
 3690SOL     OW22528   1.450   1.861  11.061 -0.0938  0.1234  0.0875
 3690SOL    HW122529   1.442   1.850  11.156 -1.2609 -2.4273 -0.3060
 3690SOL    HW222530   1.360   1.852  11.030  0.3435 -0.8015 -0.9033
 3691SOL     OW22531   4.096   3.943  16.543  0.6272 -0.5213 -0.5847
 3691SOL    HW122532   4.034   3.871  16.556 -1.2477  0.4791 -4.0899
 3691SOL    HW222533   4.101   3.976  16.633 -2.2058 -0.9522 -0.2487
 3692SOL     OW22534   1.764   1.070   4.169  0.1638  0.2921 -0.0743
 3692SOL    HW122535   1.859   1.083   4.172  0.6325 -2.9358 -1.4016
 3692SOL    HW222536   1.741   1.117   4.249  0.0695  0.8260 -0.4141
 3693SOL     OW22537   3.008   0.455   9.676 -0.3359  0.4299  0.1348
 3693SOL    HW122538   3.067   0.449   9.602  0.8683 -1.6136  1.2492
 3693SOL    HW222539   2.927   0.492   9.640  0.2838 -1.3602 -3.0933
 3694SOL     OW22540   2.634   1.363   3.829 -0.2572 -0.2279 -0.5352
 3694SOL    HW122541   2.597   1.281   3.861 -0.1645 -0.5221 -1.1842
 3694SOL    HW222542   2.564   1.405   3.779 -0.2854  0.9012  0.4434
 3695SOL     OW22543   0.172   3.396   9.082 -0.1564 -0.8196  0.2094
 3695SOL    HW122544   0.172   3.363   9.172  1.9759  1.2713  0.9906
 3695SOL    HW222545   0.246   3.457   9.086 -1.0649  0.1913  1.4034
 3696SOL     OW22546   3.759   1.915   7.288  0.2337 -0.1641 -0.0249
 3696SOL    HW122547   3.684   1.921   7.229 -0.1502  0.4922  0.5318
 3696SOL    HW222548   3.725   1.840   7.338 -0.7846  0.5209  0.3269
 3697SOL     OW22549   0.085   4.435  10.733  0.2852  0.2260  0.2970
 3697SOL    HW122550   0.018   4.503  10.721 -1.8386 -1.6191  1.8017
 3697SOL    HW222551   0.032   4.356  10.728  0.5850 -0.0295  1.1435
 3698SOL     OW22552   2.246   4.535   8.636 -0.4266 -0.3278 -0.1540
 3698SOL    HW122553   2.209   4.558   8.551 -1.6646 -1.7385  0.0047
 3698SOL    HW222554   2.163   4.529   8.682 -0.4862 -2.0052 -0.4842
 3699SOL     OW22555   3.070   3.128   7.253  0.0036 -0.0361 -0.3796
 3699SOL    HW122556   2.982   3.094   7.239  0.0593 -0.5670  0.6146
 3699SOL    HW222557   3.124   3.056   7.219  0.2929 -0.5277  1.1154
 3700SOL     OW22558   4.003   2.725   9.561 -0.4332 -0.5240 -0.3560
 3700SOL    HW122559   4.031   2.646   9.607  0.0413  0.4608  1.0481
 3700SOL    HW222560   3.908   2.718   9.567 -0.3754  0.0668  1.0760
 3701SOL     OW22561   4.136   3.869  11.566 -0.7040  0.0036  0.1136
 3701SOL    HW122562   4.129   3.785  11.521 -3.4150 -1.5722  3.4749
 3701SOL    HW222563   4.146   3.831  11.653 -2.0109 -0.4050  0.0775
 3702SOL     OW22564   4.096   2.574   6.955 -0.1455  0.0379  0.3450
 3702SOL    HW122565   4.114   2.482   6.934 -2.1835 -0.0147 -1.1236
 3702SOL    HW222566   4.186   2.606   6.967  0.1678 -0.6404 -0.1806
 3703SOL     OW22567   1.136   1.859   8.672  0.1736  0.3582  0.0104
 3703SOL    HW122568   1.068   1.902   8.724 -0.9665  1.4720 -2.3739
 3703SOL    HW222569   1.157   1.776   8.714 -0.4863 -0.5583 -1.4406
 3704SOL     OW22570   0.055   4.510   5.825 -0.2536  0.0772  0.3534
 3704SOL    HW122571   0.114   4.435   5.835  0.7470  0.5581 -1.9872
 3704SOL    HW222572   0.063   4.504   5.730 -2.1304 -0.5183  0.2314
 3705SOL     OW22573   3.177   0.831   8.616  0.4601  0.0424 -0.4883
 3705SOL    HW122574   3.252   0.772   8.621  0.8674  0.5882 -0.1061
 3705SOL    HW222575   3.122   0.794   8.547  0.2267  0.9522 -0.8023
 3706SOL     OW22576   0.638   3.957   2.244 -0.2850 -0.4611 -0.1499
 3706SOL    HW122577   0.568   4.022   2.250 -0.1245 -0.3983  1.1204
 3706SOL    HW222578   0.603   3.885   2.297 -2.3855 -0.7038 -1.8764
 3707SOL     OW22579   2.567   4.599  13.387  0.1854 -0.0996  0.0248
 3707SOL    HW122580   2.498   4.535  13.401  1.6227 -1.1112  2.4618
 3707SOL    HW222581   2.553   4.669  13.451  1.5311  2.8678 -2.8827
 3708SOL     OW22582   3.225   3.573   9.921  0.3429 -0.1957 -0.3579
 3708SOL    HW122583   3.232   3.564   9.826  0.8384  2.9358 -0.6129
 3708SOL    HW222584   3.270   3.654   9.940  1.6217 -0.7186 -1.1541
 3709SOL     OW22585   0.687   0.628   7.308  0.3510  0.9175  0.4844
 3709SOL    HW122586   0.627   0.555   7.324  1.8067  0.2428  2.8223
 3709SOL    HW222587   0.772   0.586   7.294  0.7110  2.3704 -1.7378
 3710SOL     OW22588   2.891   2.015  14.294 -0.0716 -0.2565 -0.0931
 3710SOL    HW122589   2.952   1.983  14.360  1.1651  0.4353 -0.9067
 3710SOL    HW222590   2.934   2.075  14.234  1.4195 -1.1672  0.0805
 3711SOL     OW22591   0.354   3.537   3.098  0.5507 -0.1477  0.4839
 3711SOL    HW122592   0.274   3.583   3.124  2.4212  3.0007  0.6740
 3711SOL    HW222593   0.319   3.475   3.034  0.7600 -0.4294  0.6411
 3712SOL     OW22594   3.172   2.870   7.413 -0.5312 -0.8224 -0.3898
 3712SOL    HW122595   3.189   2.862   7.319  2.3319  1.4671 -0.0567
 3712SOL    HW222596   3.261   2.858   7.445 -0.5587 -1.5987 -0.5917
 3713SOL     OW22597   4.610   0.549   1.056 -0.5437 -0.0352  0.0744
 3713SOL    HW122598   4.590   0.600   0.978  1.4199 -0.7509 -0.9042
 3713SOL    HW222599   4.527   0.534   1.102 -0.3180 -1.9692 -0.1525
 3714SOL     OW22600   4.457   2.382   6.143 -0.1928  0.1076 -0.0561
 3714SOL    HW122601   4.391   2.318   6.117  0.5573 -0.3723 -0.7729
 3714SOL    HW222602   4.437   2.380   6.236 -0.8198 -0.7580 -0.2101
 3715SOL     OW22603   4.635   2.195   8.138  0.1699  0.4763  0.0178
 3715SOL    HW122604   4.690   2.167   8.065 -0.0226 -1.2551  0.5421
 3715SOL    HW222605   4.700   2.171   8.205 -1.2851  1.6908  1.8568
 3716SOL     OW22606   3.389   1.515  11.763  0.0952 -0.5717  0.5015
 3716SOL    HW122607   3.335   1.437  11.779  0.3063 -0.8690 -0.2276
 3716SOL    HW222608   3.311   1.557  11.728  0.2220  0.3803  1.3808
 3717SOL     OW22609   0.249   0.891   3.522  0.5850 -0.3790  0.4413
 3717SOL    HW122610   0.168   0.941   3.510  0.0461 -1.5100 -0.5907
 3717SOL    HW222611   0.214   0.806   3.495  0.5912 -0.1434 -0.3207
 3718SOL     OW22612   2.450   3.477   0.503  0.3525 -0.0344  0.3345
 3718SOL    HW122613   2.423   3.443   0.588 -1.3888 -1.0234 -0.5958
 3718SOL    HW222614   2.396   3.555   0.493  2.3543  1.5953  2.4345
 3719SOL     OW22615   3.593   1.336   5.260 -0.5085 -0.0049  0.2438
 3719SOL    HW122616   3.679   1.375   5.278 -0.6659 -0.1966  1.4407
 3719SOL    HW222617   3.536   1.398   5.306  1.6266  0.6398  2.0662
 3720SOL     OW22618   1.689   2.235   1.736  0.2442  0.0673 -0.2426
 3720SOL    HW122619   1.720   2.325   1.725  0.1547  0.1413  0.1310
 3720SOL    HW222620   1.665   2.211   1.646 -2.5537 -0.9744  0.7930
 3721SOL     OW22621   2.936   4.015  13.199 -0.8706 -1.0618  0.1526
 3721SOL    HW122622   2.854   3.974  13.173 -1.6063 -0.0339  0.8333
 3721SOL    HW222623   2.913   4.053  13.284  0.1189  0.1038 -0.1042
 3722SOL     OW22624   3.396   4.055   0.181 -0.0721  0.6160 -0.3930
 3722SOL    HW122625   3.358   3.974   0.150 -0.5762  0.3315  0.9377
 3722SOL    HW222626   3.315   4.080   0.225  0.0141 -1.3700  0.8973
 3723SOL     OW22627   3.953   4.176  16.562 -0.1179 -0.0896  0.2399
 3723SOL    HW122628   3.973   4.087  16.534 -2.0736 -1.5324  3.4470
 3723SOL    HW222629   4.035   4.199  16.607  0.9704  1.1011 -2.3381
 3724SOL     OW22630   2.111   4.130   9.608 -0.7233 -0.1850 -0.1206
 3724SOL    HW122631   2.147   4.192   9.545  0.4563 -3.2470 -2.4466
 3724SOL    HW222632   2.016   4.123   9.597 -0.7252  1.4515 -1.0808
 3725SOL     OW22633   0.160   4.216   9.935 -0.4312 -0.3846 -0.3151
 3725SOL    HW122634   0.102   4.292   9.927 -1.1115 -1.1489 -2.4711
 3725SOL    HW222635   0.088   4.153   9.940 -0.4941 -0.1140  2.6540
 3726SOL     OW22636   1.211   2.615   3.323 -0.5007 -0.1960 -0.0266
 3726SOL    HW122637   1.120   2.646   3.322 -0.9247 -1.3878  1.3176
 3726SOL    HW222638   1.243   2.623   3.234 -1.9166  0.0975 -0.5176
 3727SOL     OW22639   3.025   2.205   1.069  0.6064 -0.2627 -0.0633
 3727SOL    HW122640   2.976   2.177   0.992  1.2253  1.3518 -1.0547
 3727SOL    HW222641   2.987   2.159   1.144  1.3083  3.4864  2.6207
 3728SOL     OW22642   2.276   4.093   1.627 -0.4139  0.0486 -0.4149
 3728SOL    HW122643   2.207   4.149   1.662  0.8730  0.6789  1.0965
 3728SOL    HW222644   2.240   4.060   1.545  1.7345 -2.4100 -0.3847
 3729SOL     OW22645   4.265   0.760   9.114  0.2436 -0.4651  0.1489
 3729SOL    HW122646   4.328   0.782   9.046  3.0694 -0.0788  2.8822
 3729SOL    HW222647   4.217   0.689   9.072  0.3101  0.3320 -1.2514
 3730SOL     OW22648   2.138   4.121   2.796  0.1443  0.3337 -0.1555
 3730SOL    HW122649   2.067   4.126   2.860 -0.5045 -2.4873 -0.6434
 3730SOL    HW222650   2.095   4.109   2.712  0.5476 -0.8701 -0.2020
 3731SOL     OW22651   0.314   1.556   5.975 -0.1674  0.3722  0.4457
 3731SOL    HW122652   0.306   1.643   5.935 -0.4778  0.4151  0.6027
 3731SOL    HW222653   0.322   1.574   6.069 -3.0529  0.1831  0.7264
 3732SOL     OW22654   4.407   0.642  15.015  0.1923 -0.1771 -0.1377
 3732SOL    HW122655   4.439   0.685  14.935 -0.3936 -1.9952 -1.3636
 3732SOL    HW222656   4.490   0.605  15.045  0.9895  1.5262 -0.2511
 3733SOL     OW22657   3.157   3.712  14.589 -0.6477  0.2409  0.2707
 3733SOL    HW122658   3.079   3.667  14.558 -0.1180 -1.9486  2.0954
 3733SOL    HW222659   3.203   3.708  14.505  0.1057  1.7493  0.6039
 3734SOL     OW22660   2.162   3.544   7.140  0.3399  0.3702  0.0539
 3734SOL    HW122661   2.212   3.474   7.097 -0.9818 -1.5147  1.6008
 3734SOL    HW222662   2.075   3.505   7.149 -0.6088  2.1520 -1.4229
 3735SOL     OW22663   3.688   4.080   4.664  0.5421  0.1929  0.5104
 3735SOL    HW122664   3.772   4.037   4.650  0.4586  0.3479 -0.4345
 3735SOL    HW222665   3.681   4.077   4.760 -1.8757  2.7751  0.4321
 3736SOL     OW22666   3.121   1.421   4.004 -0.0042  0.2581  0.6689
 3736SOL    HW122667   3.026   1.428   4.010 -0.3585 -2.0155 -2.1849
 3736SOL    HW222668   3.144   1.504   3.963  0.2310 -1.0607 -1.8590
 3737SOL     OW22669   1.844   3.835   3.457  0.2443 -0.2389  0.2412
 3737SOL    HW122670   1.922   3.813   3.405  1.6385  1.2102  1.7276
 3737SOL    HW222671   1.817   3.921   3.425 -0.0397 -0.1061  0.8446
 3738SOL     OW22672   4.309   3.523   8.570 -0.4550  0.0339  0.5203
 3738SOL    HW122673   4.355   3.440   8.583 -0.8600 -0.2806 -0.0232
 3738SOL    HW222674   4.375   3.580   8.611  0.1686  0.1915 -0.6894
 3739SOL     OW22675   4.369   0.120  16.225 -0.9105  0.2396  0.7354
 3739SOL    HW122676   4.396   0.166  16.145 -2.1741  0.8158  0.6424
 3739SOL    HW222677   4.275   0.139  16.232 -0.8297  0.7290  0.5253
 3740SOL     OW22678   2.236   1.472   2.688 -0.5628  0.1889  0.6565
 3740SOL    HW122679   2.244   1.536   2.617  2.3770 -1.9550 -0.9490
 3740SOL    HW222680   2.222   1.404   2.623  0.4470 -0.4143  1.0626
 3741SOL     OW22681   4.007   1.990  10.868 -0.1675 -1.1028  0.0310
 3741SOL    HW122682   4.036   1.951  10.951  0.0811 -0.2880  0.3242
 3741SOL    HW222683   4.084   2.002  10.813 -0.1517 -0.5071  0.1893
 3742SOL     OW22684   1.091   3.002   6.340 -0.5389  0.2755 -0.0137
 3742SOL    HW122685   1.078   2.913   6.374  1.4184  0.3564  0.9181
 3742SOL    HW222686   1.065   3.060   6.412 -0.7647  1.4101 -0.9947
 3743SOL     OW22687   0.165   4.027   8.807 -0.4333 -0.2572 -0.1469
 3743SOL    HW122688   0.243   4.017   8.752 -0.6139  1.5866 -0.7063
 3743SOL    HW222689   0.137   3.935   8.809  0.3312 -0.5075 -0.6960
 3744SOL     OW22690   1.777   4.528   0.497 -0.1424 -0.1317 -0.3918
 3744SOL    HW122691   1.832   4.471   0.443  1.2556 -0.4132  1.3400
 3744SOL    HW222692   1.812   4.616   0.481  1.2669 -0.7889 -0.9466
 3745SOL     OW22693   1.565   2.863   1.106  0.4721 -0.6945 -0.2099
 3745SOL    HW122694   1.603   2.810   1.177 -2.3447 -0.5506  1.3833
 3745SOL    HW222695   1.591   2.810   1.030  0.0211  0.5980 -1.2581
 3746SOL     OW22696   3.691   1.856   6.073 -0.2886  0.4049  0.1890
 3746SOL    HW122697   3.716   1.898   6.156  1.9640  1.1737 -0.9007
 3746SOL    HW222698   3.677   1.929   6.013  1.4957  0.6462  0.0732
 3747SOL     OW22699   4.243   0.716   8.099  0.1393 -0.0827 -0.3489
 3747SOL    HW122700   4.170   0.674   8.144 -0.1816  0.7863 -0.0568
 3747SOL    HW222701   4.256   0.655   8.027 -0.2511 -1.1606  0.4988
 3748SOL     OW22702   3.799   0.536  14.164 -0.3980 -0.3523 -0.3243
 3748SOL    HW122703   3.783   0.449  14.127  1.3450 -0.4129 -0.9202
 3748SOL    HW222704   3.726   0.542  14.226 -2.4183  1.4936 -2.8405
 3749SOL     OW22705   1.776   1.728   1.621  0.1044 -0.1777  0.6291
 3749SOL    HW122706   1.744   1.771   1.542  0.5530 -2.8859 -1.0250
 3749SOL    HW222707   1.870   1.748   1.614 -0.1077  0.0239 -1.7025
 3750SOL     OW22708   3.976   4.722   0.713  0.1956 -0.1926 -0.2815
 3750SOL    HW122709   3.912   0.001   0.642 -0.7844 -0.6434  0.5879
 3750SOL    HW222710   3.976   4.633   0.747  1.6370  0.5333  1.6206
 3751SOL     OW22711   3.750   0.544   2.366 -0.1728  0.2232  0.2446
 3751SOL    HW122712   3.793   0.560   2.282 -0.5354 -1.6114 -0.2953
 3751SOL    HW222713   3.707   0.629   2.370  2.1501  1.4065 -0.0924
 3752SOL     OW22714   4.608   4.664   2.720  0.4012  0.0963 -0.3182
 3752SOL    HW122715   4.644   0.021   2.759  1.8201 -1.0127  0.6331
 3752SOL    HW222716   4.584   4.699   2.634 -0.6456 -0.6366 -0.3299
 3753SOL     OW22717   1.775   3.790  10.761 -0.5651 -0.3901  0.1962
 3753SOL    HW122718   1.777   3.865  10.701 -0.9632  0.0297  0.7086
 3753SOL    HW222719   1.844   3.823  10.819  0.0398  0.6790 -1.1113
 3754SOL     OW22720   2.970   3.943   5.844 -0.0514 -0.0058  0.3982
 3754SOL    HW122721   2.990   3.985   5.760 -0.0865  0.3389  0.5602
 3754SOL    HW222722   3.058   3.931   5.878 -0.2622 -0.2228  0.8724
 3755SOL     OW22723   4.304   3.426   5.818 -0.1964 -0.0910  0.6398
 3755SOL    HW122724   4.289   3.359   5.885  3.5720 -0.0524  1.5048
 3755SOL    HW222725   4.289   3.375   5.739 -0.6320  1.1816 -0.0887
 3756SOL     OW22726   3.736   4.626  16.241 -0.2317 -0.2632 -0.0948
 3756SOL    HW122727   3.702   4.706  16.202  0.4925  0.4649  0.7489
 3756SOL    HW222728   3.659   4.569  16.236  0.7479 -1.5228 -1.0278
 3757SOL     OW22729   3.206   3.017   3.908 -0.2152  0.0286 -0.3292
 3757SOL    HW122730   3.165   3.103   3.911  0.5462  0.3191  1.5023
 3757SOL    HW222731   3.246   3.018   3.995 -0.1610  0.0114 -0.3536
 3758SOL     OW22732   0.951   0.619   8.394 -0.0285  0.1449 -0.8118
 3758SOL    HW122733   0.900   0.574   8.462 -0.4545 -0.9664 -1.8678
 3758SOL    HW222734   0.928   0.560   8.323  2.0472 -2.0374  0.3156
 3759SOL     OW22735   2.787   1.270   0.033  0.2594 -0.1038  0.6844
 3759SOL    HW122736   2.774   1.190  17.675 -0.7665 -0.9735  2.3014
 3759SOL    HW222737   2.725   1.331  17.687 -0.9580  0.6951  3.8284
 3760SOL     OW22738   1.318   2.811   1.866  0.2448  0.2605  0.1532
 3760SOL    HW122739   1.240   2.802   1.921  0.6645  1.8203  1.0213
 3760SOL    HW222740   1.370   2.737   1.896  0.6964  0.5918  0.1896
 3761SOL     OW22741   2.678   1.832   2.269  0.1648  0.2020  0.2680
 3761SOL    HW122742   2.651   1.884   2.193  1.5094  0.4411 -0.0506
 3761SOL    HW222743   2.604   1.773   2.277 -0.0989  0.6405  1.0364
 3762SOL     OW22744   2.221   1.669   2.496  0.5896 -0.1983 -0.9486
 3762SOL    HW122745   2.253   1.730   2.562 -0.6978 -0.7102  0.1411
 3762SOL    HW222746   2.162   1.727   2.449  1.4045 -0.0225 -1.7643
 3763SOL     OW22747   2.965   1.228   3.023 -0.4005 -0.6668  0.4469
 3763SOL    HW122748   3.021   1.178   2.964 -0.1502  0.8093 -0.5647
 3763SOL    HW222749   2.973   1.177   3.104  0.2526 -2.2613 -0.6328
 3764SOL     OW22750   1.022   4.091   1.773 -0.3978 -0.3811  0.2666
 3764SOL    HW122751   0.967   4.150   1.720 -1.4057 -1.7412 -0.1954
 3764SOL    HW222752   1.088   4.063   1.709  2.2426 -0.6172  3.0921
 3765SOL     OW22753   1.889   4.225   5.858  0.2779 -0.2202  0.0853
 3765SOL    HW122754   1.858   4.135   5.846 -1.7552  0.1819  2.3965
 3765SOL    HW222755   1.910   4.223   5.951 -1.6990 -1.9074  0.4903
 3766SOL     OW22756   1.505   1.832   7.582  0.0129 -0.3251 -0.5644
 3766SOL    HW122757   1.443   1.815   7.511  1.6159  0.6830 -2.2276
 3766SOL    HW222758   1.445   1.825   7.656  1.0162  2.1062  0.4850
 3767SOL     OW22759   4.491   1.770  13.889 -0.2234  0.3239  0.3162
 3767SOL    HW122760   4.536   1.803  13.811 -1.1470 -0.2363 -0.4567
 3767SOL    HW222761   4.400   1.791  13.866  0.3310  0.3569 -1.8621
 3768SOL     OW22762   1.224   1.696   3.946 -0.0291  0.7713  0.1203
 3768SOL    HW122763   1.240   1.607   3.976 -3.1877  0.3471  0.5904
 3768SOL    HW222764   1.176   1.681   3.865  0.8621  2.1970 -0.6731
 3769SOL     OW22765   0.621   1.383  13.148 -0.1362  0.7010 -0.0616
 3769SOL    HW122766   0.605   1.469  13.186  1.5827  0.9731  0.0324
 3769SOL    HW222767   0.638   1.408  13.057 -1.7453 -1.2246 -0.9204
 3770SOL     OW22768   2.728   0.283  16.858 -0.1758 -0.1344 -0.5200
 3770SOL    HW122769   2.750   0.190  16.858  1.5020  0.2589 -0.4817
 3770SOL    HW222770   2.821   0.305  16.865 -0.6010  1.1576  0.9913
 3771SOL     OW22771   3.579   0.086   6.581  0.0560  0.0780 -0.6491
 3771SOL    HW122772   3.616   0.146   6.647  1.2563 -0.8907 -0.4284
 3771SOL    HW222773   3.523   0.146   6.532 -0.3068 -0.7292 -1.2127
 3772SOL     OW22774   0.685   1.493   1.669 -0.0155  0.8423 -0.4591
 3772SOL    HW122775   0.642   1.577   1.684 -1.5566  0.1737 -1.1099
 3772SOL    HW222776   0.608   1.455   1.627 -0.3164  2.3386 -1.2606
 3773SOL     OW22777   0.517   3.958   5.919  0.2881 -0.1955 -0.3099
 3773SOL    HW122778   0.532   4.044   5.958  0.4940 -0.7696  0.8824
 3773SOL    HW222779   0.521   3.985   5.827 -1.5400  0.7686 -0.0867
 3774SOL     OW22780   4.164   3.106   9.825  0.1811 -0.3536  0.4652
 3774SOL    HW122781   4.115   3.181   9.856 -0.5560 -0.5945 -0.1292
 3774SOL    HW222782   4.112   3.076   9.751 -0.7133  0.2937  0.8427
 3775SOL     OW22783   3.302   0.143   2.795  0.1898 -0.4441  0.5451
 3775SOL    HW122784   3.393   0.114   2.796  0.1930 -0.5630 -2.7925
 3775SOL    HW222785   3.267   0.072   2.848  0.8573 -0.6546  0.7055
 3776SOL     OW22786   0.901   3.987  10.006  0.0887 -0.5763 -0.0098
 3776SOL    HW122787   0.978   3.949  10.048 -0.8894 -1.6276  0.8110
 3776SOL    HW222788   0.842   4.021  10.072  0.0845  2.4478 -1.5813
 3777SOL     OW22789   2.710   2.278  13.633  0.5373  0.0690  0.7752
 3777SOL    HW122790   2.774   2.256  13.565 -0.0032  0.7205  0.0583
 3777SOL    HW222791   2.699   2.372  13.619  1.6111  0.1797  0.7221
 3778SOL     OW22792   3.041   1.753   1.696 -0.2712  0.4858  0.2608
 3778SOL    HW122793   2.952   1.788   1.699 -1.1496 -1.8351  1.2227
 3778SOL    HW222794   3.071   1.781   1.610  1.0335  0.1961  0.6266
 3779SOL     OW22795   3.776   3.248   2.272 -0.0568 -0.5954  0.0971
 3779SOL    HW122796   3.759   3.309   2.344 -1.0142  0.1716 -0.7749
 3779SOL    HW222797   3.689   3.209   2.266 -1.0769  1.2951  2.5220
 3780SOL     OW22798   2.412   1.898  13.765  0.0997  0.1235 -0.1264
 3780SOL    HW122799   2.381   1.817  13.806 -0.4304 -0.1877 -1.1407
 3780SOL    HW222800   2.446   1.870  13.680 -4.4428  1.9256 -2.5083
 3781SOL     OW22801   2.151   3.751  17.228  0.7877  0.9898  0.3062
 3781SOL    HW122802   2.132   3.707  17.311 -1.5843  0.8312 -0.3252
 3781SOL    HW222803   2.245   3.761  17.219  0.5714  4.1782  1.4701
 3782SOL     OW22804   1.510   3.734   4.229 -0.4924 -0.0934 -0.2304
 3782SOL    HW122805   1.455   3.777   4.163  1.9056 -0.8144 -2.6613
 3782SOL    HW222806   1.539   3.649   4.195 -0.8851 -0.1765 -0.3664
 3783SOL     OW22807   3.727   3.972   8.358 -0.2099  0.2810 -0.1504
 3783SOL    HW122808   3.819   3.977   8.382 -0.3471  1.0781  0.1904
 3783SOL    HW222809   3.683   4.048   8.395  0.1650  0.7527 -0.6785
 3784SOL     OW22810   0.123   2.837   4.792  0.3259 -0.1826 -0.0726
 3784SOL    HW122811   0.145   2.773   4.861  1.6155  0.6717  0.3045
 3784SOL    HW222812   0.109   2.783   4.715 -0.3475  0.0036 -0.0802
 3785SOL     OW22813   3.877   4.533   5.546 -0.1968 -0.2994 -0.2136
 3785SOL    HW122814   3.844   4.539   5.636 -0.5233  0.5184 -0.3941
 3785SOL    HW222815   3.810   4.471   5.516  1.9311 -1.9409 -1.5886
 3786SOL     OW22816   0.165   0.252  13.403 -0.3174 -0.0385 -0.4355
 3786SOL    HW122817   0.207   0.170  13.379  1.6487  0.9245 -0.3393
 3786SOL    HW222818   0.142   0.234  13.495 -1.7352  1.6154 -0.4658
 3787SOL     OW22819   2.716   0.715   3.642 -0.6903 -0.6592 -0.1243
 3787SOL    HW122820   2.738   0.800   3.603  1.3069 -0.7683  0.7255
 3787SOL    HW222821   2.704   0.740   3.733 -0.6564  0.6872 -0.4840
 3788SOL     OW22822   1.321   4.232   4.674 -0.2832 -0.3880  0.7974
 3788SOL    HW122823   1.383   4.181   4.726  0.6321  0.3865  0.4764
 3788SOL    HW222824   1.333   4.316   4.718 -1.1744 -0.2291  0.7288
 3789SOL     OW22825   3.761   3.068  12.628 -0.5407 -0.0745 -0.1581
 3789SOL    HW122826   3.768   2.997  12.692 -0.0646 -0.7733 -0.9848
 3789SOL    HW222827   3.790   3.023  12.549 -0.2420  0.6819 -0.4800
 3790SOL     OW22828   1.649   3.816   9.329 -0.1523 -0.4272  0.3228
 3790SOL    HW122829   1.650   3.911   9.313 -0.7405 -0.7266 -1.4480
 3790SOL    HW222830   1.590   3.802   9.403  1.2549  2.1035  1.9383
 3791SOL     OW22831   2.837   3.218  16.796  0.0708 -0.4238  0.6268
 3791SOL    HW122832   2.917   3.169  16.817  0.3041  0.6090  2.1695
 3791SOL    HW222833   2.841   3.303  16.840  0.4259 -0.9057  1.5275
 3792SOL     OW22834   0.751   1.520   5.988 -0.0170  0.0455 -1.0103
 3792SOL    HW122835   0.757   1.604   5.942  2.1912  0.3832 -0.0949
 3792SOL    HW222836   0.737   1.467   5.909 -2.5186 -1.4452  0.4273
 3793SOL     OW22837   3.480   1.533   4.464  0.1541 -0.2549 -0.2636
 3793SOL    HW122838   3.424   1.538   4.387 -1.5970 -0.0989  1.0387
 3793SOL    HW222839   3.549   1.477   4.427  0.7420 -0.5468  1.2784
 3794SOL     OW22840   2.746   2.035  15.372  0.2879 -0.2947 -0.9902
 3794SOL    HW122841   2.675   1.971  15.381 -0.3678  0.4533 -0.7977
 3794SOL    HW222842   2.703   2.092  15.309  0.4368  1.4677  0.4995
 3795SOL     OW22843   2.505   3.390   6.044 -0.6580  0.0728 -0.7371
 3795SOL    HW122844   2.582   3.333   6.052 -0.6849  0.1281 -0.0358
 3795SOL    HW222845   2.430   3.341   6.078 -0.2272 -0.0835 -0.0005
 3796SOL     OW22846   4.112   1.124  10.543  0.2513  0.1264  0.6279
 3796SOL    HW122847   4.144   1.181  10.613  1.9678 -1.0732  0.8317
 3796SOL    HW222848   4.181   1.058  10.542 -0.0686 -0.1905 -0.9276
 3797SOL     OW22849   2.570   3.659   7.202  0.0689 -0.3992 -0.5726
 3797SOL    HW122850   2.524   3.688   7.281  0.0340  1.1748 -1.1568
 3797SOL    HW222851   2.646   3.717   7.211  1.4930 -2.3575  0.0255
 3798SOL     OW22852   2.736   3.390   7.082 -0.3611 -0.0386 -0.5973
 3798SOL    HW122853   2.646   3.392   7.050  0.3110 -1.0649 -2.6227
 3798SOL    HW222854   2.776   3.311   7.043  1.7604  0.7058  0.0701
 3799SOL     OW22855   4.199   2.588  13.589  0.0917 -0.4381  0.3670
 3799SOL    HW122856   4.180   2.625  13.675 -1.3486 -1.7260  0.6020
 3799SOL    HW222857   4.294   2.594  13.580 -0.0058 -0.3002 -0.6011
 3800SOL     OW22858   0.597   3.020  10.704  0.4354  0.5149 -0.0380
 3800SOL    HW122859   0.605   3.034  10.798 -0.5164 -1.3551  0.3124
 3800SOL    HW222860   0.608   2.928  10.681 -0.6927 -0.0313  1.6132
 3801SOL     OW22861   0.365   4.367   8.624 -0.1592  0.1581 -1.2712
 3801SOL    HW122862   0.271   4.381   8.615 -0.5348 -0.0274  2.6605
 3801SOL    HW222863   0.385   4.299   8.560  1.7833  0.2657 -0.7858
 3802SOL     OW22864   1.822   2.402  15.905  0.0722  0.4036  0.4710
 3802SOL    HW122865   1.853   2.312  15.894 -0.5739  0.2245  0.1522
 3802SOL    HW222866   1.729   2.393  15.925 -0.3372 -0.0775 -1.6571
 3803SOL     OW22867   3.079   4.315  15.169  0.1363  0.1977  0.3786
 3803SOL    HW122868   3.140   4.374  15.124  2.0922 -0.8861  1.5722
 3803SOL    HW222869   3.149   4.265  15.212 -1.2722 -0.2136  2.2149
 3804SOL     OW22870   1.171   3.136  12.933 -0.2472 -0.8110  0.2542
 3804SOL    HW122871   1.132   3.050  12.919 -0.5745 -0.9113  1.7135
 3804SOL    HW222872   1.263   3.121  12.913 -0.3344  0.2755 -0.9471
 3805SOL     OW22873   0.237   0.321   1.044  0.4344 -0.8078  0.6139
 3805SOL    HW122874   0.176   0.290   0.976  0.0312 -0.5709  0.8707
 3805SOL    HW222875   0.317   0.282   1.008  0.6335  0.7926 -0.7090
 3806SOL     OW22876   2.416   1.804  10.358  0.2115  0.1230  0.2810
 3806SOL    HW122877   2.511   1.794  10.359  0.3031  1.5308  3.3895
 3806SOL    HW222878   2.387   1.714  10.372  0.8215  0.1918  1.8999
 3807SOL     OW22879   4.596   4.662   4.262 -0.1353 -0.5543  0.1510
 3807SOL    HW122880   4.687   4.691   4.252  0.1191 -2.0576 -1.9020
 3807SOL    HW222881   4.561   4.652   4.174  0.7578  0.6683 -0.3490
 3808SOL     OW22882   3.160   1.103   3.325  0.1350  0.1664 -0.5549
 3808SOL    HW122883   3.202   1.094   3.410  2.7005  0.3438 -1.8144
 3808SOL    HW222884   3.103   1.177   3.345  1.6294  1.0393  0.4127
 3809SOL     OW22885   1.015   2.371   5.738 -0.3427  0.3659 -0.4827
 3809SOL    HW122886   0.988   2.342   5.651  0.6077 -0.7853 -0.4065
 3809SOL    HW222887   0.929   2.393   5.773 -0.4483  1.1464 -1.2337
 3810SOL     OW22888   0.824   2.740   6.573  0.6768 -0.2947 -0.4923
 3810SOL    HW122889   0.760   2.744   6.643  1.3654 -0.4189  0.1376
 3810SOL    HW222890   0.889   2.682   6.613  0.5664 -0.0651  0.0120
 3811SOL     OW22891   3.361   0.576   3.969  0.1585 -0.1736  0.0280
 3811SOL    HW122892   3.454   0.583   3.990  0.1957 -2.4478  0.5708
 3811SOL    HW222893   3.364   0.613   3.881  2.2586  0.5333  0.3914
 3812SOL     OW22894   0.780   0.233  15.267 -0.1256 -0.2414  0.0598
 3812SOL    HW122895   0.807   0.146  15.297 -0.3286 -0.0429  0.8357
 3812SOL    HW222896   0.691   0.214  15.238  0.0059 -1.5346  0.4821
 3813SOL     OW22897   2.519   2.770   0.389 -0.3083 -1.0139  0.1928
 3813SOL    HW122898   2.550   2.808   0.307 -0.4631  2.0701  1.5648
 3813SOL    HW222899   2.425   2.781   0.373 -0.1813 -0.0020  0.1333
 3814SOL     OW22900   0.340   2.341  13.506 -0.0946 -0.5191  0.4818
 3814SOL    HW122901   0.285   2.268  13.478  0.0774  0.0957 -1.4260
 3814SOL    HW222902   0.371   2.377  13.423 -0.5845 -0.8623  0.1482
 3815SOL     OW22903   3.353   1.731   1.877 -0.0608  0.0038 -0.0155
 3815SOL    HW122904   3.359   1.638   1.897 -0.2219 -0.4658 -2.1127
 3815SOL    HW222905   3.288   1.764   1.940  0.7456  2.0085 -0.2129
 3816SOL     OW22906   3.101   1.891   0.190  0.3848  0.1092 -0.8307
 3816SOL    HW122907   3.045   1.817   0.169  1.6802 -0.8214 -1.0285
 3816SOL    HW222908   3.035   1.929   0.248  0.3345 -1.3017  0.0471
 3817SOL     OW22909   3.500   2.811  16.187 -0.5803 -0.0209 -0.1393
 3817SOL    HW122910   3.433   2.746  16.205  0.2481 -0.2021  2.2157
 3817SOL    HW222911   3.490   2.841  16.096 -0.0070  0.9326  0.1002
 3818SOL     OW22912   2.371   2.431   7.021 -0.2221  0.3359 -0.2707
 3818SOL    HW122913   2.335   2.343   7.033 -0.3969  0.4255 -0.1498
 3818SOL    HW222914   2.302   2.483   7.062 -0.0104 -0.9887  1.8152
 3819SOL     OW22915   0.600   2.189   3.920  0.2196 -0.1466 -0.4393
 3819SOL    HW122916   0.670   2.241   3.881  1.0094 -1.3996 -0.6708
 3819SOL    HW222917   0.654   2.114   3.945  2.2515  0.7197 -2.2231
 3820SOL     OW22918   2.357   4.294  17.515  0.4919 -0.0752 -0.2415
 3820SOL    HW122919   2.298   4.285  17.590 -0.0796  1.4830 -0.5013
 3820SOL    HW222920   2.428   4.341  17.560 -0.0300 -1.1835  1.7397
 3821SOL     OW22921   1.584   1.411   3.578 -0.4607 -0.0706  0.4123
 3821SOL    HW122922   1.489   1.426   3.580 -0.3907  0.0619  2.5928
 3821SOL    HW222923   1.620   1.499   3.580 -0.3234 -0.1399  0.9142
 3822SOL     OW22924   0.825   2.270  12.910  0.1401 -0.6248  0.0652
 3822SOL    HW122925   0.794   2.182  12.930  0.4742 -0.6278  0.5494
 3822SOL    HW222926   0.872   2.238  12.833  0.5029  0.0801 -0.0118
 3823SOL     OW22927   3.489   0.658   3.757  0.2999  0.2671  0.0621
 3823SOL    HW122928   3.564   0.600   3.770  0.3611  0.6770  1.5628
 3823SOL    HW222929   3.530   0.713   3.690  1.2794  0.6857  1.0019
 3824SOL     OW22930   0.801   2.621  17.474 -0.4218 -0.2106  0.0197
 3824SOL    HW122931   0.864   2.549  17.474  0.9815  1.0280  0.1786
 3824SOL    HW222932   0.788   2.626  17.569 -0.4407 -0.2766  0.0207
 3825SOL     OW22933   2.942   0.271   4.466  0.0335 -0.8637 -0.3214
 3825SOL    HW122934   2.928   0.200   4.403 -3.0772 -1.2145  0.7119
 3825SOL    HW222935   3.028   0.300   4.439  1.2063 -2.6481  1.4874
 3826SOL     OW22936   2.932   1.401   1.930  0.4024 -0.2908  0.1397
 3826SOL    HW122937   2.903   1.481   1.974 -0.6990 -0.2929 -0.5715
 3826SOL    HW222938   2.846   1.361   1.919  0.7236 -1.5917  2.1657
 3827SOL     OW22939   1.791   1.196   2.450 -0.1703 -0.4566  0.0922
 3827SOL    HW122940   1.696   1.186   2.449 -0.1972 -0.2805  0.9602
 3827SOL    HW222941   1.796   1.291   2.461  0.2019 -0.5760  0.9930
 3828SOL     OW22942   2.296   1.914   9.665  0.3710 -0.1000 -0.1789
 3828SOL    HW122943   2.333   1.991   9.622  1.7386 -0.6417  0.0288
 3828SOL    HW222944   2.340   1.920   9.750 -0.0427 -1.9766  0.1814
 3829SOL     OW22945   4.205   3.729  11.785 -0.6732  0.0156  0.0114
 3829SOL    HW122946   4.271   3.747  11.852 -1.6149 -0.1307  0.9758
 3829SOL    HW222947   4.238   3.643  11.757  1.5744  0.6753  0.5817
 3830SOL     OW22948   0.204   4.111   7.280 -0.5395  0.7493 -0.7829
 3830SOL    HW122949   0.255   4.135   7.357 -2.3240 -1.6272  1.1058
 3830SOL    HW222950   0.204   4.016   7.286  1.6161  1.0284  3.5493
 3831SOL     OW22951   2.923   2.986  10.990  0.2434 -0.2185  0.1938
 3831SOL    HW122952   2.977   2.944  11.056  3.6543  0.9092 -1.8767
 3831SOL    HW222953   2.865   2.916  10.960 -0.1516  0.1315  0.1237
 3832SOL     OW22954   2.547   0.088  15.806  0.2634  1.1063 -0.4398
 3832SOL    HW122955   2.543   0.137  15.724 -1.6305  1.0078 -0.4253
 3832SOL    HW222956   2.609   0.022  15.777  0.4917  0.6778  1.0530
 3833SOL     OW22957   1.289   3.018  13.508 -0.0968  0.1081 -0.2844
 3833SOL    HW122958   1.245   3.016  13.423  2.3174 -0.9922 -1.5087
 3833SOL    HW222959   1.255   3.099  13.546 -0.3232 -0.2935  0.3481
 3834SOL     OW22960   4.313   3.774   2.012  0.1770 -0.8544  0.4614
 3834SOL    HW122961   4.371   3.842   2.046 -0.1788 -0.3609  0.0740
 3834SOL    HW222962   4.333   3.770   1.918 -0.0811 -0.5055  0.3912
 3835SOL     OW22963   3.619   2.195   7.003  0.3428 -0.5672  0.2538
 3835SOL    HW122964   3.614   2.182   7.098 -0.8510  2.8574  0.6947
 3835SOL    HW222965   3.545   2.137   6.983  0.6002 -0.2642 -1.5429
 3836SOL     OW22966   2.439   3.787  11.139 -0.2402 -0.0639  0.6697
 3836SOL    HW122967   2.426   3.736  11.219 -2.2083  0.3858  0.6377
 3836SOL    HW222968   2.509   3.847  11.162 -3.0785  2.6980  2.1128
 3837SOL     OW22969   1.218   0.254  13.220  0.7577  0.1102 -0.1904
 3837SOL    HW122970   1.188   0.345  13.217  2.8331  0.8254  1.1035
 3837SOL    HW222971   1.248   0.237  13.131  1.1493  1.4917 -0.3277
 3838SOL     OW22972   1.585   3.797   0.785  0.1936 -0.1923  0.5726
 3838SOL    HW122973   1.680   3.807   0.771  0.1560 -1.2741 -0.5272
 3838SOL    HW222974   1.557   3.853   0.713 -0.8902 -2.4327 -0.7394
 3839SOL     OW22975   3.146   3.096   8.244  0.1729 -0.2521  0.2999
 3839SOL    HW122976   3.199   3.173   8.223  0.0214  0.2249  1.6146
 3839SOL    HW222977   3.061   3.137   8.257  0.2139  0.3064 -1.2144
 3840SOL     OW22978   0.821   0.090   2.927 -0.2366 -0.4965  0.2784
 3840SOL    HW122979   0.850   0.164   2.978  1.0102 -0.8100  0.0107
 3840SOL    HW222980   0.875   0.104   2.849 -1.4450  0.2501 -0.4270
 3841SOL     OW22981   3.068   0.094   1.713 -0.3842 -0.1924 -0.3258
 3841SOL    HW122982   3.106   0.012   1.745 -0.0676  1.0949  2.6110
 3841SOL    HW222983   3.115   0.098   1.630 -0.5198  1.9927 -0.2924
 3842SOL     OW22984   0.211   1.761   5.317  0.3181 -0.2545  0.2057
 3842SOL    HW122985   0.153   1.831   5.287 -0.9435 -2.0019 -1.4387
 3842SOL    HW222986   0.145   1.692   5.330  0.3169 -0.2673  0.1335
 3843SOL     OW22987   0.869   4.104   3.929 -0.4333 -0.5113  0.2409
 3843SOL    HW122988   0.817   4.129   4.005 -1.2975 -1.3495 -0.0681
 3843SOL    HW222989   0.959   4.112   3.961 -0.6404 -0.2946  0.7635
 3844SOL     OW22990   0.766   3.903   7.206 -1.0545 -0.0015  0.4214
 3844SOL    HW122991   0.763   3.835   7.138 -1.7548  0.3051  0.1446
 3844SOL    HW222992   0.673   3.914   7.224 -0.9401  1.8994 -0.1861
 3845SOL     OW22993   3.314   0.658  14.295  0.1807  0.0489 -0.1051
 3845SOL    HW122994   3.379   0.706  14.348 -0.6429  0.3387  0.6407
 3845SOL    HW222995   3.228   0.691  14.321  0.4033  0.7074 -0.1965
 3846SOL     OW22996   4.091   0.308   2.470 -0.3822 -0.1150  0.4623
 3846SOL    HW122997   4.073   0.333   2.379  0.2275 -4.5743 -0.9325
 3846SOL    HW222998   4.144   0.383   2.497 -1.0759  0.9642 -1.1621
 3847SOL     OW22999   1.752   1.930   2.446 -0.6021 -0.8680  0.0448
 3847SOL    HW123000   1.723   1.982   2.371 -2.0625 -0.6789  0.7393
 3847SOL    HW223001   1.693   1.855   2.436  0.0022 -1.3670  0.2771
 3848SOL     OW23002   2.068   0.542   1.720 -0.0647  0.8904  0.2691
 3848SOL    HW123003   2.152   0.580   1.743 -0.7449  1.6883  1.4397
 3848SOL    HW223004   2.094   0.452   1.742 -0.8005  0.3209 -1.1864
 3849SOL     OW23005   3.455   3.973   7.369  1.1555 -0.1899  0.1082
 3849SOL    HW123006   3.527   4.022   7.328  1.4088 -2.0100 -1.6287
 3849SOL    HW223007   3.414   3.923   7.299 -0.4923  2.9997 -1.1929
 3850SOL     OW23008   0.738   3.112  13.588 -0.1333 -0.1208  0.3178
 3850SOL    HW123009   0.740   3.128  13.682 -3.2378 -2.0679  0.7051
 3850SOL    HW223010   0.799   3.176  13.549 -0.2267  1.1826  2.3216
 3851SOL     OW23011   3.113   1.831   4.827 -0.1150  0.0825  0.5713
 3851SOL    HW123012   3.062   1.758   4.791  1.7313 -0.5865 -0.6498
 3851SOL    HW223013   3.063   1.908   4.799  0.6560  0.7745  1.0949
 3852SOL     OW23014   2.012   1.207   5.092  0.7357 -0.0029  0.0853
 3852SOL    HW123015   1.969   1.154   5.159  2.4628  0.5271  1.6154
 3852SOL    HW223016   2.103   1.180   5.098  0.8762  0.7374  1.2574
 3853SOL     OW23017   2.031   3.819  10.890 -0.1689 -0.2543  0.5623
 3853SOL    HW123018   2.098   3.757  10.862 -1.0551  0.1102 -2.3078
 3853SOL    HW223019   2.055   3.821  10.983 -1.6414 -1.3997  0.9681
 3854SOL     OW23020   2.062   4.722   3.235 -0.2307  0.1739 -0.1819
 3854SOL    HW123021   2.095   4.656   3.174  1.9362  0.8551  0.2862
 3854SOL    HW223022   2.116   0.075   3.216 -0.0049  0.1901  0.5388
 3855SOL     OW23023   2.720   2.622  13.599  0.1982 -0.1205  0.1492
 3855SOL    HW123024   2.654   2.655  13.659  2.3008  0.0890  2.3556
 3855SOL    HW223025   2.676   2.580  13.525 -0.0262 -0.3374  0.4066
 3856SOL     OW23026   3.096   1.492   1.720 -0.2374 -0.5347 -0.4733
 3856SOL    HW123027   3.050   1.465   1.800  1.8066 -0.0384  0.8835
 3856SOL    HW223028   3.081   1.586   1.713 -0.3645 -0.4946  0.2952
 3857SOL     OW23029   1.813   4.478   5.882  1.1050  0.0558  0.6377
 3857SOL    HW123030   1.854   4.394   5.858  1.2516  0.2228  0.3069
 3857SOL    HW223031   1.765   4.502   5.803  0.4251  2.5985  1.8296
 3858SOL     OW23032   4.631   2.847   0.994 -0.2138  0.0143  0.0577
 3858SOL    HW123033   4.584   2.833   1.076 -1.5866 -0.0034 -0.7299
 3858SOL    HW223034   4.571   2.803   0.934 -0.8177  2.4578 -1.1180
 3859SOL     OW23035   2.233   1.535  11.895 -0.8299  0.0438 -0.3225
 3859SOL    HW123036   2.278   1.495  11.820 -1.2567  0.3590 -0.7437
 3859SOL    HW223037   2.264   1.625  11.899 -2.3680  0.6158 -1.4775
 3860SOL     OW23038   1.738   1.933   4.835  0.3094 -0.1172 -0.3663
 3860SOL    HW123039   1.743   1.888   4.919  2.2440  1.1130  0.1771
 3860SOL    HW223040   1.775   1.879   4.765  0.2192 -1.4263  0.5995
 3861SOL     OW23041   3.049   2.798   5.023 -0.6723 -0.0505  0.4341
 3861SOL    HW123042   3.112   2.764   5.086 -1.6645 -0.2704  1.3026
 3861SOL    HW223043   3.006   2.717   4.993 -0.7343 -0.6287  2.0802
 3862SOL     OW23044   3.342   1.349  13.393 -0.3150  0.3275 -0.5242
 3862SOL    HW123045   3.294   1.299  13.326  0.0856 -1.6028  0.6322
 3862SOL    HW223046   3.420   1.295  13.407 -1.4046 -1.1293 -0.0601
 3863SOL     OW23047   4.540   3.945  11.226 -0.1975 -0.5807 -0.1723
 3863SOL    HW123048   4.612   3.937  11.288 -2.3126  0.0769  2.3592
 3863SOL    HW223049   4.509   4.031  11.253 -0.1421 -0.5053 -0.3495
 3864SOL     OW23050   3.480   0.549  16.391 -0.4161 -0.3135 -0.3838
 3864SOL    HW123051   3.553   0.540  16.331  0.7698  0.0003  1.0112
 3864SOL    HW223052   3.489   0.642  16.410  0.9512 -0.0757 -2.2295
 3865SOL     OW23053   2.825   3.782  12.487  0.1038 -0.4785 -0.3535
 3865SOL    HW123054   2.787   3.827  12.562 -2.3961 -2.2256 -0.5850
 3865SOL    HW223055   2.916   3.809  12.500  0.7675 -1.0624 -3.7466
 3866SOL     OW23056   2.900   0.134   3.756  0.0044  0.2466 -0.0314
 3866SOL    HW123057   2.805   0.142   3.764 -0.0962 -0.4468 -0.5184
 3866SOL    HW223058   2.907   0.053   3.705  0.5915 -0.7955  1.7227
 3867SOL     OW23059   1.400   0.395   5.657 -0.4870 -0.1078  0.3556
 3867SOL    HW123060   1.465   0.465   5.664 -1.1535  0.5856 -0.3898
 3867SOL    HW223061   1.456   0.318   5.663 -0.1596  0.0440 -0.7055
 3868SOL     OW23062   0.086   0.052  13.996  0.1659 -0.7837 -0.1141
 3868SOL    HW123063   0.036   0.054  13.915  1.2241  0.3639 -0.7338
 3868SOL    HW223064   0.130   0.136  13.988 -0.5282 -0.2794  1.4324
 3869SOL     OW23065   3.492   2.899  15.617 -0.2158  0.2391  0.3422
 3869SOL    HW123066   3.447   2.817  15.598 -1.1580 -0.0737  3.9152
 3869SOL    HW223067   3.431   2.959  15.573  0.3298  1.0783  0.7327
 3870SOL     OW23068   3.422   1.646  14.759 -0.0466 -0.2248 -0.6034
 3870SOL    HW123069   3.410   1.552  14.746  0.1426 -0.2424 -0.6612
 3870SOL    HW223070   3.436   1.658  14.665  0.5938 -2.1270 -0.7538
 3871SOL     OW23071   4.105   3.183  11.162  0.1262  0.0470  0.7455
 3871SOL    HW123072   4.047   3.252  11.130  2.0233  0.7698 -1.1810
 3871SOL    HW223073   4.043   3.111  11.156  0.7769 -0.5673  1.4879
 3872SOL     OW23074   1.478   2.209  17.093 -0.4421  0.2884  0.5131
 3872SOL    HW123075   1.555   2.162  17.128 -0.5960 -1.1456 -1.0628
 3872SOL    HW223076   1.438   2.228  17.178 -1.5104 -0.4685  0.1699
 3873SOL     OW23077   1.688   4.336   1.700  0.0820  0.6553  0.0577
 3873SOL    HW123078   1.736   4.256   1.723 -0.6151  0.0984 -0.4188
 3873SOL    HW223079   1.701   4.396   1.773  1.4108  1.8218 -1.1521
 3874SOL     OW23080   0.900   3.155  13.124  0.1279 -0.1597 -0.0777
 3874SOL    HW123081   0.834   3.222  13.107 -0.1706  0.5551  3.9351
 3874SOL    HW223082   0.856   3.103  13.190  0.8778 -1.1768 -0.3680
 3875SOL     OW23083   3.840   3.980   5.667 -0.1121 -0.0173 -0.6428
 3875SOL    HW123084   3.891   3.982   5.586 -0.7934 -0.8352 -1.0912
 3875SOL    HW223085   3.835   4.074   5.682  0.0428 -0.2968  1.1420
 3876SOL     OW23086   2.519   3.810   2.556  0.5525 -0.7283  0.1788
 3876SOL    HW123087   2.560   3.870   2.493  2.3890 -1.9179  0.2668
 3876SOL    HW223088   2.443   3.866   2.574  0.6759 -0.6848  0.5689
 3877SOL     OW23089   0.778   4.153  11.147 -0.6112  0.5243  0.0344
 3877SOL    HW123090   0.819   4.137  11.062  0.6846 -0.8128  0.9456
 3877SOL    HW223091   0.762   4.248  11.144 -1.4900  0.3676 -0.5449
 3878SOL     OW23092   2.284   4.683   1.378 -0.1009 -0.0001 -0.0554
 3878SOL    HW123093   2.348   4.720   1.317  0.2072 -0.9444 -0.3047
 3878SOL    HW223094   2.342   4.619   1.419 -3.2029 -1.4282  2.1375
 3879SOL     OW23095   0.717   2.162   8.443  0.0612 -0.1779  0.4712
 3879SOL    HW123096   0.663   2.097   8.487 -2.4289  2.2683  1.0257
 3879SOL    HW223097   0.722   2.125   8.354  2.5102  1.2284  0.0091
 3880SOL     OW23098   4.104   1.883   6.211  0.8530 -0.6171 -0.3277
 3880SOL    HW123099   4.182   1.938   6.217  1.1697 -1.1322  0.3576
 3880SOL    HW223100   4.040   1.912   6.276  1.9414  2.5762 -0.7064
 3881SOL     OW23101   0.812   2.503   5.501  0.5913  0.0719 -1.0054
 3881SOL    HW123102   0.789   2.454   5.422 -0.8691 -1.1908  0.1971
 3881SOL    HW223103   0.752   2.466   5.566 -0.4791 -0.5756 -2.3485
 3882SOL     OW23104   4.199   1.292   3.383  0.2430 -0.0910  0.0716
 3882SOL    HW123105   4.276   1.235   3.390 -1.5613 -2.2227  2.6043
 3882SOL    HW223106   4.160   1.241   3.312 -0.3440 -0.8516  0.9229
 3883SOL     OW23107   0.258   4.262   6.504  0.5267  0.4302  0.4170
 3883SOL    HW123108   0.268   4.265   6.599  1.0586 -1.8916  0.4258
 3883SOL    HW223109   0.346   4.291   6.480  0.7900 -0.4747  0.2887
 3884SOL     OW23110   3.959   4.135   7.744  0.3858 -0.4088 -0.1151
 3884SOL    HW123111   4.003   4.214   7.714  2.4725 -2.0593 -1.3450
 3884SOL    HW223112   4.029   4.071   7.732  0.6967 -0.2441  0.7888
 3885SOL     OW23113   0.815   0.223   6.443  0.2029 -0.4491  0.1019
 3885SOL    HW123114   0.898   0.269   6.452 -1.1098  2.1645 -0.9282
 3885SOL    HW223115   0.843   0.134   6.422  0.4028  0.1687 -2.2930
 3886SOL     OW23116   0.309   3.219   0.302 -0.3417  0.3862  0.0507
 3886SOL    HW123117   0.275   3.307   0.288  0.7250  0.9584  0.9848
 3886SOL    HW223118   0.298   3.222   0.397 -0.6486  1.6241 -0.0220
 3887SOL     OW23119   3.582   0.863   4.400  0.2157  0.1995  0.2753
 3887SOL    HW123120   3.518   0.831   4.336  2.2874 -1.3241 -1.0765
 3887SOL    HW223121   3.658   0.806   4.385 -0.3299 -0.0276 -1.7175
 3888SOL     OW23122   1.997   2.521   6.347  0.1435 -0.4493 -0.3462
 3888SOL    HW123123   1.983   2.435   6.386 -0.7519 -0.0134  0.2829
 3888SOL    HW223124   1.906   2.544   6.329 -0.1827  0.1274  1.9621
 3889SOL     OW23125   3.314   0.738   4.525 -0.2524  0.4637 -0.3624
 3889SOL    HW123126   3.348   0.751   4.437 -2.8207  2.1169 -1.1217
 3889SOL    HW223127   3.248   0.807   4.538 -2.3962 -1.6063 -0.2285
 3890SOL     OW23128   4.198   4.184   3.107 -0.1296  0.5187 -0.5479
 3890SOL    HW123129   4.147   4.252   3.063  1.1975  2.0209  0.2350
 3890SOL    HW223130   4.284   4.200   3.069  0.6493 -1.3469  0.3993
 3891SOL     OW23131   2.140   4.167   2.044  0.1054  0.1689  0.2178
 3891SOL    HW123132   2.105   4.116   2.117  1.4269  1.5922  1.8349
 3891SOL    HW223133   2.064   4.221   2.020 -0.5630  0.4680  3.0669
 3892SOL     OW23134   2.208   3.960   4.876 -0.0240 -0.1414 -0.3368
 3892SOL    HW123135   2.155   3.882   4.857  0.2464 -0.5584  0.6027
 3892SOL    HW223136   2.295   3.920   4.881  0.7417  1.5629 -0.1848
 3893SOL     OW23137   2.553   1.438   0.053 -0.1884 -0.3556 -0.1168
 3893SOL    HW123138   2.605   1.507   0.012 -0.2738 -0.1981  0.0416
 3893SOL    HW223139   2.532   1.482   0.135 -1.5138 -1.5000  0.1583
 3894SOL     OW23140   1.531   3.308   4.900 -0.0113  0.2197 -0.0234
 3894SOL    HW123141   1.548   3.327   4.992 -2.5759 -0.1286  0.5160
 3894SOL    HW223142   1.480   3.383   4.869 -0.7286 -0.0197  0.5675
 3895SOL     OW23143   3.946   0.911   1.780 -0.0756 -0.0370  0.1100
 3895SOL    HW123144   4.014   0.928   1.844 -0.1374  0.3967  0.0594
 3895SOL    HW223145   3.979   0.829   1.742 -1.2817 -0.1652 -0.6768
 3896SOL     OW23146   0.140   1.681   9.433  0.0643 -0.0460 -0.1780
 3896SOL    HW123147   0.145   1.629   9.514  1.3464  1.7826  0.9107
 3896SOL    HW223148   0.126   1.770   9.466 -3.4179 -0.0859 -1.5126
 3897SOL     OW23149   0.813   2.932   8.088 -0.2920  0.3008 -0.3189
 3897SOL    HW123150   0.734   2.958   8.134 -1.5081  0.0154 -2.2547
 3897SOL    HW223151   0.792   2.846   8.052 -0.5280 -0.2905  1.2325
 3898SOL     OW23152   2.823   1.195   0.295 -0.0436  0.1493  0.0637
 3898SOL    HW123153   2.822   1.228   0.205  0.7544  0.2004  0.0719
 3898SOL    HW223154   2.731   1.204   0.319  0.4086 -0.1045  1.8698
 3899SOL     OW23155   2.711   3.139  17.544  0.1176 -0.6138  0.0177
 3899SOL    HW123156   2.793   3.108  17.506 -1.1831 -1.8996 -1.7917
 3899SOL    HW223157   2.735   3.185  17.624 -2.9325 -0.3485  0.7751
 3900SOL     OW23158   3.574   2.682   6.187  0.3657  0.2001 -0.5810
 3900SOL    HW123159   3.516   2.732   6.244  0.1797  1.2844 -1.7096
 3900SOL    HW223160   3.633   2.642   6.250 -1.8892 -0.6750  0.9501
 3901SOL     OW23161   0.281   2.485   3.509 -0.5232  0.4625  0.2162
 3901SOL    HW123162   0.302   2.576   3.486 -1.7083  0.8817  0.8286
 3901SOL    HW223163   0.257   2.457   3.420  1.0108 -1.1850  0.3307
 3902SOL     OW23164   2.028   2.201   1.656  0.4576 -0.4477 -0.4935
 3902SOL    HW123165   1.984   2.180   1.574 -1.6595 -0.2835  0.6018
 3902SOL    HW223166   2.050   2.114   1.688 -1.4503 -0.2397  1.4070
 3903SOL     OW23167   0.660   4.600   8.162 -0.1894  0.0036  0.0090
 3903SOL    HW123168   0.691   4.608   8.072 -2.2731  5.1941 -0.2442
 3903SOL    HW223169   0.654   4.505   8.173 -1.0301  0.0416 -0.1243
 3904SOL     OW23170   3.324   3.460   2.200 -0.4796  0.0159  0.2613
 3904SOL    HW123171   3.276   3.479   2.119  0.7029  1.0049 -0.2045
 3904SOL    HW223172   3.254   3.489   2.258 -1.3469  0.5709 -1.0479
 3905SOL     OW23173   0.802   1.394   1.895  0.0869  0.3222  0.0419
 3905SOL    HW123174   0.735   1.327   1.882 -1.8818  2.6796 -2.0692
 3905SOL    HW223175   0.814   1.414   1.803  0.1497 -1.6607 -0.3837
 3906SOL     OW23176   4.230   1.674   7.599 -0.0077  0.2037 -0.3224
 3906SOL    HW123177   4.214   1.594   7.648 -1.5894  1.3318  1.0335
 3906SOL    HW223178   4.275   1.736   7.657 -0.2316  0.8203 -0.7984
 3907SOL     OW23179   2.042   0.721   0.074 -0.7137  0.5146 -0.3488
 3907SOL    HW123180   2.014   0.716  17.676 -0.0566  3.0951 -0.6832
 3907SOL    HW223181   2.071   0.812   0.081  1.9901 -0.4507  1.1992
 3908SOL     OW23182   0.531   3.196   9.588  0.2462  0.2836  0.6050
 3908SOL    HW123183   0.470   3.231   9.653 -1.3960  1.0427 -1.3170
 3908SOL    HW223184   0.496   3.110   9.566 -2.8981  1.3960  1.1969
 3909SOL     OW23185   2.546   4.453   7.809 -0.4062 -0.0972 -0.2478
 3909SOL    HW123186   2.509   4.485   7.727 -0.1423  0.8529 -0.0025
 3909SOL    HW223187   2.469   4.420   7.855 -0.5162  0.6142  0.0692
 3910SOL     OW23188   4.583   1.529   1.442  0.1608  0.2461  0.0588
 3910SOL    HW123189   4.487   1.532   1.448  0.1420 -3.4818  1.8526
 3910SOL    HW223190   4.591   1.484   1.357 -0.8046  3.0866 -1.5398
 3911SOL     OW23191   0.950   3.845   2.158 -0.6756 -0.0782 -0.0373
 3911SOL    HW123192   0.901   3.782   2.105 -1.5085  0.7073 -0.1935
 3911SOL    HW223193   0.905   3.925   2.131 -1.3401  0.3322  2.3145
 3912SOL     OW23194   3.736   3.341   3.016  0.3324 -0.2529  0.2964
 3912SOL    HW123195   3.779   3.349   2.930 -3.5144  2.2395 -1.3885
 3912SOL    HW223196   3.665   3.404   3.011  1.6122  1.1288 -0.6002
 3913SOL     OW23197   0.717   0.031   8.724  0.3031  0.1144 -0.1901
 3913SOL    HW123198   0.765   0.006   8.645 -0.9018  1.3590 -1.3167
 3913SOL    HW223199   0.692   4.666   8.752 -1.2272 -0.0215 -2.0044
 3914SOL     OW23200   1.635   3.316   2.328 -0.5797  0.0473  0.6590
 3914SOL    HW123201   1.557   3.293   2.378 -1.3015  1.0664 -0.0321
 3914SOL    HW223202   1.670   3.387   2.382  1.3682 -0.1446 -0.3617
 3915SOL     OW23203   3.156   4.192   9.124 -0.2363  0.4554 -0.7340
 3915SOL    HW123204   3.236   4.207   9.175 -1.5949 -1.3720  1.8805
 3915SOL    HW223205   3.099   4.162   9.194  0.7736 -0.1749 -0.1703
 3916SOL     OW23206   2.020   0.859  13.724 -0.1405  0.2522  0.1787
 3916SOL    HW123207   2.000   0.825  13.637  0.3306 -0.7751  0.4698
 3916SOL    HW223208   2.017   0.784  13.783 -0.2876 -0.0147 -0.1665
 3917SOL     OW23209   0.084   0.476   7.355 -0.3239  0.1821 -0.2659
 3917SOL    HW123210   0.093   0.462   7.449 -0.1781  1.2924 -0.1250
 3917SOL    HW223211   0.139   0.412   7.309  2.4588  1.9400  0.6774
 3918SOL     OW23212   2.187   0.187   8.156  0.4313  0.0093 -0.5463
 3918SOL    HW123213   2.260   0.245   8.175 -0.4239  1.3072 -1.2779
 3918SOL    HW223214   2.216   0.146   8.074 -1.5212  0.6253 -1.5235
 3919SOL     OW23215   1.310   2.290   4.830 -0.0161 -0.3287  0.1612
 3919SOL    HW123216   1.259   2.244   4.763 -0.6988  3.9914 -2.2904
 3919SOL    HW223217   1.270   2.251   4.907 -0.7880 -0.7726 -0.4600
 3920SOL     OW23218   1.146   3.777   5.860  0.3799 -0.2957 -0.4258
 3920SOL    HW123219   1.170   3.694   5.902  0.7606 -1.5298 -3.0359
 3920SOL    HW223220   1.067   3.744   5.817 -0.3727  0.0594  0.6747
 3921SOL     OW23221   4.499   0.459   9.205  0.1610  0.5358 -0.0244
 3921SOL    HW123222   4.407   0.438   9.221  1.0715 -1.9056  2.0258
 3921SOL    HW223223   4.516   0.400   9.131  1.7696  2.0355 -0.8766
 3922SOL     OW23224   0.909   0.487   5.769 -0.3210  0.1310  0.0500
 3922SOL    HW123225   0.973   0.444   5.825 -1.5646 -0.7726  0.7852
 3922SOL    HW223226   0.885   0.431   5.696 -0.2050 -1.6692  1.3889
 3923SOL     OW23227   2.342   0.021  13.258 -0.3309 -0.7691  0.4276
 3923SOL    HW123228   2.293   0.041  13.338  0.4183 -0.5041  0.8266
 3923SOL    HW223229   2.333   4.649  13.245 -1.0339 -0.4656 -1.2597
 3924SOL     OW23230   4.536   0.451  17.372 -0.3512 -0.6274  0.1081
 3924SOL    HW123231   4.454   0.479  17.330  0.4196  0.6235 -0.5341
 3924SOL    HW223232   4.498   0.374  17.416 -1.1495 -1.5919 -2.2275
 3925SOL     OW23233   2.657   2.409   8.773  0.1454  0.4613 -0.1431
 3925SOL    HW123234   2.596   2.410   8.700  1.3543 -0.7438 -1.1635
 3925SOL    HW223235   2.611   2.366   8.845 -2.0804 -0.1819 -1.9681
 3926SOL     OW23236   2.246   0.693   3.838  0.0538 -0.0485  0.1591
 3926SOL    HW123237   2.186   0.644   3.781 -1.9584  0.3448  1.9144
 3926SOL    HW223238   2.201   0.714   3.920 -0.7881  1.2232 -0.6265
 3927SOL     OW23239   3.630   0.525   4.300 -0.2449  0.5216 -0.0324
 3927SOL    HW123240   3.630   0.558   4.210 -1.0808  0.6328  0.0118
 3927SOL    HW223241   3.677   0.600   4.337  0.1849  0.9357 -1.4033
 3928SOL     OW23242   2.050   2.610  14.672 -0.2254  0.3705 -0.2892
 3928SOL    HW123243   1.973   2.565  14.706 -2.0144  2.6543 -1.2974
 3928SOL    HW223244   2.096   2.632  14.754  0.5605  0.4643 -0.7524
 3929SOL     OW23245   0.546   4.575   6.005 -0.0356 -0.0492 -0.4817
 3929SOL    HW123246   0.551   4.480   6.014  1.5394 -0.1624 -2.4196
 3929SOL    HW223247   0.534   4.584   5.910 -1.6287 -1.6881 -0.4224
 3930SOL     OW23248   3.998   1.592  16.271 -0.7071  0.1783 -0.3307
 3930SOL    HW123249   3.989   1.672  16.219 -1.8830 -0.1558 -0.6368
 3930SOL    HW223250   4.077   1.610  16.322 -0.1021  0.7789 -1.4792
 3931SOL     OW23251   1.347   3.033   9.712 -0.6693  0.0390 -0.2212
 3931SOL    HW123252   1.376   3.117   9.677 -0.4013 -1.4766 -3.5951
 3931SOL    HW223253   1.357   3.052   9.805  0.1683  2.8980 -0.9100
 3932SOL     OW23254   0.478   0.215   5.305 -0.1085 -0.5193 -0.2879
 3932SOL    HW123255   0.383   0.210   5.293 -0.0438 -0.4567 -0.8344
 3932SOL    HW223256   0.479   0.223   5.401 -2.7902 -1.3150 -0.1971
 3933SOL     OW23257   2.201   2.885  11.033  0.0307 -0.4052  0.3764
 3933SOL    HW123258   2.127   2.827  11.049 -0.7039  0.5068  0.2429
 3933SOL    HW223259   2.206   2.892  10.937  0.1957  2.1490  0.5680
 3934SOL     OW23260   1.035   2.996  10.829  0.3593  0.0800  0.0288
 3934SOL    HW123261   1.098   3.027  10.765 -0.9172  1.6901 -0.4280
 3934SOL    HW223262   1.073   2.911  10.851  3.5824  1.3152 -0.7427
 3935SOL     OW23263   3.923   3.128   0.286 -0.0096  0.1602 -0.0521
 3935SOL    HW123264   3.959   3.044   0.314 -2.3949 -0.6385  0.6283
 3935SOL    HW223265   3.832   3.102   0.301 -0.3163  0.3100 -1.6342
 3936SOL     OW23266   4.620   4.638  16.130 -0.1354 -0.1493  1.0586
 3936SOL    HW123267   4.612   4.628  16.036  2.6468  0.1296  0.7821
 3936SOL    HW223268   4.659   0.003  16.133 -3.9072  1.4146  4.0393
 3937SOL     OW23269   0.655   1.516  15.030 -0.0005 -0.2327  0.2907
 3937SOL    HW123270   0.736   1.560  15.058  0.9472 -0.9001 -1.4074
 3937SOL    HW223271   0.700   1.460  14.967  1.0645  1.0930 -0.1238
 3938SOL     OW23272   2.539   2.176  17.095  0.2461  0.2121 -0.0945
 3938SOL    HW123273   2.594   2.144  17.024 -0.3382 -2.3611  0.6150
 3938SOL    HW223274   2.594   2.197  17.171 -0.9252 -4.8598  2.1133
 3939SOL     OW23275   2.761   0.264   2.928 -0.0925  0.5857  0.0373
 3939SOL    HW123276   2.673   0.279   2.963 -0.2889 -3.9769  1.5497
 3939SOL    HW223277   2.817   0.222   2.994 -0.5046 -0.4307 -0.2475
 3940SOL     OW23278   2.936   2.370  12.759  0.6086 -0.2367 -0.1640
 3940SOL    HW123279   2.951   2.465  12.762  0.8151 -0.1474 -3.5865
 3940SOL    HW223280   2.884   2.356  12.680 -0.0247  0.1134  0.1873
 3941SOL     OW23281   3.228   1.369   8.474 -0.3841  0.1952  0.7371
 3941SOL    HW123282   3.172   1.320   8.534 -0.9713 -0.7697 -0.6037
 3941SOL    HW223283   3.281   1.307   8.425 -0.5165  0.6576 -0.0032
 3942SOL     OW23284   0.763   4.490   5.058 -0.0741 -0.5709 -0.0209
 3942SOL    HW123285   0.829   4.429   5.025 -1.4244 -1.6210 -0.8128
 3942SOL    HW223286   0.822   4.536   5.117 -0.4382 -0.1442  0.0060
 3943SOL     OW23287   3.922   4.076  10.941 -0.4744  0.2268  0.2416
 3943SOL    HW123288   3.989   4.141  10.964  1.6497 -0.6272 -3.7222
 3943SOL    HW223289   3.908   4.046  11.031 -0.6850  1.2030  0.5388
 3944SOL     OW23290   0.320   0.298   1.470  0.2811 -0.1286 -0.3732
 3944SOL    HW123291   0.238   0.302   1.519  1.5106  1.2982  1.5711
 3944SOL    HW223292   0.281   0.279   1.384  1.0860  1.0723 -1.0137
 3945SOL     OW23293   3.368   3.479  13.246 -0.8511 -0.1629  0.6170
 3945SOL    HW123294   3.427   3.407  13.224 -0.0647  0.4043  0.8390
 3945SOL    HW223295   3.402   3.549  13.189 -1.3792 -0.5031 -0.1110
 3946SOL     OW23296   3.838   4.293   6.812  0.1594  0.4875 -0.0149
 3946SOL    HW123297   3.884   4.377   6.811 -0.9851  1.1173  0.0799
 3946SOL    HW223298   3.765   4.306   6.873  0.8749  3.6843  0.1692
 3947SOL     OW23299   1.635   1.169   5.171  0.0940  0.8725  0.1713
 3947SOL    HW123300   1.604   1.197   5.257 -3.0766 -1.3154 -0.2583
 3947SOL    HW223301   1.695   1.098   5.197 -0.6164 -0.6309 -2.2459
 3948SOL     OW23302   3.433   0.694   1.911  0.3722  0.1200  0.0723
 3948SOL    HW123303   3.340   0.669   1.920  0.4333 -0.1434 -0.0226
 3948SOL    HW223304   3.417   0.788   1.908 -0.2955  0.0375  1.1557
 3949SOL     OW23305   3.949   4.390  16.196 -0.8081  0.5193 -0.3013
 3949SOL    HW123306   3.964   4.384  16.102  1.3414 -1.7894  0.1746
 3949SOL    HW223307   3.881   4.457  16.195 -0.6653  0.6683  0.1183
 3950SOL     OW23308   1.311   1.491   3.537  0.1598 -0.0772 -0.1877
 3950SOL    HW123309   1.298   1.578   3.575 -0.5476  0.7805 -2.4416
 3950SOL    HW223310   1.236   1.486   3.478 -0.6300  1.2999  0.6920
 3951SOL     OW23311   1.480   3.474  12.972 -0.3462 -0.0797  0.1248
 3951SOL    HW123312   1.389   3.445  12.975 -0.1981 -0.6561 -0.7860
 3951SOL    HW223313   1.512   3.422  12.898  0.4830 -1.5931  1.5717
 3952SOL     OW23314   0.349   1.617   4.223  0.2978  0.1014 -0.0836
 3952SOL    HW123315   0.361   1.705   4.187  0.9463  0.0068 -0.0992
 3952SOL    HW223316   0.276   1.615   4.285  0.6951  0.2969  0.3849
 3953SOL     OW23317   0.130   4.365   1.201 -0.3419  0.0330  0.3049
 3953SOL    HW123318   0.070   4.427   1.160 -0.0341 -0.0269 -0.2326
 3953SOL    HW223319   0.163   4.320   1.123  0.8991  0.0784  0.8039
 3954SOL     OW23320   0.210   0.889  11.006 -0.2941  0.0286 -0.3592
 3954SOL    HW123321   0.168   0.829  11.066  1.9387  0.1756  1.3364
 3954SOL    HW223322   0.268   0.831  10.957  1.3611  0.1688  1.4290
 3955SOL     OW23323   1.394   3.106   9.144  0.0986 -0.3871  0.0273
 3955SOL    HW123324   1.367   3.138   9.230 -2.4157  2.5013 -1.8144
 3955SOL    HW223325   1.450   3.179   9.117  1.7580 -1.2918  1.0425
 3956SOL     OW23326   0.463   2.731   2.523 -0.0686  0.2298  0.4632
 3956SOL    HW123327   0.527   2.660   2.533 -1.7017 -0.9477  2.7817
 3956SOL    HW223328   0.523   2.800   2.496  0.1234  0.7035  2.0471
 3957SOL     OW23329   2.564   0.270   4.825 -0.2668  0.1433  0.0906
 3957SOL    HW123330   2.492   0.255   4.764 -1.9610  0.2331  2.0576
 3957SOL    HW223331   2.630   0.303   4.765 -0.8285  1.9945  0.5000
 3958SOL     OW23332   0.259   2.228   5.874 -0.3577  0.2662  0.2911
 3958SOL    HW123333   0.343   2.261   5.906  0.9600 -1.9705 -0.9026
 3958SOL    HW223334   0.215   2.309   5.848 -0.4543  1.2169  3.3224
 3959SOL     OW23335   1.621   3.446  15.567  0.6178  0.7862 -0.7779
 3959SOL    HW123336   1.653   3.393  15.494  1.9705 -2.0911  1.8539
 3959SOL    HW223337   1.556   3.505  15.529 -0.5580 -0.5383 -0.8214
 3960SOL     OW23338   2.646   1.409   5.939  0.7081  0.8425 -0.3123
 3960SOL    HW123339   2.716   1.382   5.879  1.3135 -0.4005  0.9547
 3960SOL    HW223340   2.683   1.473   6.000  4.8356 -1.7169 -0.1268
 3961SOL     OW23341   3.645   3.210  16.111 -0.0144  0.2746 -0.4982
 3961SOL    HW123342   3.707   3.160  16.057  1.1658  0.1557  0.9625
 3961SOL    HW223343   3.561   3.201  16.065  0.0452  4.0858 -1.3194
 3962SOL     OW23344   1.769   3.659   8.366  0.0845  0.0207  0.0507
 3962SOL    HW123345   1.836   3.602   8.330  1.2075 -0.4198  2.7824
 3962SOL    HW223346   1.818   3.741   8.368 -0.1068  0.1135  1.2669
 3963SOL     OW23347   4.393   4.633   3.713  0.8788 -0.0399  0.1094
 3963SOL    HW123348   4.428   4.548   3.685 -0.7298 -0.3776 -0.8837
 3963SOL    HW223349   4.306   4.605   3.743  0.7681 -0.1051 -0.2670
 3964SOL     OW23350   0.031   3.728   2.912  0.5454 -0.2062  0.1578
 3964SOL    HW123351   4.681   3.789   2.904  0.3288 -0.3117  1.2653
 3964SOL    HW223352   0.057   3.715   3.003  2.3174 -2.2624 -0.6201
 3965SOL     OW23353   3.792   0.964  13.200  0.3666  0.1597  0.0579
 3965SOL    HW123354   3.743   0.909  13.139  1.3647  0.2405 -0.8162
 3965SOL    HW223355   3.881   0.939  13.175  1.3064  2.8701  0.6407
 3966SOL     OW23356   2.095   2.008  15.681  0.4152 -0.5642  0.4595
 3966SOL    HW123357   2.142   2.029  15.762  1.2051 -0.3634 -0.0580
 3966SOL    HW223358   2.071   1.921  15.713 -1.2392  0.0631  0.9484
 3967SOL     OW23359   1.048   3.063   8.210 -0.6334  0.2769  0.4298
 3967SOL    HW123360   0.980   3.009   8.171 -0.5385 -0.7370  1.6893
 3967SOL    HW223361   0.996   3.100   8.281  0.6245  1.4617  0.7519
 3968SOL     OW23362   3.085   2.109   6.141 -0.1495  0.1436 -0.4318
 3968SOL    HW123363   3.035   2.156   6.074 -1.8307  0.7807  1.2652
 3968SOL    HW223364   3.031   2.135   6.216  0.2504 -1.7342  0.4875
 3969SOL     OW23365   4.459   3.235   4.039  0.3003 -0.0224  0.6549
 3969SOL    HW123366   4.470   3.141   4.050 -0.3268 -0.2199 -0.4733
 3969SOL    HW223367   4.374   3.250   4.080  0.3760  1.5783  0.2241
 3970SOL     OW23368   3.880   2.081   7.046 -0.0045  0.3395  0.4081
 3970SOL    HW123369   3.841   1.995   7.058  3.5665 -1.1279  1.4012
 3970SOL    HW223370   3.799   2.121   7.014  1.0597  1.4094 -0.9745
 3971SOL     OW23371   1.548   4.441   5.142 -0.2704 -0.1394  0.2166
 3971SOL    HW123372   1.639   4.415   5.127  0.1475  1.1190  0.5464
 3971SOL    HW223373   1.567   4.497   5.217  2.0874  1.5894 -1.6723
 3972SOL     OW23374   2.989   4.461   3.831 -0.4279 -0.5006 -0.4017
 3972SOL    HW123375   2.914   4.442   3.775 -0.5826 -1.7495  0.2485
 3972SOL    HW223376   2.950   4.417   3.906 -0.1128 -4.3973 -2.5284
 3973SOL     OW23377   4.644   4.722   6.913  0.1270 -0.5413 -0.3303
 3973SOL    HW123378   4.701   0.061   6.867 -0.2285 -0.7565 -1.0576
 3973SOL    HW223379   4.699   4.645   6.915 -0.2929 -0.8005  1.3449
 3974SOL     OW23380   4.565   3.269  12.754 -0.2644  0.6031 -0.2719
 3974SOL    HW123381   4.603   3.226  12.830  0.5246 -1.0087 -1.5639
 3974SOL    HW223382   4.474   3.243  12.769 -0.4413  1.1751 -0.3743
 3975SOL     OW23383   3.634   0.785   2.234  0.3082 -0.0810 -0.4407
 3975SOL    HW123384   3.686   0.809   2.310  0.0925  0.7057 -0.5404
 3975SOL    HW223385   3.543   0.802   2.258  1.3306  2.0645  1.8936
 3976SOL     OW23386   0.873   4.262  15.406 -0.4495 -0.5715 -0.1374
 3976SOL    HW123387   0.961   4.224  15.410 -1.0837 -2.1221 -0.9818
 3976SOL    HW223388   0.851   4.258  15.499 -1.9792 -1.4418 -0.5353
 3977SOL     OW23389   2.078   3.623  17.685  0.2592 -0.4349 -0.1939
 3977SOL    HW123390   2.156   3.615  17.630 -0.0747 -0.0221 -0.7228
 3977SOL    HW223391   2.026   3.686  17.636 -3.1654 -1.8761  1.6608
 3978SOL     OW23392   3.523   4.669   0.757 -0.0875 -0.0700 -0.3166
 3978SOL    HW123393   3.576   4.601   0.716 -0.9978 -1.4785  0.8632
 3978SOL    HW223394   3.566   4.705   0.835 -1.4505  1.5922 -0.3459
 3979SOL     OW23395   1.943   4.227   6.126  0.0290 -0.1765 -0.1624
 3979SOL    HW123396   2.032   4.252   6.099 -0.4377  3.0640  1.3630
 3979SOL    HW223397   1.951   4.195   6.216  0.1741 -1.6548 -0.6977
 3980SOL     OW23398   2.561   2.861   6.870  0.0318 -0.3880 -0.9502
 3980SOL    HW123399   2.540   2.775   6.835 -3.2690 -1.0468  2.7306
 3980SOL    HW223400   2.569   2.907   6.786 -0.4253 -0.2772 -0.9321
 3981SOL     OW23401   4.301   0.426   3.114  0.1193 -0.8673 -0.2601
 3981SOL    HW123402   4.308   0.428   3.209 -1.6804  1.5695 -0.1673
 3981SOL    HW223403   4.223   0.371   3.107 -1.9804  2.3087 -2.0749
 3982SOL     OW23404   0.560   3.899   3.570 -0.4071  0.0215  0.4987
 3982SOL    HW123405   0.614   3.849   3.509  1.4519  1.9651  0.5496
 3982SOL    HW223406   0.625   3.957   3.611 -1.1272  0.9763  0.3105
 3983SOL     OW23407   3.158   4.177   8.101 -0.0112 -0.7292  0.3521
 3983SOL    HW123408   3.129   4.180   8.192 -0.2138  1.5812  0.2183
 3983SOL    HW223409   3.195   4.264   8.086  0.2704 -1.4878 -3.4267
 3984SOL     OW23410   2.595   3.359   0.181  0.2803  0.3400  0.1812
 3984SOL    HW123411   2.596   3.454   0.196  1.5662  0.6108 -1.6297
 3984SOL    HW223412   2.675   3.336   0.135  1.2507 -0.4759  2.2632
 3985SOL     OW23413   4.207   4.317   6.585  0.1667  0.2832 -0.0880
 3985SOL    HW123414   4.303   4.321   6.589  0.1457 -0.6595  1.4253
 3985SOL    HW223415   4.181   4.404   6.614 -3.7475 -0.9294 -0.0162
 3986SOL     OW23416   0.910   3.193  12.807  0.3334  0.7276 -0.0337
 3986SOL    HW123417   0.990   3.160  12.848  0.8460  1.2971 -0.5724
 3986SOL    HW223418   0.904   3.135  12.732  1.6984 -0.2356  0.5963
 3987SOL     OW23419   4.717   4.346   6.627 -0.7345  0.1450  0.1466
 3987SOL    HW123420   0.078   4.344   6.581 -0.8496 -0.5601 -0.0388
 3987SOL    HW223421   4.694   4.254   6.616  0.3021 -0.0073 -0.7575
 3988SOL     OW23422   1.295   0.818  12.097  0.1796 -0.1189 -0.0418
 3988SOL    HW123423   1.260   0.825  12.008  0.4940  3.1538  0.0987
 3988SOL    HW223424   1.292   0.722  12.099 -0.8194 -0.1120 -1.3511
 3989SOL     OW23425   4.649   1.263   2.401 -0.4019 -0.2343 -0.4743
 3989SOL    HW123426   4.600   1.296   2.326 -0.4586  3.1762  1.0432
 3989SOL    HW223427   4.627   1.321   2.475 -0.8537  0.1622 -0.9220
 3990SOL     OW23428   4.693   0.127   1.965 -0.0576 -0.1281 -0.0548
 3990SOL    HW123429   4.599   0.129   1.982  0.3904  0.8273  2.2462
 3990SOL    HW223430   4.716   0.062   2.031  2.9685  0.8333 -0.1602
 3991SOL     OW23431   1.271   1.011   7.013  0.0989 -0.3704 -0.1719
 3991SOL    HW123432   1.356   0.969   7.005  0.5914  0.0353  2.8818
 3991SOL    HW223433   1.278   1.084   6.950  1.6117 -0.3868 -0.0250
 3992SOL     OW23434   0.525   1.287   4.962  0.3929 -0.0618 -0.0408
 3992SOL    HW123435   0.613   1.326   4.964  0.6716 -0.7297  0.5182
 3992SOL    HW223436   0.545   1.211   4.907 -1.2343 -0.8275  0.4511
 3993SOL     OW23437   0.016   0.661   2.622 -0.0880 -0.4830 -0.3198
 3993SOL    HW123438   0.058   0.734   2.667 -3.0058  0.5499  0.7448
 3993SOL    HW223439   0.039   0.686   2.532 -3.3351  1.0998 -0.7041
 3994SOL     OW23440   3.857   4.081   0.425  0.6560  0.1558  0.2455
 3994SOL    HW123441   3.774   4.101   0.382 -0.0392  0.2122  1.6217
 3994SOL    HW223442   3.821   4.054   0.510  1.0999  0.3533  0.4970
 3995SOL     OW23443   3.545   1.487   0.804  0.1459  0.1983 -0.5095
 3995SOL    HW123444   3.457   1.510   0.835 -0.0596  1.4420 -2.0231
 3995SOL    HW223445   3.560   1.555   0.739  0.8108 -0.5534 -1.1384
 3996SOL     OW23446   3.741   3.944   8.079  0.1525  0.4023  0.0792
 3996SOL    HW123447   3.805   3.874   8.093 -1.1853 -1.4029 -2.8530
 3996SOL    HW223448   3.722   3.968   8.169 -0.4000  3.6223 -0.9056
 3997SOL     OW23449   1.473   2.930  11.391  0.1489  0.3033 -0.1439
 3997SOL    HW123450   1.468   2.964  11.480 -1.6730  0.7118 -0.4086
 3997SOL    HW223451   1.389   2.967  11.363  0.2113  0.8591  0.4070
 3998SOL     OW23452   1.143   4.163   6.793 -0.1672  0.3802  0.1273
 3998SOL    HW123453   1.075   4.096   6.796  2.2639 -2.1818 -1.8197
 3998SOL    HW223454   1.128   4.220   6.869 -0.0884  1.7655 -0.8875
 3999SOL     OW23455   0.086   0.507   5.351 -0.0403  0.5316 -0.1666
 3999SOL    HW123456   0.001   0.500   5.307  0.2940 -3.3410 -0.1279
 3999SOL    HW223457   0.072   0.442   5.420  0.5887 -0.4067 -0.9335
 4000SOL     OW23458   4.078   2.302  13.132  0.4466 -0.8236 -0.6839
 4000SOL    HW123459   4.122   2.371  13.181  0.1830  0.0250 -1.6423
 4000SOL    HW223460   4.148   2.242  13.108  0.1880 -1.1386 -0.6589
 4001SOL     OW23461   1.581   3.264   2.057  0.1614  0.2691  0.4556
 4001SOL    HW123462   1.606   3.296   2.143  2.3626  0.0349 -0.1065
 4001SOL    HW223463   1.625   3.323   1.996 -0.2723 -1.5463 -1.6179
 4002SOL     OW23464   0.750   3.625   8.181 -0.0018  0.3332  0.6319
 4002SOL    HW123465   0.768   3.537   8.149 -1.4946  1.0009 -2.0583
 4002SOL    HW223466   0.723   3.618   8.272  1.5680 -2.2768  0.8910
 4003SOL     OW23467   3.621   0.117   8.326  0.5316  0.6311  0.0050
 4003SOL    HW123468   3.592   0.034   8.287 -2.0286  1.4384  0.2132
 4003SOL    HW223469   3.547   0.169   8.358  1.2045  1.1776  0.6514
 4004SOL     OW23470   3.367   0.152   1.073 -0.1498  0.1657 -0.1027
 4004SOL    HW123471   3.280   0.114   1.057 -0.7570  0.8043  1.7269
 4004SOL    HW223472   3.405   0.090   1.135  0.3149  1.0662  0.4991
 4005SOL     OW23473   4.181   3.110   8.273  0.5737  0.1183  0.3152
 4005SOL    HW123474   4.212   3.109   8.363 -0.3139  1.5812  0.6494
 4005SOL    HW223475   4.120   3.184   8.275  0.8750  0.3322  1.4590
 4006SOL     OW23476   2.185   2.071   8.212 -0.6780 -0.1479 -0.1408
 4006SOL    HW123477   2.230   2.042   8.132 -0.2747  1.6292 -0.5649
 4006SOL    HW223478   2.188   2.166   8.208 -0.6934 -0.0449  2.6016
 4007SOL     OW23479   1.695   1.673  14.752  0.3293  0.2561 -0.2937
 4007SOL    HW123480   1.714   1.583  14.726  0.7901 -0.0158  0.9745
 4007SOL    HW223481   1.765   1.721  14.708  0.9124 -1.3349 -1.0694
 4008SOL     OW23482   4.208   2.275  12.804 -0.3504  0.8926  0.4221
 4008SOL    HW123483   4.269   2.233  12.864  0.3816  0.9282 -0.3068
 4008SOL    HW223484   4.263   2.314  12.737 -0.6959  2.0247  0.8037
 4009SOL     OW23485   4.450   3.457   7.248 -0.1908 -0.3419 -0.7580
 4009SOL    HW123486   4.481   3.515   7.317  1.1361  0.5499 -2.0956
 4009SOL    HW223487   4.420   3.376   7.288  0.7384  0.0749  0.7549
 4010SOL     OW23488   0.242   2.436  11.919 -0.1679 -0.2601  0.0431
 4010SOL    HW123489   0.150   2.449  11.941  0.3963  2.3909  0.7951
 4010SOL    HW223490   0.256   2.343  11.900  0.0391  0.1600 -1.8797
 4011SOL     OW23491   1.988   2.066  12.187  0.1151 -0.0812  0.3893
 4011SOL    HW123492   1.927   1.993  12.174 -1.1308  0.5905  2.4095
 4011SOL    HW223493   2.052   2.043  12.120 -0.4632  1.5919 -0.7426
 4012SOL     OW23494   2.480   0.402  11.200 -0.3922  0.2906 -0.1427
 4012SOL    HW123495   2.554   0.365  11.150 -0.3231 -0.2457  0.3529
 4012SOL    HW223496   2.426   0.324  11.211 -1.0138  0.5925 -1.0997
 4013SOL     OW23497   1.088   0.518   2.279  0.0273  0.2912 -0.4242
 4013SOL    HW123498   1.119   0.451   2.217  0.5852  0.4708 -0.3417
 4013SOL    HW223499   0.993   0.509   2.269  0.0649  0.0067 -0.5337
 4014SOL     OW23500   0.667   1.566  13.451  0.3823  0.3139 -0.1548
 4014SOL    HW123501   0.736   1.518  13.405  0.0699 -0.7451  0.4805
 4014SOL    HW223502   0.609   1.580  13.376  0.4410  0.3155 -0.1998
 4015SOL     OW23503   4.217   0.925   6.051 -0.1925  0.3966  0.0822
 4015SOL    HW123504   4.221   0.947   6.144 -0.4071  0.6331  0.0364
 4015SOL    HW223505   4.288   0.979   6.014 -1.5310  0.7285 -1.9783
 4016SOL     OW23506   3.198   1.269  14.886  0.0765  0.0486 -1.1086
 4016SOL    HW123507   3.202   1.196  14.948  2.7612  1.8191  0.7874
 4016SOL    HW223508   3.153   1.231  14.811 -1.2012  4.4482 -2.5623
 4017SOL     OW23509   3.907   0.190   7.204 -0.2076 -0.9910 -0.1113
 4017SOL    HW123510   3.991   0.146   7.197  0.7349  0.3052  2.8899
 4017SOL    HW223511   3.896   0.166   7.296  3.8047  0.2471  0.6955
 4018SOL     OW23512   3.133   4.415  11.857  0.0831  0.7762  0.3192
 4018SOL    HW123513   3.169   4.484  11.800  0.2663 -0.5169 -1.1485
 4018SOL    HW223514   3.041   4.433  11.839 -0.3638 -1.2391  0.6167
 4019SOL     OW23515   4.098   3.260   2.421 -0.8609 -0.2455  0.0690
 4019SOL    HW123516   4.120   3.227   2.334  1.3729 -0.6630  0.7795
 4019SOL    HW223517   4.154   3.338   2.423  0.6163 -1.3221  0.4838
 4020SOL     OW23518   4.232   0.035   2.040  0.2142  0.0755 -0.5103
 4020SOL    HW123519   4.279   0.118   2.038 -0.2189  0.2923 -1.8085
 4020SOL    HW223520   4.142   0.062   2.023 -0.6762 -1.3536  1.9784
 4021SOL     OW23521   4.691   3.472   7.117 -0.7735  0.6286  0.2786
 4021SOL    HW123522   4.613   3.460   7.171 -0.4862 -0.4712  0.4529
 4021SOL    HW223523   4.665   3.423   7.039 -1.7837 -0.3001  1.1858
 4022SOL     OW23524   2.115   3.052  17.645 -0.1843  0.6471 -0.0409
 4022SOL    HW123525   2.036   3.103  17.662 -0.3467  0.7433 -1.0602
 4022SOL    HW223526   2.180   3.112  17.610 -1.6449  1.7302 -0.9128
 4023SOL     OW23527   0.761   2.689   1.389  0.0109  0.1636 -0.0699
 4023SOL    HW123528   0.844   2.737   1.393 -0.3033  0.9775 -3.4090
 4023SOL    HW223529   0.796   2.603   1.409  2.0832  0.7183 -1.3110
 4024SOL     OW23530   3.108   2.685  15.544 -1.1864  0.1348 -0.2120
 4024SOL    HW123531   3.171   2.638  15.488  0.5504  0.9436  1.0645
 4024SOL    HW223532   3.162   2.704  15.621 -1.1148 -0.5178 -0.0996
 4025SOL     OW23533   1.722   0.604  11.125 -0.0637 -0.7259  0.2370
 4025SOL    HW123534   1.691   0.684  11.167 -1.2092 -1.0925  0.0844
 4025SOL    HW223535   1.778   0.575  11.197 -0.2544  0.6551  0.9406
 4026SOL     OW23536   3.165   2.382   4.148 -0.2299 -0.6526 -0.1781
 4026SOL    HW123537   3.179   2.321   4.076  0.3395  0.1518 -0.7511
 4026SOL    HW223538   3.153   2.319   4.219  0.7730 -0.7096 -0.0615
 4027SOL     OW23539   4.679   1.399  11.218 -0.2435 -0.2236  0.2944
 4027SOL    HW123540   0.016   1.352  11.160  0.5069  1.5827 -0.3929
 4027SOL    HW223541   4.629   1.450  11.154  0.3925  0.1711  0.1160
 4028SOL     OW23542   3.397   2.766   5.197  0.0349 -0.0086  0.0710
 4028SOL    HW123543   3.339   2.714   5.252 -2.7674  2.2732 -0.7706
 4028SOL    HW223544   3.393   2.708   5.120  0.5369 -1.8296  1.4195
 4029SOL     OW23545   3.422   0.296   2.597  0.3806 -0.3613 -0.1290
 4029SOL    HW123546   3.444   0.370   2.653 -0.4828 -1.5176  1.7434
 4029SOL    HW223547   3.355   0.261   2.656  1.0537 -0.8957  0.3080
 4030SOL     OW23548   1.751   4.311  12.088  0.1586 -0.6130 -0.1203
 4030SOL    HW123549   1.799   4.240  12.046 -0.5291 -0.7303 -0.7255
 4030SOL    HW223550   1.707   4.353  12.014 -0.1094  0.8984  0.8928
 4031SOL     OW23551   1.569   0.185   5.561 -0.1381 -0.2468 -0.4320
 4031SOL    HW123552   1.605   0.195   5.473 -3.3811 -1.2085 -1.8431
 4031SOL    HW223553   1.643   0.185   5.623  1.4333 -2.0391 -2.2928
 4032SOL     OW23554   0.232   3.571  16.295 -0.2714 -0.4305 -0.3272
 4032SOL    HW123555   0.169   3.548  16.363 -0.2090 -0.8113 -0.3974
 4032SOL    HW223556   0.238   3.663  16.320  0.5473 -0.3559 -0.7765
 4033SOL     OW23557   3.385   2.247   2.419 -0.4410 -0.3315 -0.3975
 4033SOL    HW123558   3.460   2.205   2.462 -0.5688  1.1412  1.2701
 4033SOL    HW223559   3.415   2.272   2.332 -0.7958  0.9606 -0.1405
 4034SOL     OW23560   2.032   4.187   3.885 -0.6188  0.2037 -0.1133
 4034SOL    HW123561   2.056   4.102   3.850  1.0590  0.5317  0.2037
 4034SOL    HW223562   2.119   4.212   3.918 -0.3038 -2.1498  0.8036
 4035SOL     OW23563   0.049   1.938   6.444 -0.2069  0.4092  0.0652
 4035SOL    HW123564   4.678   1.957   6.448 -0.5458 -1.1153 -0.7244
 4035SOL    HW223565   0.057   1.893   6.528 -0.5868 -2.6987 -1.5502
 4036SOL     OW23566   2.691   3.615  13.720  0.6700 -0.2264 -0.2084
 4036SOL    HW123567   2.759   3.571  13.670 -0.2377 -0.4936 -1.2116
 4036SOL    HW223568   2.743   3.655  13.790  2.2115 -1.9955 -0.3602
 4037SOL     OW23569   4.624   1.500   7.498  0.0677  0.2523  0.0230
 4037SOL    HW123570   4.625   1.520   7.592 -3.5976  0.0504  0.1003
 4037SOL    HW223571   4.616   1.406   7.513  1.7847  0.0949 -0.0550
 4038SOL     OW23572   0.017   0.203   0.890 -0.0153 -0.7782 -0.3754
 4038SOL    HW123573   4.655   0.173   0.921 -0.7930  0.5188 -1.2361
 4038SOL    HW223574   4.716   0.230   0.801  0.3387 -0.1891 -0.2967
 4039SOL     OW23575   3.904   2.807   5.957  0.0393  0.2914  0.6605
 4039SOL    HW123576   3.924   2.718   5.986  0.2448 -0.5459 -2.0761
 4039SOL    HW223577   3.989   2.814   5.914 -0.5945 -0.1123 -0.6613
 4040SOL     OW23578   3.672   3.730  11.374 -0.1084  0.3019  0.1391
 4040SOL    HW123579   3.597   3.773  11.332 -0.7521  0.7155  1.7280
 4040SOL    HW223580   3.731   3.805  11.380  0.9447 -0.6957  1.9612
 4041SOL     OW23581   1.963   0.747   1.539 -0.8029 -0.5891  0.3607
 4041SOL    HW123582   2.024   0.820   1.546 -0.6136 -1.0547  3.4143
 4041SOL    HW223583   2.009   0.684   1.594 -3.3832 -1.5406  1.4550
 4042SOL     OW23584   3.261   4.419   8.090  0.4390  0.7680  0.0713
 4042SOL    HW123585   3.259   4.435   8.184 -0.8065  2.0085 -0.1616
 4042SOL    HW223586   3.244   4.509   8.064  0.4964  0.7674  0.0307
 4043SOL     OW23587   0.483   3.295   9.328  0.3632  0.0896  0.4339
 4043SOL    HW123588   0.491   3.311   9.422  1.6965 -0.1368  0.3557
 4043SOL    HW223589   0.508   3.205   9.309  2.8227  1.1078 -1.1778
 4044SOL     OW23590   1.351   3.231   4.283 -0.0276 -0.0487  0.0203
 4044SOL    HW123591   1.424   3.286   4.309 -0.1663  0.3065 -0.3405
 4044SOL    HW223592   1.380   3.144   4.312 -1.1639 -0.4634 -0.0645
 4045SOL     OW23593   2.685   0.580  16.823 -0.4849 -0.2652  0.3983
 4045SOL    HW123594   2.720   0.627  16.899  0.9204  0.0884 -0.4589
 4045SOL    HW223595   2.685   0.487  16.844 -1.8514 -0.3821 -0.1459
 4046SOL     OW23596   0.776   1.754   8.238 -0.6238 -0.0381  0.2937
 4046SOL    HW123597   0.747   1.683   8.181  4.6311 -1.7527 -0.1932
 4046SOL    HW223598   0.851   1.714   8.283 -0.1308  1.9292  1.2152
 4047SOL     OW23599   4.699   0.055  13.766 -0.0956  0.5327  0.0170
 4047SOL    HW123600   0.059   0.047  13.720 -0.6734  1.8684 -1.2446
 4047SOL    HW223601   4.654   0.104  13.697 -1.5972  1.1613  1.4384
 4048SOL     OW23602   3.669   4.518   3.164 -0.5690 -0.2397  0.4248
 4048SOL    HW123603   3.651   4.426   3.182 -0.7871 -0.0216  1.2926
 4048SOL    HW223604   3.715   4.544   3.244  2.8581 -0.5823 -1.4334
 4049SOL     OW23605   1.061   1.116  15.536  0.3024  0.3889  0.0102
 4049SOL    HW123606   1.120   1.130  15.462 -0.5090 -0.9757 -0.8829
 4049SOL    HW223607   0.971   1.118  15.504  0.5901  0.6996 -0.7689
 4050SOL     OW23608   1.379   3.888   5.743  0.0256 -0.3903 -0.3422
 4050SOL    HW123609   1.385   3.838   5.662  1.1688 -0.9704  0.1039
 4050SOL    HW223610   1.314   3.842   5.795 -0.6625 -0.8245 -1.5873
 4051SOL     OW23611   0.907   4.305  12.180  0.3330  0.6615 -0.7918
 4051SOL    HW123612   0.949   4.391  12.185 -0.3632  1.0331 -1.3081
 4051SOL    HW223613   0.825   4.323  12.134  0.1014  2.0608  0.1636
 4052SOL     OW23614   2.941   0.075   5.201  0.4567 -0.2431  0.5755
 4052SOL    HW123615   2.877   0.006   5.181  1.4793 -1.0633  0.1311
 4052SOL    HW223616   3.004   0.027   5.255  0.5392 -1.4544 -0.6163
 4053SOL     OW23617   2.387   4.416   3.631  0.6514 -0.6654 -0.3527
 4053SOL    HW123618   2.344   4.499   3.609 -1.7949 -1.1048  2.6960
 4053SOL    HW223619   2.392   4.377   3.544 -1.2389 -0.1524 -0.6919
 4054SOL     OW23620   0.125   2.583   6.193  0.1295 -0.6461 -0.5280
 4054SOL    HW123621   0.076   2.551   6.117 -1.0252 -1.1786  0.4470
 4054SOL    HW223622   0.053   2.605   6.252 -0.0896 -2.2319 -0.2004
 4055SOL     OW23623   0.129   1.076   5.582  0.1563  0.3637  1.1117
 4055SOL    HW123624   0.102   0.991   5.547  0.8900  0.5170  0.1793
 4055SOL    HW223625   0.073   1.144   5.545  0.9868  0.5265  0.1470
 4056SOL     OW23626   0.369   4.557   2.022 -0.2425 -0.3384  0.1604
 4056SOL    HW123627   0.419   4.484   1.987 -0.8163 -0.6990  0.1022
 4056SOL    HW223628   0.320   4.588   1.946 -4.2487  0.1014  2.9216
 4057SOL     OW23629   2.841   4.621   4.137  0.4845 -0.1295 -0.1967
 4057SOL    HW123630   2.788   4.619   4.057 -1.1484 -1.8228  0.9369
 4057SOL    HW223631   2.889   4.539   4.133  0.5632 -0.0953  0.1083
 4058SOL     OW23632   3.705   2.734  17.651  0.4763 -0.1997 -0.8143
 4058SOL    HW123633   3.754   2.652  17.637  2.2568  0.6783  0.2615
 4058SOL    HW223634   3.776   2.780   0.002  2.5514 -0.9673 -3.2752
 4059SOL     OW23635   1.756   3.685  17.300  0.8744 -0.0277 -0.2826
 4059SOL    HW123636   1.700   3.612  17.273 -0.0652  1.5982 -2.6733
 4059SOL    HW223637   1.696   3.755  17.327 -0.3466 -1.2627  0.2486
 4060SOL     OW23638   1.413   3.676  15.618  0.0860  0.0288  0.2174
 4060SOL    HW123639   1.410   3.733  15.541  1.2591  0.4201  0.4534
 4060SOL    HW223640   1.322   3.651  15.628  0.4629 -2.1130 -1.8537
 4061SOL     OW23641   4.568   3.028   3.037  0.0148  0.5913  0.2481
 4061SOL    HW123642   4.534   3.015   3.125  0.8516  1.9200  0.7750
 4061SOL    HW223643   4.482   3.025   2.995 -0.1366 -1.1315  0.6964
 4062SOL     OW23644   0.886   2.239   0.113  0.1292  0.7731 -0.2880
 4062SOL    HW123645   0.833   2.159   0.114  0.6278  0.4847  2.2218
 4062SOL    HW223646   0.965   2.214   0.065 -1.6220 -0.4004 -2.5545
 4063SOL     OW23647   4.571   2.848   8.849 -0.6604  0.2450 -0.3463
 4063SOL    HW123648   4.490   2.798   8.837 -0.4911 -0.4896  1.5629
 4063SOL    HW223649   4.558   2.878   8.938 -1.2009 -2.0376  0.3510
 4064SOL     OW23650   2.250   4.717   8.941  0.7650  0.1402  0.4302
 4064SOL    HW123651   2.281   0.026   8.857  1.3964  0.3548  0.7478
 4064SOL    HW223652   2.211   0.078   8.966 -0.0492 -0.0493 -0.1928
 4065SOL     OW23653   0.566   1.473   4.262 -0.1215 -0.0767 -0.1395
 4065SOL    HW123654   0.515   1.397   4.290 -2.1929  0.9389 -1.1263
 4065SOL    HW223655   0.501   1.540   4.237 -0.5085 -0.3137  0.2309
 4066SOL     OW23656   1.974   3.409   3.744  0.7493  0.2911  0.3451
 4066SOL    HW123657   1.885   3.438   3.722  1.5259  0.8713 -2.0140
 4066SOL    HW223658   1.964   3.330   3.690  1.6143  0.1900  0.3341
 4067SOL     OW23659   2.999   4.383  12.663  0.6072  0.7519 -0.0479
 4067SOL    HW123660   3.008   4.402  12.756  2.5034  1.2523 -0.3361
 4067SOL    HW223661   3.064   4.433  12.613  0.3149  0.4186 -0.7672
 4068SOL     OW23662   0.531   4.374  11.802  0.3208 -0.0656  0.2503
 4068SOL    HW123663   0.553   4.343  11.714 -0.5068  0.4022 -0.1219
 4068SOL    HW223664   0.466   4.306  11.822 -1.3828  1.4506 -0.1212
 4069SOL     OW23665   1.301   0.686   4.713  0.4870  0.1551  0.0282
 4069SOL    HW123666   1.260   0.610   4.754 -0.5273  2.6290  3.6474
 4069SOL    HW223667   1.256   0.759   4.756 -0.4067 -0.7365  0.6286
 4070SOL     OW23668   3.027   1.615   4.205 -0.4473 -0.3952 -0.0202
 4070SOL    HW123669   2.994   1.526   4.217  1.8597 -1.3264 -0.5272
 4070SOL    HW223670   2.978   1.656   4.276  1.8788 -1.6508  2.3204
 4071SOL     OW23671   3.160   1.872   2.031 -0.8502 -0.2271  0.7586
 4071SOL    HW123672   3.149   1.963   2.002  3.0314 -0.6608 -2.1103
 4071SOL    HW223673   3.072   1.842   2.011 -1.2289  1.7488 -0.5719
 4072SOL     OW23674   3.926   4.663  13.116 -0.0747 -0.1180  0.1807
 4072SOL    HW123675   3.885   4.637  13.034  1.3933 -0.2375 -0.5191
 4072SOL    HW223676   3.908   0.034  13.106 -0.0413 -0.0198  1.0825
 4073SOL     OW23677   1.115   0.293  14.574 -0.5122 -0.6056 -0.3503
 4073SOL    HW123678   1.146   0.266  14.661 -1.5261 -0.0672  0.1749
 4073SOL    HW223679   1.109   0.388  14.585 -1.0392 -0.5813 -0.8567
 4074SOL     OW23680   4.445   4.149  12.753  0.3249 -0.3265  0.4056
 4074SOL    HW123681   4.534   4.184  12.754 -0.0388  0.7135 -3.2444
 4074SOL    HW223682   4.475   4.067  12.716 -1.4995  0.2883 -2.4270
 4075SOL     OW23683   4.402   3.746   1.440  0.1302 -0.2211  0.0596
 4075SOL    HW123684   4.410   3.832   1.399 -0.8835 -0.5935 -0.9150
 4075SOL    HW223685   4.448   3.697   1.372 -0.7148  1.6339 -1.8475
 4076SOL     OW23686   0.813   3.088   4.782 -0.3518 -0.1075 -0.0769
 4076SOL    HW123687   0.782   3.162   4.728 -2.8209 -1.3728 -0.4099
 4076SOL    HW223688   0.734   3.035   4.794 -1.4349  1.6609  0.7731
 4077SOL     OW23689   3.237   1.056  15.052  0.1433  0.3139  0.4193
 4077SOL    HW123690   3.251   0.962  15.065 -2.1622  0.0102  0.7772
 4077SOL    HW223691   3.176   1.058  15.126  0.5866  0.6652  0.7755
 4078SOL     OW23692   3.823   0.427   5.547  0.0359  0.3430 -0.4919
 4078SOL    HW123693   3.885   0.420   5.620  0.1459 -0.9241 -0.7006
 4078SOL    HW223694   3.780   0.509   5.568 -0.5570 -0.3957  1.2245
 4079SOL     OW23695   1.625   0.216   4.830  0.1330 -0.2650  0.0122
 4079SOL    HW123696   1.618   0.143   4.769  1.1844  0.3814 -0.8544
 4079SOL    HW223697   1.636   0.283   4.763  0.4381 -0.3570 -0.0273
 4080SOL     OW23698   2.719   3.465   5.661  0.1017 -0.0101  0.0179
 4080SOL    HW123699   2.658   3.507   5.722 -0.3513  0.2515 -0.6092
 4080SOL    HW223700   2.772   3.412   5.720  0.6458  2.0448  1.4018
 4081SOL     OW23701   1.574   0.462   1.313 -0.0994 -0.4147  0.3527
 4081SOL    HW123702   1.540   0.542   1.351  1.8881  1.6440 -2.2343
 4081SOL    HW223703   1.589   0.418   1.397  2.7765  1.8236  0.9962
 4082SOL     OW23704   3.070   4.628   0.023 -0.2363  0.3560 -0.4735
 4082SOL    HW123705   3.125   4.559  17.681 -1.0273 -0.0127 -0.9878
 4082SOL    HW223706   3.061   4.599   0.113  0.6389 -0.1905 -0.5643
 4083SOL     OW23707   4.129   3.411   7.776 -0.2140 -0.1347 -0.1081
 4083SOL    HW123708   4.103   3.463   7.700  5.6062  0.5674 -1.6370
 4083SOL    HW223709   4.048   3.367   7.804 -0.2625  0.1633  0.2188
 4084SOL     OW23710   0.067   3.949   2.082 -0.0875  0.2590 -0.6738
 4084SOL    HW123711   4.698   3.972   2.098  0.5804  1.3679  1.5784
 4084SOL    HW223712   0.084   3.886   2.152  0.8432 -0.9280 -1.9536
 4085SOL     OW23713   0.570   1.134   4.589 -0.1977  0.3838  0.5039
 4085SOL    HW123714   0.568   1.062   4.652 -0.0854  0.3857  0.5091
 4085SOL    HW223715   0.643   1.183   4.625 -1.3076  0.5951  2.4523
 4086SOL     OW23716   2.221   1.437   4.526  0.1642  0.5215 -0.2960
 4086SOL    HW123717   2.266   1.404   4.448 -1.6267 -3.2849  0.2578
 4086SOL    HW223718   2.132   1.439   4.489 -0.1209 -1.8508  0.2337
 4087SOL     OW23719   0.121   0.772   2.955 -0.2514 -0.1264 -0.1602
 4087SOL    HW123720   0.196   0.768   2.895 -1.0419 -0.5850 -1.1360
 4087SOL    HW223721   0.042   0.792   2.906 -1.3687  0.4728  1.9041
 4088SOL     OW23722   3.103   4.707   7.674  0.4934 -0.4186  0.0693
 4088SOL    HW123723   3.077   4.691   7.765 -0.5882  1.4081  0.0748
 4088SOL    HW223724   3.030   4.685   7.615 -1.4158 -0.8658  2.5964
 4089SOL     OW23725   0.102   3.213  13.165  0.8552 -0.0564  0.4115
 4089SOL    HW123726   0.029   3.265  13.201 -1.0849 -1.1832 -1.9010
 4089SOL    HW223727   0.123   3.263  13.086  0.3842 -2.3886 -1.1854
 4090SOL     OW23728   2.865   1.435   8.538 -0.1758 -0.4063  0.2420
 4090SOL    HW123729   2.928   1.364   8.529 -2.3186 -1.9776 -2.4553
 4090SOL    HW223730   2.867   1.458   8.631  0.4019 -2.0734  0.6394
 4091SOL     OW23731   4.514   2.031   6.496  0.1608  0.5199 -0.5593
 4091SOL    HW123732   4.526   2.035   6.590 -5.1525 -1.2652  0.2186
 4091SOL    HW223733   4.427   1.992   6.496  0.1177  0.6331  0.4466
 4092SOL     OW23734   0.135   1.840  10.663 -0.5967  0.6089  0.2033
 4092SOL    HW123735   0.114   1.888  10.582 -1.8677 -1.4243 -0.6941
 4092SOL    HW223736   0.060   1.781  10.654  0.7939 -0.6039 -3.7619
 4093SOL     OW23737   0.598   1.066   9.227  0.7417 -0.0894  0.7610
 4093SOL    HW123738   0.650   0.986   9.229  0.6729 -0.1630 -0.5254
 4093SOL    HW223739   0.542   1.041   9.300  0.7140 -1.5515  0.2402
 4094SOL     OW23740   2.862   2.304  13.885 -0.4631 -0.2727 -0.0962
 4094SOL    HW123741   2.807   2.258  13.822 -1.2181 -1.9640  1.8250
 4094SOL    HW223742   2.907   2.366  13.828 -0.8646 -0.3653 -0.5106
 4095SOL     OW23743   2.865   3.653  15.563  0.4443  0.1570 -0.0464
 4095SOL    HW123744   2.923   3.650  15.486 -1.6725  0.1264 -1.6568
 4095SOL    HW223745   2.807   3.722  15.529 -0.9136 -1.1645 -0.4055
 4096SOL     OW23746   3.026   1.663   2.208 -0.3127  0.3644 -0.5470
 4096SOL    HW123747   2.983   1.660   2.123 -4.8758  4.6819  1.5661
 4096SOL    HW223748   2.968   1.611   2.262 -0.3577  2.4824  1.4740
 4097SOL     OW23749   1.015   2.487   2.619 -0.4408  0.2788  0.4194
 4097SOL    HW123750   0.984   2.572   2.651 -0.5025 -0.1694  1.5187
 4097SOL    HW223751   1.099   2.497   2.663  0.1231  0.6328 -0.7270
 4098SOL     OW23752   3.787   0.019  14.221 -0.7132 -0.2745  0.4374
 4098SOL    HW123753   3.743   4.675  14.169  0.5716 -0.9199  0.1759
 4098SOL    HW223754   3.873   0.034  14.182 -0.6389 -0.1686  0.6432
 4099SOL     OW23755   1.715   4.312   8.053  0.1261 -0.4499 -0.3676
 4099SOL    HW123756   1.712   4.350   7.965  0.4514 -0.9481 -0.5931
 4099SOL    HW223757   1.724   4.393   8.103  1.1089 -0.0232 -1.2390
 4100SOL     OW23758   1.560   2.003  16.518 -0.2380 -0.2683 -0.1865
 4100SOL    HW123759   1.492   2.068  16.500  1.0963  1.1002 -0.2312
 4100SOL    HW223760   1.616   2.007  16.441 -1.9159  3.8047 -1.2022
 4101SOL     OW23761   4.246   1.911   8.923  0.6995 -0.2652 -0.4588
 4101SOL    HW123762   4.180   1.849   8.894  0.6982 -0.0438 -0.9199
 4101SOL    HW223763   4.306   1.928   8.850 -1.1733  3.0238 -1.2212
 4102SOL     OW23764   3.199   1.934   5.569  0.1831 -0.0640  0.1994
 4102SOL    HW123765   3.236   1.965   5.652 -2.2311  1.0689  0.8363
 4102SOL    HW223766   3.128   1.881   5.604  1.4723 -2.0687 -0.2348
 4103SOL     OW23767   2.408   2.162   2.383  0.0375  0.3154 -0.2423
 4103SOL    HW123768   2.414   2.102   2.308  0.9757  1.2709 -0.9412
 4103SOL    HW223769   2.494   2.203   2.372  0.3821 -0.0272  1.2798
 4104SOL     OW23770   1.059   1.929   6.956  0.2218  0.0607 -0.5300
 4104SOL    HW123771   1.119   1.956   7.025  1.8273 -0.6447 -1.6513
 4104SOL    HW223772   0.975   1.957   6.993  0.7851  1.9678 -0.6548
 4105SOL     OW23773   2.908   0.877   6.421 -0.3906 -0.4609 -0.0210
 4105SOL    HW123774   2.906   0.782   6.424 -1.1488 -0.4019  1.8113
 4105SOL    HW223775   2.943   0.891   6.333  1.7385 -0.0555  0.8943
 4106SOL     OW23776   2.805   0.479  11.796 -0.1504 -0.1444  0.6705
 4106SOL    HW123777   2.776   0.482  11.887 -1.4670 -1.8452  0.3105
 4106SOL    HW223778   2.775   0.567  11.772 -1.5210 -0.8489 -0.2234
 4107SOL     OW23779   0.275   3.909   2.455 -0.5856  0.3821 -0.1365
 4107SOL    HW123780   0.255   3.965   2.530  2.0179 -0.5017  1.1984
 4107SOL    HW223781   0.343   3.855   2.496 -0.4051  0.0868 -0.8016
 4108SOL     OW23782   2.394   0.921   5.873  0.4575 -0.3177 -0.1068
 4108SOL    HW123783   2.396   0.935   5.779  1.5053  0.8304  0.0845
 4108SOL    HW223784   2.454   0.846   5.877  2.3342  1.2022  0.0356
 4109SOL     OW23785   1.810   0.330   3.629  0.9831 -0.2834 -0.0041
 4109SOL    HW123786   1.769   0.252   3.590 -1.6952  0.9454  0.3493
 4109SOL    HW223787   1.810   0.318   3.723 -0.2827  1.4934  0.2272
 4110SOL     OW23788   3.204   4.013  11.874 -0.3003  0.3838 -0.3758
 4110SOL    HW123789   3.205   4.002  11.969  1.5949 -0.2154 -0.4599
 4110SOL    HW223790   3.124   4.065  11.860  1.2593  2.8191 -0.2907
 4111SOL     OW23791   1.519   1.484  16.872  0.0568 -0.4074 -0.5868
 4111SOL    HW123792   1.498   1.542  16.799 -2.8477  0.4254  0.9219
 4111SOL    HW223793   1.514   1.542  16.948  0.9954 -3.2373  1.6107
 4112SOL     OW23794   2.164   3.311   3.463  0.3789 -0.1789  0.1821
 4112SOL    HW123795   2.165   3.396   3.419 -2.4935 -1.5744 -2.5769
 4112SOL    HW223796   2.069   3.297   3.461 -0.0088  2.5821  0.0758
 4113SOL     OW23797   3.650   2.891   5.115  0.5233  0.1678 -0.4492
 4113SOL    HW123798   3.581   2.828   5.134  1.5351 -1.0129 -0.6755
 4113SOL    HW223799   3.648   2.947   5.193 -1.4407 -1.2189  0.4939
 4114SOL     OW23800   3.043   3.023  16.998  0.0223 -0.0622 -0.5460
 4114SOL    HW123801   3.071   2.988  16.914  1.2589  1.6993 -0.8534
 4114SOL    HW223802   2.971   2.962  17.018 -0.9885  1.3477  0.1276
 4115SOL     OW23803   4.437   2.277  14.832  0.2360  0.4057  0.9571
 4115SOL    HW123804   4.506   2.214  14.852  0.0736  0.0565  0.4209
 4115SOL    HW223805   4.480   2.352  14.790  0.2904  0.1143  0.4947
 4116SOL     OW23806   1.672   2.702   1.305 -0.3032 -0.4874 -0.3806
 4116SOL    HW123807   1.741   2.751   1.350 -0.8292 -0.3279  0.2483
 4116SOL    HW223808   1.696   2.621   1.351 -0.7616 -0.4114 -0.0073
 4117SOL     OW23809   4.110   3.136   8.554 -0.3571 -0.3844 -0.2490
 4117SOL    HW123810   4.085   3.070   8.619  1.4090 -1.5189 -0.6968
 4117SOL    HW223811   4.205   3.141   8.566 -0.3576 -0.6253 -0.1383
 4118SOL     OW23812   3.172   4.541   2.255 -0.0289 -0.6116  0.6778
 4118SOL    HW123813   3.127   4.607   2.307 -1.9163 -0.9984 -0.4716
 4118SOL    HW223814   3.253   4.579   2.221 -1.1844 -0.1442 -1.5207
 4119SOL     OW23815   3.425   3.787   3.626  0.1245  0.2996  0.2215
 4119SOL    HW123816   3.508   3.749   3.597 -0.5247 -0.0284 -1.2054
 4119SOL    HW223817   3.449   3.815   3.714 -0.7685 -1.5326  1.0428
 4120SOL     OW23818   4.007   2.475   0.866 -0.2333 -0.0111  0.1071
 4120SOL    HW123819   3.943   2.543   0.886 -0.8384 -0.4562 -0.3075
 4120SOL    HW223820   4.085   2.500   0.916  0.9340 -2.6410 -0.4028
 4121SOL     OW23821   1.754   0.442   2.299 -0.3251 -0.5987  0.1822
 4121SOL    HW123822   1.762   0.500   2.375 -3.2415  0.4423 -0.3290
 4121SOL    HW223823   1.687   0.383   2.333  0.0750 -2.1406 -1.6898
 4122SOL     OW23824   2.480   3.762   7.458  0.2261  0.0335 -0.3651
 4122SOL    HW123825   2.567   3.778   7.495  1.3759  0.4396 -3.2165
 4122SOL    HW223826   2.433   3.837   7.494  0.7635  0.5092 -0.6594
 4123SOL     OW23827   3.691   3.997   6.507  0.2028  0.0964  0.4748
 4123SOL    HW123828   3.776   4.014   6.468 -0.4588 -0.5518 -1.2525
 4123SOL    HW223829   3.686   4.074   6.564 -3.4168  1.8593 -2.2336
 4124SOL     OW23830   2.178   4.551   5.685  0.0821  0.1595  0.2231
 4124SOL    HW123831   2.207   4.564   5.775  0.4844 -0.2489  0.1545
 4124SOL    HW223832   2.155   4.458   5.682 -0.8248  0.3657  1.0018
 4125SOL     OW23833   1.393   3.738   6.677  0.0783 -0.3462  0.7499
 4125SOL    HW123834   1.399   3.787   6.759  1.7540 -0.1693  0.5206
 4125SOL    HW223835   1.313   3.777   6.641  1.7277  1.1036 -1.3416
 4126SOL     OW23836   3.550   1.918   7.121  0.2498 -0.2567  0.0837
 4126SOL    HW123837   3.501   1.986   7.167  2.6930  2.1868 -0.9428
 4126SOL    HW223838   3.479   1.860   7.093  0.3005  0.3657 -1.3330
 4127SOL     OW23839   1.890   1.524   1.885 -0.2146  0.4063  0.2503
 4127SOL    HW123840   1.955   1.576   1.932  1.3585 -1.4752  0.1859
 4127SOL    HW223841   1.832   1.493   1.955 -0.6525 -0.5963 -0.5509
 4128SOL     OW23842   0.040   3.647  17.313  0.7295  0.9448  0.4485
 4128SOL    HW123843   0.129   3.614  17.323  0.4165 -0.8356 -2.3972
 4128SOL    HW223844   0.018   3.646  17.406  0.9875  0.1516  0.5005
 4129SOL     OW23845   1.107   1.835   5.517 -0.1883  0.4397  0.2146
 4129SOL    HW123846   1.182   1.790   5.557 -0.0178 -0.8139 -1.5164
 4129SOL    HW223847   1.152   1.913   5.483  0.4403 -0.1423 -0.2966
 4130SOL     OW23848   3.002   2.556   3.995  0.1483  0.1239 -0.4322
 4130SOL    HW123849   3.050   2.479   4.025  0.3399 -0.3048 -1.8470
 4130SOL    HW223850   3.062   2.597   3.932  2.8017 -1.7564  0.8805
 4131SOL     OW23851   2.327   1.053   3.201 -0.4214 -0.0020 -0.2717
 4131SOL    HW123852   2.271   0.987   3.161  2.6208 -1.7919 -1.5874
 4131SOL    HW223853   2.377   0.989   3.252  1.1969  1.0072 -0.6043
 4132SOL     OW23854   0.123   1.645   4.363 -0.5366 -0.1954  0.1844
 4132SOL    HW123855   0.084   1.557   4.364  0.6569 -0.7744 -3.3686
 4132SOL    HW223856   0.068   1.689   4.299  1.9362  3.6510  0.6893
 4133SOL     OW23857   3.667   3.388   6.814 -0.0964 -0.1635  0.4365
 4133SOL    HW123858   3.661   3.306   6.765  1.9757  0.3232 -0.6543
 4133SOL    HW223859   3.682   3.353   6.902  2.3764  4.4632  1.8355
 4134SOL     OW23860   1.331   0.537   7.810  0.0740 -0.8918  0.1468
 4134SOL    HW123861   1.276   0.458   7.818  1.6285 -1.8989  0.8419
 4134SOL    HW223862   1.274   0.597   7.762  1.2527  0.0083 -0.1219
 4135SOL     OW23863   3.417   3.209   5.371 -0.2993 -0.1014  0.1386
 4135SOL    HW123864   3.391   3.293   5.334 -3.0500 -0.6393  0.8458
 4135SOL    HW223865   3.340   3.188   5.424 -0.8124  0.1022 -0.5303
 4136SOL     OW23866   2.221   4.640   8.322  0.3569  0.5288 -0.5749
 4136SOL    HW123867   2.261   4.553   8.321  0.0960  0.4213 -1.3061
 4136SOL    HW223868   2.301   4.691   8.330 -0.2222  1.3277  0.1484
 4137SOL     OW23869   1.377   1.149   4.707 -0.0688  0.0861 -0.6177
 4137SOL    HW123870   1.420   1.122   4.788 -2.3853  0.8047  0.8478
 4137SOL    HW223871   1.416   1.083   4.650  1.5953 -1.5398  2.4005
 4138SOL     OW23872   3.916   1.066   7.072 -0.4772  0.5078 -0.0529
 4138SOL    HW123873   3.870   1.074   6.989  2.4399 -0.1626 -1.7466
 4138SOL    HW223874   3.958   0.980   7.066 -0.0676  1.0997 -4.9607
 4139SOL     OW23875   1.694   2.232   3.757  0.1757  0.4843  0.3122
 4139SOL    HW123876   1.749   2.311   3.756 -0.2073  0.7554  0.8203
 4139SOL    HW223877   1.736   2.169   3.816 -0.1977  0.3563  0.4407
 4140SOL     OW23878   2.812   2.873   8.783  0.7304  0.1475 -0.4726
 4140SOL    HW123879   2.776   2.911   8.864 -0.0952  1.2359 -1.3464
 4140SOL    HW223880   2.874   2.804   8.808 -1.3614 -0.9747  1.5877
 4141SOL     OW23881   0.284   0.982   7.003 -0.2573  0.1390 -0.1277
 4141SOL    HW123882   0.363   1.001   7.054 -0.2483  2.6781 -1.0987
 4141SOL    HW223883   0.324   0.927   6.936 -0.0608  0.2823 -0.1303
 4142SOL     OW23884   2.506   4.452   6.900  0.2519  0.0253 -0.2103
 4142SOL    HW123885   2.498   4.522   6.964 -1.3999  0.8551 -1.3164
 4142SOL    HW223886   2.512   4.375   6.956 -0.8975 -0.8293 -1.2418
 4143SOL     OW23887   3.715   4.256  10.768  0.4514 -0.1290 -0.4395
 4143SOL    HW123888   3.802   4.218  10.782  0.2115 -1.2920 -2.1299
 4143SOL    HW223889   3.647   4.191  10.786  0.1919  0.2206 -0.1532
 4144SOL     OW23890   0.807   2.725  11.382  0.5829 -0.4209  0.6324
 4144SOL    HW123891   0.716   2.748  11.364  0.9723  0.7327  0.0781
 4144SOL    HW223892   0.855   2.687  11.308 -0.1298 -0.3545  0.1369
 4145SOL     OW23893   1.882   0.586  16.688 -0.3312  0.1796  0.3522
 4145SOL    HW123894   1.795   0.616  16.662  0.1859  0.6574 -0.8593
 4145SOL    HW223895   1.918   0.577  16.599  0.7209 -0.9591  0.8988
 4146SOL     OW23896   0.075   3.384   5.569  0.0915  0.0391  0.0517
 4146SOL    HW123897   0.041   3.411   5.655  1.7277  0.3912  0.5789
 4146SOL    HW223898   0.165   3.410   5.587  0.0825  1.0647 -1.4800
 4147SOL     OW23899   0.095   1.433   9.106 -0.4913  0.6393 -0.0297
 4147SOL    HW123900   0.019   1.468   9.153 -1.0487 -0.2442 -0.2668
 4147SOL    HW223901   0.117   1.351   9.151  0.2670  0.3486 -0.9235
 4148SOL     OW23902   2.395   0.634  11.333 -0.3700  0.0025  0.5660
 4148SOL    HW123903   2.446   0.566  11.288 -2.0955 -2.2445  2.0355
 4148SOL    HW223904   2.407   0.700  11.264 -0.9574 -0.8052 -0.3198
 4149SOL     OW23905   3.930   1.330  16.275 -0.2908 -0.0164  0.1204
 4149SOL    HW123906   3.998   1.308  16.338 -1.3105 -0.0446  1.2006
 4149SOL    HW223907   3.938   1.425  16.262 -0.8043  0.3086  2.2177
 4150SOL     OW23908   3.116   2.695   5.270 -0.4334  0.3774 -0.2176
 4150SOL    HW123909   3.098   2.676   5.362 -1.3114 -0.1561 -0.5036
 4150SOL    HW223910   3.069   2.621   5.232 -0.2265  0.7391 -1.1814
 4151SOL     OW23911   2.850   1.429   4.043  0.0452 -0.0960  0.1679
 4151SOL    HW123912   2.795   1.470   4.110 -0.8626 -1.7256  0.4473
 4151SOL    HW223913   2.802   1.345   4.043 -0.1017 -0.0123  0.0881
 4152SOL     OW23914   3.239   2.931  17.254 -0.0311  0.0344 -0.4627
 4152SOL    HW123915   3.275   3.019  17.246 -3.8006  1.6210  0.0163
 4152SOL    HW223916   3.194   2.913  17.171  1.9927  1.5366 -1.8766
 4153SOL     OW23917   2.734   1.498   7.297 -0.1331 -0.2336  0.3903
 4153SOL    HW123918   2.790   1.455   7.361 -1.0983  2.4153  3.0128
 4153SOL    HW223919   2.700   1.570   7.351 -0.1892 -0.3848  0.5559
 4154SOL     OW23920   0.707   0.080  14.523 -0.0985 -0.4067 -0.5060
 4154SOL    HW123921   0.682   0.036  14.604  0.5240  1.2155  0.5667
 4154SOL    HW223922   0.734   0.167  14.555 -0.4766 -1.0282  1.5023
 4155SOL     OW23923   2.011   1.822  15.885  0.1018 -0.4648 -0.1405
 4155SOL    HW123924   1.927   1.781  15.865  0.0985  0.8174 -2.7975
 4155SOL    HW223925   2.041   1.764  15.955  3.1366  0.0776 -0.9875
 4156SOL     OW23926   1.550   0.658   3.884 -0.2416 -0.1385  0.2491
 4156SOL    HW123927   1.544   0.727   3.950  0.1359  0.2692 -0.1471
 4156SOL    HW223928   1.635   0.617   3.899 -0.0626  0.0770 -0.1896
 4157SOL     OW23929   3.807   1.465  17.658  0.0286  0.2959  0.8445
 4157SOL    HW123930   3.837   1.505   0.046 -0.5164  0.6923  0.8479
 4157SOL    HW223931   3.877   1.498  17.602  0.0551 -0.6442  0.3240
 4158SOL     OW23932   2.114   4.349   5.054  0.4315 -0.0652  0.4037
 4158SOL    HW123933   2.163   4.405   5.114 -0.4383  1.4070 -0.2877
 4158SOL    HW223934   2.132   4.266   5.099  2.0210  1.1291  1.9757
 4159SOL     OW23935   1.766   1.498  16.126  0.5631  0.3464  0.3563
 4159SOL    HW123936   1.732   1.497  16.216 -0.3834  0.4153  0.0035
 4159SOL    HW223937   1.697   1.443  16.090  0.4216  0.4319  0.4947
 4160SOL     OW23938   1.224   4.388   7.198  0.1760 -0.0991 -0.0088
 4160SOL    HW123939   1.135   4.389   7.231 -0.7932  0.8385 -2.6641
 4160SOL    HW223940   1.211   4.440   7.119 -1.8475  1.6028  1.4505
 4161SOL     OW23941   2.321   0.735  14.500  0.2003 -0.1122  0.5833
 4161SOL    HW123942   2.391   0.697  14.553  3.1789  1.3029 -2.2922
 4161SOL    HW223943   2.375   0.766  14.427  0.0986 -3.2598 -0.8470
 4162SOL     OW23944   1.140   0.696  12.808  0.4000 -0.0457  0.5010
 4162SOL    HW123945   1.161   0.670  12.898 -0.0838  0.3986  0.7403
 4162SOL    HW223946   1.226   0.726  12.778  0.4845 -1.1527 -0.3912
 4163SOL     OW23947   3.514   1.294   3.785 -0.1259 -0.3340 -0.1389
 4163SOL    HW123948   3.491   1.204   3.808  1.9981 -0.9917 -0.6187
 4163SOL    HW223949   3.608   1.279   3.775  0.1673  0.6173  1.1705
 4164SOL     OW23950   0.642   0.684  17.615  0.1042 -0.2241  0.7862
 4164SOL    HW123951   0.603   0.759  17.660 -3.7493 -2.6947  1.5792
 4164SOL    HW223952   0.670   0.732  17.537 -1.7024 -0.5656 -0.0781
 4165SOL     OW23953   2.542   4.631  10.398 -0.0012 -0.1360 -0.4215
 4165SOL    HW123954   2.599   4.617  10.323  2.0880  1.8957  0.7856
 4165SOL    HW223955   2.492   4.552  10.420  1.3422 -0.7090  0.5940
 4166SOL     OW23956   3.118   1.069  12.069 -0.6575  0.3146  0.3773
 4166SOL    HW123957   3.063   1.061  11.992  2.1800  0.1910 -1.6243
 4166SOL    HW223958   3.055   1.071  12.141 -0.2713  0.1993  0.7212
 4167SOL     OW23959   0.089   1.875   4.540 -0.7164 -0.0041 -0.1092
 4167SOL    HW123960   0.129   1.796   4.503  0.9352  1.0061 -0.4667
 4167SOL    HW223961   0.076   1.931   4.464 -2.3748  0.1693  0.2924
 4168SOL     OW23962   2.385   2.444   8.057 -0.3310 -0.2704  0.3605
 4168SOL    HW123963   2.293   2.431   8.080 -0.7138  1.9072  0.0504
 4168SOL    HW223964   2.422   2.450   8.145  0.0738 -1.3389  0.2658
 4169SOL     OW23965   1.834   3.998   2.733  0.3786  0.1282 -0.5616
 4169SOL    HW123966   1.752   3.950   2.747  0.4805  0.7501  2.2322
 4169SOL    HW223967   1.890   3.934   2.689  1.0242  0.9580 -0.9465
 4170SOL     OW23968   4.280   3.675   8.070 -0.0641  0.1586 -0.8487
 4170SOL    HW123969   4.293   3.709   7.981 -4.0451 -0.5363 -1.7171
 4170SOL    HW223970   4.371   3.693   8.093  0.2216 -1.9401 -0.3875
 4171SOL     OW23971   3.091   0.729   0.856 -0.6260 -0.6356  0.2926
 4171SOL    HW123972   3.114   0.700   0.944  0.9962  3.0015  1.0814
 4171SOL    HW223973   3.096   0.652   0.801 -2.1890 -0.5173 -0.0187
 4172SOL     OW23974   3.846   3.297  15.087  0.4995  0.2143  0.1560
 4172SOL    HW123975   3.909   3.365  15.108 -0.5639  1.3942 -0.5155
 4172SOL    HW223976   3.861   3.242  15.164 -1.5100 -0.7638 -0.1357
 4173SOL     OW23977   3.808   3.492   2.762  0.0155  0.8115 -0.0240
 4173SOL    HW123978   3.716   3.509   2.743 -0.3769  1.5619  2.5576
 4173SOL    HW223979   3.851   3.555   2.705  0.8609 -1.1276 -1.5619
 4174SOL     OW23980   3.435   2.130   7.521 -0.2403  0.3230 -0.0788
 4174SOL    HW123981   3.501   2.068   7.552 -1.2698 -0.7514 -0.0279
 4174SOL    HW223982   3.391   2.153   7.604 -1.9035  0.0296 -0.8668
 4175SOL     OW23983   1.818   3.673   4.271  0.4009 -0.0644 -0.5477
 4175SOL    HW123984   1.746   3.643   4.216  1.1526 -0.6466 -1.2290
 4175SOL    HW223985   1.893   3.663   4.211 -1.4035 -1.1510 -2.6141
 4176SOL     OW23986   3.243   3.904   4.168 -0.0331  0.2282 -0.1145
 4176SOL    HW123987   3.247   3.890   4.263  1.3240 -0.6960 -0.2997
 4176SOL    HW223988   3.151   3.884   4.151  0.8483 -3.2121 -0.8994
 4177SOL     OW23989   1.783   2.774   4.150  0.3279  0.0012 -0.5597
 4177SOL    HW123990   1.765   2.840   4.217  0.5278  1.1070 -1.5996
 4177SOL    HW223991   1.868   2.808   4.122  1.0095 -1.4401 -0.2335
 4178SOL     OW23992   0.052   2.031  11.555  0.0521 -0.5089 -0.6406
 4178SOL    HW123993   0.138   1.997  11.580 -0.0874 -0.8731 -0.6531
 4178SOL    HW223994   4.715   1.967  11.594 -0.0235 -0.5643 -0.8452
 4179SOL     OW23995   4.390   1.369   5.837 -0.0475 -0.1666 -0.1001
 4179SOL    HW123996   4.466   1.412   5.796  1.1270 -1.6335  0.5268
 4179SOL    HW223997   4.345   1.451   5.854  2.6520  1.3279 -0.1655
 4180SOL     OW23998   0.602   4.156   1.162  0.7119  0.5050  0.3662
 4180SOL    HW123999   0.584   4.192   1.248 -1.4163 -0.1135  0.1946
 4180SOL    HW224000   0.516   4.137   1.125  0.7632  0.8377  0.0774
 4181SOL     OW24001   2.719   2.538  16.313 -0.1942  0.1483  0.1382
 4181SOL    HW124002   2.651   2.474  16.292  0.6789 -0.6853 -0.1258
 4181SOL    HW224003   2.674   2.600  16.371  1.6824  2.2827 -0.6882
 4182SOL     OW24004   4.423   3.688   5.393 -0.4452 -0.8031  0.5421
 4182SOL    HW124005   4.437   3.601   5.429  3.5969 -0.7105 -0.8246
 4182SOL    HW224006   4.362   3.664   5.323  0.6042 -0.2028 -0.5794
 4183SOL     OW24007   3.093   2.676   8.585 -0.3125  0.0395 -0.2528
 4183SOL    HW124008   3.071   2.741   8.517  0.5327  1.5136  0.8963
 4183SOL    HW224009   3.012   2.626   8.592 -0.1537 -0.3986 -1.4028
 4184SOL     OW24010   1.589   2.536   4.163 -0.5281 -0.3046 -0.4020
 4184SOL    HW124011   1.495   2.538   4.183 -0.0338  0.4186  1.8221
 4184SOL    HW224012   1.598   2.630   4.150  0.9555 -0.3682  0.1622
 4185SOL     OW24013   4.294   4.576  17.639  0.1574  0.0425  0.1897
 4185SOL    HW124014   4.365   4.637  17.622 -1.7041  1.8116 -1.2810
 4185SOL    HW224015   4.237   4.611  17.571  0.0680  0.6816  0.5868
 4186SOL     OW24016   2.350   3.988  10.952 -0.2852  0.3320 -0.2090
 4186SOL    HW124017   2.365   3.895  10.969  1.8792  0.9368  1.1709
 4186SOL    HW224018   2.321   4.016  11.039  1.5493 -0.5547  0.6904
 4187SOL     OW24019   1.706   0.059  11.322  0.1411  0.6057  0.0918
 4187SOL    HW124020   1.789   0.105  11.336  0.2170  0.6038 -0.3666
 4187SOL    HW224021   1.724   4.702  11.371  0.3999  1.1777  0.9206
 4188SOL     OW24022   0.231   2.952   5.708 -0.4852 -0.1046 -0.1189
 4188SOL    HW124023   0.253   3.045   5.706 -0.8243 -0.0064  0.8549
 4188SOL    HW224024   0.211   2.943   5.801  1.1886 -2.6480 -0.0131
 4189SOL     OW24025   3.327   0.316  13.133 -0.6178 -0.2615  0.0446
 4189SOL    HW124026   3.357   0.407  13.143 -0.6405 -0.1977 -0.4450
 4189SOL    HW224027   3.413   0.279  13.156 -0.4317  0.1645  0.0399
 4190SOL     OW24028   3.445   1.633   7.715 -0.4544 -0.4415  0.8393
 4190SOL    HW124029   3.503   1.620   7.790  1.2814 -1.8578 -0.7434
 4190SOL    HW224030   3.467   1.722   7.685 -0.3914 -0.9074 -0.4664
 4191SOL     OW24031   1.312   3.774   0.362  0.1644  0.2448 -0.4552
 4191SOL    HW124032   1.313   3.867   0.336  1.1209 -0.4671 -2.9709
 4191SOL    HW224033   1.237   3.790   0.419  0.2756  1.6614 -0.6858
 4192SOL     OW24034   4.434   1.254   7.114  0.0739 -0.2553  0.0821
 4192SOL    HW124035   4.418   1.212   7.198 -0.7888  1.2247  0.6676
 4192SOL    HW224036   4.502   1.199   7.076 -0.8376 -1.6346  0.4353
 4193SOL     OW24037   1.281   4.102   0.561  0.1909  0.1898  0.0115
 4193SOL    HW124038   1.241   4.158   0.494  1.9880  2.2171  0.6277
 4193SOL    HW224039   1.216   4.112   0.631  0.4162  0.7556  0.1423
 4194SOL     OW24040   2.884   3.028   3.514  0.4771  0.2566 -0.1347
 4194SOL    HW124041   2.917   2.983   3.592  1.1587 -1.3158 -1.3395
 4194SOL    HW224042   2.951   3.094   3.498  0.4611 -0.0878 -1.5801
 4195SOL     OW24043   2.942   0.720  11.929  0.0958  0.3680  0.2843
 4195SOL    HW124044   2.919   0.715  11.836  0.5795  2.0713  0.0746
 4195SOL    HW224045   2.850   0.745  11.944 -0.8758 -0.8072 -3.6681
 4196SOL     OW24046   3.506   4.338   2.655 -0.0458  0.0569  0.2185
 4196SOL    HW124047   3.450   4.361   2.581 -0.4835  0.0436  0.5475
 4196SOL    HW224048   3.565   4.413   2.646 -0.9445  1.0215  2.5032
 4197SOL     OW24049   2.706   4.156   5.293 -0.0832 -0.1255  0.1030
 4197SOL    HW124050   2.710   4.126   5.384  1.5715 -2.5830 -0.7660
 4197SOL    HW224051   2.621   4.126   5.260 -0.3703  3.5602 -2.5722
 4198SOL     OW24052   0.128   0.269   1.278 -0.0494  0.2811 -0.3458
 4198SOL    HW124053   0.132   0.174   1.280 -2.5051  0.1860 -0.7161
 4198SOL    HW224054   0.164   0.281   1.190 -0.7774  1.8917 -0.4352
 4199SOL     OW24055   1.661   1.090   6.359  0.1176 -0.0287  0.5675
 4199SOL    HW124056   1.708   1.131   6.287  0.9273  1.4359  1.9395
 4199SOL    HW224057   1.599   1.160   6.380  0.7913  0.2289  1.6873
 4200SOL     OW24058   3.747   3.279   8.924  0.3198 -0.1446 -0.1274
 4200SOL    HW124059   3.670   3.328   8.893  1.4252  0.7789 -1.4175
 4200SOL    HW224060   3.758   3.221   8.849 -0.1432 -1.0678  0.5249
 4201SOL     OW24061   2.086   1.046   3.006 -0.6811  0.6438 -0.1925
 4201SOL    HW124062   2.113   0.967   3.052  0.5169 -0.0364 -2.0726
 4201SOL    HW224063   2.091   1.119   3.067  1.5967  0.5292 -0.2541
 4202SOL     OW24064   1.226   4.485   4.487  0.2630  0.0166 -0.7377
 4202SOL    HW124065   1.303   4.461   4.539 -0.9725 -2.2412  0.0341
 4202SOL    HW224066   1.197   4.565   4.530  0.3792 -0.4007  0.1308
 4203SOL     OW24067   0.992   3.578   1.392  0.6641  0.2720 -0.0575
 4203SOL    HW124068   1.018   3.625   1.313  1.8825 -0.8689 -0.3452
 4203SOL    HW224069   1.065   3.518   1.411 -0.1811 -1.0719 -1.0856
 4204SOL     OW24070   1.094   1.861  12.252 -0.6450  0.0854  0.7212
 4204SOL    HW124071   1.071   1.861  12.345 -1.1703 -0.8667  0.5916
 4204SOL    HW224072   1.091   1.766  12.239 -0.0709 -0.0545  1.6107
 4205SOL     OW24073   3.012   4.520   5.780 -0.1053 -0.2758 -0.2132
 4205SOL    HW124074   2.949   4.536   5.709  0.5165 -0.8575 -0.8867
 4205SOL    HW224075   2.968   4.453   5.832 -0.0174 -0.1482  0.0230
 4206SOL     OW24076   4.581   3.385   3.345  0.8667 -0.0032 -0.4043
 4206SOL    HW124077   4.550   3.313   3.401 -0.1831  1.3758  0.7818
 4206SOL    HW224078   4.526   3.452   3.386 -0.6750 -1.5977  0.1468
 4207SOL     OW24079   2.865   0.654   9.250 -0.0815 -0.5428 -0.5265
 4207SOL    HW124080   2.890   0.586   9.187  2.7529  2.1872 -2.3540
 4207SOL    HW224081   2.846   0.600   9.326  1.5614  0.0583  0.3009
 4208SOL     OW24082   3.136   3.323   6.366  0.3291 -0.4738 -0.5925
 4208SOL    HW124083   3.142   3.398   6.307  0.9658  0.1033  0.2248
 4208SOL    HW224084   3.169   3.259   6.303  2.1202 -0.8587  0.7306
 4209SOL     OW24085   0.239   3.516   4.898 -0.1589 -0.1097 -0.2052
 4209SOL    HW124086   0.246   3.422   4.880  1.6005  0.0340 -0.3098
 4209SOL    HW224087   0.147   3.530   4.876 -0.0331  0.7759 -0.1597
 4210SOL     OW24088   1.976   3.412  10.833 -0.1799 -0.7082 -0.0122
 4210SOL    HW124089   2.005   3.453  10.914  2.4114 -2.7445  0.0739
 4210SOL    HW224090   2.045   3.435  10.770  1.0386 -0.4796  1.4022
 4211SOL     OW24091   2.705   1.741   4.322  0.7036 -0.2899  0.2522
 4211SOL    HW124092   2.698   1.652   4.287  4.0234  0.9171 -3.4832
 4211SOL    HW224093   2.707   1.792   4.241 -0.3580 -0.3057  0.2055
 4212SOL     OW24094   4.204   0.912  12.672 -0.1167  0.2754  0.3134
 4212SOL    HW124095   4.204   0.824  12.635 -3.9146 -0.7794  2.8533
 4212SOL    HW224096   4.120   0.909  12.718  0.0743 -0.0128  0.6457
 4213SOL     OW24097   4.059   3.848   3.037  0.6702  0.1958  0.4136
 4213SOL    HW124098   4.098   3.912   2.978 -1.3748 -0.1813 -1.3568
 4213SOL    HW224099   3.966   3.869   3.028  0.6930  0.5647  1.0290
 4214SOL     OW24100   1.615   4.034   9.761 -0.3075  0.1131  0.1844
 4214SOL    HW124101   1.599   4.071   9.848  0.7239  0.2537  0.3193
 4214SOL    HW224102   1.566   4.100   9.713 -0.4797  0.5705  0.9882
 4215SOL     OW24103   4.437   1.156   3.365  0.6325 -0.3131 -0.1207
 4215SOL    HW124104   4.396   1.070   3.361 -0.3639  0.0179  3.0447
 4215SOL    HW224105   4.465   1.163   3.273  0.1300  2.1904 -0.0809
 4216SOL     OW24106   3.471   3.514   7.195 -0.0409  0.5935 -0.5772
 4216SOL    HW124107   3.376   3.507   7.187 -0.1874  2.3958 -0.4264
 4216SOL    HW224108   3.496   3.526   7.103  1.4958 -1.0188 -0.3785
 4217SOL     OW24109   0.656   4.662   3.866  0.3200 -0.1485  0.0535
 4217SOL    HW124110   0.606   4.723   3.811  1.1782 -0.8313 -1.4691
 4217SOL    HW224111   0.732   4.650   3.810  0.1872  1.5819 -0.5015
 4218SOL     OW24112   2.764   1.603   2.056  0.5800  0.4351 -0.3421
 4218SOL    HW124113   2.681   1.609   2.010 -1.1235  1.4614  2.8600
 4218SOL    HW224114   2.723   1.575   2.138 -0.9117 -0.2959 -1.3524
 4219SOL     OW24115   3.567   3.120   6.940  0.2196  0.1183 -0.2243
 4219SOL    HW124116   3.640   3.175   6.971  1.7101 -2.4272  0.7225
 4219SOL    HW224117   3.575   3.124   6.844 -1.1098 -1.4073 -0.3996
 4220SOL     OW24118   1.731   3.239   4.555 -0.4371  0.6449  0.3452
 4220SOL    HW124119   1.698   3.329   4.562  1.2664  1.1759  1.3709
 4220SOL    HW224120   1.788   3.227   4.631  0.7388  0.9259 -0.5012
 4221SOL     OW24121   0.075   1.854  13.113 -0.2688 -1.0525  0.1977
 4221SOL    HW124122   0.125   1.788  13.162 -1.5805  0.3976  3.4547
 4221SOL    HW224123   4.707   1.849  13.143 -0.5052  0.6974 -0.2185
 4222SOL     OW24124   1.066   3.766  13.018  0.2421  0.0770 -0.3178
 4222SOL    HW124125   0.991   3.798  13.069 -0.4135 -1.0914 -0.5565
 4222SOL    HW224126   1.139   3.824  13.040  0.9158 -1.3634  1.2355
 4223SOL     OW24127   1.326   1.876   6.629 -0.3109  0.7044  0.7337
 4223SOL    HW124128   1.404   1.888   6.684  0.8236  0.8304 -0.8958
 4223SOL    HW224129   1.327   1.947   6.564  0.0221 -0.4703 -0.5624
 4224SOL     OW24130   0.879   0.853  10.012 -0.2118  0.2358  0.2809
 4224SOL    HW124131   0.876   0.789  10.083  0.5901 -0.8754 -0.6719
 4224SOL    HW224132   0.947   0.912  10.043 -0.2009  0.0854  0.5415
 4225SOL     OW24133   1.779   0.501   1.726  0.0518  0.8167  0.2663
 4225SOL    HW124134   1.873   0.502   1.742  0.5593  1.0580 -2.8152
 4225SOL    HW224135   1.756   0.437   1.793  0.3210 -0.9782 -1.3894
 4226SOL     OW24136   2.843   2.853  13.502 -0.0108 -0.4294 -0.5180
 4226SOL    HW124137   2.789   2.801  13.561  1.9809 -2.0105 -0.0986
 4226SOL    HW224138   2.851   2.785  13.436 -0.5638 -2.4002  1.4271
 4227SOL     OW24139   4.266   2.194   2.535 -0.6999 -0.3346 -0.2340
 4227SOL    HW124140   4.187   2.181   2.482 -0.0241 -3.6123 -0.3811
 4227SOL    HW224141   4.331   2.217   2.469 -1.0304  1.5367  0.0914
 4228SOL     OW24142   3.147   3.473   0.769 -0.2028 -0.3023  0.6129
 4228SOL    HW124143   3.182   3.432   0.690  0.7488 -0.4093  1.0947
 4228SOL    HW224144   3.057   3.476   0.736 -0.9549  0.8348  2.7232
 4229SOL     OW24145   4.697   3.692   4.299  0.0733 -0.0483  0.1811
 4229SOL    HW124146   0.044   3.635   4.269 -0.1768  0.0632 -0.6047
 4229SOL    HW224147   0.027   3.759   4.343 -1.4399  1.0919  0.2754
 4230SOL     OW24148   1.689   3.940   8.105 -0.2778 -0.2150  0.0314
 4230SOL    HW124149   1.743   3.926   8.027 -0.6030  1.3929 -0.4797
 4230SOL    HW224150   1.650   3.852   8.103 -1.0708  0.1232  0.6899
 4231SOL     OW24151   2.177   0.266   0.514  0.6321  0.0977  0.1557
 4231SOL    HW124152   2.129   0.347   0.502 -2.7276 -2.1091 -1.2141
 4231SOL    HW224153   2.177   0.225   0.427 -1.3238 -0.9826  0.6790
 4232SOL     OW24154   4.554   2.689  14.974  0.3606  0.0022  0.9751
 4232SOL    HW124155   4.495   2.614  14.984  1.4127 -0.8580  0.7822
 4232SOL    HW224156   4.546   2.704  14.880 -1.6706  0.3206  1.1979
 4233SOL     OW24157   2.966   1.892   6.598  0.0284  0.3589  0.0014
 4233SOL    HW124158   3.011   1.818   6.640  1.6821  1.9245  0.9697
 4233SOL    HW224159   2.873   1.872   6.608 -0.5546  2.8581 -0.4290
 4234SOL     OW24160   4.033   0.417   1.161  0.0806  0.6830  0.0664
 4234SOL    HW124161   4.121   0.452   1.158  0.1678  0.5953  1.4398
 4234SOL    HW224162   3.998   0.459   1.239 -0.3042 -1.0391  0.8365
 4235SOL     OW24163   2.740   0.548  10.154  0.1658  0.0151 -0.6075
 4235SOL    HW124164   2.731   0.454  10.165 -0.9818  0.1467 -0.3425
 4235SOL    HW224165   2.834   0.558  10.146  0.4224  0.0245  2.6375
 4236SOL     OW24166   1.819   0.599   3.563 -0.2064 -0.5106 -0.9131
 4236SOL    HW124167   1.832   0.507   3.584 -1.3515 -0.0436  1.8791
 4236SOL    HW224168   1.736   0.588   3.517 -0.1552  1.5673 -1.5262
 4237SOL     OW24169   1.870   4.249  10.942  0.2005 -0.2877  0.1848
 4237SOL    HW124170   1.820   4.293  11.011 -0.4485 -1.2460  0.3297
 4237SOL    HW224171   1.869   4.311  10.869  0.5208  1.0237  1.3054
 4238SOL     OW24172   4.130   4.249  17.063  0.2051 -0.0267  0.8698
 4238SOL    HW124173   4.121   4.329  17.012 -2.2178 -0.8195  0.0368
 4238SOL    HW224174   4.052   4.207  17.027  1.3856  0.2720 -1.9873
 4239SOL     OW24175   1.562   0.123   1.046  0.2758  0.3051  0.3349
 4239SOL    HW124176   1.610   0.157   0.970 -1.9239 -0.1196 -1.2277
 4239SOL    HW224177   1.567   0.027   1.047  0.3683  0.3123  0.8642
 4240SOL     OW24178   2.113   1.137   7.102  0.5219  0.1838  0.1160
 4240SOL    HW124179   2.089   1.057   7.148 -0.1292  0.1905 -0.2192
 4240SOL    HW224180   2.029   1.166   7.067  1.4706  2.0869 -0.5655
 4241SOL     OW24181   3.302   3.629   8.782 -0.3383 -0.1571  0.0713
 4241SOL    HW124182   3.358   3.618   8.705  0.0637 -0.2708  0.3829
 4241SOL    HW224183   3.272   3.717   8.758 -0.0943 -0.3522 -0.9573
 4242SOL     OW24184   4.699   1.097  11.337  0.1777 -0.3208 -0.4315
 4242SOL    HW124185   4.685   1.191  11.330 -0.1406 -0.2435  1.0679
 4242SOL    HW224186   0.035   1.089  11.263  1.5888 -2.0055  0.8680
 4243SOL     OW24187   1.586   4.116  10.015 -0.1509 -0.1385  0.5488
 4243SOL    HW124188   1.594   4.185  10.081  3.1373 -1.0679  1.1062
 4243SOL    HW224189   1.598   4.036  10.067 -1.3634  0.9978  2.5872
 4244SOL     OW24190   4.686   2.288   5.575 -0.0731 -0.0168  0.1111
 4244SOL    HW124191   0.025   2.334   5.632 -2.6807  1.7389  1.4939
 4244SOL    HW224192   4.639   2.247   5.647 -1.3218  2.2671  0.5942
 4245SOL     OW24193   4.110   4.558   8.859  0.4060  0.5249  0.0696
 4245SOL    HW124194   4.043   4.594   8.802  1.5287  0.2643 -1.4122
 4245SOL    HW224195   4.156   4.508   8.791  1.8907 -0.5718  1.8576
 4246SOL     OW24196   4.254   0.451   4.297  0.2389  1.0479 -0.7414
 4246SOL    HW124197   4.243   0.415   4.208  0.5889 -0.1913 -0.2871
 4246SOL    HW224198   4.192   0.524   4.297  0.6851  1.4200  0.1019
 4247SOL     OW24199   3.268   0.567   8.955  0.7537  0.0539  0.1456
 4247SOL    HW124200   3.280   0.547   8.862  1.3971 -1.3638  0.5349
 4247SOL    HW224201   3.223   0.652   8.956 -0.0290 -0.3335 -1.5201
 4248SOL     OW24202   0.631   2.975   5.673 -0.0188 -1.1116  0.7956
 4248SOL    HW124203   0.676   2.910   5.620 -0.0853 -0.0542 -0.5716
 4248SOL    HW224204   0.613   3.042   5.607  0.8153 -0.2014  1.4865
 4249SOL     OW24205   0.974   4.588   0.436 -0.8813 -0.0356  0.0929
 4249SOL    HW124206   0.923   4.648   0.491 -1.8455 -0.3396 -0.4816
 4249SOL    HW224207   0.971   4.511   0.493  3.8807  1.3034  2.2156
 4250SOL     OW24208   1.553   0.078  12.744  0.1798  0.2464 -0.1367
 4250SOL    HW124209   1.586   0.021  12.813 -1.1832 -1.3819 -0.8304
 4250SOL    HW224210   1.610   0.053  12.671  0.5186  0.7368 -0.0411
 4251SOL     OW24211   0.027   2.025   8.529  0.3356 -0.0782 -0.3758
 4251SOL    HW124212   0.032   1.930   8.542  0.1035  0.3526  3.0278
 4251SOL    HW224213   0.092   2.052   8.594 -0.7164 -0.0201  0.6647
 4252SOL     OW24214   3.954   0.963   4.786 -0.3015 -0.4082  0.2621
 4252SOL    HW124215   3.864   0.993   4.798 -0.2315  0.9669 -2.7730
 4252SOL    HW224216   4.007   1.041   4.802  0.4735 -0.8795  0.0121
 4253SOL     OW24217   0.131   3.684   5.850  0.7378  0.4552  0.3399
 4253SOL    HW124218   0.168   3.726   5.772  0.7150  0.0063  0.0876
 4253SOL    HW224219   0.193   3.718   5.915  1.1605  2.0321 -0.8680
 4254SOL     OW24220   1.380   0.696   3.084 -0.5006  0.7707  1.0736
 4254SOL    HW124221   1.367   0.734   3.171 -1.7813  2.1215  0.2939
 4254SOL    HW224222   1.390   0.780   3.038  1.1170  0.1185  0.2156
 4255SOL     OW24223   0.685   4.444  11.084  0.3219 -0.5490 -0.2716
 4255SOL    HW124224   0.720   4.527  11.052  1.2109 -0.7441  0.1925
 4255SOL    HW224225   0.617   4.475  11.144  1.3787  0.2503  0.5176
 4256SOL     OW24226   3.762   0.306   4.163  0.1439 -0.3931 -0.8657
 4256SOL    HW124227   3.802   0.374   4.109 -2.8831  2.5906  0.7262
 4256SOL    HW224228   3.704   0.355   4.220 -0.5124 -0.6216 -1.3430
 4257SOL     OW24229   3.426   2.160  12.649  0.2812 -0.2867 -0.3944
 4257SOL    HW124230   3.357   2.195  12.707 -0.0378 -0.4211 -0.6926
 4257SOL    HW224231   3.463   2.095  12.708  0.9423 -0.8225 -1.4172
 4258SOL     OW24232   3.391   1.907  10.923  0.5892  0.1775  0.2657
 4258SOL    HW124233   3.410   1.978  10.862 -0.2807  1.2497  1.2447
 4258SOL    HW224234   3.303   1.929  10.952  0.4192  1.2781 -1.0976
 4259SOL     OW24235   0.224   4.190  15.666  0.4392 -0.0696 -0.7704
 4259SOL    HW124236   0.284   4.126  15.704 -0.3711 -1.0889 -1.2016
 4259SOL    HW224237   0.144   4.139  15.676  0.1781  0.4518 -0.1906
 4260SOL     OW24238   4.290   3.885   3.561 -0.2471 -0.0406  0.1149
 4260SOL    HW124239   4.224   3.822   3.589  0.7926 -0.6410  1.1733
 4260SOL    HW224240   4.242   3.948   3.507  0.2034 -0.2908 -0.5817
 4261SOL     OW24241   1.450   2.913  14.557  0.0765 -0.0064 -0.0408
 4261SOL    HW124242   1.542   2.937  14.542  0.0386 -0.6853 -1.3003
 4261SOL    HW224243   1.459   2.856  14.634 -2.3495  0.1456  0.3317
 4262SOL     OW24244   4.318   0.174   6.311 -0.1324 -0.1879  0.0679
 4262SOL    HW124245   4.247   0.179   6.247 -0.1474  1.8445  0.2503
 4262SOL    HW224246   4.390   0.163   6.249  0.4525  0.1526  0.6836
 4263SOL     OW24247   1.529   4.642   2.969  0.2422  0.4106 -0.4693
 4263SOL    HW124248   1.581   4.714   2.932  0.2389 -0.1427 -1.5554
 4263SOL    HW224249   1.586   4.612   3.039  3.0128  1.8601 -2.0735
 4264SOL     OW24250   3.858   0.824   5.607  0.2392 -0.3073  0.2131
 4264SOL    HW124251   3.862   0.766   5.682  3.8842 -2.8406 -1.9508
 4264SOL    HW224252   3.782   0.785   5.564  0.1490 -1.2604  1.2397
 4265SOL     OW24253   0.960   4.172   9.748 -0.6279 -0.2385 -0.1005
 4265SOL    HW124254   0.876   4.169   9.794  0.1344 -1.7599  1.1978
 4265SOL    HW224255   1.012   4.120   9.809  1.7227  3.0734  0.7021
 4266SOL     OW24256   3.424   4.188  13.734 -0.1103  0.5984  0.1822
 4266SOL    HW124257   3.341   4.195  13.687  0.3994  1.4123 -0.6081
 4266SOL    HW224258   3.421   4.096  13.759 -2.0078  0.6006 -0.0677
 4267SOL     OW24259   1.193   4.637   0.275 -0.3324  0.6331 -0.0469
 4267SOL    HW124260   1.259   4.652   0.343 -2.2938  2.4211  1.4679
 4267SOL    HW224261   1.113   4.636   0.327 -0.3599 -0.4396 -0.1038
 4268SOL     OW24262   0.062   0.271   6.206  0.4699  0.6259  0.1300
 4268SOL    HW124263   0.107   0.258   6.290 -1.7702  0.3028  1.2719
 4268SOL    HW224264   0.059   0.366   6.190  0.6102  0.4628 -0.8645
 4269SOL     OW24265   3.205   0.748   4.968  0.3648  0.2231 -0.0108
 4269SOL    HW124266   3.254   0.758   5.049 -0.7272  3.4011  0.2656
 4269SOL    HW224267   3.267   0.745   4.896  1.0346 -0.6162  0.5982
 4270SOL     OW24268   2.575   2.953   3.077 -0.3119 -0.0681  0.1392
 4270SOL    HW124269   2.634   2.934   3.004 -2.8415  0.4378 -2.0450
 4270SOL    HW224270   2.626   3.019   3.124  0.6445 -0.5739 -0.1898
 4271SOL     OW24271   0.195   0.535  12.511  0.1271 -0.4735  0.1422
 4271SOL    HW124272   0.221   0.503  12.424  0.7997  1.5241 -0.3883
 4271SOL    HW224273   0.276   0.580  12.532  0.7508 -0.7014 -1.7831
 4272SOL     OW24274   1.662   0.449   0.354 -0.4902  0.0825  0.0376
 4272SOL    HW124275   1.697   0.507   0.287 -1.8948 -0.0923 -0.8354
 4272SOL    HW224276   1.606   0.497   0.414 -0.1310 -0.2547  0.6528
 4273SOL     OW24277   4.091   1.955   2.814 -0.5960 -0.1156 -0.3278
 4273SOL    HW124278   4.183   1.936   2.798 -0.7479 -0.5521 -0.6855
 4273SOL    HW224279   4.074   1.899   2.889  2.0298 -0.7601 -0.2232
 4274SOL     OW24280   3.630   3.960   3.845 -0.0089  0.2710 -0.0441
 4274SOL    HW124281   3.642   3.999   3.932 -0.0230 -1.6408  0.8213
 4274SOL    HW224282   3.706   3.903   3.834 -0.2928 -0.4333  1.6266
 4275SOL     OW24283   4.554   3.021   6.488  0.1538 -0.5112  0.1954
 4275SOL    HW124284   4.597   2.999   6.406 -1.1481  0.1731 -0.6762
 4275SOL    HW224285   4.633   3.022   6.542  0.8472  0.0867 -0.8172
 4276SOL     OW24286   0.702   1.106  13.520  0.1060 -0.1152 -0.6097
 4276SOL    HW124287   0.629   1.125  13.579  0.3401 -0.9570 -0.0534
 4276SOL    HW224288   0.662   1.121  13.434  0.1534  0.1260 -0.5894
 4277SOL     OW24289   3.200   4.033   6.452 -0.1208 -0.5900 -0.2771
 4277SOL    HW124290   3.292   4.027   6.424 -0.0441 -1.1225  0.0873
 4277SOL    HW224291   3.172   3.941   6.449  1.9832 -1.2354 -0.5083
 4278SOL     OW24292   2.973   0.684   2.281 -0.3687  0.2123  0.5186
 4278SOL    HW124293   2.888   0.692   2.323 -0.1693  4.4983  0.0673
 4278SOL    HW224294   3.028   0.754   2.315 -0.0340  0.0270  0.3648
 4279SOL     OW24295   1.210   1.302   0.566  0.2422 -0.3626  0.2353
 4279SOL    HW124296   1.154   1.244   0.617  3.0868 -2.3475  1.1340
 4279SOL    HW224297   1.178   1.273   0.481  0.7933  0.4414 -0.2529
 4280SOL     OW24298   3.380   4.706   4.121  0.1836  0.7765 -0.5489
 4280SOL    HW124299   3.285   4.717   4.123  0.2126  0.9227  0.1169
 4280SOL    HW224300   3.380   4.715   4.026 -1.6200 -0.5802 -0.6782
 4281SOL     OW24301   4.183   3.143   2.651 -0.1288 -0.5380 -0.2169
 4281SOL    HW124302   4.147   3.180   2.571  1.3320  0.8549 -0.2371
 4281SOL    HW224303   4.221   3.059   2.623  1.4513  0.6085 -1.5038
 4282SOL     OW24304   2.453   2.314  13.421  0.2148  0.0127  0.3088
 4282SOL    HW124305   2.514   2.374  13.377 -0.1761  0.5920  0.5498
 4282SOL    HW224306   2.370   2.345  13.386 -0.0437 -0.9091  0.1203
 4283SOL     OW24307   0.741   4.386  14.468  0.1648 -0.0814  0.2500
 4283SOL    HW124308   0.751   4.291  14.469 -1.7622 -0.2795  1.3075
 4283SOL    HW224309   0.684   4.401  14.543  1.3094  0.0686  1.0726
 4284SOL     OW24310   2.143   3.478  11.055  0.1292 -0.0672 -0.2957
 4284SOL    HW124311   2.096   3.475  11.139 -0.3431  1.2958 -0.5074
 4284SOL    HW224312   2.200   3.403  11.071  1.6993  1.0181 -0.8209
 4285SOL     OW24313   1.767   3.079   8.609 -0.4396 -0.5589 -1.1080
 4285SOL    HW124314   1.704   3.038   8.668  3.3690 -3.1143  1.1581
 4285SOL    HW224315   1.756   3.168   8.643 -3.0878 -1.1136 -0.5427
 4286SOL     OW24316   1.276   2.079  12.202 -0.6551 -0.2269 -0.1621
 4286SOL    HW124317   1.261   2.172  12.222  0.7964  0.0057 -0.0978
 4286SOL    HW224318   1.190   2.051  12.173 -1.6387  2.6571 -0.0608
 4287SOL     OW24319   4.362   4.661   6.929 -0.2360 -0.0216  0.1911
 4287SOL    HW124320   4.340   0.024   6.963 -0.6748 -0.8303  1.9295
 4287SOL    HW224321   4.456   4.670   6.914 -0.5402 -0.8943 -2.3670
 4288SOL     OW24322   1.973   0.549   6.497  0.1228  0.1188 -0.2832
 4288SOL    HW124323   1.957   0.486   6.427  0.1068  1.4802 -1.4850
 4288SOL    HW224324   2.068   0.557   6.506  0.0805  1.4573 -0.9901
 4289SOL     OW24325   1.976   0.118   0.769  0.2098 -0.7694  0.6536
 4289SOL    HW124326   2.061   0.134   0.809  0.0491  2.8370 -0.5000
 4289SOL    HW224327   1.914   0.182   0.802  0.0592  0.5048 -2.1164
 4290SOL     OW24328   2.391   0.085   3.343  0.4667 -0.1817  0.1147
 4290SOL    HW124329   2.438   0.076   3.261  0.8173 -0.6883  0.3704
 4290SOL    HW224330   2.455   0.126   3.401 -1.1735  0.6067  1.3733
 4291SOL     OW24331   4.275   2.945   3.698 -0.3595  0.3501 -0.3537
 4291SOL    HW124332   4.370   2.955   3.691 -0.1502 -1.3372  0.0687
 4291SOL    HW224333   4.256   2.951   3.792  2.4777 -0.1017  0.2528
 4292SOL     OW24334   1.693   2.389   4.991  0.1621  0.6115 -0.2103
 4292SOL    HW124335   1.676   2.482   4.974 -1.0404  0.9524  2.8761
 4292SOL    HW224336   1.649   2.342   4.921 -1.0286  2.2717 -0.5931
 4293SOL     OW24337   4.193   0.347   0.189  0.5721  0.2979  0.4628
 4293SOL    HW124338   4.287   0.334   0.173  1.0743  0.1364  3.5652
 4293SOL    HW224339   4.161   0.265   0.152 -0.3012  1.1614 -0.7346
 4294SOL     OW24340   2.431   1.959  11.135  0.3328 -0.0677 -0.6898
 4294SOL    HW124341   2.478   2.038  11.159  1.6933 -0.7167 -1.2028
 4294SOL    HW224342   2.491   1.920  11.072  0.2396 -0.9386 -0.2557
 4295SOL     OW24343   3.355   0.265  14.647 -0.1571 -0.0213  0.5478
 4295SOL    HW124344   3.351   0.175  14.679 -4.3764  0.1830  0.5736
 4295SOL    HW224345   3.350   0.258  14.551 -1.5217 -0.2995  0.6330
 4296SOL     OW24346   3.684   4.093  16.617  0.0442  0.1385  0.2369
 4296SOL    HW124347   3.695   3.998  16.610 -0.3989  0.1663 -0.9535
 4296SOL    HW224348   3.765   4.127  16.579 -2.0764  1.8878 -2.6890
 4297SOL     OW24349   4.131   1.545   5.687 -0.4233 -0.2122 -0.0439
 4297SOL    HW124350   4.079   1.492   5.747  0.4816  2.1514  2.8280
 4297SOL    HW224351   4.105   1.635   5.707  1.0406 -0.2297  1.9235
 4298SOL     OW24352   3.062   1.188   6.130 -0.2667  0.9698 -0.3966
 4298SOL    HW124353   3.095   1.225   6.212 -2.1238  0.2169  0.7010
 4298SOL    HW224354   2.968   1.189   6.150 -0.3923  1.1409 -0.9879
 4299SOL     OW24355   4.167   2.869  15.994  0.6961 -0.0589 -0.0425
 4299SOL    HW124356   4.180   2.919  15.914  1.8336 -0.6674 -0.2417
 4299SOL    HW224357   4.237   2.908  16.046  0.6409  2.8056 -2.1211
 4300SOL     OW24358   4.310   0.776   4.008 -0.1147  0.3253 -0.0956
 4300SOL    HW124359   4.289   0.867   3.988 -0.1526  0.3242 -0.0608
 4300SOL    HW224360   4.378   0.779   4.076 -0.1567 -0.4090 -0.0180
 4301SOL     OW24361   0.982   1.105  10.020 -0.4288 -0.3602  0.6984
 4301SOL    HW124362   0.958   1.166  10.090 -0.2426  0.5538 -0.0489
 4301SOL    HW224363   0.946   1.150   9.944 -0.5548 -2.6122 -0.5848
 4302SOL     OW24364   2.268   3.569   2.308 -0.7192 -0.3522  0.0991
 4302SOL    HW124365   2.188   3.517   2.317 -0.1698 -1.3107 -0.5883
 4302SOL    HW224366   2.221   3.652   2.297  2.3569  1.4649  0.6167
 4303SOL     OW24367   4.180   1.935   4.195  0.2757  0.4666 -0.1654
 4303SOL    HW124368   4.163   1.856   4.144  1.1368 -0.0927  0.4189
 4303SOL    HW224369   4.273   1.951   4.179  0.4356  1.4819  1.7634
 4304SOL     OW24370   4.151   3.100   7.342  0.6184 -0.2716  0.2456
 4304SOL    HW124371   4.083   3.093   7.276 -0.4610 -1.7955  1.5116
 4304SOL    HW224372   4.096   3.151   7.402  0.7483 -2.1665  1.9764
 4305SOL     OW24373   1.931   3.005   8.066  0.3669  0.0367 -0.1008
 4305SOL    HW124374   1.960   3.089   8.104 -0.4350 -0.6847  2.0949
 4305SOL    HW224375   1.900   2.958   8.143  0.3601  1.6344  0.8813
 4306SOL     OW24376   4.031   0.141   3.807 -0.1600  0.0689  0.4193
 4306SOL    HW124377   4.108   0.122   3.861  0.1777 -0.7561 -0.3536
 4306SOL    HW224378   4.071   0.202   3.746  0.1564  0.7504  1.3121
 4307SOL     OW24379   3.847   1.578   3.654  0.2579 -0.1745 -0.5382
 4307SOL    HW124380   3.870   1.502   3.600 -0.1530  0.6752 -1.8950
 4307SOL    HW224381   3.860   1.652   3.595  1.5461  1.1214  1.3901
 4308SOL     OW24382   2.976   1.447   1.179 -0.0980 -0.3109  0.1393
 4308SOL    HW124383   2.965   1.370   1.123  2.6942 -2.0716  2.0702
 4308SOL    HW224384   3.042   1.418   1.242  1.8031 -0.3943 -1.8986
 4309SOL     OW24385   4.538   1.370   1.687 -0.2532  0.1529  0.2181
 4309SOL    HW124386   4.569   1.319   1.612 -1.6761  1.9693 -1.5792
 4309SOL    HW224387   4.599   1.444   1.690  0.7606 -0.6471 -0.2349
 4310SOL     OW24388   2.499   3.947   6.334  0.1409  0.1644 -0.7456
 4310SOL    HW124389   2.546   3.938   6.416  2.0187  0.3462 -1.8048
 4310SOL    HW224390   2.568   3.952   6.268 -0.2894  1.9181 -1.0703
 4311SOL     OW24391   2.476   3.850   3.871 -0.5706  0.4363  0.3831
 4311SOL    HW124392   2.445   3.822   3.957  1.0438  0.1739  0.8819
 4311SOL    HW224393   2.567   3.867   3.897 -0.0658 -1.2442 -0.2744
 4312SOL     OW24394   3.309   2.647  16.346  0.2306 -0.3169  0.5383
 4312SOL    HW124395   3.349   2.584  16.286  2.2762  0.1943  1.3321
 4312SOL    HW224396   3.240   2.588  16.377  0.5786  0.0690  2.0383
 4313SOL     OW24397   3.759   2.270   4.257 -0.4608  0.4937 -0.1917
 4313SOL    HW124398   3.760   2.245   4.165  0.1724  0.4782 -0.1754
 4313SOL    HW224399   3.840   2.227   4.283 -0.4724  0.6786  0.1522
 4314SOL     OW24400   3.622   4.129   0.306  0.5818  0.0109 -0.0103
 4314SOL    HW124401   3.583   4.188   0.371  1.5028  0.3394  0.2310
 4314SOL    HW224402   3.544   4.093   0.263 -0.8963  3.8396 -0.5431
 4315SOL     OW24403   1.713   4.149   7.317 -0.3006 -0.2251  0.1147
 4315SOL    HW124404   1.794   4.199   7.322 -0.1113 -0.5837  0.6275
 4315SOL    HW224405   1.650   4.219   7.333  0.7919  0.4475  1.4318
 4316SOL     OW24406   2.958   0.235   6.511 -0.5923 -0.0437 -0.6855
 4316SOL    HW124407   2.912   0.153   6.530 -1.4939  1.4857  3.7060
 4316SOL    HW224408   3.049   0.205   6.513 -0.6146  0.0088  0.8182
 4317SOL     OW24409   1.468   2.516   7.194  0.5392  0.1240 -0.2387
 4317SOL    HW124410   1.494   2.519   7.102  1.0458  0.3278 -0.0901
 4317SOL    HW224411   1.377   2.488   7.185  0.5645 -0.0554  0.0605
 4318SOL     OW24412   1.563   4.100   6.520 -0.4462 -0.1074  0.1073
 4318SOL    HW124413   1.531   4.120   6.433  1.3347 -0.2164 -0.5744
 4318SOL    HW224414   1.480   4.084   6.565  0.5264  1.5226  2.5116
 4319SOL     OW24415   2.580   3.623   4.653 -0.8108 -0.6317  0.2009
 4319SOL    HW124416   2.608   3.679   4.580  2.5184 -0.6822  1.4042
 4319SOL    HW224417   2.508   3.677   4.685 -1.6759 -1.2788 -0.6439
 4320SOL     OW24418   3.285   0.858   5.869 -0.2996 -0.0028  0.3896
 4320SOL    HW124419   3.303   0.944   5.830 -2.5181 -0.4220 -1.6082
 4320SOL    HW224420   3.265   0.888   5.958 -1.0226  1.6906 -0.3376
 4321SOL     OW24421   0.179   3.808   5.581 -0.1657  0.1661 -0.2867
 4321SOL    HW124422   0.205   3.899   5.563  0.1632  0.4273  1.5890
 4321SOL    HW224423   0.095   3.798   5.537 -0.7528  1.8544  0.4472
 4322SOL     OW24424   0.082   0.832   8.587 -0.0154  1.1873  0.1895
 4322SOL    HW124425   0.043   0.919   8.598  0.9077  1.5550  0.5256
 4322SOL    HW224426   0.069   0.826   8.493  0.1398  1.9759  0.1206
 4323SOL     OW24427   0.722   2.016  12.926 -0.7787  0.1279 -0.2799
 4323SOL    HW124428   0.661   1.952  12.963  0.6744 -2.0335 -1.6486
 4323SOL    HW224429   0.694   2.014  12.835 -1.1582  0.9577 -0.1793
 4324SOL     OW24430   2.611   0.613  14.595 -0.0421  0.0763 -0.1739
 4324SOL    HW124431   2.601   0.566  14.678 -0.9698  0.7852  0.1013
 4324SOL    HW224432   2.565   0.551  14.539  0.1206 -1.2395  1.1420
 4325SOL     OW24433   3.926   0.827   6.224 -0.3233 -0.2572  0.4001
 4325SOL    HW124434   4.014   0.859   6.244 -0.2433  0.0084 -0.3864
 4325SOL    HW224435   3.870   0.887   6.273 -0.3167 -1.0456  1.3731
 4326SOL     OW24436   2.256   1.004   4.553  0.2404 -0.1128 -0.4650
 4326SOL    HW124437   2.246   1.055   4.633  1.2929  0.9137 -0.9888
 4326SOL    HW224438   2.267   0.914   4.585  0.2059  0.2899  0.6819
 4327SOL     OW24439   0.310   1.512   7.353 -0.3579 -0.6395 -0.3825
 4327SOL    HW124440   0.319   1.484   7.444 -1.0829 -0.8294 -0.3776
 4327SOL    HW224441   0.224   1.470   7.351 -1.1421  0.8287  2.3049
 4328SOL     OW24442   2.064   3.596   5.044 -0.4434  0.1865  0.3245
 4328SOL    HW124443   1.971   3.612   5.058 -0.2680 -0.4387  2.2882
 4328SOL    HW224444   2.066   3.595   4.949  0.7779 -0.1287  0.3445
 4329SOL     OW24445   0.357   0.379   3.695  0.6027 -0.6464  0.9264
 4329SOL    HW124446   0.327   0.354   3.607 -0.8092  0.5539  1.0549
 4329SOL    HW224447   0.342   0.474   3.688  0.8744 -0.7213 -0.6985
 4330SOL     OW24448   1.893   2.745  16.319  0.0042  0.3256 -0.4945
 4330SOL    HW124449   1.965   2.800  16.351  1.5132 -2.5676  1.1046
 4330SOL    HW224450   1.933   2.703  16.242  2.7497 -1.1952  1.7433
 4331SOL     OW24451   2.946   0.323   1.421  0.4720  0.3690  0.5493
 4331SOL    HW124452   2.886   0.326   1.496 -0.2867 -0.1421 -0.0310
 4331SOL    HW224453   2.962   0.416   1.402  0.5862  0.3439  0.5273
 4332SOL     OW24454   2.521   2.793   4.549 -0.3618 -0.3155 -0.4508
 4332SOL    HW124455   2.492   2.795   4.641  0.5673 -1.4615 -0.1335
 4332SOL    HW224456   2.601   2.844   4.561 -0.6733  0.3498 -1.2723
 4333SOL     OW24457   3.876   3.620   9.202  0.0527 -0.2967  0.2358
 4333SOL    HW124458   3.823   3.555   9.156 -0.8009  1.3821 -1.1613
 4333SOL    HW224459   3.834   3.701   9.173 -1.5178 -2.6775 -4.1396
 4334SOL     OW24460   2.549   3.871  15.979 -0.0491  0.9188  0.1486
 4334SOL    HW124461   2.582   3.817  16.051 -0.5700 -1.9959 -1.8364
 4334SOL    HW224462   2.599   3.829  15.909 -2.4689 -1.1217 -0.3474
 4335SOL     OW24463   3.157   4.682  16.680 -0.1961 -0.4909  0.2095
 4335SOL    HW124464   3.112   4.658  16.599  0.3830  0.9349 -0.5483
 4335SOL    HW224465   3.247   4.652  16.664  0.0574  0.5642 -0.4019
 4336SOL     OW24466   2.625   0.705  15.874 -0.0738 -0.1639 -0.8723
 4336SOL    HW124467   2.673   0.786  15.891 -0.5566 -0.0048 -0.2534
 4336SOL    HW224468   2.545   0.738  15.833  0.0562 -1.9451 -2.5451
 4337SOL     OW24469   0.670   3.645   3.971 -0.1036 -0.5305  0.0202
 4337SOL    HW124470   0.627   3.618   3.890  2.7619 -0.6375 -1.4752
 4337SOL    HW224471   0.595   3.668   4.025  0.5805 -0.3963  0.9137
 4338SOL     OW24472   4.146   2.984   6.828  0.1530  0.1197  0.3013
 4338SOL    HW124473   4.176   3.011   6.914  2.0204 -1.4468  0.1369
 4338SOL    HW224474   4.231   2.952   6.800  0.9503  0.4347  2.3751
 4339SOL     OW24475   2.477   4.062   1.052 -0.1109 -0.6449  0.0611
 4339SOL    HW124476   2.405   4.009   1.087  1.4594 -4.1586 -2.1079
 4339SOL    HW224477   2.451   4.078   0.961  2.7419 -0.9686 -0.7894
 4340SOL     OW24478   2.210   0.447   4.168  0.3905 -0.9003  0.7471
 4340SOL    HW124479   2.159   0.426   4.246 -1.3817  0.9021  0.0810
 4340SOL    HW224480   2.295   0.411   4.191  0.6725 -0.6120  0.1805
 4341SOL     OW24481   1.265   1.608   5.057  0.0908 -0.3995 -0.4332
 4341SOL    HW124482   1.360   1.612   5.047  0.1088 -0.3854 -0.2492
 4341SOL    HW224483   1.229   1.590   4.970  0.8613  2.1194 -1.2554
 4342SOL     OW24484   2.957   0.682   0.024  0.5918  0.0946  0.0441
 4342SOL    HW124485   3.044   0.651   0.048  0.1659 -2.9877 -2.3911
 4342SOL    HW224486   2.955   0.771   0.060  0.3925 -0.3054  1.0134
 4343SOL     OW24487   2.334   3.219   3.656  0.1450 -0.0803 -0.1879
 4343SOL    HW124488   2.283   3.268   3.591 -1.0866  0.9838  1.5924
 4343SOL    HW224489   2.300   3.132   3.637 -5.9824  2.5605 -1.0776
 4344SOL     OW24490   4.112   3.550   6.381 -0.2314  0.0355 -0.2408
 4344SOL    HW124491   4.034   3.601   6.406  0.6242  0.2011  2.0665
 4344SOL    HW224492   4.111   3.551   6.285 -0.3856  2.1893 -0.2354
 4345SOL     OW24493   0.310   1.268   2.509  0.5796 -0.0936 -0.0706
 4345SOL    HW124494   0.404   1.261   2.525  0.4765 -0.8607  0.2193
 4345SOL    HW224495   0.298   1.344   2.452 -3.3972 -0.9412 -0.3637
 4346SOL     OW24496   2.223   4.626   9.674  0.0869 -0.4285  0.1617
 4346SOL    HW124497   2.137   4.585   9.677 -0.2209  0.2538  0.8580
 4346SOL    HW224498   2.230   4.641   9.580 -1.2268 -1.7101 -0.1390
 4347SOL     OW24499   4.691   2.428   2.980  0.2346 -0.0291  0.2385
 4347SOL    HW124500   4.614   2.377   3.009  0.6489 -0.4494  0.5929
 4347SOL    HW224501   0.037   2.369   3.010  1.4701  0.0340 -2.5417
 4348SOL     OW24502   1.886   0.487   6.195  0.1835  0.3485  0.2649
 4348SOL    HW124503   1.812   0.541   6.222 -1.0691 -1.4198  0.3995
 4348SOL    HW224504   1.907   0.537   6.116 -3.9146 -1.1811 -1.8058
 4349SOL     OW24505   0.204   0.386   7.609  0.3199 -0.3920  0.1030
 4349SOL    HW124506   0.282   0.361   7.660 -1.2405 -2.1136  1.6442
 4349SOL    HW224507   0.193   0.298   7.572  1.1870 -0.4487 -0.0310
 4350SOL     OW24508   0.478   0.250   8.779 -0.7403 -0.3091  0.4528
 4350SOL    HW124509   0.572   0.267   8.777 -0.6530 -0.9502 -0.6347
 4350SOL    HW224510   0.447   0.287   8.862  1.6309  1.2137  0.6336
 4351SOL     OW24511   1.793   0.082   9.337 -0.4429 -0.1067 -0.0178
 4351SOL    HW124512   1.810   0.172   9.308  1.7523 -0.4846  0.1085
 4351SOL    HW224513   1.698   0.084   9.352 -0.3808 -0.1913  0.3987
 4352SOL     OW24514   1.333   2.120   3.148 -0.4786  0.1029 -0.6306
 4352SOL    HW124515   1.369   2.082   3.228  0.7478 -1.4260 -1.9082
 4352SOL    HW224516   1.306   2.050   3.089  2.9502 -0.1906 -1.8684
 4353SOL     OW24517   2.314   0.591   5.642  0.6790  0.1238 -0.5516
 4353SOL    HW124518   2.406   0.617   5.647  0.6033 -0.2645  2.5494
 4353SOL    HW224519   2.285   0.636   5.562 -2.6727 -1.1163 -0.0569
 4354SOL     OW24520   3.696   2.815   1.935 -0.2103  0.2312  0.3781
 4354SOL    HW124521   3.739   2.788   2.016 -0.4328 -1.6174 -0.1234
 4354SOL    HW224522   3.637   2.741   1.917 -1.1643  1.3731 -1.2163
 4355SOL     OW24523   3.032   3.002   9.134 -0.1317  0.7562 -0.3917
 4355SOL    HW124524   3.098   3.060   9.173 -0.3804  1.4938 -1.0484
 4355SOL    HW224525   3.054   3.010   9.041  0.2810 -1.0434 -0.4524
 4356SOL     OW24526   0.173   4.421   1.765  0.3813 -0.3347  0.3522
 4356SOL    HW124527   0.156   4.363   1.691 -0.2796  0.5480 -0.1854
 4356SOL    HW224528   0.137   4.369   1.838  0.5569 -0.5205  0.3077
 4357SOL     OW24529   1.744   1.540   4.574 -0.2699  0.4818  0.2320
 4357SOL    HW124530   1.788   1.624   4.586  0.2464  0.4066 -1.0852
 4357SOL    HW224531   1.665   1.558   4.524 -0.9393 -0.8121  0.8371
 4358SOL     OW24532   4.396   0.083   3.062 -0.0102  0.1320  0.3236
 4358SOL    HW124533   4.331   0.128   3.115 -1.2777 -0.7272 -0.5239
 4358SOL    HW224534   4.404   0.140   2.985 -0.8732 -0.3163 -0.0898
 4359SOL     OW24535   2.419   1.204   2.198  0.5088 -0.5010  0.0227
 4359SOL    HW124536   2.508   1.200   2.164  0.5427 -0.5417  0.1179
 4359SOL    HW224537   2.361   1.146   2.148  0.4527 -0.4494  0.0271
 4360SOL     OW24538   3.129   2.735   2.254 -0.5206 -0.2079  0.6192
 4360SOL    HW124539   3.150   2.733   2.160 -1.3903  0.6025  0.4100
 4360SOL    HW224540   3.067   2.662   2.258  0.3434 -0.8395  2.3343
 4361SOL     OW24541   4.075   1.928   2.504 -0.1805 -0.3316 -0.6330
 4361SOL    HW124542   4.076   1.959   2.594 -0.9648  0.5442 -0.9178
 4361SOL    HW224543   4.151   1.870   2.504 -0.3776 -0.5921  2.7611
 4362SOL     OW24544   0.407   2.487   4.230  0.1224  0.6959 -0.2385
 4362SOL    HW124545   0.379   2.442   4.150 -0.0088  0.0781  0.1560
 4362SOL    HW224546   0.363   2.569   4.209  0.3600 -0.1691 -4.2545
 4363SOL     OW24547   1.314   2.059   2.206  0.1006 -0.2701  0.2685
 4363SOL    HW124548   1.343   2.131   2.263 -0.1610  0.8515 -1.0059
 4363SOL    HW224549   1.368   2.065   2.127  2.9622 -0.2668  2.2173
 4364SOL     OW24550   0.766   2.432   5.824 -0.1398 -0.1884 -0.1283
 4364SOL    HW124551   0.719   2.511   5.850  0.5066  0.9194 -2.3071
 4364SOL    HW224552   0.735   2.368   5.888 -2.6108  1.2698  0.1109
 4365SOL     OW24553   1.292   2.818   6.160  0.0426 -0.1712 -0.7913
 4365SOL    HW124554   1.232   2.771   6.103  0.4376 -0.2008 -1.1794
 4365SOL    HW224555   1.243   2.815   6.242 -0.0870  0.3068 -0.8530
 4366SOL     OW24556   2.894   0.072  17.272 -0.7411 -0.5049 -0.0938
 4366SOL    HW124557   2.887   0.146  17.332  0.6002 -2.3200  2.3273
 4366SOL    HW224558   2.817   0.092  17.219  0.6520  0.9694 -1.5279
 4367SOL     OW24559   1.076   1.291  10.666 -0.0294 -0.3899 -0.6936
 4367SOL    HW124560   1.082   1.251  10.753 -0.1644  0.5498 -0.2590
 4367SOL    HW224561   1.083   1.220  10.602 -1.9303  0.4733 -1.8887
 4368SOL     OW24562   1.377   4.140  11.971  0.7193 -0.5992  0.2426
 4368SOL    HW124563   1.393   4.199  11.898 -0.7295  0.8215  1.0905
 4368SOL    HW224564   1.372   4.061  11.917  1.6309 -0.2065 -0.4046
 4369SOL     OW24565   1.968   4.431   3.036  0.3749  0.1436 -0.7534
 4369SOL    HW124566   1.897   4.490   3.064  0.7519 -1.0847  2.8472
 4369SOL    HW224567   1.917   4.371   2.982 -1.7908  0.5965  0.7476
 4370SOL     OW24568   0.525   2.029   6.717  0.6119  0.0077  0.0457
 4370SOL    HW124569   0.439   1.989   6.732 -0.2881  1.3330 -1.5997
 4370SOL    HW224570   0.518   2.121   6.738 -0.6684 -0.0153 -0.2903
 4371SOL     OW24571   1.809   1.091   8.169  0.2501 -0.0181  0.2167
 4371SOL    HW124572   1.737   1.138   8.126 -0.4315  0.1500  1.5341
 4371SOL    HW224573   1.889   1.142   8.156 -0.8430  1.6304 -0.1401
 4372SOL     OW24574   2.306   1.603   9.933 -0.4499 -0.4567  0.6532
 4372SOL    HW124575   2.269   1.610  10.021  1.9741 -0.6507  1.6821
 4372SOL    HW224576   2.322   1.697   9.922  1.7023 -1.1282 -1.9532
 4373SOL     OW24577   0.696   3.408   7.983  0.1135  0.1496 -0.4202
 4373SOL    HW124578   0.729   3.453   7.905 -1.0585 -0.3873 -1.2324
 4373SOL    HW224579   0.753   3.331   7.983  1.2516  1.0101  2.5459
 4374SOL     OW24580   0.390   1.637   5.128  0.1072  0.0343  0.0713
 4374SOL    HW124581   0.356   1.717   5.168 -1.0798 -0.6710  0.4528
 4374SOL    HW224582   0.349   1.649   5.043  1.5782  1.1453 -0.4703
 4375SOL     OW24583   3.641   0.262   7.896 -0.6542 -0.0407 -0.1850
 4375SOL    HW124584   3.601   0.177   7.912  0.3514  0.1008  3.0471
 4375SOL    HW224585   3.562   0.313   7.879 -1.0797 -0.7947 -0.4835
 4376SOL     OW24586   0.552   2.855  11.229 -0.4104 -0.1722 -0.1842
 4376SOL    HW124587   0.538   2.947  11.254 -1.5089 -0.3793 -0.0264
 4376SOL    HW224588   0.503   2.821  11.304  1.4075 -0.4461  0.8725
 4377SOL     OW24589   3.880   3.313   3.250  1.0661 -0.1009 -0.3632
 4377SOL    HW124590   3.843   3.226   3.266 -1.9262  0.7890 -2.5681
 4377SOL    HW224591   3.827   3.328   3.172  0.1330  0.1292  0.3318
 4378SOL     OW24592   2.993   3.874   8.736 -0.3296 -0.5592 -0.0762
 4378SOL    HW124593   3.045   3.881   8.656  2.0157  0.7164  1.5479
 4378SOL    HW224594   2.906   3.860   8.697 -0.5505 -1.1462  0.6300
 4379SOL     OW24595   4.148   3.477   0.437  0.4963  0.7159  0.4688
 4379SOL    HW124596   4.132   3.408   0.501  1.6502 -0.5433 -0.6208
 4379SOL    HW224597   4.216   3.525   0.482  1.5854 -0.7537  0.3781
 4380SOL     OW24598   0.757   3.993   9.223  0.2052 -0.1860  0.3242
 4380SOL    HW124599   0.730   3.930   9.157 -2.1970  0.6948  0.4623
 4380SOL    HW224600   0.675   4.013   9.270  0.4255  0.5259  0.4087
 4381SOL     OW24601   4.499   1.175   3.095  0.0139 -0.0287  0.6377
 4381SOL    HW124602   4.578   1.167   3.042 -0.6245  1.2233 -0.4979
 4381SOL    HW224603   4.466   1.086   3.082 -0.0351  0.4711 -2.4269
 4382SOL     OW24604   1.416   3.052  12.598  0.3066  0.6621 -0.2328
 4382SOL    HW124605   1.348   3.056  12.532  0.9667  0.7689 -0.9060
 4382SOL    HW224606   1.435   2.959  12.607  2.5279  0.9471 -2.0235
 4383SOL     OW24607   2.136   4.330   2.292  0.0351 -0.3504 -0.3413
 4383SOL    HW124608   2.229   4.309   2.296  0.4683  1.3503 -1.5011
 4383SOL    HW224609   2.111   4.332   2.199 -1.5552  1.8053  0.1169
 4384SOL     OW24610   0.604   4.361   5.303 -0.1333  0.5360 -0.2748
 4384SOL    HW124611   0.643   4.396   5.223 -1.0793  1.4211 -0.3386
 4384SOL    HW224612   0.590   4.439   5.356 -0.4851  0.9621 -1.0018
 4385SOL     OW24613   3.707   1.267  15.942  0.3732  0.3159 -0.1059
 4385SOL    HW124614   3.801   1.259  15.954  0.2049  1.4981  2.0198
 4385SOL    HW224615   3.692   1.359  15.965 -1.4275 -0.3507  1.4273
 4386SOL     OW24616   0.475   1.435   3.959  0.2623  0.2258  0.3273
 4386SOL    HW124617   0.409   1.379   3.918  2.3723 -1.0639 -1.3065
 4386SOL    HW224618   0.436   1.450   4.045  1.9412 -2.0124  1.4489
 4387SOL     OW24619   4.502   3.158   3.481 -0.1472  0.0923  0.1802
 4387SOL    HW124620   4.517   3.149   3.575  0.0086 -0.4184  0.1051
 4387SOL    HW224621   4.542   3.078   3.448  0.9094  0.6436  0.1368
 4388SOL     OW24622   2.400   4.440   0.851 -0.1664  0.4280  0.5433
 4388SOL    HW124623   2.466   4.498   0.888 -2.6937  0.8029  4.4475
 4388SOL    HW224624   2.345   4.511   0.817 -1.5909 -1.2930 -0.7642
 4389SOL     OW24625   1.654   0.060   8.264  0.2810 -0.3325  0.1099
 4389SOL    HW124626   1.571   0.107   8.276  0.1712 -0.6888  0.7181
 4389SOL    HW224627   1.619   4.694   8.263  2.0173 -1.0389  2.2733
 4390SOL     OW24628   3.656   0.714  16.668 -0.4541  0.0818  0.0675
 4390SOL    HW124629   3.606   0.716  16.750 -3.1317  0.3044 -1.5641
 4390SOL    HW224630   3.590   0.742  16.604 -1.6023  1.6845  1.9513
 4391SOL     OW24631   2.568   2.746   5.646  0.7485  0.0874 -0.3590
 4391SOL    HW124632   2.498   2.719   5.586  0.2765  0.6691 -0.0634
 4391SOL    HW224633   2.601   2.831   5.616 -2.5054  1.3716 -0.2696
 4392SOL     OW24634   1.421   1.749  11.489 -0.2519 -0.2695 -0.3654
 4392SOL    HW124635   1.435   1.697  11.410 -1.1730 -0.9137 -0.1001
 4392SOL    HW224636   1.450   1.835  11.457  0.5829 -1.0653 -1.7222
 4393SOL     OW24637   1.538   2.683   3.495 -0.6539 -0.3301  0.2559
 4393SOL    HW124638   1.611   2.731   3.535 -1.6793  2.5436 -1.3180
 4393SOL    HW224639   1.552   2.597   3.533  0.3004  0.5841  2.0105
 4394SOL     OW24640   0.761   2.247   5.291 -0.0552  0.7341  1.0672
 4394SOL    HW124641   0.694   2.219   5.354 -1.2783  1.1723 -0.0637
 4394SOL    HW224642   0.743   2.186   5.220  2.9815 -1.2061  1.9299
 4395SOL     OW24643   2.030   1.576   1.476 -0.2113  0.0527  0.1720
 4395SOL    HW124644   1.973   1.499   1.485  1.8006 -1.4247  0.1789
 4395SOL    HW224645   2.032   1.590   1.381 -1.1644 -0.4538  0.0804
 4396SOL     OW24646   4.287   3.461  11.632 -0.1255  0.4424  0.2725
 4396SOL    HW124647   4.278   3.366  11.640  0.5178  0.4047  0.5239
 4396SOL    HW224648   4.203   3.481  11.589  0.6061 -0.9535 -1.7796
 4397SOL     OW24649   2.959   2.247   0.650  0.0373 -0.1516 -0.2953
 4397SOL    HW124650   3.031   2.222   0.592  1.1256  0.0290  0.9822
 4397SOL    HW224651   3.012   2.298   0.712  2.3369  0.3843 -2.6834
 4398SOL     OW24652   0.986   2.181   7.698  0.0769  0.3726  0.3349
 4398SOL    HW124653   0.987   2.267   7.740 -0.2073  0.1419  0.8045
 4398SOL    HW224654   1.080   2.163   7.708 -0.2143 -0.3607  1.6729
 4399SOL     OW24655   2.118   3.539   9.323  0.3910  0.1287 -0.9323
 4399SOL    HW124656   2.090   3.604   9.388  0.2109 -1.8036  0.9162
 4399SOL    HW224657   2.211   3.561   9.331  0.7426 -2.0258  0.8862
 4400SOL     OW24658   3.724   0.805   3.208  0.2373  0.0653  0.1460
 4400SOL    HW124659   3.777   0.879   3.238 -1.8316  1.9976 -0.8593
 4400SOL    HW224660   3.790   0.773   3.147 -2.8305 -1.1748 -2.5310
 4401SOL     OW24661   3.644   2.803   3.456 -0.2125 -0.0048  0.2335
 4401SOL    HW124662   3.734   2.832   3.441 -0.5183  1.3793  1.0704
 4401SOL    HW224663   3.662   2.721   3.502  1.2926  1.3658  2.0788
 4402SOL     OW24664   1.730   0.237   7.482  0.0970 -0.6840  0.7379
 4402SOL    HW124665   1.803   0.191   7.440 -0.5211 -0.2759 -0.8015
 4402SOL    HW224666   1.764   0.322   7.508 -0.5012  0.0243 -0.7491
 4403SOL     OW24667   2.796   4.722   1.485  0.6336  0.3584 -0.1941
 4403SOL    HW124668   2.784   4.650   1.547 -0.5801  0.8084  0.0743
 4403SOL    HW224669   2.876   4.695   1.439  1.4378  1.9503  0.2456
 4404SOL     OW24670   2.235   4.185   7.311 -0.3967 -0.3236 -0.0981
 4404SOL    HW124671   2.248   4.279   7.321  0.6633 -0.6732  1.7262
 4404SOL    HW224672   2.237   4.171   7.216  0.4165 -0.3802 -0.0726
 4405SOL     OW24673   3.366   0.563   6.600 -0.5659 -0.6459  0.2344
 4405SOL    HW124674   3.344   0.621   6.673 -3.2577 -1.1685 -0.1494
 4405SOL    HW224675   3.461   0.569   6.600 -0.4090 -3.0479  2.9004
 4406SOL     OW24676   4.659   1.573  14.999  0.0569  0.4157  0.0034
 4406SOL    HW124677   4.581   1.522  15.017 -0.2733  1.1900  0.7493
 4406SOL    HW224678   4.706   1.550  15.079 -0.9972 -1.7727  0.0114
 4407SOL     OW24679   1.235   4.609   6.109 -0.1200 -0.1287  0.1888
 4407SOL    HW124680   1.208   4.532   6.059  1.1340 -1.7769  2.0731
 4407SOL    HW224681   1.246   4.683   6.049  0.6388 -0.3966  0.0090
 4408SOL     OW24682   3.574   2.154   4.842 -0.1589  0.6097  0.1405
 4408SOL    HW124683   3.500   2.129   4.786  1.7187  0.2685 -2.1931
 4408SOL    HW224684   3.593   2.070   4.883  0.6181  0.5372 -0.3633
 4409SOL     OW24685   1.287   4.514   2.875 -0.2934 -0.1877 -0.1778
 4409SOL    HW124686   1.254   4.546   2.791  1.2888  1.9919  0.0143
 4409SOL    HW224687   1.363   4.571   2.888 -0.3802 -0.0594 -0.2390
 4410SOL     OW24688   1.870   0.016  16.196 -0.1268 -0.1899  0.4829
 4410SOL    HW124689   1.822   4.700  16.123  0.7146 -0.9617  0.3407
 4410SOL    HW224690   1.908   4.658  16.231 -2.2667 -0.8232  1.3505
 4411SOL     OW24691   1.424   4.703  13.359 -0.1341  0.4918  0.0917
 4411SOL    HW124692   1.446   4.630  13.417 -0.8080  0.6556  0.5532
 4411SOL    HW224693   1.407   4.669  13.271  1.4977 -0.5911  0.2002
 4412SOL     OW24694   2.250   1.464  14.846  0.4977  0.7691  0.2850
 4412SOL    HW124695   2.263   1.475  14.941  2.7023 -1.2712  0.2234
 4412SOL    HW224696   2.322   1.406  14.821  0.4197 -0.2822  2.4999
 4413SOL     OW24697   3.985   3.938   5.416  0.0855  0.5259 -0.5253
 4413SOL    HW124698   4.052   3.920   5.351 -0.2535 -1.3360 -0.3630
 4413SOL    HW224699   3.975   4.032   5.400 -3.2650  0.3769  0.6036
 4414SOL     OW24700   4.151   1.406  10.432  0.1582  0.0311  0.1375
 4414SOL    HW124701   4.151   1.337  10.498 -1.2004 -1.8908 -1.8581
 4414SOL    HW224702   4.221   1.371  10.375 -0.3968 -2.1648  0.7959
 4415SOL     OW24703   1.014   2.502  14.107  0.1865 -0.5260 -0.2802
 4415SOL    HW124704   0.934   2.551  14.087  0.5941 -0.4174 -1.6329
 4415SOL    HW224705   1.036   2.551  14.186 -0.2792 -2.9737  1.3896
 4416SOL     OW24706   2.711   1.969   4.861  0.3803  0.6669  0.4909
 4416SOL    HW124707   2.743   1.918   4.787 -0.5720 -0.2443  0.7091
 4416SOL    HW224708   2.695   1.899   4.925  1.4975 -0.6067 -0.6258
 4417SOL     OW24709   0.615   1.138   6.784 -0.6914  0.2839 -0.0846
 4417SOL    HW124710   0.669   1.103   6.713 -3.5558 -2.1608 -1.0683
 4417SOL    HW224711   0.683   1.122   6.849  1.3440  0.5077 -2.1374
 4418SOL     OW24712   2.666   0.242  15.599 -0.0870  0.0135  0.4710
 4418SOL    HW124713   2.658   0.332  15.632  1.1533 -0.4787  2.1342
 4418SOL    HW224714   2.758   0.239  15.626  0.4600  2.0070 -1.1689
 4419SOL     OW24715   2.674   2.427  13.314 -0.2146  0.0857 -0.0683
 4419SOL    HW124716   2.741   2.364  13.340  0.4074  1.5950  1.9706
 4419SOL    HW224717   2.704   2.445  13.225 -2.6728 -1.2784 -1.1690
 4420SOL     OW24718   1.228   1.010  17.470  0.4003  0.5248  0.5059
 4420SOL    HW124719   1.287   1.074  17.510 -0.1478  0.6641  1.0879
 4420SOL    HW224720   1.189   1.064  17.402 -0.8300 -1.5359 -0.4241
 4421SOL     OW24721   4.568   4.157   5.943 -0.0231 -0.2198 -0.1612
 4421SOL    HW124722   4.597   4.187   5.857  0.5381  2.7568  1.0523
 4421SOL    HW224723   4.536   4.067   5.934 -0.9550  0.0773  0.1347
 4422SOL     OW24724   0.146   0.016   4.846  0.2413 -0.1766  0.6659
 4422SOL    HW124725   0.126   0.109   4.845 -1.8958 -0.6680 -2.2095
 4422SOL    HW224726   0.219   0.006   4.908 -0.2240  2.1337  1.5519
 4423SOL     OW24727   4.602   3.709   8.937  0.3245  0.2771 -0.3256
 4423SOL    HW124728   4.607   3.617   8.910  1.5641 -0.2477  1.6439
 4423SOL    HW224729   4.662   3.705   9.012  0.1266  0.2220 -0.1694
 4424SOL     OW24730   4.347   1.089   1.667 -0.1894 -0.0095 -0.1863
 4424SOL    HW124731   4.278   1.064   1.728  0.5606  0.5019  0.8578
 4424SOL    HW224732   4.420   1.047   1.712  1.0272  0.4744 -1.7019
 4425SOL     OW24733   1.937   1.335   8.958  0.0170 -0.5759  0.0593
 4425SOL    HW124734   1.895   1.412   8.998 -0.3929  0.5429 -2.5276
 4425SOL    HW224735   2.001   1.386   8.909  2.6824 -2.3083  1.7610
 4426SOL     OW24736   0.665   2.838  14.508 -0.4609 -0.0519  0.1858
 4426SOL    HW124737   0.628   2.839  14.596  0.0040 -1.0908  0.3881
 4426SOL    HW224738   0.730   2.909  14.519 -2.2535  1.1884  2.7078
 4427SOL     OW24739   0.197   0.032   6.092 -0.0170  0.1128  0.2745
 4427SOL    HW124740   0.137   4.682   6.101  1.6642 -1.2338  0.5791
 4427SOL    HW224741   0.154   0.104   6.139 -2.1055 -0.9666  0.0070
 4428SOL     OW24742   0.579   0.883   3.348 -0.7595  0.5536  0.2191
 4428SOL    HW124743   0.506   0.934   3.312 -1.6504 -0.7930  0.1118
 4428SOL    HW224744   0.573   0.906   3.441  0.3610 -1.9808  0.9209
 4429SOL     OW24745   3.730   0.146   1.671 -0.5364 -0.6099  0.0199
 4429SOL    HW124746   3.691   0.140   1.584  1.8220 -0.2213 -1.0710
 4429SOL    HW224747   3.690   0.066   1.703  0.4313 -0.3197  1.9728
 4430SOL     OW24748   3.550   2.003  11.919  0.4357  0.0365 -0.2210
 4430SOL    HW124749   3.509   2.087  11.897  1.0877  0.3487 -0.2637
 4430SOL    HW224750   3.500   1.952  11.982  1.5017  0.2053  0.7493
 4431SOL     OW24751   1.252   0.407  17.396 -0.5520  0.4913 -0.2019
 4431SOL    HW124752   1.234   0.337  17.459  2.2374  0.5703  0.6502
 4431SOL    HW224753   1.182   0.390  17.332 -0.5150  0.5964 -0.2694
 4432SOL     OW24754   0.109   4.014  10.698 -0.4214  0.3831  0.0359
 4432SOL    HW124755   0.043   3.953  10.664 -2.3140  2.1983  0.4617
 4432SOL    HW224756   0.055   4.083  10.737 -0.2952  1.1067 -1.0833
 4433SOL     OW24757   1.257   1.662  14.606 -0.1076 -0.1243 -0.4507
 4433SOL    HW124758   1.242   1.746  14.649  1.2277  0.4982 -1.1854
 4433SOL    HW224759   1.303   1.609  14.672 -1.3241 -3.2088 -2.1065
 4434SOL     OW24760   2.290   0.041   1.788  0.2349  0.2652  0.0964
 4434SOL    HW124761   2.252   0.088   1.714 -0.6921 -0.7002 -0.0498
 4434SOL    HW224762   2.221   4.701   1.810 -0.3004  0.7486 -0.1869
 4435SOL     OW24763   4.677   2.603   9.963  0.0373  0.1957 -0.1884
 4435SOL    HW124764   4.629   2.583   9.883  0.4157  1.3774 -0.7175
 4435SOL    HW224765   0.037   2.634   9.927 -0.6445  0.2195 -1.7211
 4436SOL     OW24766   2.810   2.009  11.637 -0.7813 -0.4130  0.6801
 4436SOL    HW124767   2.804   2.017  11.733  0.5553 -5.2420  1.1924
 4436SOL    HW224768   2.727   2.050  11.615 -0.9226 -0.1840  1.6320
 4437SOL     OW24769   2.328   0.089  17.419 -0.0473 -0.1272 -0.2906
 4437SOL    HW124770   2.341   0.003  17.459  1.8997  0.8210  1.1307
 4437SOL    HW224771   2.398   0.140  17.460 -0.8834  0.6387  0.1759
 4438SOL     OW24772   4.372   3.127  11.209 -0.1717  0.2251 -0.0697
 4438SOL    HW124773   4.396   3.081  11.290 -2.4380 -0.2462  0.3172
 4438SOL    HW224774   4.276   3.127  11.212 -0.1670 -0.3168  0.1575
 4439SOL     OW24775   2.276   3.562  17.478  0.3890 -0.3489  0.3010
 4439SOL    HW124776   2.348   3.509  17.512  1.5432  1.9080  1.4318
 4439SOL    HW224777   2.255   3.509  17.401  1.6367  1.4843 -1.3039
 4440SOL     OW24778   1.115   3.729   0.750  0.2635  0.3912 -1.2548
 4440SOL    HW124779   1.185   3.721   0.685  0.6823 -0.3409 -0.7116
 4440SOL    HW224780   1.140   3.816   0.780 -0.7319  0.4113 -0.4959
 4441SOL     OW24781   0.411   3.324  13.655 -0.1808  0.1638 -0.2472
 4441SOL    HW124782   0.349   3.272  13.706  2.1599  0.4618  2.9497
 4441SOL    HW224783   0.403   3.274  13.574 -0.7457 -1.0344  0.5606
 4442SOL     OW24784   3.625   0.724   4.065  0.1354 -0.5884 -0.0332
 4442SOL    HW124785   3.636   0.786   3.993  0.2153 -1.1081 -0.4675
 4442SOL    HW224786   3.682   0.763   4.132 -0.4943 -0.9250  0.6956
 4443SOL     OW24787   2.990   4.622   7.045 -0.2531 -0.5728 -0.0679
 4443SOL    HW124788   3.017   4.537   7.079 -0.8859 -0.3510  0.9761
 4443SOL    HW224789   3.050   4.680   7.093 -1.7991 -0.3794  1.5987
 4444SOL     OW24790   3.188   1.545  13.407 -0.1192  0.0230  0.6220
 4444SOL    HW124791   3.255   1.477  13.394 -0.1671  0.1770 -0.4014
 4444SOL    HW224792   3.155   1.542  13.317 -3.0322  1.6003  1.6314
 4445SOL     OW24793   2.650   0.258  11.016  0.1014 -0.0650 -0.1101
 4445SOL    HW124794   2.684   0.269  10.928  1.6467 -1.3725  0.3360
 4445SOL    HW224795   2.599   0.177  11.011  0.1660  0.0294 -2.3421
 4446SOL     OW24796   4.594   0.460  13.932 -0.3632 -0.1836  0.2493
 4446SOL    HW124797   4.543   0.530  13.972  2.3332  0.7073  2.1312
 4446SOL    HW224798   4.554   0.389  13.982  0.1862 -2.0968 -2.0434
 4447SOL     OW24799   2.072   0.169   6.848  0.4546 -0.0194 -0.2711
 4447SOL    HW124800   2.014   0.093   6.851  1.5615 -0.8777 -1.1237
 4447SOL    HW224801   2.134   0.160   6.920 -1.4436  0.3879  1.4271
 4448SOL     OW24802   0.303   4.646   5.051  0.4348  0.2047  0.0320
 4448SOL    HW124803   0.373   4.598   5.008 -1.3822 -1.7880 -0.6769
 4448SOL    HW224804   0.249   4.576   5.088  4.2545 -2.3227  0.7748
 4449SOL     OW24805   1.525   0.827   8.962 -0.2182 -0.0403 -0.3754
 4449SOL    HW124806   1.520   0.883   9.039 -0.3475  2.2835 -2.0574
 4449SOL    HW224807   1.438   0.787   8.966 -0.2126 -0.0464 -0.3156
 4450SOL     OW24808   4.719   1.547   5.271 -0.7783 -0.3600 -0.0735
 4450SOL    HW124809   0.014   1.453   5.283  0.0712 -0.3317 -1.1072
 4450SOL    HW224810   0.013   1.552   5.177  0.9469 -1.1023  0.1897
 4451SOL     OW24811   1.395   3.582   0.834 -0.1658 -0.0689  0.2796
 4451SOL    HW124812   1.347   3.569   0.753 -1.0624 -0.7675  0.9214
 4451SOL    HW224813   1.451   3.651   0.797 -0.3505 -0.0401  0.0547
 4452SOL     OW24814   4.187   0.974   8.085 -0.1067 -0.2205 -0.0332
 4452SOL    HW124815   4.194   0.880   8.103 -2.6524 -0.3675  0.1791
 4452SOL    HW224816   4.095   0.975   8.110 -0.4371  0.8891 -1.3032
 4453SOL     OW24817   2.648   1.170  14.949 -0.0200  0.0938  0.4384
 4453SOL    HW124818   2.701   1.189  15.026 -1.7837 -3.6616  2.5362
 4453SOL    HW224819   2.706   1.187  14.875  0.7829  0.6978  1.2172
 4454SOL     OW24820   0.284   2.142  12.018 -0.1043  0.1673  0.2672
 4454SOL    HW124821   0.337   2.099  11.951  0.4394  0.2942  0.6188
 4454SOL    HW224822   0.207   2.085  12.018 -0.0737  0.1330 -1.1378
 4455SOL     OW24823   2.449   1.631   1.670  0.1764  0.4452 -0.2785
 4455SOL    HW124824   2.358   1.659   1.676 -0.6283 -2.0677 -0.6857
 4455SOL    HW224825   2.491   1.672   1.745 -0.1327  1.3419 -0.6041
 4456SOL     OW24826   4.253   3.237  10.088 -0.3981 -0.3667 -0.3306
 4456SOL    HW124827   4.280   3.225   9.997 -1.0661  0.6568 -0.6652
 4456SOL    HW224828   4.321   3.187  10.134  0.6627  0.1079 -1.3885
 4457SOL     OW24829   2.944   1.123  12.332 -0.1503  0.3131  0.0874
 4457SOL    HW124830   3.018   1.110  12.390  0.2777  0.6742 -0.3758
 4457SOL    HW224831   2.873   1.067  12.364 -1.4502  1.9070  0.0368
 4458SOL     OW24832   4.475   0.826  16.859  0.1414 -0.5055 -0.4656
 4458SOL    HW124833   4.567   0.812  16.836 -0.3579 -0.7664 -2.2851
 4458SOL    HW224834   4.444   0.739  16.883  1.5039 -0.2286  2.4427
 4459SOL     OW24835   1.688   0.889   2.592  0.2487 -0.3802  0.2394
 4459SOL    HW124836   1.682   0.949   2.517 -1.2278  1.1034  1.5296
 4459SOL    HW224837   1.597   0.870   2.617  0.1029 -1.6758 -1.2933
 4460SOL     OW24838   3.245   1.835  15.475  0.3575 -0.1814  0.4881
 4460SOL    HW124839   3.299   1.888  15.416  0.3262 -1.7440 -0.9414
 4460SOL    HW224840   3.165   1.833  15.423  0.0027 -0.2144  1.0325
 4461SOL     OW24841   3.234   2.745  10.296 -0.2507 -0.6061 -0.4888
 4461SOL    HW124842   3.157   2.695  10.269  0.0040 -1.9036  1.1416
 4461SOL    HW224843   3.197   2.833  10.291 -0.1475 -0.4966  0.7121
 4462SOL     OW24844   0.546   2.126   4.315  0.3615  0.2259 -0.2204
 4462SOL    HW124845   0.598   2.104   4.392 -0.1262 -0.0459  0.0285
 4462SOL    HW224846   0.461   2.146   4.355 -1.1336 -1.7089 -2.4558
 4463SOL     OW24847   3.284   4.351   4.044 -0.1114  0.4178  0.3552
 4463SOL    HW124848   3.311   4.259   4.040 -0.3339  0.2265  3.2842
 4463SOL    HW224849   3.281   4.381   3.953  2.4818  1.1668  0.5149
 4464SOL     OW24850   3.670   3.776  16.621  0.4334 -0.1034  0.6921
 4464SOL    HW124851   3.578   3.754  16.638 -0.4524  1.4718 -1.9681
 4464SOL    HW224852   3.700   3.696  16.579 -1.1142 -0.5658  0.4679
 4465SOL     OW24853   2.675   3.931   3.379  0.2945 -0.6132 -0.0242
 4465SOL    HW124854   2.673   3.880   3.460 -2.2209  1.5271  1.2537
 4465SOL    HW224855   2.735   3.875   3.331 -3.0182 -2.8254 -1.5627
 4466SOL     OW24856   0.932   1.879   4.658  0.2144 -0.0101  0.1052
 4466SOL    HW124857   1.017   1.855   4.621 -0.1423 -1.8677  0.5022
 4466SOL    HW224858   0.963   1.945   4.719 -0.0346 -0.0898  0.3213
 4467SOL     OW24859   1.874   2.632  16.040  0.3188  0.2992 -0.1868
 4467SOL    HW124860   1.867   2.542  16.009 -0.5763  0.1571  0.4277
 4467SOL    HW224861   1.797   2.676  16.002 -0.0532 -0.0650  0.1542
 4468SOL     OW24862   3.504   3.580   6.926 -0.1918  0.7051  0.6217
 4468SOL    HW124863   3.503   3.659   6.873  0.0321 -0.0697 -0.5456
 4468SOL    HW224864   3.579   3.533   6.890  0.0151  0.4179  1.4292
 4469SOL     OW24865   2.900   4.190   2.479 -0.2800  0.8723 -0.2738
 4469SOL    HW124866   2.910   4.285   2.474 -1.2551  0.9481 -0.9228
 4469SOL    HW224867   2.989   4.166   2.503 -0.2025 -0.8360 -2.2002
 4470SOL     OW24868   3.546   4.154   8.108  0.1706 -0.3061  0.4431
 4470SOL    HW124869   3.471   4.148   8.048  0.1289  0.5271  0.4208
 4470SOL    HW224870   3.612   4.098   8.068 -0.9426 -0.9309 -0.5331
 4471SOL     OW24871   0.476   0.047   8.250  0.0615  0.3557  0.4684
 4471SOL    HW124872   0.517   0.069   8.333  0.2882  0.8717  0.2121
 4471SOL    HW224873   0.537   4.702   8.221 -0.8698 -1.3296  2.3806
 4472SOL     OW24874   3.811   0.015  14.975  0.4575  0.6443  0.1569
 4472SOL    HW124875   3.805   4.643  14.965 -0.4709  0.6918  0.3014
 4472SOL    HW224876   3.849   0.017  15.063  0.3971 -2.0728  0.2558
 4473SOL     OW24877   4.324   4.281  13.815  0.2157  0.1342  0.3020
 4473SOL    HW124878   4.250   4.291  13.755  0.5203  0.8396  0.0452
 4473SOL    HW224879   4.271   4.253  13.890 -2.2213 -1.6534 -2.1300
 4474SOL     OW24880   4.228   4.441   3.267 -0.9928  0.0967 -0.3105
 4474SOL    HW124881   4.270   4.372   3.215  2.1700 -0.3666  2.9117
 4474SOL    HW224882   4.153   4.462   3.210 -1.3284  2.5988  1.0706
 4475SOL     OW24883   2.528   4.441   7.299 -0.2421  0.0099  0.3056
 4475SOL    HW124884   2.433   4.456   7.295  0.0373  1.5237 -0.9117
 4475SOL    HW224885   2.556   4.532   7.304  2.4473 -0.7701 -0.6294
 4476SOL     OW24886   2.139   0.242   6.532 -0.5583 -0.2319 -0.0702
 4476SOL    HW124887   2.134   0.260   6.438  2.0865 -0.6336 -0.2764
 4476SOL    HW224888   2.063   0.189   6.556 -0.8017 -1.0058 -2.5972
 4477SOL     OW24889   1.134   1.251   2.885  0.8027  0.4920 -0.4521
 4477SOL    HW124890   1.045   1.285   2.880  0.3554 -0.8352 -1.4888
 4477SOL    HW224891   1.196   1.282   2.818  0.1081  1.9656 -0.4095
 4478SOL     OW24892   1.772   0.788  10.182 -0.5087  0.2040  0.0694
 4478SOL    HW124893   1.782   0.731  10.106  1.1565  0.1186  0.3501
 4478SOL    HW224894   1.819   0.737  10.248 -1.0176  1.1415  1.1572
 4479SOL     OW24895   4.250   3.609   5.208 -0.0787  0.0492 -0.2103
 4479SOL    HW124896   4.264   3.613   5.114  2.9875 -2.4239  0.1501
 4479SOL    HW224897   4.179   3.545   5.216 -0.4264  0.3077 -1.2648
 4480SOL     OW24898   4.313   0.466  12.973  0.0522  0.2736 -0.8147
 4480SOL    HW124899   4.379   0.406  13.007  0.9438  0.3137 -2.4959
 4480SOL    HW224900   4.238   0.414  13.001  0.7222 -0.1914  0.1161
 4481SOL     OW24901   1.489   0.589   6.309 -0.0326  0.1953 -0.2577
 4481SOL    HW124902   1.491   0.678   6.274 -0.0981 -0.1351 -1.1048
 4481SOL    HW224903   1.558   0.581   6.375  0.3665 -1.1833 -0.8404
 4482SOL     OW24904   4.604   1.964   4.092 -0.2647  0.5719  0.2373
 4482SOL    HW124905   4.530   1.981   4.150  0.1710 -0.6836  1.1799
 4482SOL    HW224906   4.592   2.042   4.038  1.8757 -0.2355 -1.4333
 4483SOL     OW24907   2.357   2.102  10.793  0.1726  0.4281  0.7641
 4483SOL    HW124908   2.353   2.104  10.697 -1.8780 -1.3901  0.8153
 4483SOL    HW224909   2.415   2.029  10.812  0.8629  0.2626 -1.8512
 4484SOL     OW24910   0.267   1.561   3.089 -0.4703 -0.2347  0.1928
 4484SOL    HW124911   0.202   1.630   3.103 -1.1390 -0.6920 -0.6818
 4484SOL    HW224912   0.239   1.503   3.160  1.5109 -0.0012  1.1667
 4485SOL     OW24913   3.588   0.224   6.060 -0.0184 -0.1085 -0.8378
 4485SOL    HW124914   3.595   0.212   5.966  1.9297 -0.2498 -0.6865
 4485SOL    HW224915   3.493   0.233   6.069  0.2828  1.7121  0.7259
 4486SOL     OW24916   2.061   0.187   2.689  0.0167 -0.1922  0.0173
 4486SOL    HW124917   2.050   0.236   2.771 -3.1583 -0.0756 -0.4728
 4486SOL    HW224918   2.124   0.120   2.716  0.0173 -0.2415 -0.1070
 4487SOL     OW24919   4.203   2.813   7.379  0.3429  0.2369 -0.5068
 4487SOL    HW124920   4.121   2.775   7.347  0.6179 -0.9311  0.2007
 4487SOL    HW224921   4.189   2.908   7.372 -2.0960 -0.0348  0.6964
 4488SOL     OW24922   1.958   2.754  17.513  0.0233  0.7549 -0.2625
 4488SOL    HW124923   1.921   2.842  17.506 -0.0195  0.5773 -2.2185
 4488SOL    HW224924   1.879   2.701  17.505  0.6951 -0.1081 -1.1351
 4489SOL     OW24925   3.453   2.712   2.200 -0.3033 -0.0013  0.4469
 4489SOL    HW124926   3.448   2.620   2.225 -2.2365  0.4057  1.5666
 4489SOL    HW224927   3.520   2.744   2.261 -0.5379 -0.9140  1.1750
 4490SOL     OW24928   1.876   0.301  10.382  0.0568 -0.1456 -0.5028
 4490SOL    HW124929   1.796   0.350  10.401 -1.0663 -1.8597 -0.7725
 4490SOL    HW224930   1.913   0.317  10.469 -4.6041 -0.3307  1.5347
 4491SOL     OW24931   1.205   3.509  12.791  0.8050 -0.4855  0.2449
 4491SOL    HW124932   1.279   3.557  12.753 -0.6219  0.4305 -1.3919
 4491SOL    HW224933   1.188   3.433  12.735 -2.1684  0.8066 -0.5730
 4492SOL     OW24934   3.765   2.029   3.284  0.8203  0.2437 -0.3720
 4492SOL    HW124935   3.845   2.016   3.233 -0.9988 -0.7400 -2.9788
 4492SOL    HW224936   3.732   1.939   3.279  0.3948  0.5224 -2.3785
 4493SOL     OW24937   1.060   3.422  10.636  0.4795 -0.2067 -0.8360
 4493SOL    HW124938   0.981   3.380  10.670 -0.1134  0.2548 -1.6587
 4493SOL    HW224939   1.064   3.401  10.543  1.3024  1.6690 -1.2392
 4494SOL     OW24940   0.958   2.126   2.451  0.2077 -0.4728  0.2735
 4494SOL    HW124941   0.938   2.155   2.362 -2.7278 -1.8211  0.5030
 4494SOL    HW224942   1.024   2.059   2.432 -0.2909 -0.7856 -0.3622
 4495SOL     OW24943   2.395   2.395   6.645  0.5824  0.7980 -0.3986
 4495SOL    HW124944   2.344   2.475   6.630  0.1432  0.6264  0.1413
 4495SOL    HW224945   2.348   2.334   6.588 -1.0745  0.2351  1.5264
 4496SOL     OW24946   3.878   2.769   7.333  0.0788 -0.1980  0.0052
 4496SOL    HW124947   3.832   2.740   7.254 -0.0487  2.2175 -0.7918
 4496SOL    HW224948   3.904   2.854   7.298  0.3179  0.3588  1.5614
 4497SOL     OW24949   2.214   4.613   6.673  0.1438 -0.1997  0.5266
 4497SOL    HW124950   2.184   4.565   6.596  0.2312 -1.8059  1.4937
 4497SOL    HW224951   2.167   4.566   6.742 -1.5129 -0.1951 -0.6145
 4498SOL     OW24952   0.495   0.229   8.042  0.0211 -0.6892 -0.4802
 4498SOL    HW124953   0.534   0.306   8.083 -0.1521 -0.4608 -0.7389
 4498SOL    HW224954   0.503   0.167   8.115 -0.4570 -0.0980  0.0694
 4499SOL     OW24955   3.165   1.485   4.516 -0.3656 -0.0707 -0.5461
 4499SOL    HW124956   3.218   1.408   4.535 -0.1327  0.7639  2.1869
 4499SOL    HW224957   3.209   1.520   4.438 -1.8721 -1.0568 -1.8346
 4500SOL     OW24958   4.278   1.808   6.742  0.0804  0.0318  1.0771
 4500SOL    HW124959   4.209   1.866   6.774  0.4784  0.3278  1.4096
 4500SOL    HW224960   4.280   1.826   6.648  3.1413 -0.1404  1.0998
 4501SOL     OW24961   4.317   1.606   4.320  0.0131  0.0460  0.1084
 4501SOL    HW124962   4.401   1.630   4.280  1.4415 -4.6639  0.3069
 4501SOL    HW224963   4.340   1.517   4.346  0.1059 -0.1344 -0.6158
 4502SOL     OW24964   0.444   4.189  16.491 -0.3962 -0.0394 -0.5166
 4502SOL    HW124965   0.464   4.098  16.471  0.5495 -0.1240  0.8220
 4502SOL    HW224966   0.528   4.235  16.485 -1.9802  2.9214  0.1794
 4503SOL     OW24967   1.438   2.553   7.774  0.0088  0.2828  0.0093
 4503SOL    HW124968   1.415   2.617   7.842  5.1732  0.6819  1.4134
 4503SOL    HW224969   1.427   2.600   7.691  1.4999  1.5792  0.5300
 4504SOL     OW24970   0.280   4.660   1.634 -0.0358 -0.5505  0.2833
 4504SOL    HW124971   0.241   4.573   1.629 -1.4526  0.1796 -1.1479
 4504SOL    HW224972   0.201   4.712   1.643  0.1760 -0.4630  1.7056
 4505SOL     OW24973   2.525   4.665   9.466 -0.9338  0.3634 -0.1643
 4505SOL    HW124974   2.434   4.694   9.455 -0.3252  1.9978 -0.8986
 4505SOL    HW224975   2.520   4.571   9.484  0.6845  0.2159 -0.4453
 4506SOL     OW24976   0.352   3.821   7.114  0.1895  0.6389 -0.0652
 4506SOL    HW124977   0.349   3.727   7.135  0.7667  0.9671  1.4545
 4506SOL    HW224978   0.259   3.839   7.117  0.5009  1.9056  1.8320
 4507SOL     OW24979   1.191   0.479   6.144  0.2525  0.7880  0.4985
 4507SOL    HW124980   1.188   0.565   6.185  0.2908  1.0733 -0.0945
 4507SOL    HW224981   1.214   0.503   6.054 -0.5179 -1.3839 -0.2694
 4508SOL     OW24982   0.888   1.734   3.821 -0.0601  0.2417  0.4676
 4508SOL    HW124983   0.868   1.682   3.899  0.5548  0.2786  0.6563
 4508SOL    HW224984   0.847   1.689   3.748 -1.2886 -0.1688  1.4196
 4509SOL     OW24985   3.770   2.436   2.347  0.3460  0.3885  0.2766
 4509SOL    HW124986   3.789   2.364   2.286  0.1400  2.5017 -2.2669
 4509SOL    HW224987   3.822   2.414   2.425 -2.4846  1.7972  2.5629
 4510SOL     OW24988   1.514   2.296   2.290 -0.1430 -0.2853  0.4850
 4510SOL    HW124989   1.433   2.346   2.303 -0.1938  0.1795 -1.4890
 4510SOL    HW224990   1.558   2.326   2.369  2.1602 -1.3574 -0.3785
 4511SOL     OW24991   4.537   0.076   1.023 -0.2992  0.3511 -0.5018
 4511SOL    HW124992   4.502   0.134   1.090  0.5161  0.3193 -0.0477
 4511SOL    HW224993   4.451   0.060   0.985 -1.8158  0.6623  2.8154
 4512SOL     OW24994   2.548   4.667  16.917 -0.1314  0.0720  0.3050
 4512SOL    HW124995   2.497   4.662  16.837 -1.1740 -1.0487  1.0519
 4512SOL    HW224996   2.483   4.686  16.984  0.5952  2.3483  0.3882
 4513SOL     OW24997   2.981   1.380  11.821 -0.4832  0.0525  0.0106
 4513SOL    HW124998   2.944   1.328  11.749 -2.3002 -1.3297  1.9589
 4513SOL    HW224999   3.073   1.355  11.826 -0.2640  1.0971  1.0486
 4514SOL     OW25000   0.618   1.500   7.675 -0.6144  0.4244  0.1491
 4514SOL    HW125001   0.539   1.475   7.627 -1.6551  1.7533  1.1570
 4514SOL    HW225002   0.629   1.423   7.731  1.6296 -1.1243 -2.4868
 4515SOL     OW25003   2.389   1.621   4.032  0.2127 -0.4683 -0.0453
 4515SOL    HW125004   2.396   1.703   4.081 -3.5312 -1.1663  1.6939
 4515SOL    HW225005   2.323   1.638   3.965 -2.2277 -0.2072  2.3834
 4516SOL     OW25006   4.163   2.689   4.557  0.3421  0.6447  0.8124
 4516SOL    HW125007   4.087   2.738   4.589  1.0336  1.5926  0.9681
 4516SOL    HW225008   4.134   2.654   4.472 -0.1628  2.5026  0.2348
 4517SOL     OW25009   2.791   3.969   1.603  0.5927 -0.3758 -0.3973
 4517SOL    HW125010   2.820   3.948   1.514  0.3718  1.2169 -0.8452
 4517SOL    HW225011   2.851   4.042   1.616 -0.7897  1.1217 -2.4978
 4518SOL     OW25012   1.575   2.077   1.121 -0.1033  0.4370 -0.3385
 4518SOL    HW125013   1.533   2.000   1.159  2.4757 -1.5359 -1.4472
 4518SOL    HW225014   1.561   2.141   1.191  0.4116 -0.7216  0.8206
 4519SOL     OW25015   2.933   1.812   4.450 -0.0900  0.4872 -0.0973
 4519SOL    HW125016   2.968   1.885   4.399 -1.0303  0.9577 -0.0693
 4519SOL    HW225017   2.845   1.793   4.419  0.5072 -0.5212 -1.1484
 4520SOL     OW25018   1.772   3.524  16.312 -0.3520 -0.1034  0.0930
 4520SOL    HW125019   1.807   3.470  16.383 -1.8232 -0.6078  0.4426
 4520SOL    HW225020   1.711   3.472  16.260  0.3875 -1.4521  0.5954
 4521SOL     OW25021   1.775   3.001   7.851  0.0278  0.5186 -0.6545
 4521SOL    HW125022   1.772   2.905   7.852 -0.7512  0.5773  2.4131
 4521SOL    HW225023   1.845   3.013   7.915 -0.2735 -1.9418  0.1431
 4522SOL     OW25024   2.159   3.581   4.512 -0.0202  0.0727 -0.0983
 4522SOL    HW125025   2.198   3.564   4.426 -1.1089 -1.7479 -0.2503
 4522SOL    HW225026   2.196   3.513   4.569 -0.0557 -0.5806 -0.8443
 4523SOL     OW25027   2.913   3.130   1.103 -0.4485 -0.9938 -0.1206
 4523SOL    HW125028   2.977   3.077   1.055 -0.2795 -1.0589  0.1747
 4523SOL    HW225029   2.941   3.221   1.088 -0.3026 -1.0069  0.0709
 4524SOL     OW25030   3.213   1.768   9.368 -0.3408  0.2932 -0.2800
 4524SOL    HW125031   3.177   1.833   9.307  0.3949  1.3553  0.4110
 4524SOL    HW225032   3.159   1.690   9.354 -0.1298 -0.2998  2.1876
 4525SOL     OW25033   4.619   0.913   4.419 -0.2167 -0.4268 -0.5846
 4525SOL    HW125034   4.695   0.856   4.434 -0.4117  0.0423  2.3182
 4525SOL    HW225035   4.558   0.887   4.488  0.0864  0.4595  0.0306
 4526SOL     OW25036   3.637   2.726  14.565 -0.5760  0.2078 -0.0769
 4526SOL    HW125037   3.656   2.781  14.488 -1.0692 -1.9701 -1.7547
 4526SOL    HW225038   3.709   2.754  14.622  0.7896 -0.0248 -1.6804
 4527SOL     OW25039   2.657   1.739   1.044  0.1469 -0.0318  0.1885
 4527SOL    HW125040   2.622   1.651   1.060  3.4387 -1.8938 -2.8715
 4527SOL    HW225041   2.583   1.800   1.050  1.1653  1.0760  1.5272
 4528SOL     OW25042   0.084   4.150   8.366 -0.1690 -0.2802 -0.2129
 4528SOL    HW125043   0.096   4.058   8.390  0.1941  0.0594  0.9272
 4528SOL    HW225044   0.129   4.148   8.282  0.1608 -0.1368 -0.0405
 4529SOL     OW25045   0.768   1.548   2.421 -0.1508 -0.0082  0.1869
 4529SOL    HW125046   0.787   1.550   2.328 -1.3121  0.9787 -0.0312
 4529SOL    HW225047   0.795   1.458   2.436  0.1742  0.0747  0.1003
 4530SOL     OW25048   1.773   4.336   1.197  0.2742  0.3117  0.1592
 4530SOL    HW125049   1.731   4.357   1.280  0.2191 -0.1621  0.2536
 4530SOL    HW225050   1.704   4.298   1.144  0.3101 -0.7208  0.8358
 4531SOL     OW25051   3.623   3.055  14.159 -0.4455 -0.3391  0.3434
 4531SOL    HW125052   3.592   3.064  14.069 -0.9000  2.8140  0.8288
 4531SOL    HW225053   3.650   3.143  14.185 -0.7369 -0.5738  1.4553
 4532SOL     OW25054   0.417   0.666   4.165  0.4402 -0.6300  0.0420
 4532SOL    HW125055   0.395   0.666   4.072  1.2281  2.4339 -0.1695
 4532SOL    HW225056   0.490   0.604   4.164  0.3505 -0.7485  0.7713
 4533SOL     OW25057   2.860   0.649  17.046  0.4747  0.0003 -0.2676
 4533SOL    HW125058   2.939   0.635  17.099  0.9760 -1.0883 -1.3214
 4533SOL    HW225059   2.849   0.744  17.038  1.5873  0.2486  1.0031
 4534SOL     OW25060   2.849   1.988  12.165 -0.2616  0.1263 -0.2414
 4534SOL    HW125061   2.901   1.912  12.189 -0.9224 -1.1152 -2.8014
 4534SOL    HW225062   2.917   2.055  12.161  0.0799 -0.3716 -2.5080
 4535SOL     OW25063   4.304   0.921   3.346  0.6436  0.0310  0.1376
 4535SOL    HW125064   4.333   0.836   3.380 -1.1568 -1.3264 -1.7094
 4535SOL    HW225065   4.215   0.892   3.329  0.7389 -0.4046  0.3602
 4536SOL     OW25066   1.825   3.081   8.951 -0.2992 -0.1568 -0.3693
 4536SOL    HW125067   1.891   3.070   8.883 -1.5690  0.3550 -1.6677
 4536SOL    HW225068   1.805   3.174   8.947 -0.0229  0.0248  2.0685
 4537SOL     OW25069   3.227   2.624   3.016 -0.2534  0.1964 -0.5515
 4537SOL    HW125070   3.138   2.615   2.981 -0.6785 -1.0016  0.8121
 4537SOL    HW225071   3.277   2.650   2.939  0.0360  0.9304 -0.1112
 4538SOL     OW25072   1.261   4.397   5.166  0.3201  0.3738 -0.3925
 4538SOL    HW125073   1.268   4.368   5.256  2.6859  3.0866  0.2959
 4538SOL    HW225074   1.353   4.404   5.140  1.0348 -0.2615  1.9561
 4539SOL     OW25075   2.478   2.707  15.766  0.1341  0.6704 -0.9511
 4539SOL    HW125076   2.468   2.790  15.721  0.3070  0.4483 -1.3980
 4539SOL    HW225077   2.411   2.652  15.725  0.0600  1.6082 -2.0733
 4540SOL     OW25078   0.411   0.627   9.884 -0.4385 -0.0374 -0.0219
 4540SOL    HW125079   0.503   0.614   9.905 -0.7899 -2.1801  0.2150
 4540SOL    HW225080   0.365   0.591   9.959 -0.4623  1.4912  0.6901
 4541SOL     OW25081   0.568   3.036   4.086  0.6184  0.3480 -0.3793
 4541SOL    HW125082   0.604   3.007   4.170 -2.8947 -1.0180  0.6528
 4541SOL    HW225083   0.643   3.042   4.027  1.1341  3.9857  0.6523
 4542SOL     OW25084   2.228   3.400   4.711  0.5547 -0.0062  0.4944
 4542SOL    HW125085   2.212   3.400   4.805  0.4737  4.4615  0.4698
 4542SOL    HW225086   2.292   3.329   4.708  0.8320  0.3400 -1.8668
 4543SOL     OW25087   1.481   1.980   7.309  0.0028 -0.4982  0.2222
 4543SOL    HW125088   1.510   2.065   7.345 -0.6642  0.4301 -1.4483
 4543SOL    HW225089   1.412   1.978   7.376  0.5485 -3.2782  0.6687
 4544SOL     OW25090   0.163   4.515   9.916  0.3004 -0.1140 -0.4324
 4544SOL    HW125091   0.070   4.492   9.914  0.1110  0.5973  0.3909
 4544SOL    HW225092   0.156   4.580   9.846 -0.3507  0.7475  0.4456
 4545SOL     OW25093   2.030   4.701   7.160 -1.0162 -0.3858  0.0211
 4545SOL    HW125094   1.967   4.699   7.089  0.0917  0.7235 -0.9761
 4545SOL    HW225095   2.018   0.071   7.181 -1.8301 -1.2807  3.5672
 4546SOL     OW25096   0.359   4.129   7.507  0.5018  0.1822  0.0518
 4546SOL    HW125097   0.347   4.164   7.595 -1.2501 -1.7051  0.5399
 4546SOL    HW225098   0.343   4.037   7.524 -1.1775  0.6739  1.1194
 4547SOL     OW25099   4.301   0.355   4.050  0.0191  0.2161  0.2002
 4547SOL    HW125100   4.297   0.259   4.044  0.0484  0.3521 -1.9428
 4547SOL    HW225101   4.376   0.366   3.991  0.6130 -2.4915  0.4217
 4548SOL     OW25102   0.330   2.841   6.739  0.2789  0.0539  0.4492
 4548SOL    HW125103   0.235   2.852   6.742  0.1850 -1.2277  2.1598
 4548SOL    HW225104   0.352   2.853   6.831  1.2955  2.0602 -0.0656
 4549SOL     OW25105   1.832   3.896   8.652  0.0540  0.1911 -0.6495
 4549SOL    HW125106   1.770   3.936   8.590 -0.2150 -0.2608 -0.6745
 4549SOL    HW225107   1.901   3.962   8.641  1.3217 -0.9837  0.3921
 4550SOL     OW25108   2.215   3.466   9.059 -0.5471  0.4584  0.2679
 4550SOL    HW125109   2.166   3.391   9.093  0.5659 -0.6441 -0.5577
 4550SOL    HW225110   2.291   3.423   9.021 -0.7091  0.2702  0.1562
 4551SOL     OW25111   3.402   4.117  12.259 -0.1353  0.4386  0.0640
 4551SOL    HW125112   3.353   4.198  12.245  1.1107  1.5356  2.1005
 4551SOL    HW225113   3.487   4.156  12.282 -0.2673 -0.8038  2.6229
 4552SOL     OW25114   3.507   1.430   4.040 -0.3272  0.0203 -0.2173
 4552SOL    HW125115   3.573   1.496   4.019 -1.7237  0.5876 -2.7859
 4552SOL    HW225116   3.516   1.380   3.959 -0.4866 -2.2991  1.1822
 4553SOL     OW25117   4.650   1.168   6.980  0.6539  0.3449 -0.0506
 4553SOL    HW125118   4.648   1.228   6.905 -0.6581  2.5492  1.7598
 4553SOL    HW225119   4.680   1.096   6.925  2.0205 -0.4698  1.7646
 4554SOL     OW25120   3.367   3.587   7.585  0.6385  0.4845 -0.5346
 4554SOL    HW125121   3.442   3.613   7.532 -0.2282 -0.5311 -2.2564
 4554SOL    HW225122   3.408   3.575   7.670 -0.9535  0.0983  0.1867
 4555SOL     OW25123   0.477   1.595   5.439 -0.6593 -0.6919 -0.1793
 4555SOL    HW125124   0.445   1.581   5.351 -0.8223  1.7758 -0.4861
 4555SOL    HW225125   0.399   1.562   5.483 -0.8041 -0.9742 -0.6547
 4556SOL     OW25126   4.721   4.095   2.496 -0.3849  0.1397 -1.0943
 4556SOL    HW125127   4.663   4.023   2.470 -1.0032  1.0430 -2.2291
 4556SOL    HW225128   4.708   4.089   2.591 -0.9527 -0.0625 -1.1872
 4557SOL     OW25129   1.532   4.007   8.875 -0.0379  0.4473 -0.0536
 4557SOL    HW125130   1.535   3.911   8.880  1.7262  0.5554  0.8207
 4557SOL    HW225131   1.608   4.054   8.910  0.2933  0.4099 -0.7237
 4558SOL     OW25132   0.131   2.446   4.465 -0.3377  0.1812  0.1668
 4558SOL    HW125133   0.056   2.398   4.500  2.4907 -3.3502  1.4078
 4558SOL    HW225134   0.127   2.426   4.372 -0.5780  1.5456 -0.1234
 4559SOL     OW25135   2.180   3.993  15.734 -0.1129  0.4891 -0.0900
 4559SOL    HW125136   2.167   4.064  15.672  2.2273  0.2044 -0.9117
 4559SOL    HW225137   2.224   3.938  15.670 -0.6421  0.4401 -0.4115
 4560SOL     OW25138   1.049   2.852  14.476  0.2581  0.4715  0.0074
 4560SOL    HW125139   0.996   2.882  14.549  1.5507  1.7620  0.4032
 4560SOL    HW225140   1.087   2.935  14.449  3.1990 -1.0086 -0.4049
 4561SOL     OW25141   1.680   2.224   2.018 -0.3090 -0.7937  0.1682
 4561SOL    HW125142   1.687   2.319   2.032 -0.8376 -0.7881  0.3956
 4561SOL    HW225143   1.667   2.228   1.923  0.0541  0.7426  0.1742
 4562SOL     OW25144   4.156   3.818   6.389  0.3725 -0.0424 -0.4398
 4562SOL    HW125145   4.143   3.769   6.308 -1.1017 -2.4368  1.2574
 4562SOL    HW225146   4.204   3.893   6.352  1.5351  0.2828  1.6750
 4563SOL     OW25147   0.177   1.536  11.326  0.4659  0.4698  0.0849
 4563SOL    HW125148   0.221   1.572  11.249  0.3084 -0.8992 -0.6437
 4563SOL    HW225149   0.101   1.489  11.289  0.9589 -0.2652  0.0055
 4564SOL     OW25150   3.382   1.786   8.473  0.0133  0.2872  0.2128
 4564SOL    HW125151   3.441   1.716   8.500  1.1182  1.3014  0.4098
 4564SOL    HW225152   3.300   1.738   8.470  1.2456 -1.8388  0.7072
 4565SOL     OW25153   3.672   3.112   6.263 -0.4948  0.9532 -0.1852
 4565SOL    HW125154   3.746   3.063   6.225 -0.2536  0.4269  0.9473
 4565SOL    HW225155   3.679   3.185   6.202  2.0001  0.2113 -0.8133
 4566SOL     OW25156   1.774   2.815   3.544  0.3904  0.0063 -0.2323
 4566SOL    HW125157   1.759   2.878   3.474 -0.7042  0.3910  0.3352
 4566SOL    HW225158   1.868   2.803   3.535  1.0127  2.1645  3.3448
 4567SOL     OW25159   4.089   3.410   7.066  0.3094  0.3473 -0.8909
 4567SOL    HW125160   4.152   3.353   7.022  0.9948  1.4704 -1.3350
 4567SOL    HW225161   4.111   3.498   7.036  1.9998 -0.0609 -0.8809
 4568SOL     OW25162   4.501   1.581   5.004 -0.2224  0.2599  0.0209
 4568SOL    HW125163   4.535   1.495   5.030  0.2667 -0.9049 -4.4883
 4568SOL    HW225164   4.483   1.623   5.088  0.4392  1.6696 -0.5244
 4569SOL     OW25165   1.497   4.461   0.854 -0.3233  0.8915  0.0096
 4569SOL    HW125166   1.418   4.488   0.899 -0.4144 -0.2987  0.5492
 4569SOL    HW225167   1.548   4.542   0.844  2.3542 -1.1381 -2.9315
 4570SOL     OW25168   2.056   4.613   1.864  0.3250  0.0509 -0.0772
 4570SOL    HW125169   2.072   4.621   1.958  0.3797 -0.7293 -0.0220
 4570SOL    HW225170   1.980   4.671   1.864  0.3199  0.0399  1.2668
 4571SOL     OW25171   4.672   1.722  16.529 -0.4515 -0.5683  0.7536
 4571SOL    HW125172   4.614   1.722  16.454  0.8815  0.3168 -0.2903
 4571SOL    HW225173   4.611   1.716  16.603 -0.8444  3.4430  0.7984
 4572SOL     OW25174   2.382   1.602   7.265  0.1050  0.4199  0.0576
 4572SOL    HW125175   2.339   1.519   7.242 -0.8836  1.5233 -2.1048
 4572SOL    HW225176   2.348   1.610   7.353  0.7151  3.0553  0.0535
 4573SOL     OW25177   3.602   2.524   5.953  0.0813  0.0062  0.4625
 4573SOL    HW125178   3.525   2.522   5.896  0.8403 -0.9600 -0.5119
 4573SOL    HW225179   3.569   2.584   6.021 -1.8151 -1.2986  0.6848
 4574SOL     OW25180   3.373   3.599   4.478 -0.0340 -0.0224 -0.5000
 4574SOL    HW125181   3.364   3.580   4.385  1.4582  1.3149 -0.9259
 4574SOL    HW225182   3.303   3.661   4.496  0.3461  0.3537 -0.2962
 4575SOL     OW25183   3.361   3.245   7.113  0.0815  0.1678  0.3383
 4575SOL    HW125184   3.292   3.290   7.064 -0.9695 -1.1854  0.5563
 4575SOL    HW225185   3.425   3.224   7.045 -0.9123 -1.3814 -0.1405
 4576SOL     OW25186   0.210   0.379  16.300  0.2205  0.3867  0.4286
 4576SOL    HW125187   0.156   0.379  16.380 -2.2622  2.2016 -1.2440
 4576SOL    HW225188   0.150   0.399  16.228 -0.7936 -0.6943  0.9712
 4577SOL     OW25189   3.886   0.129  16.312  0.2679  0.1766 -0.4074
 4577SOL    HW125190   3.884   0.045  16.267  0.6245 -0.8887  1.5540
 4577SOL    HW225191   3.854   0.102  16.398  2.1305 -1.2638 -0.1667
 4578SOL     OW25192   0.111   4.295   9.651 -0.3252 -0.3626  0.5074
 4578SOL    HW125193   0.183   4.283   9.713 -0.1866 -0.5635  0.3082
 4578SOL    HW225194   0.082   4.205   9.637  1.2809 -0.9283  0.7682
 4579SOL     OW25195   1.070   4.056   4.909 -0.0059 -0.0759  0.2884
 4579SOL    HW125196   1.164   4.037   4.911 -0.0599 -0.4320 -0.8007
 4579SOL    HW225197   1.028   4.008   4.981 -1.7011  1.5645  0.3938
 4580SOL     OW25198   4.384   2.694   1.514 -0.2616  0.2674  0.2014
 4580SOL    HW125199   4.459   2.748   1.540 -0.1267  0.5156 -0.6932
 4580SOL    HW225200   4.372   2.638   1.590  1.8315 -1.3614 -0.7008
 4581SOL     OW25201   0.287   3.011   2.044 -0.8357 -0.0993 -0.5798
 4581SOL    HW125202   0.320   3.035   2.131 -0.7694 -0.1523 -0.5900
 4581SOL    HW225203   0.357   3.041   1.987 -0.4433  0.8371  0.3979
 4582SOL     OW25204   3.122   3.401   7.328 -0.2516 -0.0356 -0.3177
 4582SOL    HW125205   3.075   3.322   7.300 -0.6954  0.1134  0.0019
 4582SOL    HW225206   3.208   3.363   7.345  1.5307  2.4500 -3.6413
 4583SOL     OW25207   1.466   2.652   6.368 -0.0568  0.6415 -0.1218
 4583SOL    HW125208   1.466   2.612   6.281 -0.2669 -2.5418  1.3379
 4583SOL    HW225209   1.469   2.743   6.341  3.3527  0.9894  1.3341
 4584SOL     OW25210   0.794   3.462   2.996  0.2636  0.1552 -0.2684
 4584SOL    HW125211   0.878   3.439   2.955  0.9152 -0.2183  1.2795
 4584SOL    HW225212   0.817   3.537   3.051  0.8981  0.9936 -1.6706
 4585SOL     OW25213   4.594   0.287   1.373 -0.3929 -0.1409 -0.6256
 4585SOL    HW125214   4.549   0.311   1.292  0.2336 -0.9616 -1.2173
 4585SOL    HW225215   4.687   0.273   1.355 -0.6281 -0.5354 -1.4911
 4586SOL     OW25216   3.260   3.333   7.655 -0.2631 -0.0830  0.1080
 4586SOL    HW125217   3.269   3.282   7.575  2.6318 -1.2457  1.1484
 4586SOL    HW225218   3.333   3.394   7.645 -0.4418 -0.4042 -2.9710
 4587SOL     OW25219   2.648   4.008  16.837  0.2275  0.3463 -0.1431
 4587SOL    HW125220   2.572   3.966  16.878 -1.5143  0.5090 -3.1999
 4587SOL    HW225221   2.626   4.014  16.744 -1.0018  2.5693  0.2724
 4588SOL     OW25222   1.242   0.432   8.292 -0.0088  0.2325  0.0439
 4588SOL    HW125223   1.309   0.363   8.290  0.6310  0.8001  1.8203
 4588SOL    HW225224   1.170   0.387   8.249 -0.8355  0.8686  0.7726
 4589SOL     OW25225   2.304   3.480   6.366  0.3125  0.4370 -0.6147
 4589SOL    HW125226   2.253   3.507   6.442  0.2660 -1.3379 -0.0188
 4589SOL    HW225227   2.287   3.551   6.304 -0.9290  0.4959 -0.1912
 4590SOL     OW25228   3.935   0.653  11.304 -0.1098  0.0001  0.6889
 4590SOL    HW125229   3.896   0.570  11.275  0.2698 -0.2520  0.8931
 4590SOL    HW225230   3.870   0.702  11.353  0.6117  1.6264  0.0217
 4591SOL     OW25231   4.619   3.607   5.003  0.3464  0.5898 -0.1653
 4591SOL    HW125232   4.555   3.575   4.939 -1.9682 -0.1201  2.4906
 4591SOL    HW225233   4.663   3.683   4.965  1.0232  0.3266  0.0827
 4592SOL     OW25234   2.778   2.634   3.238 -0.1707  0.2631  0.4368
 4592SOL    HW125235   2.761   2.618   3.145 -1.3835  0.1123  0.6846
 4592SOL    HW225236   2.794   2.729   3.234 -1.9151  0.5959  1.2256
 4593SOL     OW25237   3.972   3.371   2.146  0.0639 -0.3705  0.1247
 4593SOL    HW125238   3.931   3.373   2.060  0.0109  0.8897  0.1785
 4593SOL    HW225239   3.912   3.314   2.194 -1.6907  1.7125  0.3678
 4594SOL     OW25240   4.207   4.025  10.462  0.3200  0.8869  0.8219
 4594SOL    HW125241   4.268   3.974  10.516 -0.1399 -1.1089 -0.5734
 4594SOL    HW225242   4.203   4.102  10.519 -2.1988  1.9851 -0.8263
 4595SOL     OW25243   4.067   3.427   5.281  0.4188  0.4654  0.1620
 4595SOL    HW125244   4.021   3.437   5.364  3.1912  3.0599  1.4028
 4595SOL    HW225245   4.019   3.350   5.252 -2.4032  2.2505  0.0736
 4596SOL     OW25246   2.116   0.853  14.627 -0.1861 -0.1863  0.0228
 4596SOL    HW125247   2.181   0.809  14.573 -0.3481  0.0959 -0.3984
 4596SOL    HW225248   2.137   0.808  14.710 -2.3499 -1.7328 -0.2546
 4597SOL     OW25249   2.458   1.557   6.600  0.3532 -0.4472  0.1718
 4597SOL    HW125250   2.452   1.595   6.513 -0.5197  1.0907  0.8966
 4597SOL    HW225251   2.514   1.480   6.589  0.5563 -0.5704  1.9977
 4598SOL     OW25252   3.908   2.828   0.109  0.1844 -0.0811  0.0063
 4598SOL    HW125253   3.944   2.812   0.197 -0.0036 -0.5916 -0.0077
 4598SOL    HW225254   3.960   2.902   0.076  2.7040 -1.7932  0.0831
 4599SOL     OW25255   3.832   4.245   5.696 -0.1814 -0.5890 -0.6222
 4599SOL    HW125256   3.902   4.276   5.639 -1.0646  0.8920 -0.8939
 4599SOL    HW225257   3.790   4.324   5.729  0.3763 -1.2269  1.6140
 4600SOL     OW25258   1.501   2.037   3.356 -0.5259  0.4021 -0.0993
 4600SOL    HW125259   1.488   2.067   3.446 -0.2625 -0.0950  0.1039
 4600SOL    HW225260   1.595   2.019   3.357  0.0265  3.2969 -0.3401
 4601SOL     OW25261   4.042   1.513   7.977 -0.5809  0.0115  0.3604
 4601SOL    HW125262   4.015   1.605   7.979  0.8242  0.4135  0.6355
 4601SOL    HW225263   4.013   1.496   8.067 -1.1149 -1.3212 -0.0651
 4602SOL     OW25264   1.775   2.943  17.476  0.2590 -0.2600  0.1308
 4602SOL    HW125265   1.702   2.982  17.523 -0.3593 -0.2172 -0.8814
 4602SOL    HW225266   1.807   3.006  17.411  0.4011  0.0694  0.5139
 4603SOL     OW25267   2.228   2.238   7.182 -0.0200 -0.2066  0.4217
 4603SOL    HW125268   2.255   2.185   7.257  1.4008 -0.7708 -0.4825
 4603SOL    HW225269   2.162   2.297   7.219 -0.5739 -1.9690  2.2634
 4604SOL     OW25270   2.619   0.991   1.345  0.3192  0.1369 -0.0735
 4604SOL    HW125271   2.556   0.920   1.335  1.6968 -0.7441 -2.5164
 4604SOL    HW225272   2.567   1.061   1.383 -3.2049 -1.2721 -2.4002
 4605SOL     OW25273   3.545   1.541   3.460 -0.1021  1.0346  0.8049
 4605SOL    HW125274   3.640   1.537   3.472 -0.0683  2.3875  1.0077
 4605SOL    HW225275   3.528   1.616   3.403 -2.3492 -0.3264 -0.2876
 4606SOL     OW25276   1.724   2.048   4.005  0.2872  0.0798 -0.6227
 4606SOL    HW125277   1.819   2.054   4.012  0.1628  2.5211 -1.1014
 4606SOL    HW225278   1.719   1.955   3.983  1.9848  0.3019 -1.8934
 4607SOL     OW25279   0.105   0.167   6.814  0.3589 -0.2596 -0.0284
 4607SOL    HW125280   0.192   0.206   6.810 -1.0890  3.1621  1.3992
 4607SOL    HW225281   0.055   0.225   6.756  1.1615  0.0297 -0.4358
 4608SOL     OW25282   2.622   0.948  14.571  0.7672 -0.6420  0.4817
 4608SOL    HW125283   2.692   0.885  14.559  2.3868  0.6863  2.9306
 4608SOL    HW225284   2.573   0.933  14.490  1.9465 -0.0742 -0.3294
 4609SOL     OW25285   1.199   3.287   8.445  0.3512  0.3895  0.2072
 4609SOL    HW125286   1.217   3.302   8.352  1.3892  0.2240  0.3756
 4609SOL    HW225287   1.274   3.233   8.470 -1.3513 -1.9198  0.2934
 4610SOL     OW25288   2.998   2.435   6.694 -0.1918  0.5050 -0.2029
 4610SOL    HW125289   3.035   2.521   6.711 -1.2172  0.9259 -0.0617
 4610SOL    HW225290   2.915   2.439   6.741  0.3175  0.5573  0.6925
 4611SOL     OW25291   3.959   3.265  12.751 -0.1493  1.1116 -0.6345
 4611SOL    HW125292   3.907   3.200  12.704  0.7674  1.1958 -1.7580
 4611SOL    HW225293   3.890   3.327  12.776 -0.3827 -0.3583  2.3200
 4612SOL     OW25294   3.031   1.936   8.148  0.4300 -0.0558 -0.2539
 4612SOL    HW125295   2.968   1.997   8.109 -1.2249 -0.7586  1.2773
 4612SOL    HW225296   3.086   1.990   8.205  2.6713  0.3234 -2.7932
 4613SOL     OW25297   0.339   3.499  11.498  0.4248 -0.2662 -0.0170
 4613SOL    HW125298   0.378   3.412  11.511  2.3002  0.3155 -1.8875
 4613SOL    HW225299   0.355   3.544  11.580 -3.2625 -2.9393  2.1681
 4614SOL     OW25300   0.763   2.485   0.050  0.2926  0.2615  0.1588
 4614SOL    HW125301   0.804   2.400   0.067 -1.1852 -0.8659 -1.8477
 4614SOL    HW225302   0.799   2.537   0.121 -0.7080 -1.2107  1.7410
 4615SOL     OW25303   3.056   3.776   6.225  0.1315 -0.0796 -0.1902
 4615SOL    HW125304   2.968   3.807   6.201  0.1739 -1.3679 -1.9877
 4615SOL    HW225305   3.116   3.834   6.178  1.1620 -1.3998 -0.4988
 4616SOL     OW25306   0.634   4.337   9.445 -0.5147  0.2111 -0.0997
 4616SOL    HW125307   0.660   4.417   9.399  0.3391 -0.9962 -1.6931
 4616SOL    HW225308   0.646   4.369   9.534  1.8020 -0.1450 -0.3029
 4617SOL     OW25309   4.414   1.354   6.235  0.7057 -0.2595 -0.2096
 4617SOL    HW125310   4.344   1.379   6.174  0.0315 -1.9401 -0.1421
 4617SOL    HW225311   4.475   1.312   6.175  0.7630  0.8169 -0.9078
 4618SOL     OW25312   1.541   4.061   0.064  0.2897  0.6718 -0.1417
 4618SOL    HW125313   1.599   3.985   0.065 -0.4141  0.0925 -3.1538
 4618SOL    HW225314   1.605   4.121   0.104 -0.2542  1.2011 -0.0761
 4619SOL     OW25315   2.771   1.730   6.360 -0.1110 -0.5109 -0.3824
 4619SOL    HW125316   2.770   1.767   6.448 -1.2728 -1.6410  0.0751
 4619SOL    HW225317   2.736   1.805   6.311 -0.4806  0.1944  0.9658
 4620SOL     OW25318   4.253   4.112  16.022  0.5944  0.2623 -0.5606
 4620SOL    HW125319   4.232   4.162  16.101 -0.4472  0.1967 -0.7844
 4620SOL    HW225320   4.178   4.132  15.965 -0.1299 -2.5040 -0.5677
 4621SOL     OW25321   2.220   0.469  12.514 -0.3472  0.0203 -0.1393
 4621SOL    HW125322   2.238   0.530  12.443  0.0815  1.0383  0.8339
 4621SOL    HW225323   2.296   0.411  12.518 -0.8964 -0.6733  0.1381
 4622SOL     OW25324   1.807   4.461   7.796  0.0883 -0.1829 -0.3980
 4622SOL    HW125325   1.882   4.500   7.752 -0.1421 -0.3581 -0.9414
 4622SOL    HW225326   1.815   4.501   7.883 -1.7792  0.4654 -0.5191
 4623SOL     OW25327   3.244   2.887   8.112  0.2796  0.8316 -0.1690
 4623SOL    HW125328   3.225   2.963   8.167  0.6582  0.8903 -0.1142
 4623SOL    HW225329   3.326   2.914   8.070  1.5012 -0.0336  1.6251
 4624SOL     OW25330   1.019   4.377   5.029 -0.0252 -0.7342  0.0931
 4624SOL    HW125331   1.015   4.288   4.995 -0.5501 -0.8583  0.4811
 4624SOL    HW225332   1.105   4.377   5.071  1.1509  0.2074 -2.3147
 4625SOL     OW25333   3.286   2.019   2.669  0.0151  0.0159  0.1045
 4625SOL    HW125334   3.229   2.007   2.744  2.2142  0.8746  1.9118
 4625SOL    HW225335   3.352   1.953   2.692  0.2490 -0.4177 -1.7486
 4626SOL     OW25336   3.647   0.139  16.145  0.2792  0.3523 -0.1945
 4626SOL    HW125337   3.709   0.190  16.092  0.4736  0.6815  0.3349
 4626SOL    HW225338   3.655   0.178  16.232 -0.1935  0.9116 -0.4031
 4627SOL     OW25339   0.679   2.379   4.201 -0.0053 -0.1662 -0.1961
 4627SOL    HW125340   0.637   2.293   4.197  2.7150 -1.6136  2.1455
 4627SOL    HW225341   0.610   2.437   4.232 -1.1376 -1.5632 -0.1083
 4628SOL     OW25342   0.229   4.567  14.132  0.1015 -0.1148 -0.1107
 4628SOL    HW125343   0.200   4.477  14.116  4.7170 -1.8197  1.2699
 4628SOL    HW225344   0.154   4.617  14.101  0.1355  1.6861  2.6931
 4629SOL     OW25345   0.719   2.964   6.161  0.3441 -0.8087 -0.0936
 4629SOL    HW125346   0.776   2.925   6.095 -1.0251 -2.9112 -0.0160
 4629SOL    HW225347   0.755   2.911   6.233 -2.7173 -0.0319  1.9908
 4630SOL     OW25348   1.614   1.757   3.622  0.2319  0.5079  0.4666
 4630SOL    HW125349   1.592   1.847   3.598 -0.3059  0.3737  0.4563
 4630SOL    HW225350   1.620   1.721   3.534 -0.2606 -1.4175  1.2206
 4631SOL     OW25351   1.063   2.136   6.687 -0.5568 -0.2377 -0.3090
 4631SOL    HW125352   0.984   2.171   6.729 -0.7982 -0.1712 -0.8187
 4631SOL    HW225353   1.053   2.047   6.722 -2.0088 -0.3090 -0.9026
 4632SOL     OW25354   1.720   3.892  12.020 -0.4061 -0.5049  0.7792
 4632SOL    HW125355   1.689   3.892  12.111  0.7798 -0.3189  1.1869
 4632SOL    HW225356   1.758   3.804  12.010 -0.5841 -0.4353 -0.4679
 4633SOL     OW25357   1.540   3.657   3.311  0.1176 -0.6297 -0.5513
 4633SOL    HW125358   1.501   3.576   3.277 -0.9313  0.4247 -1.8414
 4633SOL    HW225359   1.629   3.636   3.338  0.5293  1.3613 -0.4126
 4634SOL     OW25360   3.014   3.002   9.501 -0.2504  0.6768  0.2566
 4634SOL    HW125361   3.084   3.067   9.508  1.7386 -1.6721  2.3055
 4634SOL    HW225362   3.056   2.921   9.472 -3.2173 -0.4162 -0.9354
 4635SOL     OW25363   1.897   1.775  13.942 -0.2768 -0.1682  0.3714
 4635SOL    HW125364   1.803   1.795  13.944 -0.0325  1.0952 -0.4858
 4635SOL    HW225365   1.918   1.803  13.853 -2.9074 -1.2569 -0.5946
 4636SOL     OW25366   1.710   1.473   5.434  0.1330 -0.7110  0.3483
 4636SOL    HW125367   1.615   1.458   5.439 -0.0582  0.4017 -0.1150
 4636SOL    HW225368   1.707   1.546   5.373 -0.3052  0.6276  1.9830
 4637SOL     OW25369   0.354   2.161   4.541  0.2399  0.0056  0.3385
 4637SOL    HW125370   0.362   2.244   4.586 -0.1017 -0.0345  0.4698
 4637SOL    HW225371   0.263   2.148   4.568  0.2904 -2.6837 -0.7269
 4638SOL     OW25372   1.898   3.578  10.363 -0.1832 -0.4298  0.0765
 4638SOL    HW125373   1.987   3.552  10.387  0.0232  0.4959  0.3195
 4638SOL    HW225374   1.919   3.626  10.283 -2.1713  0.9633  0.3865
 4639SOL     OW25375   1.097   0.900   0.931 -0.4546 -0.1780 -0.1012
 4639SOL    HW125376   1.010   0.907   0.970 -0.0485 -2.3045  1.1830
 4639SOL    HW225377   1.096   0.814   0.889  0.6387 -0.2828  0.0825
 4640SOL     OW25378   2.383   1.941   2.197  0.0215  0.4070  0.1071
 4640SOL    HW125379   2.288   1.937   2.188 -0.3291  2.4722  2.9038
 4640SOL    HW225380   2.396   1.851   2.227 -0.3641 -0.0514 -1.1139
 4641SOL     OW25381   0.987   4.417   0.647 -0.5141  0.2092  0.0399
 4641SOL    HW125382   0.964   4.508   0.665 -2.8944  0.0084 -2.1070
 4641SOL    HW225383   1.076   4.419   0.681 -1.5030 -1.2350  2.7380
 4642SOL     OW25384   0.443   2.182   8.098 -0.3462  0.2615 -0.3488
 4642SOL    HW125385   0.386   2.164   8.172 -1.0501  2.2081 -0.4267
 4642SOL    HW225386   0.526   2.144   8.127 -0.5031  1.7390  1.9783
 4643SOL     OW25387   2.076   1.664   9.704  0.0904  0.2491  0.1375
 4643SOL    HW125388   2.139   1.695   9.769  0.8075  3.1166 -1.8943
 4643SOL    HW225389   2.053   1.574   9.724 -0.3290  0.7386  1.8476
 4644SOL     OW25390   1.126   2.385   8.414  0.0834  0.1458  0.4666
 4644SOL    HW125391   1.031   2.384   8.427 -0.5488  0.9994 -4.1136
 4644SOL    HW225392   1.132   2.311   8.354  0.2457 -0.0932  0.7766
 4645SOL     OW25393   3.187   1.995   2.929 -0.3370  0.1611  0.5626
 4645SOL    HW125394   3.096   1.967   2.924 -0.3860  0.3613  0.3000
 4645SOL    HW225395   3.180   2.027   3.019 -0.4744  0.3059  0.5009
 4646SOL     OW25396   4.360   4.078  13.056  0.3672  0.4740  1.0359
 4646SOL    HW125397   4.366   4.021  12.980 -0.3684 -0.1516  1.4480
 4646SOL    HW225398   4.453   4.069  13.077  0.6102 -0.5903 -0.5466
 4647SOL     OW25399   3.923   1.185   7.434  0.5353  0.0311 -0.0203
 4647SOL    HW125400   4.003   1.192   7.382 -1.4940 -0.2212 -3.1663
 4647SOL    HW225401   3.948   1.108   7.485  1.0052 -0.0324 -0.3493
 4648SOL     OW25402   4.093   1.921   9.260 -0.1532  0.3978  0.2530
 4648SOL    HW125403   4.078   1.883   9.347 -1.3133  0.2614 -0.0120
 4648SOL    HW225404   4.035   1.996   9.254  0.6731  0.8139 -2.7312
 4649SOL     OW25405   3.513   3.120   3.719  0.2475  0.0063 -0.3995
 4649SOL    HW125406   3.523   3.104   3.626  2.4609  1.5534 -0.4210
 4649SOL    HW225407   3.604   3.140   3.740  0.5226 -1.3759 -0.2309
 4650SOL     OW25408   1.298   3.063   5.618  0.5097  0.0261 -0.1394
 4650SOL    HW125409   1.240   3.136   5.596 -1.4338 -1.8649 -1.2162
 4650SOL    HW225410   1.361   3.099   5.681  2.7408  0.8021 -2.8193
 4651SOL     OW25411   4.499   3.446   5.491  0.0250  0.1086 -0.2731
 4651SOL    HW125412   4.566   3.400   5.440  1.0060  1.0190  0.1898
 4651SOL    HW225413   4.539   3.445   5.579  0.0848  1.7796 -0.2921
 4652SOL     OW25414   1.746   2.482   1.473 -0.4892  0.4116  0.1258
 4652SOL    HW125415   1.837   2.454   1.480 -1.5288 -2.5238  1.7046
 4652SOL    HW225416   1.726   2.490   1.566 -0.1267 -1.1230  0.3371
 4653SOL     OW25417   0.920   3.998   5.935  0.2245 -0.0788  0.8233
 4653SOL    HW125418   0.867   3.930   5.976 -0.2016  0.0167  0.4262
 4653SOL    HW225419   0.923   3.972   5.843 -0.6931  2.8620 -0.0123
 4654SOL     OW25420   2.097   0.636   4.462 -0.0969  0.0811  0.2188
 4654SOL    HW125421   2.145   0.557   4.488 -0.6624 -0.2421  0.2613
 4654SOL    HW225422   2.153   0.707   4.494 -0.7940 -0.0437  1.6892
 4655SOL     OW25423   2.109   4.126   0.344 -0.3269 -0.1654  0.1191
 4655SOL    HW125424   2.090   4.135   0.438  2.4731  0.4089  0.6309
 4655SOL    HW225425   2.047   4.060   0.313 -0.2425 -1.5129  2.8177
 4656SOL     OW25426   3.332   2.174   8.481 -0.7086  0.6535 -0.3035
 4656SOL    HW125427   3.332   2.268   8.464  2.4258  0.4763 -1.2927
 4656SOL    HW225428   3.332   2.179   8.576  0.0590 -2.0445 -0.1609
 4657SOL     OW25429   1.544   2.362  11.518 -0.6323  0.2542  0.3229
 4657SOL    HW125430   1.473   2.355  11.582 -0.4555 -1.5799  0.2966
 4657SOL    HW225431   1.519   2.437  11.464 -0.8360  0.6607  0.9826
 4658SOL     OW25432   2.519   4.711   6.442 -0.0847  0.2268 -0.2009
 4658SOL    HW125433   2.524   4.679   6.532 -0.7164  0.8009  0.0432
 4658SOL    HW225434   2.609   0.012   6.421 -0.1858  0.3795 -0.4612
 4659SOL     OW25435   4.381   4.156   7.115  0.0018  0.5804  0.0604
 4659SOL    HW125436   4.340   4.112   7.040  1.2809  0.8290 -0.7884
 4659SOL    HW225437   4.376   4.248   7.087 -2.9168  0.1952 -0.7749
 4660SOL     OW25438   1.344   1.299  15.068  0.5557  0.0482  0.2283
 4660SOL    HW125439   1.345   1.263  14.979 -2.0422 -0.2249  0.3240
 4660SOL    HW225440   1.294   1.237  15.121 -0.6210 -0.7426 -1.7837
 4661SOL     OW25441   2.220   2.455  13.371  0.2103  0.5750  0.5844
 4661SOL    HW125442   2.175   2.454  13.287  0.2198 -0.4336  0.5948
 4661SOL    HW225443   2.151   2.435  13.434 -0.9032 -1.2464 -1.2041
 4662SOL     OW25444   0.791   0.906   3.163 -0.1822 -0.0725  0.5315
 4662SOL    HW125445   0.748   0.844   3.104 -0.2267 -0.1967  0.6941
 4662SOL    HW225446   0.724   0.893   3.230  0.4889 -1.0431  1.0105
 4663SOL     OW25447   3.352   3.709  16.631  0.1869  0.6384 -0.5137
 4663SOL    HW125448   3.267   3.693  16.671  0.5941 -0.2160 -0.0061
 4663SOL    HW225449   3.351   3.802  16.652 -0.9675  0.4018  0.4429
 4664SOL     OW25450   0.215   2.590  13.887 -0.1865 -0.0028  0.2409
 4664SOL    HW125451   0.144   2.528  13.872 -1.0384  0.4466  2.5448
 4664SOL    HW225452   0.218   2.601  13.982  1.1517 -1.6536  0.3925
 4665SOL     OW25453   4.239   4.092   2.558 -0.3682 -0.2119 -0.1767
 4665SOL    HW125454   4.258   4.156   2.627  1.0431 -1.3155  0.4460
 4665SOL    HW225455   4.254   4.007   2.599  1.4326  0.2751  0.1957
 4666SOL     OW25456   2.213   2.235   8.823  0.0270 -0.0417 -1.1078
 4666SOL    HW125457   2.213   2.273   8.735 -1.8477  0.6340 -0.8315
 4666SOL    HW225458   2.142   2.283   8.866  0.8420  0.1811 -0.0302
 4667SOL     OW25459   1.957   0.643  10.336 -0.4182  1.3223  0.1008
 4667SOL    HW125460   1.953   0.558  10.293 -0.6483  0.6328  1.5072
 4667SOL    HW225461   2.048   0.646  10.367 -0.1284  0.0637 -0.6423
 4668SOL     OW25462   0.465   3.757   7.822  0.0274 -0.1899  0.3988
 4668SOL    HW125463   0.532   3.735   7.886  1.0697 -1.5645 -1.1803
 4668SOL    HW225464   0.470   3.675   7.773 -0.1486  0.4582 -0.7119
 4669SOL     OW25465   4.418   4.090   7.979  0.2307 -0.0170  0.5255
 4669SOL    HW125466   4.426   4.154   7.908 -2.0333 -0.1077  0.1740
 4669SOL    HW225467   4.470   4.132   8.047  0.0663  0.5129  0.3292
 4670SOL     OW25468   1.568   0.046  16.009  0.5023 -0.7343 -0.0125
 4670SOL    HW125469   1.485   0.041  15.963  1.0759  5.8972 -1.8629
 4670SOL    HW225470   1.556   0.128  16.058  0.7002 -0.6260 -0.1439
 4671SOL     OW25471   0.597   2.101  16.630 -0.1355  0.0884  0.2282
 4671SOL    HW125472   0.523   2.042  16.615 -1.6543  1.7882  1.1970
 4671SOL    HW225473   0.577   2.189  16.598  2.1739  0.5524  0.0545
 4672SOL     OW25474   2.882   1.386   7.497  0.0289  0.4622  0.2312
 4672SOL    HW125475   2.971   1.403   7.528  1.3167 -0.5162 -2.9695
 4672SOL    HW225476   2.833   1.371   7.578  2.4795  0.0977  1.6633
 4673SOL     OW25477   0.013   0.367   6.641 -0.0103  0.2506  0.0195
 4673SOL    HW125478   4.641   0.370   6.640  0.0043  0.7291  0.2884
 4673SOL    HW225479   0.024   0.452   6.599 -0.9946 -1.0279 -2.8278
 4674SOL     OW25480   4.076   4.540   5.353  0.1754  0.3089  0.5331
 4674SOL    HW125481   4.058   4.446   5.349  0.0908  0.3588 -0.3016
 4674SOL    HW225482   4.021   4.566   5.427 -0.5917  1.2587 -0.3637
 4675SOL     OW25483   3.613   1.689  12.342 -0.0699  0.0702 -0.5160
 4675SOL    HW125484   3.623   1.630  12.416 -1.3864 -0.9755 -1.1753
 4675SOL    HW225485   3.616   1.621  12.275  3.1573 -0.3941  0.0709
 4676SOL     OW25486   3.368   3.488   0.943 -0.4104 -0.3382  0.7544
 4676SOL    HW125487   3.331   3.513   1.028 -0.8574  0.4084  0.3352
 4676SOL    HW225488   3.289   3.479   0.890  0.0211 -1.6819  0.3336
 4677SOL     OW25489   1.753   2.514   0.391 -0.0353  0.0521  0.2830
 4677SOL    HW125490   1.809   2.528   0.315 -0.1015  2.2019  0.6317
 4677SOL    HW225491   1.734   2.606   0.407 -1.9602 -0.0675 -1.2756
 4678SOL     OW25492   4.349   3.828   4.860 -0.4078  0.6119  0.3727
 4678SOL    HW125493   4.300   3.747   4.873  0.4626 -0.1863 -1.3231
 4678SOL    HW225494   4.399   3.798   4.784  0.2755  2.3847  0.1263
 4679SOL     OW25495   2.392   3.963  14.745 -0.1016 -0.5861  0.1827
 4679SOL    HW125496   2.412   4.055  14.730  1.4307 -0.8816  0.4413
 4679SOL    HW225497   2.298   3.968  14.729  0.5198  2.5113 -2.2542
 4680SOL     OW25498   4.553   2.691   6.129  0.3371  0.2109  0.1673
 4680SOL    HW125499   4.549   2.695   6.225 -2.2945 -1.0566  0.1269
 4680SOL    HW225500   4.472   2.643   6.109  1.5600 -2.3834  1.3346
 4681SOL     OW25501   1.581   3.332  12.756 -0.3097  0.0692  0.5764
 4681SOL    HW125502   1.550   3.318  12.667 -0.4199 -1.7793  0.9019
 4681SOL    HW225503   1.662   3.379  12.737 -0.1356  0.1098  1.3981
 4682SOL     OW25504   1.322   2.918   8.545 -0.3489 -0.0822 -0.0643
 4682SOL    HW125505   1.348   2.830   8.517  1.3543  0.3529  0.1450
 4682SOL    HW225506   1.267   2.889   8.618 -1.2269  2.5393  0.2840
 4683SOL     OW25507   4.483   2.630   3.630 -0.6722  0.2992 -0.7305
 4683SOL    HW125508   4.574   2.636   3.660 -1.3008  2.2211  0.8152
 4683SOL    HW225509   4.445   2.622   3.718 -0.5911 -0.2253 -0.7426
 4684SOL     OW25510   2.639   1.862   1.831 -0.2906 -0.4421 -0.5758
 4684SOL    HW125511   2.687   1.835   1.753  2.2299  0.6112  0.5995
 4684SOL    HW225512   2.585   1.934   1.797  0.0043 -0.4232 -0.9992
 4685SOL     OW25513   2.515   4.242  16.539  0.4585 -0.1208  0.2938
 4685SOL    HW125514   2.520   4.338  16.537  0.5530 -0.1080  1.1078
 4685SOL    HW225515   2.495   4.213  16.628  0.8511 -0.5150  0.2527
 4686SOL     OW25516   1.116   1.930   2.062 -0.1908 -0.2182  0.3434
 4686SOL    HW125517   1.167   2.008   2.084  1.1178 -0.4583 -1.8516
 4686SOL    HW225518   1.051   1.922   2.132 -0.9384  1.2152 -0.1765
 4687SOL     OW25519   2.642   3.794  10.383 -0.8113 -0.6916 -0.6913
 4687SOL    HW125520   2.698   3.834  10.315 -1.3340 -1.3050 -1.4810
 4687SOL    HW225521   2.695   3.722  10.418 -3.1282 -1.3691  1.3572
 4688SOL     OW25522   2.028   3.647   0.647  0.1081 -0.2225  0.0597
 4688SOL    HW125523   1.962   3.716   0.639 -0.4191 -0.6283  0.9053
 4688SOL    HW225524   2.084   3.679   0.718 -0.4904 -1.4368  1.0748
 4689SOL     OW25525   2.176   0.160   0.010  0.1249  0.4141 -0.6043
 4689SOL    HW125526   2.235   0.159  17.628 -1.9346  0.5039 -2.2054
 4689SOL    HW225527   2.102   0.112  17.668 -1.2652  0.9236  1.5941
 4690SOL     OW25528   3.237   1.275   0.916 -0.3794  0.5604  0.0959
 4690SOL    HW125529   3.234   1.368   0.895  3.3369  0.7608  0.4270
 4690SOL    HW225530   3.242   1.235   0.829  0.2228 -1.7418  1.1889
 4691SOL     OW25531   4.676   0.305   4.740  0.5667 -0.6692  0.6868
 4691SOL    HW125532   4.706   0.302   4.649 -1.9830 -1.1797 -0.1380
 4691SOL    HW225533   4.620   0.228   4.749 -0.5705  0.0558 -0.2815
 4692SOL     OW25534   2.856   0.344  12.747  0.0434 -0.0792  0.3164
 4692SOL    HW125535   2.854   0.412  12.815  1.4433 -0.6054  0.8965
 4692SOL    HW225536   2.947   0.357  12.722 -0.4709 -0.9512 -1.9878
 4693SOL     OW25537   1.848   2.196   5.174 -0.1523 -0.4995 -0.2672
 4693SOL    HW125538   1.808   2.255   5.111  0.2493 -0.8535 -0.8561
 4693SOL    HW225539   1.869   2.258   5.244 -1.1107 -1.0300  0.4861
 4694SOL     OW25540   3.914   1.577  13.007  0.8661  0.4783 -0.2112
 4694SOL    HW125541   3.831   1.600  12.965  0.8830 -0.1220 -0.5731
 4694SOL    HW225542   3.978   1.566  12.936 -1.5861  0.0080 -2.3495
 4695SOL     OW25543   0.040   2.615   3.678  0.5074  0.1458  0.3227
 4695SOL    HW125544   0.043   2.709   3.660  1.5276  0.2192  0.8525
 4695SOL    HW225545   0.062   2.581   3.592 -0.1648  1.5047 -0.3798
 4696SOL     OW25546   4.690   0.357   7.775 -0.1751 -0.1652  0.0688
 4696SOL    HW125547   0.008   0.368   7.861  2.2918 -0.3870 -1.0682
 4696SOL    HW225548   0.001   0.432   7.727 -1.3715  1.4339  1.6979
 4697SOL     OW25549   3.316   0.379   1.501  0.1142 -0.2089 -0.1462
 4697SOL    HW125550   3.279   0.467   1.514  0.2548 -0.0257 -0.9561
 4697SOL    HW225551   3.361   0.398   1.419 -0.8686  1.8330 -0.2384
 4698SOL     OW25552   0.411   1.929  16.509 -0.3293  0.9633  0.5853
 4698SOL    HW125553   0.319   1.954  16.504  0.2869  3.4684  1.4864
 4698SOL    HW225554   0.394   1.837  16.529  2.1029  0.2020 -0.9141
 4699SOL     OW25555   3.858   0.455  13.845 -0.1708 -0.5252 -0.0383
 4699SOL    HW125556   3.941   0.431  13.888  0.1630 -1.2192 -1.0860
 4699SOL    HW225557   3.791   0.412  13.899 -1.7006  1.9422  0.0401
 4700SOL     OW25558   0.108   3.436   8.185  0.5045 -0.3041  0.2494
 4700SOL    HW125559   0.015   3.434   8.161  0.7742 -1.1056 -0.7082
 4700SOL    HW225560   0.110   3.490   8.264 -0.5908  2.0432 -1.2870
 4701SOL     OW25561   1.310   4.493  10.303 -0.0108 -0.4154  0.2214
 4701SOL    HW125562   1.264   4.563  10.349  1.9559  0.9672  0.0389
 4701SOL    HW225563   1.300   4.418  10.363  1.4224  0.3315  1.3692
 4702SOL     OW25564   1.921   4.172  12.626  0.1154  0.1356  0.1334
 4702SOL    HW125565   2.015   4.181  12.643 -0.1279  1.2764  0.8627
 4702SOL    HW225566   1.914   4.175  12.530 -2.8235 -2.6406  0.2423
 4703SOL     OW25567   3.571   0.963  15.159  0.3638  0.7828 -0.0465
 4703SOL    HW125568   3.524   0.880  15.158  0.9416  0.4480  0.1340
 4703SOL    HW225569   3.531   0.991  15.241  1.4374 -2.2632  1.5189
 4704SOL     OW25570   4.205   0.471   7.880  0.0349 -0.8796  0.1131
 4704SOL    HW125571   4.287   0.436   7.845  1.1359  0.1527  1.6390
 4704SOL    HW225572   4.155   0.485   7.800 -1.3359 -2.4213  0.6984
 4705SOL     OW25573   4.274   3.929   8.506 -0.0824 -0.3367 -0.3059
 4705SOL    HW125574   4.303   3.884   8.585 -3.2308 -0.3354  0.8134
 4705SOL    HW225575   4.343   3.905   8.443 -2.2089 -2.9242 -1.6105
 4706SOL     OW25576   2.652   2.398   4.754  0.0707  0.3647  0.0091
 4706SOL    HW125577   2.585   2.338   4.787  1.8687 -1.3352  0.5900
 4706SOL    HW225578   2.727   2.340   4.767 -0.6132 -0.8246 -1.3924
 4707SOL     OW25579   1.408   2.776   4.610 -0.6270 -0.1847 -0.1671
 4707SOL    HW125580   1.350   2.814   4.676  0.2028  1.0818 -0.1688
 4707SOL    HW225581   1.437   2.700   4.661  0.5129 -0.4668 -1.2538
 4708SOL     OW25582   3.578   3.866   6.038  0.2608  0.0848 -0.2773
 4708SOL    HW125583   3.634   3.928   5.992 -0.8794  1.3167 -0.0018
 4708SOL    HW225584   3.580   3.907   6.124 -1.1212 -0.6932  0.1308
 4709SOL     OW25585   1.052   3.758   8.959 -0.2254 -0.8549 -0.4386
 4709SOL    HW125586   1.066   3.673   8.918  0.3765 -1.7851  1.6754
 4709SOL    HW225587   0.970   3.750   9.008 -0.9118 -0.8008 -1.5910
 4710SOL     OW25588   1.249   2.363  15.728  0.4096 -0.0955 -0.0597
 4710SOL    HW125589   1.181   2.357  15.660  0.9599 -0.8624 -0.5462
 4710SOL    HW225590   1.260   2.269  15.745 -1.0933 -0.4462 -1.0430
 4711SOL     OW25591   3.249   1.707   6.407 -0.0781  0.2760  0.1423
 4711SOL    HW125592   3.238   1.704   6.502 -1.1198 -1.6742 -0.0469
 4711SOL    HW225593   3.262   1.802   6.410  0.2784  0.2475 -0.5149
 4712SOL     OW25594   0.282   0.269   7.265  0.2150 -0.0434 -0.1092
 4712SOL    HW125595   0.330   0.231   7.191 -0.7321 -2.1398  0.3703
 4712SOL    HW225596   0.229   0.195   7.292  1.2300 -0.5237  0.5481
 4713SOL     OW25597   4.296   3.786   3.135  0.0415  0.2036 -0.9808
 4713SOL    HW125598   4.269   3.700   3.168  0.3052  0.7272  0.6024
 4713SOL    HW225599   4.206   3.809   3.109 -0.5079 -0.4289  0.3727
 4714SOL     OW25600   1.796   3.371   1.489  0.4299 -0.7129 -0.0845
 4714SOL    HW125601   1.865   3.361   1.555  0.1507  0.0752  0.3312
 4714SOL    HW225602   1.724   3.338   1.542 -1.3135  1.6539 -0.9730
 4715SOL     OW25603   0.761   3.644  10.114 -0.2796  0.3038 -0.1096
 4715SOL    HW125604   0.772   3.732  10.151 -0.5526 -0.5638  2.0348
 4715SOL    HW225605   0.839   3.637  10.059  0.1143 -0.2605  0.5245
 4716SOL     OW25606   1.529   3.814   4.978 -0.2031 -0.0995  0.1200
 4716SOL    HW125607   1.544   3.794   4.886 -1.8096 -1.1022  0.0681
 4716SOL    HW225608   1.486   3.736   5.014  0.2445 -0.0489  0.7691
 4717SOL     OW25609   4.474   2.165  15.677 -0.1015 -0.2953 -0.2100
 4717SOL    HW125610   4.386   2.155  15.642  0.5896  0.4260 -2.1850
 4717SOL    HW225611   4.467   2.233  15.744 -1.5007 -0.6146 -0.0378
 4718SOL     OW25612   0.946   2.634   0.946 -0.0706  0.2708 -0.2037
 4718SOL    HW125613   0.940   2.561   1.008  1.2340  0.1892 -0.1729
 4718SOL    HW225614   0.898   2.601   0.870 -1.0935  1.7864 -0.2153
 4719SOL     OW25615   0.277   3.477  10.359  0.2630 -0.0351 -0.6203
 4719SOL    HW125616   0.305   3.439  10.443  1.4356  2.2768  0.0372
 4719SOL    HW225617   0.353   3.515  10.314  0.2819 -0.5041 -0.9855
 4720SOL     OW25618   2.012   1.811   2.378  0.0567  0.2327  0.2619
 4720SOL    HW125619   1.929   1.770   2.352  0.3306 -1.3092  1.8091
 4720SOL    HW225620   1.982   1.891   2.422  0.4222  0.1983  0.5661
 4721SOL     OW25621   1.067   3.478   3.799 -0.3228  0.0793  0.2989
 4721SOL    HW125622   1.112   3.393   3.802  3.6666  2.0847 -1.6493
 4721SOL    HW225623   1.068   3.501   3.892 -2.7485 -3.9478  1.3162
 4722SOL     OW25624   0.329   2.610   8.568  0.6722 -0.0062 -0.2305
 4722SOL    HW125625   0.263   2.563   8.517  2.7498 -1.4988 -1.5624
 4722SOL    HW225626   0.303   2.703   8.566 -0.3389 -0.3337 -3.2988
 4723SOL     OW25627   2.379   1.930   4.672  0.7579  0.4577 -0.3027
 4723SOL    HW125628   2.367   1.836   4.685  1.8173  0.5081  1.1419
 4723SOL    HW225629   2.420   1.934   4.586  0.6464  1.0247 -0.3313
 4724SOL     OW25630   2.617   1.455   3.024  0.6220 -0.3676 -0.4143
 4724SOL    HW125631   2.589   1.368   3.054 -0.9162  0.5049  0.6388
 4724SOL    HW225632   2.582   1.507   3.096  1.4297  1.6260 -1.4806
 4725SOL     OW25633   4.162   3.836  11.038 -0.2551 -0.1048 -0.1475
 4725SOL    HW125634   4.079   3.869  11.073  0.4758  0.7277  0.8164
 4725SOL    HW225635   4.136   3.824  10.947 -0.7638  0.6636 -0.1108
 4726SOL     OW25636   2.036   0.949  16.635  0.0269  0.0724 -0.3531
 4726SOL    HW125637   2.106   0.886  16.650 -1.1831 -1.5334 -1.4577
 4726SOL    HW225638   2.008   0.918  16.549 -0.7182  2.2610 -0.8899
 4727SOL     OW25639   3.534   0.584   7.546  0.6903  0.1971 -0.5295
 4727SOL    HW125640   3.462   0.600   7.485 -1.6934 -0.0751  2.2147
 4727SOL    HW225641   3.605   0.639   7.512  1.9410  0.0917  1.8727
 4728SOL     OW25642   2.516   1.304  17.324  0.6821  0.2954  0.4150
 4728SOL    HW125643   2.422   1.297  17.306  0.4115  1.1282  1.4686
 4728SOL    HW225644   2.523   1.395  17.295  1.8405  0.4438  1.1617
 4729SOL     OW25645   3.411   1.368  14.746 -0.3946 -0.3533  0.7600
 4729SOL    HW125646   3.365   1.373  14.662  1.0479  1.6704  0.0789
 4729SOL    HW225647   3.345   1.317  14.792 -1.1830 -0.3681 -0.3929
 4730SOL     OW25648   2.393   3.046   7.006 -0.1294  0.3861 -0.3826
 4730SOL    HW125649   2.471   2.991   7.005  0.9513  1.9506 -1.6263
 4730SOL    HW225650   2.417   3.101   7.080  1.3902  0.5211 -0.9753
 4731SOL     OW25651   4.375   0.742   3.544  0.2574  0.1122  0.0156
 4731SOL    HW125652   4.290   0.754   3.587 -0.4735 -2.5387 -0.6910
 4731SOL    HW225653   4.424   0.709   3.620  1.5597  0.6040 -0.6149
 4732SOL     OW25654   1.976   3.057   4.447 -0.4181  0.0284 -0.2599
 4732SOL    HW125655   2.015   2.977   4.483  0.0462  0.2895 -0.1789
 4732SOL    HW225656   1.977   3.115   4.523  0.9330 -1.6545  1.0142
 4733SOL     OW25657   2.722   3.372   4.887 -0.1191  0.0902  0.1716
 4733SOL    HW125658   2.709   3.467   4.882 -0.5650  0.0536  0.6341
 4733SOL    HW225659   2.807   3.357   4.845  0.4546 -0.4306  1.5015
 4734SOL     OW25660   2.222   2.499   0.372  0.6587 -0.3456 -0.0501
 4734SOL    HW125661   2.238   2.591   0.356 -0.2911  0.7054  4.9563
 4734SOL    HW225662   2.292   2.454   0.326  1.2250  0.1038  0.3775
 4735SOL     OW25663   0.559   3.737   2.372 -0.3934  0.2563 -0.8190
 4735SOL    HW125664   0.557   3.643   2.353  0.3250  0.3578 -1.4162
 4735SOL    HW225665   0.539   3.746   2.465  0.1355 -1.1237 -0.5662
 4736SOL     OW25666   2.564   0.593   3.267 -0.1617  0.3524  0.2409
 4736SOL    HW125667   2.512   0.617   3.191 -1.9823 -2.2095  0.6652
 4736SOL    HW225668   2.507   0.529   3.311  0.0817  1.0232  1.5508
 4737SOL     OW25669   2.455   3.843   0.447 -0.7426 -0.2222 -0.2270
 4737SOL    HW125670   2.385   3.778   0.455 -0.2630 -1.1351 -3.6018
 4737SOL    HW225671   2.460   3.836   0.352  1.4325 -2.9150  0.0772
 4738SOL     OW25672   3.271   2.076   1.118  1.0572  0.2259 -0.9569
 4738SOL    HW125673   3.305   2.090   1.207  0.0221  2.9855 -0.9630
 4738SOL    HW225674   3.190   2.127   1.109 -0.5496 -2.2986 -0.7556
 4739SOL     OW25675   4.434   3.201   9.239  0.1527 -0.5832  0.4682
 4739SOL    HW125676   4.427   3.121   9.290 -1.5943 -2.2285 -2.3452
 4739SOL    HW225677   4.352   3.243   9.268 -1.7448 -3.1065 -1.2619
 4740SOL     OW25678   2.212   0.532   0.176  0.1139 -0.3691 -0.2278
 4740SOL    HW125679   2.125   0.559   0.147 -0.1915  0.7007  1.7291
 4740SOL    HW225680   2.273   0.582   0.122  2.3157 -0.8720  1.7812
 4741SOL     OW25681   0.216   0.836   4.386 -0.6156 -0.8472  0.3629
 4741SOL    HW125682   0.297   0.805   4.427  0.5971 -0.3472 -1.6657
 4741SOL    HW225683   0.239   0.927   4.368  0.0773 -0.5462  2.7430
 4742SOL     OW25684   2.810   0.593  15.040  0.5003  0.2185  0.0557
 4742SOL    HW125685   2.789   0.683  15.063 -1.5314 -0.1268 -0.4990
 4742SOL    HW225686   2.899   0.612  15.009  0.5214 -0.1040 -0.0862
 4743SOL     OW25687   3.382   2.368   8.991 -0.0113  0.3659 -0.3513
 4743SOL    HW125688   3.441   2.314   8.938 -0.8306  0.0299 -0.9275
 4743SOL    HW225689   3.330   2.381   8.912  0.6926  1.5066 -0.6247
 4744SOL     OW25690   3.498   3.566   3.317  0.9092 -0.1002 -0.2821
 4744SOL    HW125691   3.516   3.475   3.341  3.3020  0.4030 -0.1860
 4744SOL    HW225692   3.442   3.548   3.241 -0.3436  0.8278  0.4202
 4745SOL     OW25693   3.843   1.149   3.509  0.4154  0.6844  0.2143
 4745SOL    HW125694   3.794   1.197   3.442 -4.4962 -2.9558  1.2019
 4745SOL    HW225695   3.887   1.083   3.456 -4.6734 -1.3302 -1.5164
 4746SOL     OW25696   2.717   1.040   3.392  0.2839 -0.1624  0.0499
 4746SOL    HW125697   2.646   0.976   3.392 -0.0285  0.1831  0.6071
 4746SOL    HW225698   2.799   0.996   3.414  1.0090  0.8485 -0.6742
 4747SOL     OW25699   0.023   0.424  16.100 -0.7260  0.3289 -0.5643
 4747SOL    HW125700   4.657   0.435  16.133 -0.9288 -1.9802 -0.3792
 4747SOL    HW225701   0.007   0.339  16.060 -2.3097  0.0982  0.5688
 4748SOL     OW25702   2.268   2.873  13.497  0.3087 -0.6262  0.1994
 4748SOL    HW125703   2.186   2.922  13.488  0.6777 -0.0225  0.1454
 4748SOL    HW225704   2.235   2.783  13.496 -0.7341 -0.2398 -1.1482
 4749SOL     OW25705   0.865   0.759   5.039  0.7339 -0.7460 -0.4962
 4749SOL    HW125706   0.859   0.695   5.111 -2.3817  0.8472  0.6396
 4749SOL    HW225707   0.958   0.777   5.054 -0.1342  2.6013  0.8026
 4750SOL     OW25708   1.682   3.986   8.448 -0.3529  0.2811  0.0732
 4750SOL    HW125709   1.694   3.999   8.354 -1.3597 -1.6476 -0.3150
 4750SOL    HW225710   1.602   3.932   8.447 -0.7071  0.8153 -0.1701
 4751SOL     OW25711   4.203   4.015   8.163  0.4000  0.4409 -0.6915
 4751SOL    HW125712   4.267   4.010   8.092 -0.7910 -0.9967 -1.6610
 4751SOL    HW225713   4.173   3.924   8.168  1.6010  0.2525  3.0169
 4752SOL     OW25714   0.484   1.492  17.549  0.1573  0.1125 -0.5020
 4752SOL    HW125715   0.484   1.407  17.505  1.8197 -1.0796  1.7845
 4752SOL    HW225716   0.538   1.545  17.490  0.9567  0.0015  0.1338
 4753SOL     OW25717   0.349   2.205   7.697  0.2145  0.6592  0.3646
 4753SOL    HW125718   0.266   2.197   7.649  0.1547 -1.0091  0.7435
 4753SOL    HW225719   0.403   2.162   7.630 -0.9488 -0.8269  0.3738
 4754SOL     OW25720   3.194   2.142   5.029 -0.0377 -0.2897 -0.4552
 4754SOL    HW125721   3.164   2.053   5.009  0.5012 -0.0953 -2.1174
 4754SOL    HW225722   3.170   2.158   5.120  1.6011  0.8198 -0.2248
 4755SOL     OW25723   1.740   2.855   6.520  0.2239 -0.0835 -0.0252
 4755SOL    HW125724   1.802   2.819   6.457  0.6599 -1.3384  1.1309
 4755SOL    HW225725   1.676   2.784   6.527  0.5205 -0.2058  1.3995
 4756SOL     OW25726   3.320   0.275   8.151 -0.4347 -0.3335  0.4516
 4756SOL    HW125727   3.342   0.344   8.214 -0.5582 -0.4930  0.6702
 4756SOL    HW225728   3.276   0.221   8.217 -2.2664 -1.5819 -1.8028
 4757SOL     OW25729   1.772   4.148  16.331  0.2325  0.1139 -0.1533
 4757SOL    HW125730   1.727   4.226  16.298 -3.6743 -2.0612  0.0831
 4757SOL    HW225731   1.710   4.106  16.390 -1.4603  1.2470 -1.1566
 4758SOL     OW25732   4.456   0.147   4.706  0.2525  0.5054 -0.0686
 4758SOL    HW125733   4.406   0.067   4.690 -1.3107  1.0307  2.1403
 4758SOL    HW225734   4.415   0.221   4.662 -1.8281 -1.0843 -0.8461
 4759SOL     OW25735   0.687   1.170   1.191 -0.1168 -0.0291 -0.0053
 4759SOL    HW125736   0.599   1.192   1.161  0.4963  0.8294 -1.1707
 4759SOL    HW225737   0.646   1.127   1.266 -0.0760  0.2779  0.1938
 4760SOL     OW25738   0.646   3.007  13.274 -0.0079 -0.0802  0.0677
 4760SOL    HW125739   0.562   3.030  13.236 -0.6345 -3.7629 -0.7176
 4760SOL    HW225740   0.643   2.912  13.284 -3.9514  0.0104 -0.1671
 4761SOL     OW25741   1.995   0.812   3.536  0.5939  0.3437 -0.9449
 4761SOL    HW125742   1.986   0.808   3.441  4.5502  0.4245 -1.3088
 4761SOL    HW225743   1.941   0.735   3.549  0.0929  0.9851  0.8148
 4762SOL     OW25744   3.535   2.323   8.740 -0.0707  0.1093 -0.3328
 4762SOL    HW125745   3.527   2.228   8.743  0.2283  0.1931  2.5173
 4762SOL    HW225746   3.457   2.347   8.689 -0.1709  0.0225 -0.2210
 4763SOL     OW25747   0.634   3.051  12.899 -0.3092 -0.3624  0.0842
 4763SOL    HW125748   0.576   3.095  12.960 -1.4845 -0.5446 -0.8933
 4763SOL    HW225749   0.694   3.124  12.883 -2.4792  1.7565  1.6342
 4764SOL     OW25750   3.068   1.210   8.621 -0.2373  0.3066  0.9592
 4764SOL    HW125751   3.005   1.138   8.629 -0.9942  1.2246  3.4654
 4764SOL    HW225752   3.125   1.166   8.686  0.8786 -1.1506 -1.0052
 4765SOL     OW25753   4.531   0.448  16.334  0.7701  0.1493 -0.1013
 4765SOL    HW125754   4.527   0.522  16.395 -1.6813  0.3447 -0.4976
 4765SOL    HW225755   4.439   0.437  16.309  1.3620 -2.2327 -1.2000
 4766SOL     OW25756   2.144   2.472   5.496 -0.1423  0.1135 -0.3228
 4766SOL    HW125757   2.183   2.514   5.419 -0.1566  0.6065 -0.0647
 4766SOL    HW225758   2.170   2.538   5.560 -3.1269 -1.4035  2.4354
 4767SOL     OW25759   1.518   0.050   9.137 -0.5299  0.1910  0.3665
 4767SOL    HW125760   1.463   0.057   9.058  1.5187  0.7014 -1.0142
 4767SOL    HW225761   1.453   0.051   9.208 -1.2411  1.6527 -0.2832
 4768SOL     OW25762   1.087   2.094   4.320 -0.0840  0.5803  0.4074
 4768SOL    HW125763   1.076   2.177   4.273  2.8006  1.3667  1.1116
 4768SOL    HW225764   1.044   2.040   4.253  2.8952 -1.1805 -0.0696
 4769SOL     OW25765   2.214   4.627  12.966  0.5319  0.1620 -0.2272
 4769SOL    HW125766   2.238   4.550  12.915 -1.5977 -1.4047  1.1189
 4769SOL    HW225767   2.253   4.607  13.051 -2.3839 -0.8341  0.9084
 4770SOL     OW25768   4.299   2.656   8.169 -0.1961 -0.6180 -0.5333
 4770SOL    HW125769   4.225   2.711   8.192 -0.4697 -1.4355  0.5665
 4770SOL    HW225770   4.269   2.569   8.194  1.0761 -0.4333  1.6659
 4771SOL     OW25771   3.710   4.694   7.757  0.1328  0.0477 -0.6168
 4771SOL    HW125772   3.657   0.016   7.692 -0.7942  0.1449  0.2063
 4771SOL    HW225773   3.650   4.622   7.778 -0.0321 -0.8211 -4.0478
 4772SOL     OW25774   2.319   2.983   6.175 -0.0312 -0.7805  0.4860
 4772SOL    HW125775   2.297   3.075   6.165  0.4460 -0.6603  0.5354
 4772SOL    HW225776   2.232   2.949   6.194  0.2539 -1.5087  0.5107
 4773SOL     OW25777   0.686   4.495   3.208  0.0993  1.0354 -0.1469
 4773SOL    HW125778   0.771   4.514   3.249  1.4747 -1.3322 -1.8720
 4773SOL    HW225779   0.705   4.408   3.172  0.3812 -0.7321  4.2527
 4774SOL     OW25780   2.326   0.648  12.347 -0.1928  0.7919 -0.1542
 4774SOL    HW125781   2.259   0.681  12.287 -1.3367 -0.0767  0.6165
 4774SOL    HW225782   2.409   0.683  12.315 -0.4964  1.6828  0.0481
 4775SOL     OW25783   0.830   2.899   3.711 -0.4090 -0.0904 -0.5380
 4775SOL    HW125784   0.831   2.943   3.626  1.6167  1.2297  0.1775
 4775SOL    HW225785   0.899   2.835   3.698 -0.7028 -0.5983  0.3925
 4776SOL     OW25786   1.639   1.264   8.573  0.0623  0.3182  0.8206
 4776SOL    HW125787   1.729   1.248   8.601  0.1738  0.8666  0.7715
 4776SOL    HW225788   1.649   1.279   8.479 -0.4030 -1.3208  0.5079
 4777SOL     OW25789   4.144   3.335   6.148  0.0225  0.0226  0.0051
 4777SOL    HW125790   4.183   3.415   6.184 -0.1984 -0.6946  1.8825
 4777SOL    HW225791   4.228   3.295   6.124 -0.6914 -2.4281  1.5545
 4778SOL     OW25792   0.740   2.890   4.528  0.2639  0.4884  0.0009
 4778SOL    HW125793   0.822   2.841   4.528  0.7056  1.2283 -2.5534
 4778SOL    HW225794   0.754   2.959   4.593 -1.6201  0.6980  0.1676
 4779SOL     OW25795   2.669   2.759   9.899 -0.0380 -0.4876 -0.2326
 4779SOL    HW125796   2.659   2.673   9.941 -0.0528 -0.5114 -0.2852
 4779SOL    HW225797   2.605   2.746   9.829  2.6311  2.9848 -3.2900
 4780SOL     OW25798   3.630   4.677   3.427 -0.2648  0.1947 -0.0513
 4780SOL    HW125799   3.614   4.593   3.470 -0.9031  0.6495  0.6040
 4780SOL    HW225800   3.582   0.006   3.492  1.7959 -0.3710  1.9132
 4781SOL     OW25801   2.768   2.983   5.806 -0.8522 -0.0182  0.7613
 4781SOL    HW125802   2.692   2.996   5.864 -1.2404 -1.6059  0.6074
 4781SOL    HW225803   2.733   3.025   5.727  2.7232 -1.3940 -1.5229
 4782SOL     OW25804   3.848   2.455   2.833 -0.4008 -0.0621  0.2503
 4782SOL    HW125805   3.857   2.392   2.905  1.9197  2.4101  2.1377
 4782SOL    HW225806   3.862   2.541   2.873  0.0429 -1.0946  2.3208
 4783SOL     OW25807   2.519   4.154   9.004 -0.3857  1.3095  0.3684
 4783SOL    HW125808   2.495   4.217   9.071 -0.6238 -1.3601  2.8177
 4783SOL    HW225809   2.439   4.102   8.999  0.5595 -0.0693 -0.6333
 4784SOL     OW25810   3.543   1.137  10.861 -0.5750 -0.1531 -0.5075
 4784SOL    HW125811   3.514   1.066  10.917 -1.3567  0.4634 -0.1344
 4784SOL    HW225812   3.502   1.211  10.906  0.1160 -1.0290  1.5369
 4785SOL     OW25813   0.512   4.018   7.214  0.0417 -0.0771  0.0362
 4785SOL    HW125814   0.434   3.977   7.175 -0.1839 -1.5662  2.0156
 4785SOL    HW225815   0.511   3.985   7.304  0.6251  2.3790  0.9345
 4786SOL     OW25816   1.757   2.040  11.234  0.4300 -0.0903  0.1132
 4786SOL    HW125817   1.671   2.079  11.223  0.5691  0.0217 -0.6229
 4786SOL    HW225818   1.746   1.958  11.281  2.1747 -0.2425  0.2527
 4787SOL     OW25819   0.036   3.000  17.111 -0.1690 -0.0444  0.3148
 4787SOL    HW125820   0.035   2.915  17.067  1.8483 -0.3439  0.8440
 4787SOL    HW225821   4.697   3.051  17.058 -1.5835 -4.7264 -2.4933
 4788SOL     OW25822   1.818   3.337  12.060 -1.1979 -0.3025 -0.2885
 4788SOL    HW125823   1.834   3.321  12.153  1.9634  0.3075 -0.7227
 4788SOL    HW225824   1.847   3.255  12.020 -0.1963 -0.9680  1.7801
 4789SOL     OW25825   2.042   2.965   9.102 -0.1408 -0.2238  0.3221
 4789SOL    HW125826   2.075   3.055   9.094 -0.3168 -0.2761 -0.9970
 4789SOL    HW225827   1.950   2.987   9.083 -0.2442 -0.5811  0.4157
 4790SOL     OW25828   0.993   1.650   7.733  0.2298  0.4679  0.0893
 4790SOL    HW125829   0.954   1.637   7.819 -0.2938 -0.6923 -0.3250
 4790SOL    HW225830   1.018   1.742   7.739  1.3369  0.1852 -0.2488
 4791SOL     OW25831   3.962   4.473   2.688 -0.6222 -0.0840  0.0688
 4791SOL    HW125832   3.939   4.490   2.596  0.0750 -1.9021 -0.4273
 4791SOL    HW225833   3.933   4.551   2.736 -1.2728  0.0905 -0.5999
 4792SOL     OW25834   3.032   2.629  11.460 -0.3872 -0.0910  0.1479
 4792SOL    HW125835   3.066   2.717  11.440 -0.2623  0.3218  2.2029
 4792SOL    HW225836   2.944   2.640  11.424 -0.3505 -0.5810 -0.0891
 4793SOL     OW25837   0.352   3.913   1.651 -0.1232 -0.1830 -0.2502
 4793SOL    HW125838   0.329   3.968   1.726 -0.3272 -0.3805 -0.1693
 4793SOL    HW225839   0.292   3.951   1.586  0.3075  1.4484  0.2979
 4794SOL     OW25840   0.817   3.703   9.119 -0.1395 -0.5982 -0.1417
 4794SOL    HW125841   0.733   3.743   9.098  0.7689  0.4992 -1.6571
 4794SOL    HW225842   0.784   3.648   9.190 -1.2521  1.6923  1.0882
 4795SOL     OW25843   0.648   2.484  10.236 -0.5105  0.4020  0.4548
 4795SOL    HW125844   0.710   2.412  10.221 -0.7133  0.7121 -1.9685
 4795SOL    HW225845   0.704   2.560  10.219  0.8285 -0.6599  0.1246
 4796SOL     OW25846   2.247   4.346   9.481  0.4023 -0.5527 -0.1791
 4796SOL    HW125847   2.280   4.349   9.392  2.9067  1.4137  0.8064
 4796SOL    HW225848   2.327   4.346   9.533  0.3567  0.5260 -0.1053
 4797SOL     OW25849   4.692   1.432   4.379 -0.6825  0.2832 -0.0432
 4797SOL    HW125850   4.671   1.437   4.472  1.3672  3.1402  0.2565
 4797SOL    HW225851   4.695   1.337   4.374  0.5863  0.3177  0.1303
 4798SOL     OW25852   1.130   2.654   6.000  0.5715 -0.4853  0.2835
 4798SOL    HW125853   1.173   2.568   6.001  1.2275 -0.1606 -0.3085
 4798SOL    HW225854   1.110   2.665   5.907  1.4642 -0.4169  0.0990
 4799SOL     OW25855   0.087   2.421   4.859  0.1038  0.5475  0.5778
 4799SOL    HW125856   0.134   2.494   4.898  0.9966 -0.0181  0.5595
 4799SOL    HW225857   4.722   2.439   4.892  0.3500  2.0445  0.4314
 4800SOL     OW25858   2.105   3.122   0.701 -0.2269 -0.3282  0.0333
 4800SOL    HW125859   2.173   3.180   0.735 -0.6144 -2.2209  4.0389
 4800SOL    HW225860   2.027   3.177   0.704 -0.5951 -0.7349 -2.1300
 4801SOL     OW25861   2.035   1.743   8.384 -0.0221 -0.1650  0.5819
 4801SOL    HW125862   1.970   1.673   8.387  1.8571 -1.9518  0.3716
 4801SOL    HW225863   2.101   1.707   8.444  0.3160 -0.7074 -0.1178
 4802SOL     OW25864   1.243   1.759  10.222  0.4484  0.7498  0.0336
 4802SOL    HW125865   1.275   1.774  10.133 -0.2621  2.3405  0.0365
 4802SOL    HW225866   1.150   1.775  10.209  0.3576  0.6805  0.6215
 4803SOL     OW25867   3.196   4.134  13.311 -0.0315 -0.4196 -0.3687
 4803SOL    HW125868   3.110   4.130  13.353 -0.7448  1.4096 -1.6577
 4803SOL    HW225869   3.249   4.111  13.387 -1.0137 -1.9567 -0.1427
 4804SOL     OW25870   0.713   2.319   3.149  0.1606  0.5446  0.0071
 4804SOL    HW125871   0.739   2.329   3.058  0.1223  0.1847 -0.0432
 4804SOL    HW225872   0.750   2.236   3.178  1.5073  1.6507  1.4937
 4805SOL     OW25873   1.633   2.950   8.838 -0.2120 -0.1635  0.4897
 4805SOL    HW125874   1.661   2.858   8.832  2.7137  0.7772 -0.5071
 4805SOL    HW225875   1.698   2.989   8.897 -1.5841  1.6902  0.7688
 4806SOL     OW25876   3.212   4.414   9.530  0.1256  0.2216  0.1567
 4806SOL    HW125877   3.307   4.402   9.537  0.3279 -0.7004 -3.9911
 4806SOL    HW225878   3.202   4.499   9.487  0.1985 -1.7679 -3.8075
 4807SOL     OW25879   4.339   4.376   4.268 -0.0589  0.3607  0.3585
 4807SOL    HW125880   4.275   4.312   4.299 -0.2599  0.0925 -0.6185
 4807SOL    HW225881   4.313   4.376   4.177  2.2166 -1.6979 -0.3034
 4808SOL     OW25882   2.940   0.135   4.200 -0.2212 -0.3154 -0.0561
 4808SOL    HW125883   2.883   0.061   4.182 -0.8567  0.4216 -1.0668
 4808SOL    HW225884   3.018   0.103   4.156  0.4513 -0.6590  1.3702
 4809SOL     OW25885   3.393   4.698   2.457 -0.0330  0.4512  0.6111
 4809SOL    HW125886   3.344   0.024   2.392 -2.0448 -1.0539  1.0084
 4809SOL    HW225887   3.458   0.042   2.480  0.6559  0.5578 -1.6962
 4810SOL     OW25888   1.484   3.106   4.522  0.0730  0.7828 -0.1880
 4810SOL    HW125889   1.569   3.150   4.533  1.6951 -1.9818 -1.6493
 4810SOL    HW225890   1.432   3.165   4.577 -0.8209  2.4214 -2.8151
 4811SOL     OW25891   2.605   3.586   2.089  0.7204 -0.1984 -0.2120
 4811SOL    HW125892   2.620   3.624   2.176  1.3273  0.6728 -0.6973
 4811SOL    HW225893   2.693   3.581   2.053  1.8020 -1.7564  2.7374
 4812SOL     OW25894   3.839   2.180   3.505  0.4886 -0.2563  0.0396
 4812SOL    HW125895   3.841   2.134   3.421  0.0729 -0.8343  0.3422
 4812SOL    HW225896   3.779   2.126   3.556 -1.3873  1.4995 -0.2654
 4813SOL     OW25897   1.170   0.735   4.365 -0.1701 -0.2559 -0.3903
 4813SOL    HW125898   1.245   0.684   4.332 -0.0417 -0.1171 -0.3144
 4813SOL    HW225899   1.132   0.662   4.415  0.9703  2.1849  4.0181
 4814SOL     OW25900   3.642   0.640   3.410 -0.4199  0.2130  0.1547
 4814SOL    HW125901   3.682   0.693   3.341 -1.2439 -0.7174 -1.0613
 4814SOL    HW225902   3.570   0.696   3.437  0.0507  1.0347 -0.2855
 4815SOL     OW25903   4.388   3.436   6.601  0.3524 -0.4347  0.2059
 4815SOL    HW125904   4.430   3.442   6.686  2.0565 -2.0598 -0.5382
 4815SOL    HW225905   4.338   3.517   6.595  0.4683 -0.2916  1.2004
 4816SOL     OW25906   4.493   1.105   7.897 -0.0988 -0.8666  0.5430
 4816SOL    HW125907   4.461   1.133   7.983 -0.1765 -0.4995  0.3927
 4816SOL    HW225908   4.493   1.011   7.913  3.1458 -0.7399  1.2420
 4817SOL     OW25909   3.935   1.789   5.290 -0.0037  0.0013  0.0666
 4817SOL    HW125910   3.979   1.864   5.250 -1.2663  0.6476 -0.1130
 4817SOL    HW225911   3.856   1.774   5.237  0.9543 -2.0535 -0.7768
 4818SOL     OW25912   4.534   4.380   7.528  0.0760  0.5013 -0.0753
 4818SOL    HW125913   4.440   4.362   7.522  0.4348 -2.6500  3.0905
 4818SOL    HW225914   4.556   4.382   7.435 -0.8887 -1.1883 -0.3469
 4819SOL     OW25915   2.992   4.228  11.472  0.3128  0.1071  0.5616
 4819SOL    HW125916   3.031   4.219  11.559 -0.4367  0.8829  0.9848
 4819SOL    HW225917   2.910   4.274  11.493 -0.4016 -1.0949  0.3947
 4820SOL     OW25918   2.786   2.429  13.084  0.3907 -0.8527 -0.0303
 4820SOL    HW125919   2.767   2.390  12.998  0.4164  1.5396 -1.1433
 4820SOL    HW225920   2.862   2.487  13.075  0.5470 -1.1242 -0.4776
 4821SOL     OW25921   4.092   2.470   2.411 -0.4903  0.4298  0.0807
 4821SOL    HW125922   4.095   2.538   2.479 -2.7440 -0.6315  1.2670
 4821SOL    HW225923   4.054   2.400   2.464  2.8686  0.4879  2.5397
 4822SOL     OW25924   0.923   1.652   4.903  0.1571  0.4475 -0.6867
 4822SOL    HW125925   0.899   1.697   4.821  0.6863  0.3173 -0.9110
 4822SOL    HW225926   0.993   1.598   4.868  1.3407  1.7683 -0.3380
 4823SOL     OW25927   0.349   2.634  11.730  0.0587  0.2105 -0.1653
 4823SOL    HW125928   0.371   2.601  11.817 -0.9811 -0.9802 -0.3507
 4823SOL    HW225929   0.257   2.655  11.746  0.1865 -0.0978  0.9625
 4824SOL     OW25930   0.930   3.032   4.233 -0.1380 -0.1097  0.3540
 4824SOL    HW125931   0.854   3.026   4.175 -1.4266 -0.1161  2.0383
 4824SOL    HW225932   0.904   3.108   4.284 -1.8040  0.2977 -1.0875
 4825SOL     OW25933   3.425   1.374  10.958 -0.8223  0.3557 -0.5429
 4825SOL    HW125934   3.380   1.449  10.920  0.4665  0.2307 -2.2831
 4825SOL    HW225935   3.486   1.403  11.025 -0.2896 -2.3192  0.1544
 4826SOL     OW25936   1.355   2.927   3.153  0.3758  0.1803  0.0970
 4826SOL    HW125937   1.269   2.967   3.148  0.1741 -0.3673 -0.7361
 4826SOL    HW225938   1.392   2.960   3.235 -0.3293 -0.5688  0.7096
 4827SOL     OW25939   2.480   3.868  16.992 -0.3998 -0.2419  0.2429
 4827SOL    HW125940   2.485   3.830  17.080 -0.4064  0.6152  0.6178
 4827SOL    HW225941   2.389   3.846  16.972 -0.3511 -1.2533  1.1001
 4828SOL     OW25942   3.030   4.185   3.982  0.2311 -0.8635  0.1329
 4828SOL    HW125943   3.117   4.212   4.012  0.1038 -1.5274  1.1116
 4828SOL    HW225944   3.043   4.169   3.889  1.2562 -1.8381  0.4526
 4829SOL     OW25945   1.847   0.028   6.264 -0.1775  0.2668 -0.4567
 4829SOL    HW125946   1.791   4.673   6.274  0.4893 -0.5440 -2.8790
 4829SOL    HW225947   1.915   4.711   6.210  0.5325  0.2798  0.4302
 4830SOL     OW25948   0.906   0.296   5.529 -0.1996  0.3427  0.4506
 4830SOL    HW125949   0.915   0.215   5.580 -0.5965  0.1739  0.2531
 4830SOL    HW225950   0.989   0.301   5.482  0.0194  0.2538  0.8210
 4831SOL     OW25951   3.276   0.408   5.239  0.2809  0.4009  0.7814
 4831SOL    HW125952   3.227   0.401   5.158  0.8052 -0.3714  0.5349
 4831SOL    HW225953   3.289   0.314   5.252  2.0492  0.4454 -0.7025
 4832SOL     OW25954   3.590   3.727   4.599 -0.1579  0.4437 -1.1057
 4832SOL    HW125955   3.516   3.673   4.571  0.3634 -1.0838  0.4707
 4832SOL    HW225956   3.628   3.751   4.515 -0.7388  2.2134 -0.8529
 4833SOL     OW25957   4.064   4.531   7.063  0.2063  0.1560 -0.0545
 4833SOL    HW125958   4.042   4.541   6.970  1.8242  0.5311 -0.3899
 4833SOL    HW225959   4.013   4.452   7.079  0.9358 -0.2471  0.2400
 4834SOL     OW25960   3.305   3.052   3.246  0.1117  0.2641  0.4679
 4834SOL    HW125961   3.344   2.969   3.220 -0.8576  0.2210 -0.8087
 4834SOL    HW225962   3.340   3.104   3.174  0.3855 -1.4831 -0.6376
 4835SOL     OW25963   3.573   3.496   5.518 -0.3988  0.3157 -0.1802
 4835SOL    HW125964   3.626   3.574   5.535 -0.0638  0.1190 -0.3275
 4835SOL    HW225965   3.610   3.447   5.445  1.6849 -1.6712  2.2139
 4836SOL     OW25966   0.936   2.042  11.869  0.1526  0.2058 -0.5614
 4836SOL    HW125967   0.847   2.034  11.835  0.0447 -0.4423 -0.1222
 4836SOL    HW225968   0.962   2.115  11.812 -0.6363  0.9830  0.0847
 4837SOL     OW25969   0.976   0.686   6.628  0.5207  0.2324  0.5014
 4837SOL    HW125970   1.045   0.736   6.672  1.7521 -0.1295 -1.0236
 4837SOL    HW225971   0.980   0.610   6.685  1.1438  1.1316  1.6653
 4838SOL     OW25972   4.605   0.054  12.343  0.4236 -0.4185  0.0589
 4838SOL    HW125973   4.669   0.090  12.281  0.4925  0.0728  0.4139
 4838SOL    HW225974   4.571   0.140  12.368  0.6697 -0.0674 -0.8217
 4839SOL     OW25975   4.553   4.034   1.132 -0.4039 -0.4537 -0.2307
 4839SOL    HW125976   4.471   3.988   1.148  0.0757 -1.4291 -0.5710
 4839SOL    HW225977   4.520   4.106   1.078 -2.3122  0.7102  2.4756
 4840SOL     OW25978   0.657   1.600   2.131 -0.2904 -1.1759 -0.2295
 4840SOL    HW125979   0.698   1.584   2.046  0.4074  1.7203 -0.4397
 4840SOL    HW225980   0.566   1.578   2.111  0.2455 -1.6938 -2.0615
 4841SOL     OW25981   3.948   4.044   9.010  0.1362 -0.1772 -0.0898
 4841SOL    HW125982   4.003   4.081   9.079 -0.8330  2.7431 -0.8913
 4841SOL    HW225983   4.001   4.060   8.932 -1.4743 -0.7106 -1.2897
 4842SOL     OW25984   0.649   1.501   1.051 -0.4219 -0.0688  0.2962
 4842SOL    HW125985   0.683   1.565   1.113  1.3861  0.3918 -1.1888
 4842SOL    HW225986   0.732   1.492   1.004 -0.9499  0.0615 -0.6604
 4843SOL     OW25987   3.124   4.623   3.305  0.2790  0.4199  0.3987
 4843SOL    HW125988   3.138   4.534   3.336  1.9978  1.3266  2.2720
 4843SOL    HW225989   3.030   4.624   3.288  0.1537 -2.0566  0.9211
 4844SOL     OW25990   0.443   2.528  17.505  0.0823  0.1682  0.8679
 4844SOL    HW125991   0.495   2.447  17.505  0.5772  0.4878 -1.4886
 4844SOL    HW225992   0.485   2.587  17.443 -0.1491 -0.2647  0.3068
 4845SOL     OW25993   4.025   2.849   8.628 -0.4533  0.3976  0.1220
 4845SOL    HW125994   4.026   2.761   8.666 -0.4181 -0.4973 -2.0131
 4845SOL    HW225995   3.950   2.849   8.570  0.4224  2.1758 -1.0165
 4846SOL     OW25996   3.577   1.489   6.883 -0.4215  0.4617 -0.0484
 4846SOL    HW125997   3.640   1.418   6.873 -1.5409 -0.5485  0.2094
 4846SOL    HW225998   3.576   1.537   6.800  1.6233 -0.9679 -0.9056
 4847SOL     OW25999   0.973   1.267   7.917  0.4843 -0.4706 -0.2034
 4847SOL    HW126000   1.021   1.288   7.997  1.6690 -0.5452 -0.8879
 4847SOL    HW226001   0.915   1.204   7.960 -1.7997  0.3338 -2.1023
 4848SOL     OW26002   0.400   1.041  13.870  0.4694 -0.1280  0.0643
 4848SOL    HW126003   0.383   0.951  13.844  2.0891 -0.1708 -0.7951
 4848SOL    HW226004   0.455   1.069  13.797 -0.6523  3.2774  0.4945
 4849SOL     OW26005   4.365   0.099   8.212 -0.7241  0.1701  0.2675
 4849SOL    HW126006   4.357   0.150   8.293  0.3187  3.0338 -1.4299
 4849SOL    HW226007   4.444   0.054   8.241 -0.2888  1.1145  0.5560
 4850SOL     OW26008   2.621   3.976   1.258  0.0444  0.0127 -0.2043
 4850SOL    HW126009   2.628   3.883   1.280  2.5675  0.0888 -0.6123
 4850SOL    HW226010   2.529   3.977   1.234 -0.4442 -3.0206  1.5907
 4851SOL     OW26011   0.355   4.007   6.248  0.2067 -0.5957  0.0937
 4851SOL    HW126012   0.303   4.086   6.235  1.5681  0.4172  0.7168
 4851SOL    HW226013   0.325   3.974   6.333 -1.3749 -1.2051 -0.6947
 4852SOL     OW26014   3.238   0.289  13.395  0.4520 -0.6020  0.3490
 4852SOL    HW126015   3.152   0.248  13.386 -0.3232  0.5278  2.7392
 4852SOL    HW226016   3.260   0.306  13.303  2.1841 -2.0641  0.4887
 4853SOL     OW26017   4.008   0.277   0.778 -0.0855 -0.6113 -0.1878
 4853SOL    HW126018   4.007   0.195   0.728 -0.3321 -1.1870  0.7624
 4853SOL    HW226019   4.010   0.238   0.865 -1.3028 -0.8502 -0.2678
 4854SOL     OW26020   0.683   2.480   8.256 -0.1710 -0.1520 -0.6367
 4854SOL    HW126021   0.590   2.459   8.263 -0.0390 -0.1895  1.0048
 4854SOL    HW226022   0.713   2.407   8.201  2.4406 -0.3271  1.0182
 4855SOL     OW26023   0.235   0.019   9.386 -0.0747 -0.3240 -0.0363
 4855SOL    HW126024   0.328   0.010   9.407 -0.2266 -1.1346  0.3046
 4855SOL    HW226025   0.236   0.095   9.329 -1.0434 -0.2216  0.0699
 4856SOL     OW26026   1.502   1.134   2.740  0.3239 -0.1801  0.4491
 4856SOL    HW126027   1.450   1.060   2.770  0.8565  0.4175  2.9033
 4856SOL    HW226028   1.530   1.096   2.658  0.2682 -0.0008  0.3460
 4857SOL     OW26029   2.585   0.292   0.965  0.2008  0.5231  0.4768
 4857SOL    HW126030   2.510   0.346   0.989  0.3022  0.6785  0.4391
 4857SOL    HW226031   2.637   0.299   1.045  0.1810  1.3751  0.4125
 4858SOL     OW26032   3.085   3.619   5.745  0.1207 -0.2723  0.1476
 4858SOL    HW126033   3.061   3.528   5.726  1.3498 -0.4619 -0.5705
 4858SOL    HW226034   3.084   3.659   5.658 -2.3974  1.8515  1.1580
 4859SOL     OW26035   4.178   4.028  16.796 -0.6708 -0.4269  0.0236
 4859SOL    HW126036   4.169   4.124  16.795 -1.1628 -0.4864 -1.6409
 4859SOL    HW226037   4.249   4.033  16.860 -0.9408 -2.0071  0.4253
 4860SOL     OW26038   2.011   2.097   3.122  0.2669 -0.0283 -0.3184
 4860SOL    HW126039   1.956   2.164   3.163  1.0679 -0.4005  1.3722
 4860SOL    HW226040   2.097   2.113   3.162  0.1886  0.0812 -0.1912
 4861SOL     OW26041   4.659   3.638  17.587 -0.4459 -0.6632 -0.4291
 4861SOL    HW126042   0.005   3.609  17.648 -0.7226  1.3875  0.8626
 4861SOL    HW226043   4.632   3.715  17.637  0.6891 -0.9618  0.6586
 4862SOL     OW26044   1.928   0.438   0.388 -0.4730  0.0710  0.1767
 4862SOL    HW126045   1.904   0.367   0.329  0.9328 -1.1888  1.1005
 4862SOL    HW226046   1.851   0.446   0.445 -1.0266 -0.9331 -0.4364
 4863SOL     OW26047   2.503   2.977  14.548 -0.1349 -0.3976  0.5752
 4863SOL    HW126048   2.534   3.014  14.466 -0.1100 -2.1375 -0.2043
 4863SOL    HW226049   2.504   3.054  14.604  1.5492 -0.7031  0.9511
 4864SOL     OW26050   0.818   1.935   2.883  0.1691  0.0747 -0.1354
 4864SOL    HW126051   0.831   1.861   2.824 -1.2807 -0.4537  0.2279
 4864SOL    HW226052   0.723   1.939   2.889  0.1350 -2.0744  0.6594
 4865SOL     OW26053   0.569   0.000   3.117  0.7512  0.0091 -0.0611
 4865SOL    HW126054   0.632   0.040   3.057  0.1562  0.6226 -0.2782
 4865SOL    HW226055   0.616   4.652   3.160 -0.0930 -0.7200 -0.3461
 4866SOL     OW26056   3.720   2.751  11.056  0.3463 -0.4070 -0.2711
 4866SOL    HW126057   3.782   2.697  11.105  0.6087  0.5222  0.4034
 4866SOL    HW226058   3.714   2.705  10.972  3.2214 -1.2029 -0.0178
 4867SOL     OW26059   1.524   0.140   5.907 -0.6151  0.3414 -0.1745
 4867SOL    HW126060   1.606   0.144   5.857 -1.0504 -1.6393 -1.0491
 4867SOL    HW226061   1.532   0.230   5.940  0.5734  0.5716 -1.0737
 4868SOL     OW26062   4.026   2.927  15.315 -0.1526 -0.1713 -0.6409
 4868SOL    HW126063   3.931   2.926  15.329 -0.3224  0.9263 -1.8126
 4868SOL    HW226064   4.044   3.019  15.334 -0.6375 -0.3415  0.6910
 4869SOL     OW26065   4.631   3.116   7.652 -0.0567  0.3454  0.2419
 4869SOL    HW126066   4.718   3.134   7.619 -0.0192  5.2072  2.9466
 4869SOL    HW226067   4.620   3.192   7.710  1.5046  0.0892  0.8830
 4870SOL     OW26068   3.482   3.271  15.877  0.5449  0.2755  0.1637
 4870SOL    HW126069   3.405   3.234  15.834  0.3848  1.6144 -0.7109
 4870SOL    HW226070   3.452   3.361  15.895 -0.5288  0.1822 -1.1481
 4871SOL     OW26071   0.491   1.888   7.702  0.6051 -0.4292 -0.5232
 4871SOL    HW126072   0.488   1.911   7.795  1.6433 -1.7291 -0.1820
 4871SOL    HW226073   0.417   1.829   7.684  2.0913 -2.5877  0.5073
 4872SOL     OW26074   3.310   2.135   8.778  0.3942  0.0718  0.6811
 4872SOL    HW126075   3.227   2.091   8.764 -0.4267  1.0673  2.3267
 4872SOL    HW226076   3.353   2.073   8.838  0.5728  0.8240  1.3408
 4873SOL     OW26077   1.406   4.195   0.816  0.3447 -0.0640 -0.1522
 4873SOL    HW126078   1.380   4.154   0.734 -2.1866 -0.6845  0.9653
 4873SOL    HW226079   1.415   4.286   0.788  0.4300 -0.1306 -0.3432
 4874SOL     OW26080   1.022   2.509   3.087 -0.0442  0.1008  0.1540
 4874SOL    HW126081   1.059   2.490   3.001  0.5505  2.4236 -0.1083
 4874SOL    HW226082   1.043   2.423   3.124 -1.6043  0.9942  3.1320
 4875SOL     OW26083   3.550   1.151   1.598  0.6012  0.3362  0.0944
 4875SOL    HW126084   3.606   1.112   1.666 -0.9917 -1.7655  0.1922
 4875SOL    HW226085   3.611   1.166   1.525  0.6204 -0.9487 -0.1588
 4876SOL     OW26086   0.889   3.886   3.377  0.5182 -0.0877  0.1211
 4876SOL    HW126087   0.923   3.841   3.300 -2.3652  0.9466 -1.7801
 4876SOL    HW226088   0.858   3.809   3.424  0.0049  0.4427  0.6443
 4877SOL     OW26089   2.281   1.102   3.822  0.2830  0.1941 -0.3733
 4877SOL    HW126090   2.226   1.079   3.897  2.6814  0.3062  1.4202
 4877SOL    HW226091   2.226   1.171   3.786  0.6703  0.6550 -0.0924
 4878SOL     OW26092   4.642   0.557   6.133 -0.2183 -0.1768 -0.0167
 4878SOL    HW126093   4.618   0.504   6.057 -2.4525  1.3717 -0.3657
 4878SOL    HW226094   4.567   0.616   6.133  0.0610  0.1792  0.7092
 4879SOL     OW26095   4.070   3.634   2.018 -0.2213 -0.0866  0.3550
 4879SOL    HW126096   4.147   3.688   2.002 -0.5092 -0.1025 -1.1079
 4879SOL    HW226097   4.008   3.702   2.044 -0.4292 -0.4456  0.7842
 4880SOL     OW26098   2.392   4.151   6.205 -0.2342  0.3032  0.0897
 4880SOL    HW126099   2.486   4.164   6.189 -0.0067 -1.4315 -0.0788
 4880SOL    HW226100   2.402   4.065   6.247  0.5545 -0.4031 -1.5334
 4881SOL     OW26101   3.939   3.565   9.459 -0.4024  0.0449 -0.1492
 4881SOL    HW126102   3.887   3.589   9.382 -0.8580  0.8267  0.4070
 4881SOL    HW226103   4.014   3.624   9.450  1.1074 -1.5900  1.6761
 4882SOL     OW26104   0.300   3.285  16.193 -0.1542 -0.3458 -0.6733
 4882SOL    HW126105   0.350   3.338  16.131  1.0374  1.6085  1.9835
 4882SOL    HW226106   0.264   3.355  16.247  1.1652  0.9383 -1.4622
 4883SOL     OW26107   0.585   3.513   7.394 -0.9041  0.5702  0.1495
 4883SOL    HW126108   0.541   3.440   7.350  0.9171 -0.4448  0.0172
 4883SOL    HW226109   0.654   3.524   7.328 -1.5149  3.3350 -0.0573
 4884SOL     OW26110   2.687   3.993   6.169 -0.1757 -0.1751 -0.3901
 4884SOL    HW126111   2.768   4.024   6.208 -0.3468 -0.4545  0.1930
 4884SOL    HW226112   2.707   4.033   6.084 -1.9268 -1.8617 -1.6066
 4885SOL     OW26113   1.169   4.514  17.581  0.8256 -0.6261  0.3690
 4885SOL    HW126114   1.187   4.602  17.549 -0.6044 -0.1903  0.7941
 4885SOL    HW226115   1.219   4.458  17.521  1.7688  1.8428 -1.1482
 4886SOL     OW26116   1.942   2.260   6.478  0.2785  0.1610 -0.3806
 4886SOL    HW126117   1.967   2.178   6.436 -1.4357 -1.1517  1.1053
 4886SOL    HW226118   1.986   2.252   6.563 -0.8910 -1.8545  0.0550
 4887SOL     OW26119   1.071   2.250   3.095  0.2306 -0.2188 -0.4480
 4887SOL    HW126120   1.149   2.199   3.118  0.4285  1.4097  2.4919
 4887SOL    HW226121   1.045   2.196   3.020  1.3519  0.1325 -1.0955
 4888SOL     OW26122   1.550   1.772   5.495  0.6266 -0.4765  0.0156
 4888SOL    HW126123   1.553   1.750   5.588 -0.6253  2.2766  0.7075
 4888SOL    HW226124   1.641   1.793   5.476  1.0315 -0.3466  2.0959
 4889SOL     OW26125   2.111   2.756   4.946  0.3209 -0.1853 -0.0805
 4889SOL    HW126126   2.174   2.684   4.952  1.4392  0.5251 -3.5715
 4889SOL    HW226127   2.171   2.829   4.959  1.8961 -1.7762  1.7156
 4890SOL     OW26128   3.077   2.826   7.731 -0.1944  0.1209  0.0254
 4890SOL    HW126129   3.037   2.867   7.808 -0.9780 -0.2992 -0.1639
 4890SOL    HW226130   3.014   2.858   7.666  0.4750 -0.9923 -1.1820
 4891SOL     OW26131   3.838   2.141  13.284  0.5873 -0.2397  0.4302
 4891SOL    HW126132   3.899   2.144  13.210  0.7658  1.1216  0.6294
 4891SOL    HW226133   3.755   2.158  13.240  1.6772  0.5402 -1.3297
 4892SOL     OW26134   3.089   0.583   4.279  0.0367 -0.2902 -0.4959
 4892SOL    HW126135   3.174   0.537   4.276 -0.7462 -1.7233 -0.7786
 4892SOL    HW226136   3.050   0.558   4.362  0.3407 -0.5187 -0.4214
 4893SOL     OW26137   0.927   1.577  17.656 -0.3286  0.1495 -0.4712
 4893SOL    HW126138   0.879   1.524   0.026  0.8323  0.3745  0.6143
 4893SOL    HW226139   1.016   1.555  17.685 -0.2164 -1.7525 -2.3608
 4894SOL     OW26140   0.502   2.938   3.296  0.3807 -0.4579  0.0673
 4894SOL    HW126141   0.496   3.027   3.331  0.2539  0.5570 -2.5592
 4894SOL    HW226142   0.588   2.937   3.254  0.9180  0.4463  1.1316
 4895SOL     OW26143   0.448   0.381  13.537 -0.1382 -0.1645 -0.9251
 4895SOL    HW126144   0.377   0.374  13.474 -1.5082 -0.1928  0.5957
 4895SOL    HW226145   0.522   0.414  13.487  1.3656 -1.5803  0.3576
 4896SOL     OW26146   2.803   2.528   7.892 -0.2730 -0.5389  0.4512
 4896SOL    HW126147   2.898   2.527   7.882 -0.3353  0.6449 -0.2485
 4896SOL    HW226148   2.782   2.619   7.870 -1.9976 -1.5085 -1.9525
 4897SOL     OW26149   4.345   0.899   0.741 -0.1906  0.2021  0.6814
 4897SOL    HW126150   4.350   0.992   0.719 -1.1653  0.1607  0.2832
 4897SOL    HW226151   4.266   0.882   0.690  0.4320 -0.1532 -0.1700
 4898SOL     OW26152   0.898   3.757   4.606 -0.0775 -0.3286 -0.1880
 4898SOL    HW126153   0.896   3.819   4.679 -1.6586 -1.3231  0.6271
 4898SOL    HW226154   0.889   3.820   4.534  0.7120  1.3238  1.1667
 4899SOL     OW26155   4.404   0.258   2.007  0.2734  0.9120 -0.2484
 4899SOL    HW126156   4.399   0.353   2.004 -0.0073  0.9391  1.3175
 4899SOL    HW226157   4.423   0.245   1.914  1.0777  0.9032 -0.0786
 4900SOL     OW26158   1.080   0.267   8.188 -0.0667  0.1446  0.5215
 4900SOL    HW126159   1.013   0.231   8.131  0.0862 -0.0253  0.4510
 4900SOL    HW226160   1.110   0.188   8.232 -1.4338  0.0993  1.3779
 4901SOL     OW26161   3.846   4.659   1.458  0.2342  0.2518  0.4399
 4901SOL    HW126162   3.825   4.723   1.526 -1.5466 -0.4343  0.5207
 4901SOL    HW226163   3.793   4.682   1.382 -1.0304  0.3947  1.3627
 4902SOL     OW26164   0.821   3.061   9.791  0.3412  0.5697 -0.1032
 4902SOL    HW126165   0.818   3.152   9.759  1.5492  1.8132  3.3069
 4902SOL    HW226166   0.911   3.058   9.822  0.3788 -1.8359 -0.5064
 4903SOL     OW26167   1.746   3.607   0.072 -0.3774 -1.0718 -0.5855
 4903SOL    HW126168   1.748   3.578   0.163 -3.8390  1.1342  0.2221
 4903SOL    HW226169   1.741   3.703   0.081  2.8572 -0.7820 -1.6067
 4904SOL     OW26170   1.583   2.346   5.529  0.2165  0.6928 -0.0816
 4904SOL    HW126171   1.581   2.383   5.442 -3.7306  1.5580  0.3981
 4904SOL    HW226172   1.626   2.261   5.518 -0.7836  0.5332 -2.6548
 4905SOL     OW26173   2.709   4.121   7.824  0.5442  0.1754 -0.6663
 4905SOL    HW126174   2.785   4.091   7.874 -1.6566  0.1860  2.7375
 4905SOL    HW226175   2.711   4.214   7.848 -1.4598  0.4219 -1.4153
 4906SOL     OW26176   1.267   4.208   8.499  0.2023 -0.0678  0.1301
 4906SOL    HW126177   1.214   4.231   8.575 -0.3322 -0.3250 -0.1644
 4906SOL    HW226178   1.305   4.124   8.522  0.3556  0.7336  2.7586
 4907SOL     OW26179   2.709   4.140   2.828  0.6443 -0.2946 -0.4603
 4907SOL    HW126180   2.635   4.172   2.879  0.7467 -0.1720 -0.3885
 4907SOL    HW226181   2.689   4.047   2.842  1.6585 -0.5496 -0.6639
 4908SOL     OW26182   0.284   2.855   2.328  0.1325 -0.2302  0.1960
 4908SOL    HW126183   0.342   2.794   2.373  0.6194  0.6023  0.6931
 4908SOL    HW226184   0.232   2.802   2.267  2.4228 -0.6609 -1.3832
 4909SOL     OW26185   0.292   0.227   3.032 -0.8149 -0.2221  0.0608
 4909SOL    HW126186   0.271   0.320   3.028  0.9257  0.1967  0.8734
 4909SOL    HW226187   0.232   0.212   3.105 -2.4980 -1.5744 -1.5876
 4910SOL     OW26188   3.711   4.071   3.381 -0.4134 -0.4022  0.0113
 4910SOL    HW126189   3.736   4.164   3.384 -1.0058 -0.2846  1.1486
 4910SOL    HW226190   3.683   4.077   3.289  0.4369  1.8342 -0.1126
 4911SOL     OW26191   4.722   4.243   3.071 -0.0612  0.1626  0.2068
 4911SOL    HW126192   0.003   4.316   3.134  2.1809 -0.1512  0.4362
 4911SOL    HW226193   0.087   4.205   3.066  0.0575  0.2733  1.3230
 4912SOL     OW26194   4.231   4.363   4.016  0.6015  0.2082  0.0921
 4912SOL    HW126195   4.140   4.369   4.045  0.4547 -2.0455  0.0984
 4912SOL    HW226196   4.226   4.430   3.947 -0.2025 -0.5311 -0.5735
 4913SOL     OW26197   0.622   2.749   9.443  0.2739  0.6362 -0.2457
 4913SOL    HW126198   0.553   2.735   9.509  0.5268  0.3759 -0.0388
 4913SOL    HW226199   0.690   2.794   9.493 -0.3084 -1.7504  2.7239
 4914SOL     OW26200   4.181   0.844   3.025  0.0025  0.0218  0.0509
 4914SOL    HW126201   4.088   0.839   3.005  0.2010  2.3309 -1.5137
 4914SOL    HW226202   4.186   0.923   3.080  2.5000 -0.3154  0.3326
 4915SOL     OW26203   2.971   2.642   8.950  0.2261 -0.0806 -0.4179
 4915SOL    HW126204   2.905   2.601   9.006  0.5944  2.1047  1.6154
 4915SOL    HW226205   3.031   2.681   9.014  0.9527  1.8444 -2.2783
 4916SOL     OW26206   0.722   0.760   8.092 -0.1189 -0.1838  0.5001
 4916SOL    HW126207   0.768   0.794   8.015 -3.2767  2.0536 -0.4279
 4916SOL    HW226208   0.720   0.836   8.149 -1.7529  0.1866 -0.0453
 4917SOL     OW26209   1.602   3.093   5.874 -0.5974  0.0206  0.4379
 4917SOL    HW126210   1.546   3.023   5.841 -1.9893  0.4858  1.8224
 4917SOL    HW226211   1.614   3.074   5.967 -0.2473 -0.6906  0.2488
 4918SOL     OW26212   1.808   2.467   5.600  0.6762  0.4491  0.0045
 4918SOL    HW126213   1.730   2.420   5.568  1.4592 -1.4150  0.8478
 4918SOL    HW226214   1.850   2.407   5.661  0.1739  0.0686 -0.0233
 4919SOL     OW26215   1.874   4.586   7.333  0.1714  0.1003  0.1525
 4919SOL    HW126216   1.885   4.633   7.416  0.4354 -1.1054  0.8124
 4919SOL    HW226217   1.932   4.631   7.272  0.0573  0.6992  0.4872
 4920SOL     OW26218   3.057   3.262  17.147 -0.2060  0.6560 -0.6066
 4920SOL    HW126219   3.143   3.250  17.186 -0.5212  3.3121  0.9356
 4920SOL    HW226220   3.047   3.185  17.091  0.6447 -0.7039  1.1427
 4921SOL     OW26221   3.271   2.775   0.098  0.0467 -0.6352  0.0048
 4921SOL    HW126222   3.283   2.687   0.061 -0.5274 -0.2548 -1.0793
 4921SOL    HW226223   3.274   2.757   0.192 -0.3972 -0.4696  0.0529
 4922SOL     OW26224   4.405   0.324   0.872 -0.1377 -0.5503 -0.0143
 4922SOL    HW126225   4.347   0.385   0.826 -0.8981 -2.4860 -1.6330
 4922SOL    HW226226   4.450   0.282   0.798  0.6945 -0.0707  0.2172
 4923SOL     OW26227   0.952   0.041   9.348  0.4233 -0.5435  0.1030
 4923SOL    HW126228   0.981   0.131   9.332 -1.3859  0.0742  0.2908
 4923SOL    HW226229   0.977   0.017   9.437  0.0814 -0.1942  0.2922
 4924SOL     OW26230   2.385   4.591  10.044  0.2182 -0.0250 -0.3303
 4924SOL    HW126231   2.298   4.590  10.082  0.3593  0.2902  0.0024
 4924SOL    HW226232   2.437   4.621  10.118 -1.1971  0.6130  0.3995
 4925SOL     OW26233   3.607   4.722   3.756  0.3675 -0.0084 -0.1406
 4925SOL    HW126234   3.518   0.029   3.739  0.1679 -0.5575 -0.0551
 4925SOL    HW226235   3.644   0.067   3.813 -2.3529  0.4006  1.0982
 4926SOL     OW26236   2.209   4.500  17.223 -0.6617 -0.2825  0.1092
 4926SOL    HW126237   2.174   4.564  17.162 -0.2359 -0.3307 -0.1872
 4926SOL    HW226238   2.278   4.541  17.275 -0.6963 -0.5737  0.3875
 4927SOL     OW26239   2.928   0.289  15.680  0.6754 -0.1335  0.3515
 4927SOL    HW126240   2.967   0.261  15.597  3.9465 -0.4342  2.0223
 4927SOL    HW226241   2.987   0.247  15.741 -0.4302 -1.0103  0.8233
 4928SOL     OW26242   3.279   1.383   7.780 -0.3350  0.5529 -0.1797
 4928SOL    HW126243   3.370   1.409   7.797 -0.9877  3.8693 -1.8196
 4928SOL    HW226244   3.248   1.363   7.868 -0.4081 -0.8319 -0.5189
 4929SOL     OW26245   3.622   4.224   3.687 -0.0465 -0.5130  0.3284
 4929SOL    HW126246   3.688   4.265   3.742  0.9064 -1.1569 -0.3488
 4929SOL    HW226247   3.608   4.143   3.737  0.6252 -1.1093 -0.4353
 4930SOL     OW26248   4.082   0.790   4.639 -0.1623  0.1919 -0.0301
 4930SOL    HW126249   4.144   0.742   4.695 -1.3260 -2.4335 -0.9957
 4930SOL    HW226250   4.033   0.834   4.709  0.1949  0.3351  0.1322
 4931SOL     OW26251   0.298   3.842  11.326 -0.1447 -0.1700  0.0730
 4931SOL    HW126252   0.364   3.857  11.258 -0.1136 -1.6539 -0.2328
 4931SOL    HW226253   0.240   3.778  11.284 -0.2357  0.8741 -1.3582
 4932SOL     OW26254   1.449   1.676  13.650  0.2425  0.7070  0.0099
 4932SOL    HW126255   1.440   1.768  13.625  0.3694  0.9641  0.9044
 4932SOL    HW226256   1.363   1.649  13.616  0.3117  1.9309 -1.1368
 4933SOL     OW26257   1.555   2.563   6.130  0.3369  0.5206  0.4399
 4933SOL    HW126258   1.636   2.538   6.085 -0.1338  1.1429 -0.7437
 4933SOL    HW226259   1.535   2.622   6.058 -0.1785  0.4346  0.5131
 4934SOL     OW26260   1.991   4.136   5.399 -0.2624  0.1124  0.0321
 4934SOL    HW126261   2.045   4.134   5.320  1.4220 -1.3121  1.2205
 4934SOL    HW226262   2.003   4.043   5.418  0.3191 -0.0217 -1.0213
 4935SOL     OW26263   2.552   0.010   7.373 -0.0393  0.1452  0.5805
 4935SOL    HW126264   2.551   0.081   7.436 -0.6949  0.3645  0.3268
 4935SOL    HW226265   2.620   0.039   7.312 -0.0713  1.6338  1.2830
 4936SOL     OW26266   4.601   0.508  17.028 -0.3540 -0.4836  0.2793
 4936SOL    HW126267   4.517   0.548  17.005 -0.3933 -0.5951  0.2235
 4936SOL    HW226268   4.666   0.576  17.016  0.8505 -1.7857 -0.6124
 4937SOL     OW26269   1.616   1.769   7.236  0.1243 -0.1220  0.3635
 4937SOL    HW126270   1.551   1.836   7.255 -0.0341 -0.4169  0.8786
 4937SOL    HW226271   1.566   1.702   7.189  2.8131 -3.0497  1.6669
 4938SOL     OW26272   3.144   4.122   5.754 -0.1179  0.3102  0.9951
 4938SOL    HW126273   3.154   4.204   5.704 -4.7350  1.2368  1.5812
 4938SOL    HW226274   3.212   4.077   5.703 -0.3119 -3.0118  3.6859
 4939SOL     OW26275   4.064   3.911   1.754 -0.5337 -0.3742  0.5448
 4939SOL    HW126276   4.132   3.857   1.715 -0.2865 -0.4028  1.0223
 4939SOL    HW226277   3.988   3.853   1.747 -0.2973 -0.7068  0.7614
 4940SOL     OW26278   1.127   1.359   5.391  0.1288 -0.3046 -0.7214
 4940SOL    HW126279   1.096   1.438   5.347 -0.4311 -1.4995 -2.4335
 4940SOL    HW226280   1.043   1.321   5.417 -0.3068  1.6928  0.7970
 4941SOL     OW26281   0.154   2.336  11.365  0.3638 -0.8035 -0.0503
 4941SOL    HW126282   0.148   2.333  11.461 -1.0576  0.2298 -0.1032
 4941SOL    HW226283   0.139   2.245  11.340 -1.7385 -0.4992  0.1231
 4942SOL     OW26284   3.463   2.382   2.147 -0.0342  0.6347 -0.4102
 4942SOL    HW126285   3.462   2.308   2.086  0.4934 -1.7083  2.4312
 4942SOL    HW226286   3.534   2.438   2.114 -1.0437  1.8093 -0.5901
 4943SOL     OW26287   2.746   0.009   7.160  0.2894 -0.4633  0.7992
 4943SOL    HW126288   2.774   0.090   7.118 -0.7674 -1.3033 -1.4727
 4943SOL    HW226289   2.805   4.675   7.111  1.9025  3.1111 -1.3817
 4944SOL     OW26290   2.016   0.192  13.675  0.6351  0.0760  0.0096
 4944SOL    HW126291   2.012   0.113  13.729  0.7944  0.5913  0.7719
 4944SOL    HW226292   2.052   0.255  13.738  4.5129 -4.1822  2.0319
 4945SOL     OW26293   2.162   0.453  14.614 -0.0015  0.7533  0.3845
 4945SOL    HW126294   2.122   0.370  14.591 -2.7422  2.6789 -1.7628
 4945SOL    HW226295   2.117   0.517  14.559 -0.5642 -1.4746 -1.7217
 4946SOL     OW26296   1.549   4.248   7.726 -0.2335  0.0449 -0.0204
 4946SOL    HW126297   1.562   4.342   7.735 -0.5131  0.1102 -0.3335
 4946SOL    HW226298   1.455   4.244   7.744 -0.3658 -0.9616 -0.9220
 4947SOL     OW26299   3.276   1.930   6.180  0.6643 -0.3385 -0.1847
 4947SOL    HW126300   3.281   1.950   6.274 -2.0359  2.7490 -0.6790
 4947SOL    HW226301   3.203   1.987   6.154  0.5327  0.2661  1.4850
 4948SOL     OW26302   4.358   1.322   4.280 -0.1282 -0.2506 -0.3844
 4948SOL    HW126303   4.353   1.290   4.370  2.8163 -0.4047 -0.2686
 4948SOL    HW226304   4.268   1.350   4.266 -0.5447 -1.7981 -0.8639
 4949SOL     OW26305   1.186   3.331  10.901  0.1512 -0.0747 -0.4178
 4949SOL    HW126306   1.249   3.306  10.834  0.5441 -0.6159  0.1629
 4949SOL    HW226307   1.124   3.380  10.846 -0.4354 -0.5570 -0.1761
 4950SOL     OW26308   2.191   3.904   1.802 -0.2076 -0.4179 -0.4254
 4950SOL    HW126309   2.191   3.981   1.744  1.2535  1.2023  1.7257
 4950SOL    HW226310   2.191   3.823   1.751  1.1439  0.3067 -1.5829
 4951SOL     OW26311   2.886   1.312  11.233 -0.0536 -0.6706 -0.1149
 4951SOL    HW126312   2.868   1.219  11.246 -0.8431 -0.7665 -1.9209
 4951SOL    HW226313   2.873   1.346  11.322 -0.4371  0.3874 -0.5770
 4952SOL     OW26314   4.452   3.410  11.365 -0.2236 -0.0175  0.2908
 4952SOL    HW126315   4.527   3.361  11.400  1.1955  1.2316 -1.0417
 4952SOL    HW226316   4.400   3.434  11.443  2.6581  1.2838  1.7879
 4953SOL     OW26317   4.073   0.645   4.213 -0.1217 -0.2097  0.0518
 4953SOL    HW126318   4.037   0.657   4.126  0.9501 -1.4625 -0.5636
 4953SOL    HW226319   4.129   0.722   4.223 -2.0376  1.3864 -1.6121
 4954SOL     OW26320   0.164   4.201   2.308  0.0405  0.4355 -0.1582
 4954SOL    HW126321   0.115   4.149   2.372 -0.6330 -0.1763 -1.1924
 4954SOL    HW226322   0.117   4.284   2.320  0.0322  0.3687  0.2807
 4955SOL     OW26323   3.411   1.709   3.291  0.6523  0.1645 -0.0751
 4955SOL    HW126324   3.375   1.640   3.236 -0.2638 -0.2460  1.0485
 4955SOL    HW226325   3.335   1.751   3.333  1.3765  1.5907 -0.1672
 4956SOL     OW26326   3.226   1.801   0.731  0.0250  0.1666 -0.7416
 4956SOL    HW126327   3.272   1.870   0.779 -0.9690  0.5094 -0.2896
 4956SOL    HW226328   3.283   1.730   0.761  2.7894  2.8337  0.3214
 4957SOL     OW26329   2.714   0.929   0.580  0.0492  0.5951 -0.0878
 4957SOL    HW126330   2.656   1.000   0.551  0.2723  0.9805  0.4033
 4957SOL    HW226331   2.659   0.905   0.654  1.2803 -0.6455  0.4200
 4958SOL     OW26332   2.050   0.165   2.417  0.0327  0.0716  0.3709
 4958SOL    HW126333   2.072   0.162   2.510 -0.4056  1.8937  0.5266
 4958SOL    HW226334   2.019   0.075   2.407  2.5436 -0.5400 -2.0076
 4959SOL     OW26335   3.733   1.617  14.149  0.1066  0.4846 -0.0736
 4959SOL    HW126336   3.757   1.614  14.241 -1.4251 -0.5173  0.3025
 4959SOL    HW226337   3.786   1.687  14.111 -0.3197  0.3086 -0.9908
 4960SOL     OW26338   0.218   3.113   1.783  0.4262 -0.3831 -0.3508
 4960SOL    HW126339   0.220   3.199   1.741  0.0860  0.7708  1.9993
 4960SOL    HW226340   0.304   3.073   1.767  0.1791 -1.2671  0.4524
 4961SOL     OW26341   2.450   4.215   8.113  1.0563 -0.0656 -0.2824
 4961SOL    HW126342   2.432   4.134   8.065  0.3498 -0.3365  0.4363
 4961SOL    HW226343   2.522   4.183   8.168 -0.0443  0.9515  1.7531
 4962SOL     OW26344   0.356   0.641   7.556  0.2159  0.2164 -0.0157
 4962SOL    HW126345   0.320   0.553   7.546  2.3977 -0.6412 -0.4272
 4962SOL    HW226346   0.448   0.618   7.538 -0.2023 -1.0157 -0.5926
 4963SOL     OW26347   2.778   1.712  15.217 -0.1957  0.1473 -0.4635
 4963SOL    HW126348   2.683   1.696  15.220 -0.0970 -0.1289  1.4561
 4963SOL    HW226349   2.813   1.650  15.282 -0.1907 -1.0026 -1.5678
 4964SOL     OW26350   4.181   3.355   1.958  1.0925  0.6729  0.0136
 4964SOL    HW126351   4.143   3.404   2.031  2.9305  3.6928 -1.0552
 4964SOL    HW226352   4.275   3.364   1.973  0.9818  1.2683  0.3110
 4965SOL     OW26353   3.824   3.189   2.572 -0.3669 -0.0110 -0.0484
 4965SOL    HW126354   3.784   3.261   2.522 -0.6065 -0.6002 -0.6966
 4965SOL    HW226355   3.910   3.195   2.531  0.4898  2.9796  2.1664
 4966SOL     OW26356   4.053   2.602   8.428  0.4907 -0.1620 -0.2313
 4966SOL    HW126357   4.038   2.696   8.416  0.6548 -0.0478  0.4195
 4966SOL    HW226358   4.050   2.603   8.524 -1.6885  0.1580 -0.3044
 4967SOL     OW26359   3.125   0.910   4.587 -0.2271 -0.3235 -0.4987
 4967SOL    HW126360   3.035   0.893   4.614  0.8812 -1.9890  2.2530
 4967SOL    HW226361   3.124   1.003   4.612 -1.1467 -0.5538  0.3276
 4968SOL     OW26362   1.558   0.611   5.756  0.4190  0.5253  0.0340
 4968SOL    HW126363   1.541   0.677   5.823  0.9981 -0.4189  1.1104
 4968SOL    HW226364   1.559   0.651   5.669 -0.7025  0.8636  0.1655
 4969SOL     OW26365   0.996   1.966  15.216  0.1314 -0.3704 -0.0353
 4969SOL    HW126366   0.941   2.044  15.205 -2.0074 -2.1751 -2.0478
 4969SOL    HW226367   0.957   1.931  15.295 -0.7071  0.5484 -0.0320
 4970SOL     OW26368   1.948   3.438  17.141 -0.7448 -0.7822  0.5451
 4970SOL    HW126369   1.952   3.531  17.120  0.7801 -0.3938  2.5960
 4970SOL    HW226370   1.971   3.423  17.232 -0.9086  0.6541  0.8212
 4971SOL     OW26371   1.087   0.931   4.534  0.3974  0.1615  0.3107
 4971SOL    HW126372   1.153   0.905   4.469 -0.4589  0.4904 -0.6952
 4971SOL    HW226373   1.020   0.974   4.481  0.3326 -0.7740 -0.3746
 4972SOL     OW26374   0.797   3.742  13.777 -0.6710 -0.3986 -0.2896
 4972SOL    HW126375   0.760   3.705  13.697 -0.1766  0.7797 -1.0591
 4972SOL    HW226376   0.713   3.739  13.823 -0.5644  1.2419 -0.0067
 4973SOL     OW26377   4.327   3.670  17.678 -0.4820  0.0203  0.7715
 4973SOL    HW126378   4.268   3.704   0.051  0.3159  0.7864  1.0860
 4973SOL    HW226379   4.292   3.585  17.652 -0.8143  0.3889  0.0244
 4974SOL     OW26380   1.504   3.892   1.034 -0.0784 -0.0177 -0.1483
 4974SOL    HW126381   1.536   3.808   1.066  3.1929  1.1701 -0.2363
 4974SOL    HW226382   1.539   3.882   0.945 -1.8401  0.6927 -0.9236
 4975SOL     OW26383   2.081   3.973   1.482 -0.0886 -0.1606 -0.7314
 4975SOL    HW126384   2.013   3.909   1.506  2.0459 -2.3820 -0.5521
 4975SOL    HW226385   2.031   4.038   1.433 -0.5253  0.6337  0.7634
 4976SOL     OW26386   3.238   0.339   7.897 -0.2410 -0.0184  0.2063
 4976SOL    HW126387   3.142   0.345   7.900 -0.2168  0.1819  0.6191
 4976SOL    HW226388   3.257   0.354   7.990  0.7536  1.4805 -0.2418
 4977SOL     OW26389   0.015   0.137   7.148  0.7730 -0.2681  0.0059
 4977SOL    HW126390   0.040   0.224   7.118  0.2019 -0.3882 -0.8099
 4977SOL    HW226391   4.714   0.102   7.062  0.0096  0.3124 -0.0105
 4978SOL     OW26392   3.383   1.790   5.414  0.2832  0.1263 -0.5031
 4978SOL    HW126393   3.308   1.835   5.452  1.1024 -0.6597  2.0610
 4978SOL    HW226394   3.452   1.828   5.469  0.7934  0.6144 -1.4902
 4979SOL     OW26395   3.421   2.953   7.919 -0.0443  0.1198  0.3596
 4979SOL    HW126396   3.366   2.990   7.849  0.4350 -3.8893 -2.1415
 4979SOL    HW226397   3.435   2.869   7.874  3.2553  0.8902 -0.0034
 4980SOL     OW26398   3.996   2.543   3.088 -0.0524  0.5350  0.0306
 4980SOL    HW126399   4.077   2.574   3.048  0.7736  0.7958  1.9014
 4980SOL    HW226400   3.982   2.584   3.173  0.1479  1.6335 -0.4683
 4981SOL     OW26401   3.126   1.474  13.144 -0.0645 -0.0436  0.0188
 4981SOL    HW126402   3.131   1.381  13.124 -1.0563  0.2784 -1.7154
 4981SOL    HW226403   3.052   1.505  13.092 -1.0130 -3.8945 -0.9525
 4982SOL     OW26404   1.637   1.357   8.303 -0.4662 -0.1074 -0.2172
 4982SOL    HW126405   1.545   1.373   8.285 -0.5702  0.6403  0.9610
 4982SOL    HW226406   1.657   1.313   8.221  0.8499 -0.6883  0.4000
 4983SOL     OW26407   2.937   2.311   3.144  0.1196  0.3560  0.2308
 4983SOL    HW126408   2.984   2.369   3.204 -2.3255  0.7111  1.7907
 4983SOL    HW226409   3.011   2.250   3.133 -2.2166 -2.8557  2.3609
 4984SOL     OW26410   2.766   3.528  16.122  0.3757 -0.4056 -0.2434
 4984SOL    HW126411   2.753   3.460  16.056 -0.5704  0.3369 -0.8172
 4984SOL    HW226412   2.755   3.458  16.188  1.4031 -1.2885 -1.0188
 4985SOL     OW26413   1.431   0.787   5.558  0.0507 -0.2109  0.0814
 4985SOL    HW126414   1.374   0.747   5.493 -1.4925  0.7833  0.8094
 4985SOL    HW226415   1.512   0.808   5.511  0.4467 -1.0660  0.3802
 4986SOL     OW26416   0.413   4.372   1.060  0.3852 -0.0128 -0.6957
 4986SOL    HW126417   0.472   4.396   0.988  0.3320  1.1620 -0.3435
 4986SOL    HW226418   0.455   4.412   1.135  2.2586  0.3420 -1.9339
 4987SOL     OW26419   2.882   2.172   9.307 -0.5368  0.2376 -0.6190
 4987SOL    HW126420   2.878   2.090   9.257 -2.9012  0.7404 -1.2679
 4987SOL    HW226421   2.944   2.151   9.376 -1.6744  0.4753  0.4711
 4988SOL     OW26422   1.249   0.191   4.882  0.1951 -0.4954 -0.2964
 4988SOL    HW126423   1.169   0.146   4.856  0.4686  0.0234 -2.0518
 4988SOL    HW226424   1.311   0.122   4.901  2.1186  0.5670 -2.7208
 4989SOL     OW26425   1.393   4.649   9.404  0.0160 -0.5212  0.6159
 4989SOL    HW126426   1.405   0.008   9.453  1.2632 -2.5863  3.7921
 4989SOL    HW226427   1.317   4.680   9.354  1.5390 -0.7627 -1.8086
 4990SOL     OW26428   2.154   0.285   3.221  0.1792  0.6836 -0.3350
 4990SOL    HW126429   2.232   0.306   3.272  0.0533  1.2616 -0.3772
 4990SOL    HW226430   2.094   0.354   3.250 -0.3902 -0.3957  1.0827
 4991SOL     OW26431   3.177   1.379   5.184  0.8436  0.0383  0.3940
 4991SOL    HW126432   3.251   1.319   5.184 -0.9913 -2.2545 -0.6225
 4991SOL    HW226433   3.144   1.372   5.273  1.6884  0.3891  0.7305
 4992SOL     OW26434   0.296   2.524  12.666  0.0244 -0.3361  0.1107
 4992SOL    HW126435   0.329   2.590  12.605 -0.3038 -0.3226 -0.0524
 4992SOL    HW226436   0.369   2.464  12.659  0.9644  0.8732 -0.4448
 4993SOL     OW26437   2.277   1.874   6.092 -0.0796 -0.1305  0.4361
 4993SOL    HW126438   2.284   1.798   6.150 -0.6043 -0.1418  0.4875
 4993SOL    HW226439   2.347   1.857   6.029  0.5295  0.7419  0.8827
 4994SOL     OW26440   3.272   0.540   5.641  0.6286 -0.0438 -0.1906
 4994SOL    HW126441   3.228   0.593   5.574  1.7016 -0.6797 -1.3884
 4994SOL    HW226442   3.300   0.459   5.599  0.1295  0.2569 -1.0906
 4995SOL     OW26443   2.884   4.454   2.505  0.1437 -0.1421 -0.2452
 4995SOL    HW126444   2.789   4.453   2.517 -0.4165 -2.7595 -5.0501
 4995SOL    HW226445   2.911   4.546   2.505  0.0252 -0.1074 -1.1210
 4996SOL     OW26446   1.201   0.627  16.533  0.1385 -0.2903  0.4537
 4996SOL    HW126447   1.204   0.642  16.438  0.2981 -0.2213  0.4694
 4996SOL    HW226448   1.252   0.695  16.576  1.1924 -1.1428  0.5602
 4997SOL     OW26449   4.150   4.082   1.952  0.1892 -0.3466  0.2271
 4997SOL    HW126450   4.235   4.068   1.911  0.0156  0.2572 -0.3445
 4997SOL    HW226451   4.093   4.015   1.914 -0.2747  0.8245 -1.1411
 4998SOL     OW26452   1.294   1.448  12.070  0.0727 -0.5502  0.0218
 4998SOL    HW126453   1.284   1.360  12.034 -0.9958 -0.2064 -0.5111
 4998SOL    HW226454   1.350   1.495  12.008  2.2074 -4.5689 -1.0757
 4999SOL     OW26455   2.720   0.699   2.379  0.1629  0.2381 -0.3031
 4999SOL    HW126456   2.647   0.734   2.328  0.6591 -1.0648 -1.8924
 4999SOL    HW226457   2.671   0.675   2.458 -0.5947 -2.7883 -1.7204
 5000SOL     OW26458   1.337   3.256   7.353 -0.2238  0.6380 -0.2239
 5000SOL    HW126459   1.313   3.348   7.343  0.7671  1.1619  2.1047
 5000SOL    HW226460   1.283   3.231   7.428  0.9851  1.7113  1.0134
 5001SOL     OW26461   3.198   1.892   7.449  0.9589  0.5785  0.0821
 5001SOL    HW126462   3.183   1.920   7.540 -0.6906 -3.0594  0.9293
 5001SOL    HW226463   3.115   1.918   7.408  0.4446 -0.6693  0.3338
 5002SOL     OW26464   2.725   2.747   7.096  0.2330 -0.3378 -0.5786
 5002SOL    HW126465   2.647   2.744   7.150  1.2410  3.6421  1.1193
 5002SOL    HW226466   2.684   2.779   7.015  3.0205  0.4382 -1.7076
 5003SOL     OW26467   2.827   1.764   7.398  0.0681  0.1121  0.1636
 5003SOL    HW126468   2.862   1.847   7.365  0.5565  0.0290  0.4773
 5003SOL    HW226469   2.732   1.768   7.383 -0.0860  0.9845  1.3714
 5004SOL     OW26470   3.408   2.802  10.857 -0.0254 -0.0738 -0.1403
 5004SOL    HW126471   3.338   2.778  10.797  0.3231 -1.5564  0.0501
 5004SOL    HW226472   3.357   2.842  10.927 -0.2262 -0.2138 -0.2054
 5005SOL     OW26473   3.411   4.642  16.595  0.3362  0.1099  0.2999
 5005SOL    HW126474   3.443   4.567  16.545  1.3308 -0.0417  1.1613
 5005SOL    HW226475   3.487   4.699  16.607  0.6418 -0.2629  0.1187
 5006SOL     OW26476   1.199   1.126  13.400  0.0380  1.0116  0.4535
 5006SOL    HW126477   1.158   1.207  13.371  0.2222  0.6382 -0.8758
 5006SOL    HW226478   1.116   1.088  13.427  0.3396  2.3731  3.1735
 5007SOL     OW26479   3.070   0.360   6.286  0.0366 -0.1192  0.8036
 5007SOL    HW126480   3.034   0.296   6.347 -2.7859  2.4076  1.7866
 5007SOL    HW226481   3.071   0.439   6.339  1.9901  1.2289 -1.2855
 5008SOL     OW26482   3.125   1.399   5.451 -0.5022  0.1502 -0.2466
 5008SOL    HW126483   3.065   1.473   5.454 -1.6797 -0.7934 -0.2311
 5008SOL    HW226484   3.163   1.400   5.539  1.5256  0.8045 -1.1364
 5009SOL     OW26485   0.032   3.516   4.708 -0.0391 -0.0669 -0.1601
 5009SOL    HW126486   4.665   3.524   4.741  0.1362  3.2443 -0.5787
 5009SOL    HW226487   0.011   3.483   4.621 -0.9575  0.6926 -0.2326
 5010SOL     OW26488   2.153   3.979   9.816  0.3709  0.5375  0.4538
 5010SOL    HW126489   2.069   3.942   9.789  0.7773  0.0400 -0.1413
 5010SOL    HW226490   2.155   4.056   9.760 -2.9161  0.7113  0.5774
 5011SOL     OW26491   4.343   1.977   7.957 -0.5454  0.5102  0.2386
 5011SOL    HW126492   4.304   1.950   7.874  1.8460  0.2668 -0.8209
 5011SOL    HW226493   4.302   2.062   7.977  0.4421  1.1145 -0.2877
 5012SOL     OW26494   3.882   1.719   9.116  0.3715 -0.7861 -0.2324
 5012SOL    HW126495   3.955   1.755   9.166  0.0576  0.6092 -0.7786
 5012SOL    HW226496   3.813   1.694   9.177 -1.2503  3.9435 -0.0871
 5013SOL     OW26497   1.572   4.490  17.212 -0.0404  0.0401 -0.1898
 5013SOL    HW126498   1.580   4.409  17.163 -0.9714 -0.8520  1.1201
 5013SOL    HW226499   1.481   4.503  17.185  0.3867  2.5850 -0.4273
 5014SOL     OW26500   3.609   2.618  12.514  0.1114 -0.7519  0.0326
 5014SOL    HW126501   3.590   2.538  12.564  0.5831 -0.4059  0.7672
 5014SOL    HW226502   3.698   2.647  12.534 -0.8613  2.0751  0.2195
 5015SOL     OW26503   0.600   3.877   8.515 -0.5255  0.0161  0.1061
 5015SOL    HW126504   0.662   3.836   8.576  1.8004  0.8610 -1.7448
 5015SOL    HW226505   0.664   3.896   8.447 -2.5343 -1.4575 -2.1874
 5016SOL     OW26506   3.004   0.775  10.835  0.3386  0.2658 -0.1051
 5016SOL    HW126507   2.944   0.805  10.767  0.9317  1.4397 -0.1029
 5016SOL    HW226508   3.081   0.832  10.827  0.8487 -0.4323 -0.2200
 5017SOL     OW26509   4.039   3.490  11.517  0.5443 -0.6122  0.0593
 5017SOL    HW126510   4.053   3.563  11.457  0.2224  1.4294  2.4408
 5017SOL    HW226511   3.970   3.534  11.566 -0.7531 -2.2467 -0.3171
 5018SOL     OW26512   4.153   0.305   5.715  0.8251  0.1734  0.1961
 5018SOL    HW126513   4.102   0.385   5.731  0.1494 -0.2268  0.0207
 5018SOL    HW226514   4.107   0.275   5.637  0.2006 -3.1061  1.8506
 5019SOL     OW26515   1.178   2.770  15.128 -0.6860 -0.0774 -0.6467
 5019SOL    HW126516   1.200   2.849  15.080 -0.6621 -1.5583 -3.0737
 5019SOL    HW226517   1.128   2.721  15.062 -3.7851 -0.5079  1.9854
 5020SOL     OW26518   2.446   4.234  14.855  0.2287  0.0099 -0.6161
 5020SOL    HW126519   2.372   4.281  14.817 -0.6993 -0.5093  0.5355
 5020SOL    HW226520   2.423   4.244  14.948  0.5701 -1.5727 -0.3636
 5021SOL     OW26521   4.109   3.827   7.178  0.2445 -0.2455 -0.2883
 5021SOL    HW126522   4.094   3.760   7.244 -2.0188  1.1075  0.5785
 5021SOL    HW226523   4.205   3.829   7.177  0.2039  1.5117 -0.2621
 5022SOL     OW26524   2.832   2.936   6.164 -0.6974  0.4603 -0.1017
 5022SOL    HW126525   2.824   3.025   6.130  1.9767  1.4691  1.9503
 5022SOL    HW226526   2.776   2.930   6.242 -0.5138 -1.5624 -0.1171
 5023SOL     OW26527   0.124   2.553  12.879  0.4288  0.3215 -0.1157
 5023SOL    HW126528   0.186   2.511  12.939 -2.3202 -0.0315  2.4721
 5023SOL    HW226529   0.170   2.585  12.802  0.5465  1.9284  0.6152
 5024SOL     OW26530   1.108   2.359  10.377  0.3950 -0.0418 -0.3801
 5024SOL    HW126531   1.201   2.341  10.389  0.3458 -0.0105  0.0749
 5024SOL    HW226532   1.108   2.442  10.425  0.6039 -0.7100  0.7899
 5025SOL     OW26533   3.050   2.144  17.300  0.4044 -0.5194  0.3210
 5025SOL    HW126534   3.018   2.110  17.217 -1.0064  0.4936  0.4334
 5025SOL    HW226535   3.145   2.134  17.302  0.5557  0.8318 -0.0514
 5026SOL     OW26536   1.711   4.335  16.129  0.0045  0.1620  0.0827
 5026SOL    HW126537   1.725   4.410  16.071 -0.9077  0.1654 -0.1397
 5026SOL    HW226538   1.626   4.294  16.110  0.1338  0.2938 -0.8050
 5027SOL     OW26539   4.217   4.018   6.040 -0.0340  0.4990 -0.6022
 5027SOL    HW126540   4.193   3.926   6.051 -1.3374  0.8530 -0.4468
 5027SOL    HW226541   4.253   4.029   5.952  0.1323  0.2009 -0.5727
 5028SOL     OW26542   1.190   0.373  11.940 -0.4622  0.1906  0.2818
 5028SOL    HW126543   1.196   0.445  12.004 -0.4489 -0.7737  1.3633
 5028SOL    HW226544   1.094   0.374  11.936 -0.4054 -0.0186 -0.9672
 5029SOL     OW26545   2.468   0.288   2.664 -0.2612 -0.1460  0.8014
 5029SOL    HW126546   2.417   0.221   2.618 -0.2325 -0.2913  0.9772
 5029SOL    HW226547   2.433   0.363   2.616  0.7215 -0.3042 -0.1507
 5030SOL     OW26548   1.301   2.801   9.346  0.1546  0.1805 -0.1387
 5030SOL    HW126549   1.361   2.804   9.421  0.8762 -3.1683 -0.5894
 5030SOL    HW226550   1.326   2.713   9.317 -0.0149 -0.8196  2.7076
 5031SOL     OW26551   2.271   3.215   5.801  0.0746 -0.3293  0.1668
 5031SOL    HW126552   2.237   3.288   5.750  0.0383 -0.2603  0.2917
 5031SOL    HW226553   2.187   3.187   5.837 -1.2802  2.1826 -1.0370
 5032SOL     OW26554   0.808   3.235  14.107  0.6705 -0.4096  0.2064
 5032SOL    HW126555   0.724   3.270  14.139  1.1616 -0.7822  1.9197
 5032SOL    HW226556   0.829   3.167  14.171 -0.0194 -1.2757 -0.4914
 5033SOL     OW26557   3.032   3.450  10.062  0.1840  0.5802 -0.1671
 5033SOL    HW126558   3.021   3.529  10.115  1.7633  1.3777 -1.0189
 5033SOL    HW226559   3.099   3.484  10.003  1.5018 -0.0708  0.9411
 5034SOL     OW26560   0.445   4.192   3.043 -0.1969 -0.3512  0.0878
 5034SOL    HW126561   0.496   4.250   3.100 -1.9066  0.2460  1.0272
 5034SOL    HW226562   0.435   4.243   2.963 -1.7189 -1.1084 -0.1999
 5035SOL     OW26563   1.871   2.029  16.514  0.1857 -0.0951 -0.2339
 5035SOL    HW126564   1.813   2.101  16.492  1.2245  0.4340 -1.2385
 5035SOL    HW226565   1.919   2.076  16.581 -1.1780  0.1134  0.5925
 5036SOL     OW26566   3.813   1.399   9.354  0.4585 -0.1488 -0.0435
 5036SOL    HW126567   3.883   1.394   9.288  0.4118  1.2714 -0.1979
 5036SOL    HW226568   3.774   1.486   9.343  1.8298  0.5998  0.9937
 5037SOL     OW26569   0.695   4.147   9.826  0.2181 -0.1059 -0.7001
 5037SOL    HW126570   0.664   4.057   9.819 -1.9869  0.6460 -0.6806
 5037SOL    HW226571   0.639   4.187   9.759 -0.9882 -1.3901 -0.4594
 5038SOL     OW26572   2.278   0.515  15.211  0.0049 -0.4338 -0.2075
 5038SOL    HW126573   2.369   0.511  15.240  0.4231  0.6718 -1.3878
 5038SOL    HW226574   2.221   0.530  15.286  0.4182 -1.0858  0.2441
 5039SOL     OW26575   2.735   2.837   7.827  0.1787 -0.2904  0.1720
 5039SOL    HW126576   2.669   2.904   7.846  2.2598  2.5132 -2.5532
 5039SOL    HW226577   2.811   2.864   7.879 -1.8917  2.3991  1.7878
 5040SOL     OW26578   2.721   1.410  11.441 -0.3273 -0.0805 -0.5021
 5040SOL    HW126579   2.638   1.366  11.423  1.0560 -2.6903 -0.5814
 5040SOL    HW226580   2.717   1.473  11.369 -2.0584 -0.8712 -1.0934
 5041SOL     OW26581   4.628   4.229   8.524 -0.4360 -0.0868  0.6150
 5041SOL    HW126582   4.718   4.212   8.498 -0.3431 -1.0685  1.5631
 5041SOL    HW226583   4.575   4.199   8.451  1.6346  0.3648 -1.0691
 5042SOL     OW26584   1.099   3.692   4.289 -0.1284 -0.3886  0.1487
 5042SOL    HW126585   1.126   3.671   4.378  1.1504  2.3039  0.3890
 5042SOL    HW226586   1.138   3.777   4.266 -0.4902 -0.5235 -0.9793
 5043SOL     OW26587   0.951   1.229   5.737 -0.1009  0.5024  0.0176
 5043SOL    HW126588   1.026   1.171   5.724  0.1805  0.7718  0.4276
 5043SOL    HW226589   0.902   1.215   5.656  2.2289 -0.6875 -1.1757
 5044SOL     OW26590   2.517   3.558   6.495  0.1199 -0.0701  0.0885
 5044SOL    HW126591   2.441   3.518   6.453 -0.0141  2.2513 -1.8329
 5044SOL    HW226592   2.548   3.595   6.412 -0.2911  0.9974  0.4020
 5045SOL     OW26593   0.893   3.246  10.752 -0.0719  0.7565  0.1639
 5045SOL    HW126594   0.921   3.157  10.772  1.0400  1.0695  0.0417
 5045SOL    HW226595   0.844   3.275  10.828 -0.0017  0.9970  0.1173
 5046SOL     OW26596   2.705   4.643  10.178  0.1741 -0.2477  0.4860
 5046SOL    HW126597   2.719   4.647  10.083  0.2245 -2.7854  0.3836
 5046SOL    HW226598   2.713   0.015  10.189  0.2429  0.3136 -4.2670
 5047SOL     OW26599   0.852   2.028   5.911  0.5293  0.2718 -0.1755
 5047SOL    HW126600   0.895   2.053   5.830  0.5023  0.2544 -0.1953
 5047SOL    HW226601   0.866   1.933   5.903  0.9008  0.3635 -0.5752
 5048SOL     OW26602   1.977   1.902   6.990 -0.0268 -0.4511  0.1653
 5048SOL    HW126603   1.968   1.985   7.037 -1.3613 -1.5749  1.8737
 5048SOL    HW226604   2.071   1.914   6.980 -0.1807  1.4902  1.1548
 5049SOL     OW26605   4.532   3.579   4.489  0.5727 -0.0756  0.8777
 5049SOL    HW126606   4.515   3.493   4.452 -1.1557  0.1054  1.2740
 5049SOL    HW226607   4.589   3.602   4.415 -1.0732  0.1832 -0.3219
 5050SOL     OW26608   1.164   0.766   3.816  0.5231  0.2512  0.5095
 5050SOL    HW126609   1.222   0.692   3.800  0.1229 -0.0108  0.2765
 5050SOL    HW226610   1.086   0.762   3.760 -0.2801 -0.2120  1.6499
 5051SOL     OW26611   2.119   1.725  16.140 -0.1303  0.0061 -0.3135
 5051SOL    HW126612   2.206   1.688  16.160 -0.7381 -0.9428  0.5703
 5051SOL    HW226613   2.146   1.816  16.125  1.2706 -0.2156  0.8020
 5052SOL     OW26614   4.577   1.659   8.816 -0.0032  0.3174 -0.7211
 5052SOL    HW126615   4.574   1.688   8.908  0.6822  2.9928 -1.5462
 5052SOL    HW226616   4.485   1.667   8.792  0.0891  2.5466 -0.3705
 5053SOL     OW26617   4.448   2.948   7.553 -0.7278 -0.2708 -0.3620
 5053SOL    HW126618   4.364   2.964   7.596 -0.6023 -0.7123  0.0455
 5053SOL    HW226619   4.504   3.011   7.597 -0.1315 -2.9092  2.6355
 5054SOL     OW26620   4.042   1.374   2.033 -0.0399  0.0342 -0.0820
 5054SOL    HW126621   4.122   1.396   1.986  0.3003 -1.3256 -0.1247
 5054SOL    HW226622   4.011   1.295   1.991 -2.4777  0.9437  0.0026
 5055SOL     OW26623   2.513   1.503   1.031 -0.0372 -0.0125 -0.2355
 5055SOL    HW126624   2.448   1.465   0.972  1.1622 -0.5351 -1.2021
 5055SOL    HW226625   2.537   1.421   1.075 -2.2182 -0.4244  0.2147
 5056SOL     OW26626   1.756   1.664   5.217 -0.0622  0.7211  0.2536
 5056SOL    HW126627   1.774   1.755   5.193 -0.6848  0.8282  0.2018
 5056SOL    HW226628   1.799   1.617   5.146 -1.2470 -0.7093  0.4954
 5057SOL     OW26629   2.197   4.322  16.595  0.2087  0.0610  0.0304
 5057SOL    HW126630   2.236   4.283  16.517  0.2052 -1.5534  0.8267
 5057SOL    HW226631   2.170   4.407  16.562  0.3667  0.6060  1.3239
 5058SOL     OW26632   4.145   3.318   3.186  0.3741 -0.0278 -0.4710
 5058SOL    HW126633   4.138   3.309   3.091  2.1226 -1.0729 -0.5081
 5058SOL    HW226634   4.059   3.287   3.213  1.3929 -1.9116  0.6301
 5059SOL     OW26635   2.855   3.884  10.261  0.1120 -0.2033 -0.0078
 5059SOL    HW126636   2.876   3.965  10.308 -1.0919 -1.0415  1.9478
 5059SOL    HW226637   2.930   3.825  10.274  1.1830  1.2977  0.6385
 5060SOL     OW26638   1.983   1.611  12.915  0.1282 -0.9875  0.4272
 5060SOL    HW126639   1.900   1.654  12.936 -0.2712 -0.3775 -2.3172
 5060SOL    HW226640   2.041   1.632  12.988 -1.6775  0.1239  1.5454
 5061SOL     OW26641   3.052   4.407  16.706 -0.1240  0.5140  0.3321
 5061SOL    HW126642   3.110   4.482  16.706  0.0348  0.3922  1.0610
 5061SOL    HW226643   2.977   4.445  16.660  0.5201  0.1485 -1.0297
 5062SOL     OW26644   1.572   0.077   0.048 -0.1849 -0.2590  0.2232
 5062SOL    HW126645   1.566   0.126  17.660  0.1346 -0.8587 -0.1592
 5062SOL    HW226646   1.630   0.004   0.025 -0.6669 -0.4591 -0.3728
 5063SOL     OW26647   0.039   2.924   7.395 -0.1374  0.9385  0.1089
 5063SOL    HW126648   4.700   2.992   7.370 -0.1047  0.7080 -0.6066
 5063SOL    HW226649   4.715   2.859   7.446  0.1855  1.3971  0.9938
 5064SOL     OW26650   1.455   0.368   1.083 -0.1295  0.3327 -0.2104
 5064SOL    HW126651   1.510   0.382   1.159  0.3809 -2.8258  0.0053
 5064SOL    HW226652   1.486   0.280   1.061  0.1194  0.4167 -0.1900
 5065SOL     OW26653   2.174   2.670   2.595 -0.1819 -0.2069  0.2068
 5065SOL    HW126654   2.267   2.665   2.616  0.1309 -1.2598 -1.4416
 5065SOL    HW226655   2.139   2.625   2.672  2.0187 -1.5860  0.4092
 5066SOL     OW26656   2.079   1.595   1.214  0.4429  0.1163  0.0345
 5066SOL    HW126657   2.172   1.598   1.234 -0.3804  1.9074  3.5040
 5066SOL    HW226658   2.081   1.569   1.121  1.7972 -0.8915  0.3428
 5067SOL     OW26659   2.070   1.900   4.840  0.1198  0.8556 -0.3284
 5067SOL    HW126660   2.126   1.857   4.775 -2.1308 -3.9793  1.0031
 5067SOL    HW226661   2.042   1.823   4.888  4.3119 -0.8571 -0.6592
 5068SOL     OW26662   3.593   3.277  10.326 -0.0812  0.3537 -0.0676
 5068SOL    HW126663   3.574   3.238  10.411  0.6075  0.3134  0.0679
 5068SOL    HW226664   3.664   3.335  10.352 -1.3607  1.6168  0.6633
 5069SOL     OW26665   3.479   0.698   3.153  0.0741 -0.6227  0.4524
 5069SOL    HW126666   3.551   0.747   3.194 -2.1582  1.2246  2.1439
 5069SOL    HW226667   3.403   0.751   3.174  1.8384  2.7255 -1.6440
 5070SOL     OW26668   2.914   2.976   2.664  0.4223 -0.3966 -0.0456
 5070SOL    HW126669   2.917   2.922   2.585 -0.7346 -1.5155  0.6605
 5070SOL    HW226670   3.008   2.984   2.680  0.3437  0.1910  0.1303
 5071SOL     OW26671   3.296   0.374  11.893  0.2179  0.3078  0.1188
 5071SOL    HW126672   3.388   0.372  11.920  0.6867  2.8881 -1.2841
 5071SOL    HW226673   3.254   0.375  11.979  0.5536 -2.7250  0.3115
 5072SOL     OW26674   0.475   2.292   8.502  0.8316 -0.4173 -0.4152
 5072SOL    HW126675   0.570   2.278   8.502  0.9712  0.5317  1.2692
 5072SOL    HW226676   0.448   2.367   8.448 -1.7298 -0.8373  0.3018
 5073SOL     OW26677   1.461   2.840   7.625  0.1829 -0.2839  0.5599
 5073SOL    HW126678   1.538   2.846   7.569 -0.3211 -1.2026 -0.2332
 5073SOL    HW226679   1.434   2.760   7.581  1.0005 -0.2698  0.0275
 5074SOL     OW26680   3.004   0.119   5.579  0.3078  0.2073  0.3930
 5074SOL    HW126681   2.957   0.052   5.529 -0.6866  0.0337  1.5658
 5074SOL    HW226682   3.015   0.192   5.519  1.7663 -1.2695 -1.1208
 5075SOL     OW26683   3.543   1.722   7.999  0.5973  0.0790 -0.1394
 5075SOL    HW126684   3.554   1.714   8.093  2.6633  1.5593 -0.2443
 5075SOL    HW226685   3.447   1.720   7.999  0.6432 -1.9247  0.9437
 5076SOL     OW26686   0.872   0.503   4.774 -0.0613 -0.0044 -0.2336
 5076SOL    HW126687   0.830   0.464   4.851  1.6530  1.1767  1.2995
 5076SOL    HW226688   0.965   0.497   4.793 -0.2079  1.0786  0.8369
 5077SOL     OW26689   3.270   1.364   4.841 -0.3458  0.7337 -0.1242
 5077SOL    HW126690   3.281   1.370   4.935  1.0830  1.4237 -0.3337
 5077SOL    HW226691   3.267   1.453   4.807 -2.4038  1.1324  1.1533
 5078SOL     OW26692   3.230   2.794   9.379  0.4302 -0.0384 -0.3858
 5078SOL    HW126693   3.287   2.808   9.303 -1.0280  1.3030 -1.2277
 5078SOL    HW226694   3.191   2.712   9.348 -0.6922  0.0462  0.7972
 5079SOL     OW26695   0.937   4.682   7.731  0.3087  0.2224 -0.0927
 5079SOL    HW126696   0.843   4.665   7.743  0.4574 -2.2758 -2.2591
 5079SOL    HW226697   0.923   0.013   7.653 -0.9224 -1.7751 -1.2871
 5080SOL     OW26698   2.734   1.871   8.989  0.3253  0.2433  0.1448
 5080SOL    HW126699   2.753   1.791   8.940 -0.5335 -1.0879  2.0131
 5080SOL    HW226700   2.681   1.914   8.922 -0.9451 -2.4799 -0.6294
 5081SOL     OW26701   1.782   2.014   0.178  0.2322  0.1572 -0.1918
 5081SOL    HW126702   1.716   1.986   0.242 -0.1165 -0.1959 -0.7110
 5081SOL    HW226703   1.866   1.984   0.212 -0.7265 -0.7029  1.4234
 5082SOL     OW26704   3.327   1.942  12.075 -0.3584  0.1185 -0.4630
 5082SOL    HW126705   3.369   1.910  12.155 -1.2521  0.8382  0.2970
 5082SOL    HW226706   3.264   2.005  12.109  1.2260 -0.3854  3.4546
 5083SOL     OW26707   0.524   3.463   2.346 -0.0433  0.3253 -0.0221
 5083SOL    HW126708   0.552   3.372   2.349  0.2642  0.3315 -2.3915
 5083SOL    HW226709   0.447   3.451   2.290 -0.7810 -1.0640  1.3131
 5084SOL     OW26710   3.623   4.266   6.575 -0.4319  0.4590 -0.4618
 5084SOL    HW126711   3.547   4.282   6.631  1.5784 -1.8726  2.9663
 5084SOL    HW226712   3.678   4.343   6.587  2.3347 -1.4189 -1.0928
 5085SOL     OW26713   0.568   3.267   5.908 -0.0684  0.5297  0.0722
 5085SOL    HW126714   0.532   3.351   5.937 -1.3793 -0.2803  0.7948
 5085SOL    HW226715   0.536   3.220   5.985 -0.8787  0.6557 -0.1895
 5086SOL     OW26716   3.206   3.717   7.019  0.2657 -0.1862  0.1138
 5086SOL    HW126717   3.157   3.787   6.976 -0.4657 -0.4598  0.5033
 5086SOL    HW226718   3.223   3.667   6.939  1.5108  1.7088 -0.7949
 5087SOL     OW26719   2.281   0.874  10.146  0.1930 -0.5833  0.1444
 5087SOL    HW126720   2.357   0.877  10.088  0.3368  1.2437  0.4462
 5087SOL    HW226721   2.225   0.825  10.086 -1.3901  0.1269  1.0328
 5088SOL     OW26722   1.092   0.902  15.760 -0.1000 -0.9754 -0.1476
 5088SOL    HW126723   1.071   0.938  15.674  0.5231 -0.5206 -0.1133
 5088SOL    HW226724   1.172   0.947  15.788 -0.1133 -0.8505 -0.3139
 5089SOL     OW26725   2.663   3.743  12.948  0.2183 -0.3156 -0.3519
 5089SOL    HW126726   2.659   3.828  12.991 -0.2821 -0.6372  0.2318
 5089SOL    HW226727   2.713   3.772  12.871 -0.2150  0.7895 -0.2037
 5090SOL     OW26728   3.507   0.505  12.454 -0.3045  0.3190 -0.0545
 5090SOL    HW126729   3.445   0.565  12.496 -0.9582  0.9594 -1.8946
 5090SOL    HW226730   3.500   0.436  12.519  1.4860  0.1802 -0.0250
 5091SOL     OW26731   2.755   4.342   4.043  0.6674  0.0693 -0.4162
 5091SOL    HW126732   2.693   4.271   4.027 -1.0297  1.4812  0.0055
 5091SOL    HW226733   2.700   4.420   4.034 -2.7499 -2.6188 -2.8532
 5092SOL     OW26734   3.905   0.899   6.588  0.1401 -0.2591 -0.2576
 5092SOL    HW126735   3.821   0.886   6.631  0.7965  0.8235  1.4045
 5092SOL    HW226736   3.874   0.917   6.500  0.1246  1.0324  0.0030
 5093SOL     OW26737   4.586   1.802   8.376  0.6479  0.2727 -0.4327
 5093SOL    HW126738   4.635   1.783   8.456 -3.0447 -1.8487  1.3490
 5093SOL    HW226739   4.658   1.832   8.321  1.6120 -1.2062  0.0151
 5094SOL     OW26740   3.430   0.247  15.892 -0.0746 -0.0180  0.2434
 5094SOL    HW126741   3.431   0.339  15.865  1.7410 -0.1443 -0.1398
 5094SOL    HW226742   3.487   0.212  15.824 -0.5034 -2.2537  1.0443
 5095SOL     OW26743   2.070   0.955   0.901 -0.4195 -0.6113 -0.0925
 5095SOL    HW126744   2.147   1.009   0.917 -0.8778  0.1301 -0.4005
 5095SOL    HW226745   2.055   0.930   0.992 -1.5256 -1.1130 -0.4012
 5096SOL     OW26746   3.808   2.173   7.690 -0.2834 -0.4666  0.0918
 5096SOL    HW126747   3.811   2.152   7.597  0.2284  1.0152 -0.2382
 5096SOL    HW226748   3.789   2.095   7.742 -0.6507 -0.7133 -0.4103
 5097SOL     OW26749   1.500   1.322   3.024  0.0728  0.0699 -0.2104
 5097SOL    HW126750   1.438   1.353   3.090  0.2126 -0.3821  0.1383
 5097SOL    HW226751   1.456   1.350   2.944 -1.7419  0.3825  0.8848
 5098SOL     OW26752   4.263   0.542  17.269  0.3244 -0.1190 -0.3331
 5098SOL    HW126753   4.192   0.515  17.328 -1.7069 -0.1384 -2.7482
 5098SOL    HW226754   4.260   0.478  17.198  0.7753  2.0427 -2.2621
 5099SOL     OW26755   3.182   2.033   6.684  0.1899 -0.0916  0.3168
 5099SOL    HW126756   3.179   2.101   6.751  0.6915  1.8065 -1.5934
 5099SOL    HW226757   3.089   2.019   6.664  1.2723 -2.9205 -2.7406
 5100SOL     OW26758   0.939   1.333  11.032  0.4513  0.3105 -0.3264
 5100SOL    HW126759   0.894   1.411  10.999 -1.1086 -0.6946 -0.5755
 5100SOL    HW226760   0.950   1.363  11.122  0.2824  0.8432 -0.4826
 5101SOL     OW26761   2.843   3.896  17.598 -0.5190  0.0170  0.5483
 5101SOL    HW126762   2.936   3.915  17.592 -0.3100 -0.5035  2.0234
 5101SOL    HW226763   2.814   3.958  17.531  0.8674  1.1715  1.0290
 5102SOL     OW26764   1.594   2.894   5.459 -0.2684  0.1671 -0.3006
 5102SOL    HW126765   1.617   2.967   5.516  0.5876 -0.9348  0.7883
 5102SOL    HW226766   1.648   2.822   5.492  0.4806  1.0467  0.3679
 5103SOL     OW26767   1.819   4.413  14.918 -0.1283  0.3419 -0.5839
 5103SOL    HW126768   1.836   4.369  15.002 -1.2554 -0.6611 -0.8818
 5103SOL    HW226769   1.903   4.445  14.885  0.1004  1.0436  0.6700
 5104SOL     OW26770   3.110   1.456   3.722 -0.7718 -0.4462 -0.5434
 5104SOL    HW126771   3.203   1.452   3.701 -0.4769 -1.1542  0.9344
 5104SOL    HW226772   3.085   1.364   3.732 -1.3742 -0.4532 -2.0876
 5105SOL     OW26773   3.424   2.455   3.522 -0.3216 -0.1949 -0.3969
 5105SOL    HW126774   3.403   2.546   3.501  0.6981  0.3118  0.7983
 5105SOL    HW226775   3.367   2.431   3.595 -0.1275  2.1092  0.5133
 5106SOL     OW26776   0.802   0.218   6.111  0.3609 -0.1711  0.3037
 5106SOL    HW126777   0.844   0.149   6.163  0.0120 -2.1988 -2.1428
 5106SOL    HW226778   0.758   0.267   6.181  1.3114 -0.8545  1.3786
 5107SOL     OW26779   3.245   2.925   3.658 -0.2598 -0.1349  0.1343
 5107SOL    HW126780   3.334   2.900   3.681 -0.9531 -1.2134  1.6743
 5107SOL    HW226781   3.209   2.947   3.744 -0.1589 -0.8168  0.3527
 5108SOL     OW26782   2.846   3.793   5.175  0.5472  0.2322 -0.0599
 5108SOL    HW126783   2.860   3.887   5.185  2.8614  0.0953 -2.0474
 5108SOL    HW226784   2.804   3.776   5.259 -2.1966  3.1212 -0.8521
 5109SOL     OW26785   1.285   1.067  14.764  0.0657  0.1330 -0.3805
 5109SOL    HW126786   1.240   1.032  14.841  0.0013  3.3176  0.9978
 5109SOL    HW226787   1.237   1.149  14.775 -0.3313 -0.4089  2.0210
 5110SOL     OW26788   1.362   4.096  17.379  0.4950  0.1464  0.0122
 5110SOL    HW126789   1.346   4.160  17.309 -1.0194 -0.1142  0.1199
 5110SOL    HW226790   1.340   4.012  17.339 -1.3562  1.2240 -1.2706
 5111SOL     OW26791   2.872   2.392  17.667 -0.3734 -0.2536 -0.0367
 5111SOL    HW126792   2.864   2.354   0.061  1.4011 -3.4475 -1.2732
 5111SOL    HW226793   2.942   2.456  17.677  1.0447 -1.8983  0.5299
 5112SOL     OW26794   1.292   1.234   2.364  0.0108 -0.7176  0.1838
 5112SOL    HW126795   1.281   1.294   2.290 -0.4126 -2.2508 -0.9982
 5112SOL    HW226796   1.211   1.249   2.411 -0.7202  3.5202 -2.4378
 5113SOL     OW26797   2.906   0.592   6.405  0.1015  0.2365 -0.4852
 5113SOL    HW126798   2.997   0.606   6.430  0.8264 -2.1589 -1.7631
 5113SOL    HW226799   2.860   0.541   6.472  1.5119 -3.0530 -2.0173
 5114SOL     OW26800   3.656   3.360  17.515 -0.3641 -0.5754 -0.1160
 5114SOL    HW126801   3.632   3.268  17.526  0.1160 -0.7831 -0.8302
 5114SOL    HW226802   3.660   3.361  17.419 -0.1638 -3.0211 -0.1283
 5115SOL     OW26803   1.107   3.631   1.711  0.6139 -0.1394  0.1658
 5115SOL    HW126804   1.026   3.587   1.687  0.3082  1.4065 -1.6300
 5115SOL    HW226805   1.070   3.718   1.699  1.9435  0.1012 -2.1329
 5116SOL     OW26806   2.725   4.085  17.401 -0.0342 -0.3376  0.5170
 5116SOL    HW126807   2.714   4.137  17.481  1.1350 -0.7934  0.9746
 5116SOL    HW226808   2.670   4.131  17.337 -0.2708  0.3778  1.2351
 5117SOL     OW26809   4.256   3.446   4.259 -0.3755  0.1037 -0.0439
 5117SOL    HW126810   4.211   3.417   4.180  2.9979 -2.3827 -1.0629
 5117SOL    HW226811   4.185   3.478   4.314 -1.9942 -1.1945 -1.4008
 5118SOL     OW26812   3.181   0.615   6.414  0.5531  0.3185 -0.2578
 5118SOL    HW126813   3.250   0.584   6.473  1.3408 -0.1783 -1.4378
 5118SOL    HW226814   3.230   0.672   6.354  1.6693  0.1829  0.5078
 5119SOL     OW26815   1.949   0.816  16.866  0.2959  0.3629  0.4288
 5119SOL    HW126816   1.921   0.886  16.807 -2.9722 -0.7993  0.5917
 5119SOL    HW226817   1.955   0.740  16.809  2.3965  1.5013 -0.8841
 5120SOL     OW26818   2.132   2.354   0.103  0.5235  0.5065  0.0859
 5120SOL    HW126819   2.180   2.272   0.114 -2.9517 -1.6779 -1.0245
 5120SOL    HW226820   2.177   2.395   0.029 -0.5658  1.6747  0.0668
 5121SOL     OW26821   1.165   1.000   2.571  0.0217  0.3058 -0.8687
 5121SOL    HW126822   1.176   1.093   2.549 -2.2985  1.1424  1.4001
 5121SOL    HW226823   1.069   0.997   2.564 -0.0441  0.8788 -0.2057
 5122SOL     OW26824   1.011   4.119  13.169 -0.2911  0.3557  0.0240
 5122SOL    HW126825   1.061   4.196  13.193  0.0627 -0.1186  0.8017
 5122SOL    HW226826   1.082   4.063  13.138 -0.4741 -1.4516  2.9247
 5123SOL     OW26827   2.593   0.536  14.874  0.3982 -0.8349  0.1179
 5123SOL    HW126828   2.574   0.462  14.931 -1.5290 -1.1736 -0.9552
 5123SOL    HW226829   2.676   0.559  14.915 -0.2413  0.4110  0.7081
 5124SOL     OW26830   3.973   2.757   2.857 -0.0936 -0.0772 -0.0232
 5124SOL    HW126831   3.985   2.850   2.840  0.5366 -0.3710 -1.1889
 5124SOL    HW226832   3.929   2.761   2.942 -0.0121  5.0866 -0.2428
 5125SOL     OW26833   1.460   2.396   6.909  0.1256  0.5990  0.0706
 5125SOL    HW126834   1.373   2.361   6.925 -0.0332  1.2364  0.6183
 5125SOL    HW226835   1.474   2.339   6.833  0.1012 -2.3483  2.2549
 5126SOL     OW26836   1.311   3.740  11.855 -0.5454  0.3528  0.1045
 5126SOL    HW126837   1.223   3.780  11.858 -0.5645  0.3493 -0.3633
 5126SOL    HW226838   1.368   3.815  11.839  2.7342 -2.1274  0.2347
 5127SOL     OW26839   4.417   3.020  11.452 -0.1101  0.2813  0.2202
 5127SOL    HW126840   4.511   3.036  11.461  0.0041  1.2557 -2.4945
 5127SOL    HW226841   4.407   2.929  11.479  0.2391 -0.2673 -1.4787
 5128SOL     OW26842   2.324   0.933   7.647 -0.0876 -0.4648  0.5888
 5128SOL    HW126843   2.295   0.918   7.736 -2.4707 -0.7128 -0.2313
 5128SOL    HW226844   2.284   1.020   7.638  1.5652 -0.0042 -2.5800
 5129SOL     OW26845   1.174   1.869  10.526 -0.1300  0.1209 -0.0791
 5129SOL    HW126846   1.084   1.861  10.496 -0.6456 -0.0449  1.5237
 5129SOL    HW226847   1.207   1.941  10.472  1.6988 -0.0548  0.7979
 5130SOL     OW26848   4.480   2.484   6.800  0.5978  0.4268  0.1932
 5130SOL    HW126849   4.450   2.394   6.815  0.1848  0.9939  2.7350
 5130SOL    HW226850   4.436   2.537   6.866 -1.3819 -3.4640  2.0100
 5131SOL     OW26851   0.018   3.059   1.101  0.3943 -0.2300 -0.5644
 5131SOL    HW126852   4.699   2.993   1.046  0.5771 -1.0196  0.2319
 5131SOL    HW226853   0.060   2.995   1.159 -2.5478 -0.1212  1.6835
 5132SOL     OW26854   2.931   2.399  17.372 -0.4533  0.3417 -0.0176
 5132SOL    HW126855   3.018   2.435  17.356 -0.9548  1.0392 -1.2151
 5132SOL    HW226856   2.875   2.476  17.373  0.4859  1.0371 -1.8375
 5133SOL     OW26857   1.324   4.093  16.909 -0.1442 -0.1274 -0.2023
 5133SOL    HW126858   1.373   4.073  16.829 -0.5159 -0.7536 -0.2825
 5133SOL    HW226859   1.376   4.054  16.979  0.8346  0.1206 -0.8045
 5134SOL     OW26860   3.340   3.947   9.206  0.3618 -0.4620 -0.3904
 5134SOL    HW126861   3.259   3.925   9.159  0.0220 -2.1700  0.9959
 5134SOL    HW226862   3.329   3.892   9.284  1.0396  2.0561  1.4848
 5135SOL     OW26863   3.869   0.883   3.004  0.0389 -0.5031 -0.2056
 5135SOL    HW126864   3.878   0.933   2.923  0.2076  1.2240  0.8754
 5135SOL    HW226865   3.803   0.818   2.980 -0.6421 -0.0690  0.4576
 5136SOL     OW26866   3.657   3.341   1.753 -0.1290 -0.4334  0.5909
 5136SOL    HW126867   3.589   3.291   1.707 -1.6052  0.6510  1.6138
 5136SOL    HW226868   3.612   3.392   1.820  0.8857  2.4177 -0.9179
 5137SOL     OW26869   3.734   2.853  14.305  0.5098 -0.4566 -0.3421
 5137SOL    HW126870   3.749   2.782  14.243 -0.4948  0.7271 -1.9386
 5137SOL    HW226871   3.695   2.917  14.246  2.6396  0.0155 -1.2489
 5138SOL     OW26872   3.762   2.695   8.020  0.4081  0.5172 -0.7078
 5138SOL    HW126873   3.819   2.690   8.097  0.1146 -1.3726 -0.6029
 5138SOL    HW226874   3.698   2.627   8.042  1.0669  0.0210 -0.3223
 5139SOL     OW26875   1.013   1.071   6.587 -0.2497 -0.1769 -0.0392
 5139SOL    HW126876   1.021   1.152   6.637 -1.1682 -0.9176  1.2903
 5139SOL    HW226877   0.919   1.055   6.599 -0.3220  0.4445  0.2077
 5140SOL     OW26878   4.431   1.007  12.800 -0.3803  0.5900 -0.0381
 5140SOL    HW126879   4.493   0.937  12.820 -3.0455 -1.8626 -0.2266
 5140SOL    HW226880   4.347   0.961  12.806  0.1282 -0.4468 -0.8499
 5141SOL     OW26881   1.768   4.155   0.177 -0.1338  0.1550 -0.3595
 5141SOL    HW126882   1.832   4.222   0.154  0.1113 -0.1319 -0.4974
 5141SOL    HW226883   1.751   4.161   0.271  2.0196 -0.8888  0.0716
 5142SOL     OW26884   4.449   2.614   2.528  0.1025 -0.1334  0.2889
 5142SOL    HW126885   4.439   2.537   2.473 -0.9264  0.2052  0.0057
 5142SOL    HW226886   4.541   2.641   2.537 -0.5910  1.6684  1.7892
 5143SOL     OW26887   2.798   1.393   5.143  0.0827 -0.1453 -0.2202
 5143SOL    HW126888   2.808   1.315   5.088  1.2461 -1.3740  1.7189
 5143SOL    HW226889   2.891   1.410   5.162 -0.0780 -0.3881  0.7638
 5144SOL     OW26890   4.628   2.652   7.941 -0.0256  0.2364  0.1072
 5144SOL    HW126891   4.640   2.666   8.035 -0.9350 -1.2242  0.4309
 5144SOL    HW226892   4.578   2.572   7.948 -0.5684  0.5276 -0.4043
 5145SOL     OW26893   2.072   3.565   8.473  0.4008 -0.1021 -0.2988
 5145SOL    HW126894   1.999   3.506   8.485  2.8785 -3.0838  0.0699
 5145SOL    HW226895   2.069   3.567   8.377 -1.3526  0.8002 -0.2299
 5146SOL     OW26896   4.584   0.931   3.701 -0.1940  0.2556  0.3099
 5146SOL    HW126897   4.650   0.999   3.688  1.0923 -0.4042  3.3805
 5146SOL    HW226898   4.514   0.985   3.740  0.8727  0.4534  1.9384
 5147SOL     OW26899   3.224   0.291   3.577 -0.1590  0.1219  0.3623
 5147SOL    HW126900   3.181   0.324   3.656 -1.0437  0.0182 -0.0869
 5147SOL    HW226901   3.187   0.206   3.557  3.0911 -0.8772 -1.5500
 5148SOL     OW26902   0.113   2.448   5.782 -0.7023  0.8329  0.3092
 5148SOL    HW126903   0.149   2.532   5.810 -0.9269  0.9135  0.3598
 5148SOL    HW226904   0.058   2.438   5.859 -1.5307 -0.1856 -0.4111
 5149SOL     OW26905   3.452   4.237   6.241  0.6997 -0.1221  0.5345
 5149SOL    HW126906   3.542   4.210   6.224  0.0757 -2.6065  1.1666
 5149SOL    HW226907   3.463   4.315   6.295  2.3795  1.1410 -1.6898
 5150SOL     OW26908   4.148   2.609  13.866  0.2851  0.0569  0.0552
 5150SOL    HW126909   4.086   2.654  13.923 -0.6644 -1.1843  0.0092
 5150SOL    HW226910   4.098   2.528  13.852  0.3578 -0.3306  2.1736
 5151SOL     OW26911   3.371   2.478   7.683  0.1419  0.7272 -0.1676
 5151SOL    HW126912   3.418   2.424   7.620 -0.1089  0.3640 -0.0465
 5151SOL    HW226913   3.289   2.492   7.636 -0.6107 -0.2147  0.8511
 5152SOL     OW26914   0.053   0.998   6.803 -0.1317  0.0747  0.0524
 5152SOL    HW126915   0.083   0.929   6.744  1.9843  0.1981  0.9771
 5152SOL    HW226916   0.115   0.982   6.875  2.3830  2.0747 -1.6563
 5153SOL     OW26917   3.439   2.419   8.285 -0.5372  1.1058 -0.2864
 5153SOL    HW126918   3.456   2.488   8.349 -2.1414  0.6368  0.6632
 5153SOL    HW226919   3.376   2.455   8.223 -0.8016 -0.5188 -0.9526
 5154SOL     OW26920   0.018   4.108   4.105 -0.2127  0.7246 -0.3928
 5154SOL    HW126921   4.655   4.147   4.086 -0.6507 -0.3797 -0.6669
 5154SOL    HW226922   0.078   4.182   4.096 -0.0784  0.4333 -1.8998
 5155SOL     OW26923   2.077   4.566   7.790 -0.8302 -0.4545 -1.0957
 5155SOL    HW126924   2.118   4.548   7.875  0.7207 -2.4130 -2.2844
 5155SOL    HW226925   2.059   4.659   7.808  0.3037 -0.1722 -1.4103
 5156SOL     OW26926   2.211   3.378  10.088 -0.0578  0.0756  0.4242
 5156SOL    HW126927   2.244   3.322  10.018  1.0740 -0.0560  1.0626
 5156SOL    HW226928   2.117   3.390  10.070  0.4531 -0.3118 -2.5772
 5157SOL     OW26929   3.105   2.894  13.634  0.1975 -0.7734  0.0784
 5157SOL    HW126930   3.022   2.895  13.585  1.1940  0.6156 -1.5618
 5157SOL    HW226931   3.102   2.822  13.697  0.2409 -1.1495 -0.3557
 5158SOL     OW26932   0.103   2.124   8.300 -0.0420  0.1943  0.3146
 5158SOL    HW126933   0.073   2.091   8.385 -2.2931 -1.2285 -1.0213
 5158SOL    HW226934   0.188   2.080   8.305 -0.4921 -0.7294 -0.0966
 5159SOL     OW26935   1.738   4.340  13.381 -0.0526 -0.2349 -0.6069
 5159SOL    HW126936   1.748   4.408  13.315 -0.7700  0.1856 -0.2794
 5159SOL    HW226937   1.743   4.264  13.323 -0.8588  0.9320 -2.1854
 5160SOL     OW26938   1.958   0.197   4.820 -0.1952  0.3684  0.3718
 5160SOL    HW126939   2.013   0.217   4.744 -0.7520 -0.2837 -0.1984
 5160SOL    HW226940   1.879   0.242   4.788 -0.6419 -0.3435  0.4658
 5161SOL     OW26941   0.692   0.314   8.405  0.0699  0.4391  0.1692
 5161SOL    HW126942   0.663   0.224   8.415 -0.4923  0.6486  0.4267
 5161SOL    HW226943   0.752   0.332   8.478 -0.7159 -0.1974  0.9589
 5162SOL     OW26944   2.703   3.684   7.871  0.1276 -0.4700  0.5049
 5162SOL    HW126945   2.613   3.663   7.848  0.7121 -0.7314 -1.5349
 5162SOL    HW226946   2.724   3.717   7.784  0.4604 -2.1597 -0.0465
 5163SOL     OW26947   1.254   1.055   8.315 -0.0536  0.5090 -0.3951
 5163SOL    HW126948   1.242   0.961   8.304 -1.8162  0.7168 -0.1393
 5163SOL    HW226949   1.344   1.066   8.347  0.5200 -1.2207 -1.4399
 5164SOL     OW26950   1.240   3.356   2.018 -0.2652  0.9143 -0.1974
 5164SOL    HW126951   1.257   3.378   1.927  1.1774  1.1421  0.1305
 5164SOL    HW226952   1.323   3.378   2.059 -0.5038  1.4809 -0.0163
 5165SOL     OW26953   4.368   1.035  14.325 -0.8459 -0.3409  0.0524
 5165SOL    HW126954   4.337   0.944  14.321 -2.7451  0.2848  0.5472
 5165SOL    HW226955   4.379   1.035  14.420 -0.6577 -3.5132  0.0257
 5166SOL     OW26956   0.317   3.719   3.620 -0.6407 -0.5464 -0.2361
 5166SOL    HW126957   0.370   3.671   3.556 -1.3873 -0.5135 -0.8646
 5166SOL    HW226958   0.320   3.811   3.594 -0.5427 -0.1102  1.2851
 5167SOL     OW26959   2.829   1.282   5.742  0.2254 -0.0673  0.2931
 5167SOL    HW126960   2.831   1.188   5.762 -1.1018  0.3016  2.1564
 5167SOL    HW226961   2.917   1.304   5.770  0.3253 -0.7781  0.5311
 5168SOL     OW26962   3.016   4.640   4.838  0.2839  0.1408  0.1209
 5168SOL    HW126963   3.021   0.011   4.819  1.0932 -0.1453 -1.1161
 5168SOL    HW226964   3.033   4.610   4.748 -2.1022  0.2247 -0.3520
 5169SOL     OW26965   1.569   3.401   7.636 -0.3900 -0.4685 -0.1659
 5169SOL    HW126966   1.635   3.439   7.578  1.2695 -2.7283  0.2213
 5169SOL    HW226967   1.487   3.431   7.597 -0.4094 -0.8379 -0.4092
 5170SOL     OW26968   1.027   3.144  14.919  0.0931  0.0553  0.7915
 5170SOL    HW126969   0.941   3.183  14.904  0.0297 -0.2622  0.3360
 5170SOL    HW226970   1.053   3.187  15.000  1.2863 -2.0472  1.5328
 5171SOL     OW26971   4.064   1.297   6.670 -0.0787  0.0765 -0.2497
 5171SOL    HW126972   4.060   1.388   6.640 -0.7266 -1.0544 -3.6213
 5171SOL    HW226973   4.118   1.270   6.596  0.5101 -1.2254  0.6672
 5172SOL     OW26974   3.538   4.286  12.416 -0.2640  0.0854  0.4897
 5172SOL    HW126975   3.443   4.285  12.411 -0.1477 -0.8830 -1.5865
 5172SOL    HW226976   3.544   4.295  12.511  0.6563 -0.4284  0.4833
 5173SOL     OW26977   3.462   0.852   8.407 -0.1639  0.0705  0.3175
 5173SOL    HW126978   3.498   0.816   8.487  2.7528 -0.3232 -1.1690
 5173SOL    HW226979   3.411   0.930   8.428  0.0697  0.1126  0.7312
 5174SOL     OW26980   2.562   0.915   4.673 -0.3223 -0.0693  0.0946
 5174SOL    HW126981   2.580   0.837   4.621 -1.4065 -1.0124  1.1029
 5174SOL    HW226982   2.469   0.900   4.691 -0.2834 -1.5954 -1.0065
 5175SOL     OW26983   3.337   1.380   7.005 -0.4134  0.7221  0.6029
 5175SOL    HW126984   3.368   1.389   7.096 -0.6209  0.4803  0.6982
 5175SOL    HW226985   3.418   1.379   6.954 -3.5094 -1.3243 -4.2167
 5176SOL     OW26986   2.911   0.354   5.152 -0.2733  0.0234 -0.3855
 5176SOL    HW126987   2.928   0.265   5.121  0.3465  0.3591 -1.0105
 5176SOL    HW226988   2.823   0.374   5.119 -1.0238 -0.7503  1.1498
 5177SOL     OW26989   1.281   2.769   3.569  0.8849 -0.1754  0.1903
 5177SOL    HW126990   1.225   2.708   3.522 -0.1729  0.0331  1.1609
 5177SOL    HW226991   1.370   2.738   3.556  2.1237  2.6375  1.8053
 5178SOL     OW26992   1.560   1.542   8.581  0.2221  0.4036 -0.0152
 5178SOL    HW126993   1.613   1.469   8.549 -1.0853 -0.7525  0.4625
 5178SOL    HW226994   1.520   1.508   8.661  1.8313 -2.6576 -0.5063
 5179SOL     OW26995   1.900   3.239   8.238 -0.1807  0.0581  0.3459
 5179SOL    HW126996   1.811   3.261   8.211 -0.7057 -2.0969  0.3680
 5179SOL    HW226997   1.931   3.330   8.244  0.5246 -0.0795 -1.2256
 5180SOL     OW26998   1.146   3.403   3.257  0.0025 -0.0615  0.4367
 5180SOL    HW126999   1.164   3.497   3.255 -0.2312 -0.0475 -0.7737
 5180SOL    HW227000   1.219   3.388   3.318 -0.0284 -0.0376  0.4797
 5181SOL     OW27001   1.714   1.346   4.984 -0.6211 -0.0548  0.2578
 5181SOL    HW127002   1.670   1.292   5.050 -0.2117 -2.3457 -1.3456
 5181SOL    HW227003   1.711   1.288   4.907  2.5618  0.7925 -0.4886
 5182SOL     OW27004   3.752   1.066   9.140  0.1091 -0.5869 -0.2580
 5182SOL    HW127005   3.663   1.067   9.104  0.8042  1.9491 -1.9135
 5182SOL    HW227006   3.741   0.989   9.196 -0.3466 -2.1271 -2.4520
 5183SOL     OW27007   1.695   2.787   8.159 -0.5271 -0.2803  0.1159
 5183SOL    HW127008   1.608   2.762   8.192 -1.1312 -0.1825 -1.4000
 5183SOL    HW227009   1.737   2.829   8.234 -1.5263  0.2682  0.3661
 5184SOL     OW27010   4.340   1.000   1.003 -0.3193 -0.1554 -0.4536
 5184SOL    HW127011   4.320   0.968   0.915 -0.5091  0.4066 -0.6150
 5184SOL    HW227012   4.321   0.922   1.055  1.3687 -0.3395 -0.1061
 5185SOL     OW27013   3.509   3.082  12.778 -0.2379 -0.1578 -0.4654
 5185SOL    HW127014   3.558   3.135  12.715 -2.1453 -0.0416 -1.8890
 5185SOL    HW227015   3.543   3.103  12.865 -0.6881 -0.5809 -0.1882
 5186SOL     OW27016   2.086   0.625   1.152  0.0667 -0.1428  0.5374
 5186SOL    HW127017   2.053   0.548   1.198  0.6414 -0.9240 -0.3562
 5186SOL    HW227018   2.014   0.640   1.091 -1.0274 -1.7231  1.4448
 5187SOL     OW27019   2.727   4.357   5.662 -0.3394  0.3573 -0.1062
 5187SOL    HW127020   2.760   4.281   5.614  0.8677  0.6278  0.2940
 5187SOL    HW227021   2.638   4.366   5.630  0.3031 -1.1538 -2.3281
 5188SOL     OW27022   2.669   2.323   1.001  0.0143 -0.0688  0.2863
 5188SOL    HW127023   2.721   2.243   1.010  1.0512  0.9939  3.8838
 5188SOL    HW227024   2.677   2.344   0.908 -2.4288  0.0305  0.0998
 5189SOL     OW27025   3.668   4.096   7.193 -0.2078  0.0354 -0.0246
 5189SOL    HW127026   3.748   4.068   7.149 -0.0547 -0.8929  0.8594
 5189SOL    HW227027   3.707   4.143   7.266 -0.7467  0.6180 -0.1122
 5190SOL     OW27028   2.373   3.848   4.574  0.1288 -0.0710 -0.4866
 5190SOL    HW127029   2.369   3.839   4.669  1.5352 -0.3541 -0.4585
 5190SOL    HW227030   2.374   3.944   4.573  0.4414 -0.0756 -0.5962
 5191SOL     OW27031   2.010   1.506  16.043  0.2200  0.8105 -0.3385
 5191SOL    HW127032   1.917   1.509  16.063 -0.0217 -0.7399 -1.2578
 5191SOL    HW227033   2.040   1.579  16.097  0.3820 -0.0650  0.7607
 5192SOL     OW27034   3.921   3.119   8.016 -0.1893  0.2899  0.1838
 5192SOL    HW127035   3.972   3.047   7.981 -1.6349  0.7680 -2.8386
 5192SOL    HW227036   3.837   3.076   8.035 -1.3179  0.9081 -3.4394
 5193SOL     OW27037   0.696   3.779   7.972  0.0846  0.1636 -0.3850
 5193SOL    HW127038   0.778   3.827   7.965  0.4115 -0.4713 -0.9656
 5193SOL    HW227039   0.725   3.721   8.042 -2.4745  0.6591  1.1076
 5194SOL     OW27040   1.036   3.733  12.639  0.4149  0.0481 -0.3532
 5194SOL    HW127041   1.061   3.672  12.571 -2.6399 -0.4926 -1.0043
 5194SOL    HW227042   1.091   3.711  12.714  0.4960  2.0556  0.1842
 5195SOL     OW27043   2.532   3.944   1.605 -0.3125  0.6251 -0.3897
 5195SOL    HW127044   2.477   4.022   1.614 -0.4112  0.4249  0.8459
 5195SOL    HW227045   2.618   3.985   1.608 -0.1162  0.1172  0.8991
 5196SOL     OW27046   0.034   0.459  13.289 -0.5085  0.6538 -0.3457
 5196SOL    HW127047   0.086   0.384  13.317 -0.1580  0.8674 -0.4262
 5196SOL    HW227048   4.685   0.453  13.353  0.0195 -0.7103  0.1238
 5197SOL     OW27049   1.778   3.598   6.929  0.8123  0.2434  0.0195
 5197SOL    HW127050   1.808   3.653   6.857 -1.4941  1.3471 -0.1004
 5197SOL    HW227051   1.723   3.656   6.981 -1.6478 -1.9281 -0.1777
 5198SOL     OW27052   0.305   4.566   8.265 -0.3547  0.1961  0.2996
 5198SOL    HW127053   0.275   4.609   8.185  1.7013 -0.3807 -0.7910
 5198SOL    HW227054   0.378   4.620   8.294  0.5008 -0.7409 -0.1119
 5199SOL     OW27055   4.319   4.407  16.508 -0.2802 -0.3832  0.0344
 5199SOL    HW127056   4.325   4.486  16.454 -0.0517 -0.0703  0.5232
 5199SOL    HW227057   4.391   4.419  16.569  0.6944  1.8795 -1.5653
 5200SOL     OW27058   4.483   3.745  17.216 -0.4141 -0.2347 -0.4266
 5200SOL    HW127059   4.463   3.787  17.300  0.4104 -2.4742  0.8877
 5200SOL    HW227060   4.579   3.746  17.225 -0.2961  0.2653 -1.7159
 5201SOL     OW27061   4.112   4.404  10.752  0.4783 -0.0351  0.5469
 5201SOL    HW127062   4.056   4.431  10.824  1.3486 -0.2903  1.3244
 5201SOL    HW227063   4.140   4.486  10.712  0.3383 -0.2693 -0.0288
 5202SOL     OW27064   2.547   1.212  13.269  0.1147  0.0796  0.2206
 5202SOL    HW127065   2.500   1.210  13.185  0.1000 -0.5477  0.2448
 5202SOL    HW227066   2.550   1.118  13.285  0.8411  0.1603  0.5488
 5203SOL     OW27067   0.967   2.129   7.294 -0.7079 -0.0738  0.5319
 5203SOL    HW127068   0.887   2.077   7.290 -0.6443 -0.0481 -1.2085
 5203SOL    HW227069   0.946   2.193   7.363  0.1344  1.5307 -0.6956
 5204SOL     OW27070   3.223   2.320  14.771  0.1114 -0.0298  0.3519
 5204SOL    HW127071   3.213   2.326  14.866  1.4221  0.9500  0.4391
 5204SOL    HW227072   3.243   2.412  14.751  2.3556 -0.7259 -0.5887
 5205SOL     OW27073   3.005   2.159   7.064 -0.2575 -0.8078  0.2902
 5205SOL    HW127074   2.909   2.166   7.068 -0.1348 -0.0393  1.8633
 5205SOL    HW227075   3.028   2.201   6.982 -2.1336 -1.4491 -0.5749
 5206SOL     OW27076   4.488   1.889   3.159 -0.2894  0.0825  0.1099
 5206SOL    HW127077   4.486   1.799   3.191  0.3832 -0.0615 -0.2542
 5206SOL    HW227078   4.517   1.883   3.068 -1.0713  1.0973 -0.2119
 5207SOL     OW27079   1.487   3.188   1.345  0.3480  0.3634 -0.2266
 5207SOL    HW127080   1.441   3.110   1.377 -0.7241  0.7214 -0.8919
 5207SOL    HW227081   1.427   3.203   1.272 -0.0751 -1.8452 -0.3501
 5208SOL     OW27082   4.719   3.499  12.723  0.5773 -0.3407  0.4510
 5208SOL    HW127083   0.064   3.433  12.709  0.3022 -0.6508  0.5544
 5208SOL    HW227084   4.641   3.442  12.721  0.1531  0.3400 -1.8444
 5209SOL     OW27085   2.537   0.510   1.683 -0.0415 -0.6416  0.6615
 5209SOL    HW127086   2.628   0.528   1.659 -0.6832  0.9231 -0.5736
 5209SOL    HW227087   2.554   0.435   1.740 -0.2010 -0.9909  0.2490
 5210SOL     OW27088   1.751   1.763   8.570 -0.3433 -0.4680 -0.5349
 5210SOL    HW127089   1.697   1.687   8.547  0.2961 -1.3681  0.9514
 5210SOL    HW227090   1.700   1.831   8.616  1.8571 -0.3932  1.7738
 5211SOL     OW27091   4.121   3.064   5.605 -0.1966 -0.0242  0.1508
 5211SOL    HW127092   4.104   3.017   5.523 -2.2677  0.7402  0.1549
 5211SOL    HW227093   4.216   3.071   5.609 -0.3554  3.4195 -2.8292
 5212SOL     OW27094   3.339   2.700   8.411  0.2874 -0.0082  0.0642
 5212SOL    HW127095   3.344   2.792   8.436 -0.9351 -0.0051  0.2695
 5212SOL    HW227096   3.244   2.690   8.413  0.0312  2.5184  0.7913
 5213SOL     OW27097   2.661   0.663   4.557  0.7890 -0.0416  0.2637
 5213SOL    HW127098   2.680   0.569   4.564  1.4395  0.0579 -0.2434
 5213SOL    HW227099   2.612   0.656   4.475  2.1278  2.1099 -0.7040
 5214SOL     OW27100   0.504   0.199   3.299  0.2825  0.4808 -0.0140
 5214SOL    HW127101   0.584   0.248   3.284  0.5022  0.3846  0.8613
 5214SOL    HW227102   0.516   0.122   3.243  1.4784  0.3820  0.3905
 5215SOL     OW27103   2.362   4.195   3.144  0.0783 -0.3140  0.5131
 5215SOL    HW127104   2.423   4.129   3.111  0.0050 -0.7754  1.3018
 5215SOL    HW227105   2.294   4.141   3.183 -0.8138  0.7241  0.3859
 5216SOL     OW27106   0.375   0.349   8.406  0.1126  0.6733  0.7567
 5216SOL    HW127107   0.329   0.283   8.459  0.4942 -1.2043 -1.2531
 5216SOL    HW227108   0.441   0.381   8.467 -0.5184 -0.5051  2.0647
 5217SOL     OW27109   1.381   2.429   4.436  0.1491  0.2425  0.6231
 5217SOL    HW127110   1.385   2.489   4.510  0.9600  0.5982  0.2889
 5217SOL    HW227111   1.345   2.489   4.371 -0.4380 -0.6335  0.1243
 5218SOL     OW27112   4.198   2.265  14.701 -0.2158  0.8347  0.2535
 5218SOL    HW127113   4.271   2.260  14.763  0.0825 -1.9007 -0.3104
 5218SOL    HW227114   4.164   2.350  14.729 -2.3608  0.1163 -0.1408
 5219SOL     OW27115   0.972   2.849   1.402 -0.0222 -0.7594  0.5207
 5219SOL    HW127116   0.935   2.909   1.336  2.2779  1.1784  0.9649
 5219SOL    HW227117   1.059   2.844   1.362 -0.5553  1.3146 -0.9009
 5220SOL     OW27118   4.077   0.922   3.831  0.2676  0.2439  0.4426
 5220SOL    HW127119   4.170   0.944   3.831  0.4920 -0.6841  1.1349
 5220SOL    HW227120   4.043   1.011   3.821  2.9581  1.3071  0.6506
 5221SOL     OW27121   2.254   3.043   4.668 -0.1787  0.4100  0.2945
 5221SOL    HW127122   2.163   3.073   4.664  0.2651  1.9377  1.8861
 5221SOL    HW227123   2.246   2.949   4.685  0.7118  0.2144 -0.3501
 5222SOL     OW27124   1.473   3.035   6.391 -0.3720  0.2051  0.6304
 5222SOL    HW127125   1.415   3.109   6.409 -0.2131 -0.1303  2.5381
 5222SOL    HW227126   1.529   3.041   6.469 -0.0980  1.9118  0.3153
 5223SOL     OW27127   3.829   3.252  10.095  0.0692  0.3001 -0.7972
 5223SOL    HW127128   3.822   3.346  10.078 -1.7135  0.9203  3.2967
 5223SOL    HW227129   3.895   3.239  10.028  1.3570 -0.8872  0.6848
 5224SOL     OW27130   2.920   1.749   5.194 -0.1225 -0.3772  0.2169
 5224SOL    HW127131   2.939   1.842   5.189 -1.2937 -0.1247  0.3967
 5224SOL    HW227132   2.851   1.737   5.128 -1.4965  2.7719  1.0858
 5225SOL     OW27133   1.597   3.745   4.714  0.2505  0.5242  0.2039
 5225SOL    HW127134   1.633   3.689   4.645 -1.2277 -0.2232  0.0356
 5225SOL    HW227135   1.508   3.761   4.681  0.7480  4.8329  1.0567
 5226SOL     OW27136   3.694   3.504  11.217  0.0544 -0.1293  0.4732
 5226SOL    HW127137   3.784   3.494  11.187  0.0063 -1.3858  0.7286
 5226SOL    HW227138   3.696   3.579  11.276 -0.1994 -1.3948  2.0960
 5227SOL     OW27139   4.283   4.134   5.460 -0.2971 -0.1206  0.2053
 5227SOL    HW127140   4.277   4.059   5.519  0.8459  0.5154  1.1305
 5227SOL    HW227141   4.354   4.107   5.400 -0.5889 -1.1379  0.3247
 5228SOL     OW27142   0.961   3.963   8.735 -0.5322 -0.3097  0.2447
 5228SOL    HW127143   0.950   4.038   8.676 -0.7777 -1.1220 -0.7429
 5228SOL    HW227144   0.919   3.991   8.817  0.0924 -1.8652  1.0886
 5229SOL     OW27145   4.110   1.851   4.739 -0.3876 -0.1281  0.1284
 5229SOL    HW127146   4.183   1.815   4.689  0.9159  1.8240  0.6239
 5229SOL    HW227147   4.121   1.942   4.711  0.9940 -0.9435 -1.9687
 5230SOL     OW27148   1.930   1.131   2.075 -0.3906 -0.1044 -0.5465
 5230SOL    HW127149   1.958   1.066   2.010  3.3376  0.1677  0.7943
 5230SOL    HW227150   1.837   1.117   2.055 -0.9042 -0.1596  1.8790
 5231SOL     OW27151   0.487   0.917   4.284  0.1946 -0.1284  0.0917
 5231SOL    HW127152   0.551   0.884   4.346  1.6752  2.2865 -0.1774
 5231SOL    HW227153   0.449   0.838   4.244  1.1738 -0.5471 -0.0041
 5232SOL     OW27154   1.831   4.059  11.219  0.1812 -0.2823  0.3194
 5232SOL    HW127155   1.887   4.097  11.287 -0.8933 -2.9117  2.6619
 5232SOL    HW227156   1.746   4.055  11.263 -0.6125  2.3491 -0.9632
 5233SOL     OW27157   2.481   1.925   5.240 -0.1943  0.0539  0.1601
 5233SOL    HW127158   2.388   1.900   5.242 -0.5512  1.4442  0.4833
 5233SOL    HW227159   2.487   2.004   5.293 -1.5521 -0.2362  0.7542
 5234SOL     OW27160   2.405   2.216   8.381  0.0615 -1.0598 -0.7913
 5234SOL    HW127161   2.353   2.228   8.301  0.0763 -1.0427 -0.7985
 5234SOL    HW227162   2.335   2.205   8.444 -0.9137 -0.6599 -1.7961
 5235SOL     OW27163   2.318   1.805   6.725 -0.0526 -0.3123  0.1040
 5235SOL    HW127164   2.367   1.725   6.707 -1.8738 -1.4399  0.1617
 5235SOL    HW227165   2.393   1.855   6.759  1.4290 -1.6443 -1.1940
 5236SOL     OW27166   3.152   2.900  11.479 -0.7727 -0.0971  0.0581
 5236SOL    HW127167   3.241   2.867  11.464 -1.2124 -0.3722 -1.8652
 5236SOL    HW227168   3.152   2.943  11.565 -2.8921  1.9028 -0.9798
 5237SOL     OW27169   4.637   3.195   3.716 -0.1644  0.6543  0.0459
 5237SOL    HW127170   4.605   3.124   3.772 -0.2996 -0.1442 -1.0405
 5237SOL    HW227171   0.003   3.212   3.745 -0.1572  2.3489 -0.9964
 5238SOL     OW27172   3.997   3.769   0.631  0.2880 -0.1232 -0.0224
 5238SOL    HW127173   3.982   3.820   0.710  0.4467  2.5009 -1.6719
 5238SOL    HW227174   3.925   3.707   0.642 -0.6197  1.2381  1.7460
 5239SOL     OW27175   1.743   1.131   5.513 -0.0342  0.6002 -0.1535
 5239SOL    HW127176   1.704   1.045   5.524  3.0799 -0.7155  0.4857
 5239SOL    HW227177   1.664   1.185   5.508  0.3493  1.2221  0.4282
 5240SOL     OW27178   4.276   0.003   0.905  0.5179  0.2360 -0.5476
 5240SOL    HW127179   4.255   0.079   0.960  0.2932  0.2491 -0.6508
 5240SOL    HW227180   4.227   0.029   0.827 -4.5292 -1.1492  2.0931
 5241SOL     OW27181   0.401   2.124  15.396  0.3153 -0.1514 -0.0586
 5241SOL    HW127182   0.315   2.084  15.387 -0.1234  1.1996 -1.8845
 5241SOL    HW227183   0.458   2.058  15.356  2.6520  0.5761  1.9845
 5242SOL     OW27184   0.218   0.121   5.242 -0.5390 -0.1406 -0.1716
 5242SOL    HW127185   0.124   0.126   5.226 -0.5773 -0.5134 -0.0455
 5242SOL    HW227186   0.248   0.099   5.154 -4.0670 -0.4767 -1.3012
 5243SOL     OW27187   0.054   3.872  10.982  0.5581 -0.6292 -0.0524
 5243SOL    HW127188   0.092   3.896  10.898 -0.8175  1.4624 -0.0735
 5243SOL    HW227189   0.001   3.948  11.004  1.0061 -0.5587  0.7772
 5244SOL     OW27190   0.023   4.547   3.930  0.2474  0.3369  0.0186
 5244SOL    HW127191   0.063   4.489   3.866 -0.3831 -1.4844  1.2860
 5244SOL    HW227192   0.079   4.624   3.925  0.9387 -0.1185  0.6516
 5245SOL     OW27193   1.230   3.302  11.156 -0.0640 -0.0435 -0.3212
 5245SOL    HW127194   1.245   3.385  11.201  0.5333 -0.1678 -0.2864
 5245SOL    HW227195   1.208   3.330  11.067  2.6476 -0.0144 -0.9698
 5246SOL     OW27196   3.537   3.237  10.079  0.0181 -0.5906 -0.5854
 5246SOL    HW127197   3.574   3.241  10.167 -1.8328  0.4125  0.1435
 5246SOL    HW227198   3.512   3.329  10.070 -0.2267 -0.6704 -0.7405
 5247SOL     OW27199   0.453   0.923   6.784 -0.0292  0.7179  0.4412
 5247SOL    HW127200   0.503   0.858   6.733 -0.1289  1.3283 -0.4390
 5247SOL    HW227201   0.513   0.997   6.793  1.0510 -0.0775 -0.2252
 5248SOL     OW27202   0.826   2.280   6.972  0.3508  0.1636 -0.2784
 5248SOL    HW127203   0.849   2.365   7.007 -3.2308  1.3754 -0.8259
 5248SOL    HW227204   0.847   2.294   6.879 -3.3177 -0.8664 -1.2726
 5249SOL     OW27205   3.665   3.120   2.793 -0.1802 -0.1044  0.4392
 5249SOL    HW127206   3.707   3.094   2.875  2.2656  1.2884 -0.3745
 5249SOL    HW227207   3.738   3.143   2.736 -0.1463 -2.3902 -0.4188
 5250SOL     OW27208   2.262   2.900   5.440  0.1195 -0.3807 -0.4482
 5250SOL    HW127209   2.266   2.949   5.358  2.1464 -0.0226 -0.1273
 5250SOL    HW227210   2.241   2.963   5.509  1.1875 -1.1686  0.6017
 5251SOL     OW27211   2.217   1.382   9.785 -0.4887 -0.1689  0.1950
 5251SOL    HW127212   2.257   1.296   9.797  0.0206  0.1591  0.8098
 5251SOL    HW227213   2.253   1.450   9.841 -2.1825 -0.2972  1.4577
 5252SOL     OW27214   2.957   0.909   1.181 -0.0659  0.4474 -0.4465
 5252SOL    HW127215   3.047   0.894   1.153 -0.4397  1.1579 -2.0721
 5252SOL    HW227216   2.974   0.975   1.248 -1.7943 -0.7407  1.1368
 5253SOL     OW27217   2.558   1.602   5.438  0.8167  0.2216  0.0932
 5253SOL    HW127218   2.626   1.553   5.485  0.3261  0.7020  1.3072
 5253SOL    HW227219   2.597   1.690   5.445  1.6028 -0.2159  1.2962
 5254SOL     OW27220   2.535   1.599   0.298  0.0714  0.3453  0.0686
 5254SOL    HW127221   2.451   1.582   0.341  0.8142  0.3354  1.5270
 5254SOL    HW227222   2.553   1.684   0.338  0.8266  1.1926 -2.0958
 5255SOL     OW27223   2.713   4.092  14.942  0.0433  0.5018  0.3576
 5255SOL    HW127224   2.763   4.109  15.022  2.7204  0.0661 -1.2343
 5255SOL    HW227225   2.647   4.029  14.971 -0.4360  1.1094  0.5852
 5256SOL     OW27226   0.501   3.905   9.756 -0.1005 -0.5266 -0.0991
 5256SOL    HW127227   0.490   3.825   9.807  1.0264 -0.9027 -0.4551
 5256SOL    HW227228   0.450   3.886   9.677  1.0201  0.2613 -1.0028
 5257SOL     OW27229   4.122   2.141   6.448  0.0303 -0.5604 -0.2124
 5257SOL    HW127230   4.042   2.127   6.499 -0.3597  2.6036  0.0133
 5257SOL    HW227231   4.166   2.061   6.477  0.8626  1.1155  3.1081
 5258SOL     OW27232   1.378   3.516   7.242 -0.3140  0.3034  0.3113
 5258SOL    HW127233   1.286   3.510   7.216  0.1651 -1.7631 -0.8546
 5258SOL    HW227234   1.429   3.499   7.163 -0.0902  0.7300  0.3628
 5259SOL     OW27235   3.586   4.332   5.137 -0.5212  0.0626 -0.3606
 5259SOL    HW127236   3.616   4.387   5.210  0.2183 -0.2764 -0.4066
 5259SOL    HW227237   3.591   4.244   5.172 -0.9822 -0.4117 -1.4945
 5260SOL     OW27238   3.171   3.370   3.598  0.6068  0.1042 -0.7064
 5260SOL    HW127239   3.100   3.434   3.590  0.7716  0.1576 -1.7238
 5260SOL    HW227240   3.141   3.296   3.544  0.0375 -0.7849  0.8165
 5261SOL     OW27241   4.072   0.223   6.222  0.2015 -0.8648  0.0548
 5261SOL    HW127242   3.987   0.195   6.187 -0.5827  1.3314  0.2170
 5261SOL    HW227243   4.057   0.246   6.314  2.2105 -0.6611  0.3318
 5262SOL     OW27244   3.939   2.071   6.633 -0.2595 -0.1499 -0.1648
 5262SOL    HW127245   3.866   2.037   6.684  3.0599 -0.6799  4.2179
 5262SOL    HW227246   4.003   2.035   6.694 -0.5282 -0.8640 -0.3067
 5263SOL     OW27247   2.498   3.538   5.828 -0.0123 -0.1278  0.0138
 5263SOL    HW127248   2.506   3.489   5.910 -0.2879 -3.1807 -1.7748
 5263SOL    HW227249   2.474   3.626   5.857 -0.1100  0.0915 -0.7277
 5264SOL     OW27250   3.946   2.547   4.795  0.0517  0.0085  0.2399
 5264SOL    HW127251   3.884   2.476   4.779  0.2569 -0.2703  0.6916
 5264SOL    HW227252   4.001   2.531   4.719 -0.7736 -0.8436 -0.1799
 5265SOL     OW27253   2.501   0.267   7.151 -0.1086 -0.3770 -0.1325
 5265SOL    HW127254   2.448   0.331   7.103 -0.2182  0.5617  1.2390
 5265SOL    HW227255   2.543   0.223   7.076 -1.1140 -1.6721  0.0657
 5266SOL     OW27256   1.984   2.141   2.451  0.3774 -1.1114 -0.3620
 5266SOL    HW127257   1.986   2.086   2.529  0.7454 -0.8805 -0.2082
 5266SOL    HW227258   1.897   2.112   2.427  0.0979 -0.5015 -0.0984
 5267SOL     OW27259   2.717   2.158   1.676  0.2204  0.4119 -0.8539
 5267SOL    HW127260   2.639   2.108   1.700 -0.1962  2.1767  1.4715
 5267SOL    HW227261   2.694   2.193   1.590 -1.1396  3.0112  0.5892
 5268SOL     OW27262   3.666   2.855  10.219  0.4189  1.3262  0.1914
 5268SOL    HW127263   3.685   2.815  10.304 -2.1181  0.8453  0.5052
 5268SOL    HW227264   3.582   2.816  10.197  1.5934 -2.0566  1.5964
 5269SOL     OW27265   1.180   3.818  16.593  0.2490 -0.1050  0.6078
 5269SOL    HW127266   1.195   3.794  16.685  0.8871 -1.6316  0.1184
 5269SOL    HW227267   1.169   3.912  16.603  0.5510 -0.0881  0.8047
 5270SOL     OW27268   0.186   1.645   8.945  0.1495  0.2330 -0.3426
 5270SOL    HW127269   0.161   1.577   9.008  0.0367 -0.2289 -0.8776
 5270SOL    HW227270   0.177   1.717   9.007  0.4499  0.1730 -0.2338
 5271SOL     OW27271   1.847   3.442   5.605  0.2304  0.2229 -0.1916
 5271SOL    HW127272   1.856   3.533   5.632  1.4586  0.3242 -0.9483
 5271SOL    HW227273   1.787   3.403   5.668  1.9402  0.7617  1.7712
 5272SOL     OW27274   4.273   3.708   6.620  0.0584  0.9428 -0.1134
 5272SOL    HW127275   4.207   3.675   6.682  0.5801 -0.2034 -0.1663
 5272SOL    HW227276   4.216   3.757   6.561 -0.3630 -0.4176 -0.8374
 5273SOL     OW27277   1.743   4.039   2.362  0.1264  0.1557 -0.1569
 5273SOL    HW127278   1.669   4.087   2.326  1.7827  2.7158 -0.1380
 5273SOL    HW227279   1.699   3.973   2.416 -0.9271 -0.5376 -1.8697
 5274SOL     OW27280   0.261   4.243   7.749 -0.0826  0.7045  0.2390
 5274SOL    HW127281   0.241   4.150   7.757 -2.2467  1.0146 -1.5331
 5274SOL    HW227282   0.180   4.295   7.752 -0.8646 -0.4849 -0.0926
 5275SOL     OW27283   1.161   4.115   5.676  0.1165 -0.1696 -0.6022
 5275SOL    HW127284   1.185   4.023   5.684 -2.2483 -0.6187  1.1513
 5275SOL    HW227285   1.227   4.128   5.608 -2.0967  0.5623 -2.6267
 5276SOL     OW27286   4.562   4.118   3.276  0.8946  0.3989 -0.1949
 5276SOL    HW127287   4.535   4.026   3.278 -1.8068  1.2201  0.3184
 5276SOL    HW227288   4.582   4.135   3.184  1.0413 -0.4076 -0.3206
 5277SOL     OW27289   0.126   1.584  15.693 -0.0697  0.1309 -0.1964
 5277SOL    HW127290   0.107   1.673  15.664 -0.0105  0.2464  0.1206
 5277SOL    HW227291   0.221   1.574  15.680 -0.1622  0.2899 -0.9745
 5278SOL     OW27292   2.143   0.527  11.331 -0.0939 -0.3844  0.3413
 5278SOL    HW127293   2.126   0.547  11.423 -0.1582  1.0940  0.0023
 5278SOL    HW227294   2.230   0.566  11.316  0.2480 -0.9480  0.8520
 5279SOL     OW27295   1.137   3.372   4.403 -0.1743 -0.6586  0.4461
 5279SOL    HW127296   1.198   3.345   4.334  0.6168  1.2155  0.4098
 5279SOL    HW227297   1.053   3.331   4.381  0.7180 -2.0155 -0.4818
 5280SOL     OW27298   3.815   1.048   5.891  0.1313 -0.2990 -0.4319
 5280SOL    HW127299   3.752   1.089   5.832  1.2358  0.8106 -0.8311
 5280SOL    HW227300   3.765   0.966   5.901  0.7470 -0.4393  1.4784
 5281SOL     OW27301   0.119   0.733   3.239  0.0801  0.9348 -0.5447
 5281SOL    HW127302   0.128   0.741   3.144  0.1538 -0.1765 -0.6320
 5281SOL    HW227303   0.195   0.680   3.262 -0.9983 -0.6642 -0.6462
 5282SOL     OW27304   0.680   1.224  17.078  0.0095 -0.4934  0.1261
 5282SOL    HW127305   0.712   1.287  17.013  1.2897 -1.2879 -0.0206
 5282SOL    HW227306   0.586   1.234  17.064  0.5389  1.8860 -1.8903
 5283SOL     OW27307   1.526   0.846   5.935  0.2571  0.3430  0.6292
 5283SOL    HW127308   1.561   0.932   5.912 -1.4446  1.0118  0.5207
 5283SOL    HW227309   1.578   0.815   6.009 -0.5761 -1.3314  0.5140
 5284SOL     OW27310   0.716   4.215   3.129  0.6382  0.3399  0.0446
 5284SOL    HW127311   0.683   4.134   3.166  1.3867  0.9776  2.0924
 5284SOL    HW227312   0.811   4.205   3.120  0.5555 -0.8757  0.5377
 5285SOL     OW27313   1.275   4.390   9.083 -0.1053  0.0209 -0.0476
 5285SOL    HW127314   1.339   4.358   9.146  1.7859  2.9882 -0.4442
 5285SOL    HW227315   1.257   4.478   9.117 -0.5424 -1.1233  2.6626
 5286SOL     OW27316   4.675   2.785   3.948  0.2980 -0.2213 -0.4264
 5286SOL    HW127317   4.698   2.863   3.999  0.0113 -0.3141 -0.1591
 5286SOL    HW227318   0.021   2.778   3.882  0.9563  3.0976 -0.1354
 5287SOL     OW27319   3.890   1.353   7.108  0.3704  0.1679  0.4049
 5287SOL    HW127320   3.956   1.358   7.177  0.8133 -0.6513  0.0376
 5287SOL    HW227321   3.876   1.258   7.111 -1.3870  0.4128 -0.0516
 5288SOL     OW27322   1.151   0.780  17.350 -0.3858 -0.2876  0.4215
 5288SOL    HW127323   1.114   0.730  17.423 -0.0556 -0.6991  0.3079
 5288SOL    HW227324   1.184   0.862  17.387  1.9629 -0.0358 -2.1918
 5289SOL     OW27325   1.351   4.213  12.885  0.1265  0.0830 -0.2161
 5289SOL    HW127326   1.381   4.141  12.830 -1.4058 -1.7603  1.3914
 5289SOL    HW227327   1.324   4.163  12.962  1.9218  0.4660  0.6559
 5290SOL     OW27328   0.462   2.796   4.596  0.6599 -0.0049 -0.4979
 5290SOL    HW127329   0.542   2.787   4.544  0.9664 -0.3767  0.0355
 5290SOL    HW227330   0.413   2.724   4.556  1.6084 -0.1818 -1.3419
 5291SOL     OW27331   3.223   0.816   7.759 -0.4642  0.7283  0.4810
 5291SOL    HW127332   3.138   0.860   7.761  1.2890  4.1457 -0.2901
 5291SOL    HW227333   3.226   0.805   7.854 -0.3560 -0.0326  0.3904
 5292SOL     OW27334   3.810   1.716   7.608  0.9369  0.3241  0.3617
 5292SOL    HW127335   3.748   1.679   7.545  0.8834  0.2437  0.4608
 5292SOL    HW227336   3.870   1.642   7.619  0.4928  0.1903  1.8199
 5293SOL     OW27337   3.452   0.458   7.812 -0.2128  0.3594  0.2337
 5293SOL    HW127338   3.434   0.490   7.723  0.3129 -0.0946 -0.0344
 5293SOL    HW227339   3.362   0.443   7.840  0.1158  2.4524  2.4010
 5294SOL     OW27340   0.962   4.297   5.634  0.1030 -0.0190 -0.2223
 5294SOL    HW127341   1.017   4.229   5.673  0.2344 -0.1923 -0.7056
 5294SOL    HW227342   1.017   4.373   5.653  0.1526 -0.5499  1.7637
 5295SOL     OW27343   4.064   0.525  15.071  0.8659 -0.1537  0.1309
 5295SOL    HW127344   4.022   0.446  15.105  1.4288 -0.1394  0.8635
 5295SOL    HW227345   4.015   0.540  14.991  1.0667  1.5166  0.3339
 5296SOL     OW27346   4.428   1.676   5.269 -0.1689  0.0799  0.2325
 5296SOL    HW127347   4.376   1.751   5.297 -2.1652  0.0804 -3.5044
 5296SOL    HW227348   4.495   1.665   5.337 -2.1508 -1.3178  1.9696
 5297SOL     OW27349   2.596   2.921   0.150 -0.6055 -0.1006  0.1166
 5297SOL    HW127350   2.645   2.974   0.087 -2.8439  0.4409 -1.1624
 5297SOL    HW227351   2.660   2.852   0.168 -1.1350 -1.1539 -1.9448
 5298SOL     OW27352   1.351   0.373   7.072  0.0581  0.0519 -0.3050
 5298SOL    HW127353   1.265   0.341   7.098  0.2871 -1.1404 -1.0327
 5298SOL    HW227354   1.342   0.460   7.033  0.9940  0.7436  1.0209
 5299SOL     OW27355   3.134   1.654   8.442  0.2911  0.4155 -0.2371
 5299SOL    HW127356   3.067   1.633   8.377 -0.4283  0.8082  0.3794
 5299SOL    HW227357   3.161   1.572   8.483  1.4371 -0.0109 -1.8223
 5300SOL     OW27358   1.063   2.251  11.432  0.2719  0.3327 -0.2858
 5300SOL    HW127359   1.016   2.196  11.369  0.3017 -0.9426  0.7956
 5300SOL    HW227360   1.096   2.319  11.374 -0.7087  0.1533 -1.0589
 5301SOL     OW27361   2.440   3.251   4.398  0.3805  0.2192 -0.1246
 5301SOL    HW127362   2.469   3.277   4.485  1.5473 -3.0939  0.4724
 5301SOL    HW227363   2.518   3.206   4.367  0.0573 -0.4523  0.0384
 5302SOL     OW27364   4.234   4.380   8.676  0.0877 -0.0563 -0.3748
 5302SOL    HW127365   4.298   4.308   8.675  1.7942  1.4723 -0.3425
 5302SOL    HW227366   4.202   4.381   8.586 -1.5837  0.0077  0.2139
 5303SOL     OW27367   3.054   3.424   6.982  0.1225 -0.4976 -0.5098
 5303SOL    HW127368   3.149   3.430   6.971 -0.2052 -1.2247 -3.7576
 5303SOL    HW227369   3.045   3.331   6.960  1.0125 -0.8480  0.5748
 5304SOL     OW27370   0.198   3.091   7.115  0.3430  0.0538  0.0577
 5304SOL    HW127371   0.146   3.011   7.122 -0.9892  0.8277 -1.0582
 5304SOL    HW227372   0.124   3.148   7.095  0.5954  0.1980 -0.4739
 5305SOL     OW27373   2.444   1.884   7.552  0.2339  0.1284 -0.0947
 5305SOL    HW127374   2.379   1.847   7.613  0.9477 -0.6948  0.1673
 5305SOL    HW227375   2.510   1.908   7.617 -0.5076  0.7637  0.4304
 5306SOL     OW27376   3.578   0.753   9.748 -0.0306 -0.3885 -0.5409
 5306SOL    HW127377   3.554   0.746   9.840  0.3076 -0.9483 -0.4973
 5306SOL    HW227378   3.557   0.844   9.726 -1.0680 -1.1973 -2.9004
 5307SOL     OW27379   4.360   3.700   9.524  0.3777  0.0751 -0.8303
 5307SOL    HW127380   4.319   3.707   9.437 -0.1012  0.2579 -0.5915
 5307SOL    HW227381   4.295   3.642   9.564  1.1715 -0.2750 -0.0753
 5308SOL     OW27382   0.787   1.374   7.170 -0.1755 -0.0891  0.5710
 5308SOL    HW127383   0.694   1.368   7.147  0.2058 -0.6018 -0.8759
 5308SOL    HW227384   0.793   1.345   7.261  1.2232 -0.0186  0.5005
 5309SOL     OW27385   2.210   0.648   6.384 -0.0619 -0.3504 -0.1176
 5309SOL    HW127386   2.234   0.710   6.453  2.8543 -2.2707  0.6148
 5309SOL    HW227387   2.207   0.704   6.306  0.7150  1.6481  1.2911
 5310SOL     OW27388   2.767   0.076   7.588  0.2677  0.4527 -0.0437
 5310SOL    HW127389   2.754   0.041   7.676  1.3595 -1.8824 -0.8119
 5310SOL    HW227390   2.811   0.156   7.614 -2.7082  1.6882  1.2506
 5311SOL     OW27391   1.904   4.213  11.689  0.7249  0.0876 -0.3913
 5311SOL    HW127392   1.888   4.164  11.770  1.1973  1.0941  0.3095
 5311SOL    HW227393   1.951   4.287  11.727 -0.2698 -0.2731  1.5534
 5312SOL     OW27394   1.076   3.400  14.041 -0.1488  0.0789 -0.5314
 5312SOL    HW127395   1.012   3.334  14.068  0.2047 -1.0836 -2.5292
 5312SOL    HW227396   1.038   3.477  14.082  0.3403 -0.4559  0.9159
 5313SOL     OW27397   3.977   4.482  10.967  0.3644 -0.0077  0.2346
 5313SOL    HW127398   4.027   4.544  11.022 -0.5413  0.1427  0.8867
 5313SOL    HW227399   4.008   4.396  10.993 -0.9985 -0.5454  0.0717
 5314SOL     OW27400   4.498   1.846   7.050 -0.3734 -0.1386 -0.3233
 5314SOL    HW127401   4.510   1.939   7.033 -2.5614  0.0589 -0.7216
 5314SOL    HW227402   4.416   1.859   7.098 -0.1262 -1.0683  0.3579
 5315SOL     OW27403   4.283   3.539  10.410  0.1651 -0.0728 -0.0791
 5315SOL    HW127404   4.326   3.555  10.494  1.1665 -1.9910 -0.2271
 5315SOL    HW227405   4.356   3.552  10.349  0.6859 -2.0792  0.1217
 5316SOL     OW27406   3.904   2.380  14.851 -0.2328  0.1158  0.5022
 5316SOL    HW127407   3.998   2.400  14.845 -0.2703 -0.2350 -1.2577
 5316SOL    HW227408   3.859   2.390  14.767  0.7814 -0.8503 -0.1606
 5317SOL     OW27409   0.394   1.446   0.918  0.0852 -0.1196 -1.0286
 5317SOL    HW127410   0.472   1.475   0.965 -0.9588  2.7812 -1.0957
 5317SOL    HW227411   0.386   1.516   0.854 -2.2853 -0.9107 -1.5804
 5318SOL     OW27412   2.362   3.471   3.276  0.6820  0.0821  0.0416
 5318SOL    HW127413   2.411   3.455   3.195 -0.9582  1.5924 -1.2574
 5318SOL    HW227414   2.432   3.435   3.331 -0.2028 -0.5358  0.7652
 5319SOL     OW27415   3.618   4.581  14.547 -0.2841 -0.4943 -0.0023
 5319SOL    HW127416   3.707   4.566  14.514 -0.3632  0.0472 -0.4619
 5319SOL    HW227417   3.621   4.529  14.627  2.4136 -1.5832 -0.7907
 5320SOL     OW27418   0.401   3.610   6.677  0.1127  0.4626 -0.9891
 5320SOL    HW127419   0.388   3.682   6.738 -1.7004 -0.3569 -0.3855
 5320SOL    HW227420   0.448   3.649   6.603  0.9757 -0.5021 -0.9646
 5321SOL     OW27421   3.895   3.798   2.158  0.5957  0.2889  0.8337
 5321SOL    HW127422   3.896   3.715   2.205 -1.0366 -0.4644 -0.4670
 5321SOL    HW227423   3.912   3.867   2.222  2.0825  0.0477  0.7054
 5322SOL     OW27424   4.357   4.584   5.006 -0.5131  0.4119 -0.4479
 5322SOL    HW127425   4.272   4.589   5.050  0.3064  0.0599  1.1741
 5322SOL    HW227426   4.416   4.543   5.070 -0.2659  1.8131  0.2323
 5323SOL     OW27427   1.897   3.237   3.087  0.6666  0.1453 -0.0351
 5323SOL    HW127428   1.988   3.263   3.070  0.1625  3.1097  1.8488
 5323SOL    HW227429   1.856   3.323   3.080 -0.7238 -0.6985 -2.1125
 5324SOL     OW27430   4.476   1.594   8.239 -0.3755  0.0497 -0.0730
 5324SOL    HW127431   4.516   1.648   8.307 -0.0367  0.9745 -1.0093
 5324SOL    HW227432   4.431   1.668   8.198 -1.7241 -1.1237 -0.6968
 5325SOL     OW27433   0.676   1.809  12.112  0.4529  0.2131 -0.5091
 5325SOL    HW127434   0.587   1.779  12.094  0.3522  0.4487 -0.4161
 5325SOL    HW227435   0.718   1.731  12.077  3.9699  0.8321  2.3555
 5326SOL     OW27436   2.270   3.453   9.626 -0.0803  0.3144 -0.4995
 5326SOL    HW127437   2.287   3.520   9.560  0.5242  0.9011  0.2442
 5326SOL    HW227438   2.175   3.446   9.628 -0.1492  0.8139 -2.1548
 5327SOL     OW27439   1.970   1.400   9.645 -0.8283  0.0201 -0.3145
 5327SOL    HW127440   2.053   1.352   9.639 -1.3607 -0.7459 -1.5163
 5327SOL    HW227441   1.920   1.342   9.703 -2.7287  1.4450 -0.5185
 5328SOL     OW27442   2.621   1.130   8.365 -0.5133  0.2084  0.1794
 5328SOL    HW127443   2.615   1.037   8.342  0.1776  0.4299 -0.9215
 5328SOL    HW227444   2.668   1.160   8.287  0.0394  1.5696  1.0483
 5329SOL     OW27445   2.303   4.351   7.937 -0.0937  0.5594  0.5969
 5329SOL    HW127446   2.258   4.427   7.974  0.4894  1.0723  0.2657
 5329SOL    HW227447   2.333   4.307   8.016  0.5607 -2.4244 -1.3035
 5330SOL     OW27448   2.098   3.982   1.138 -0.1103 -0.2464  0.6574
 5330SOL    HW127449   2.062   4.044   1.075  1.8105  0.1150 -0.0834
 5330SOL    HW227450   2.065   4.014   1.222 -1.5261 -0.2724  0.1025
 5331SOL     OW27451   1.315   1.054  15.668  0.3753  0.0296  0.1310
 5331SOL    HW127452   1.274   1.096  15.593 -1.2505 -1.5826  0.0943
 5331SOL    HW227453   1.300   1.116  15.740 -0.7013 -0.5542  0.4196
 5332SOL     OW27454   1.501   0.317  12.530  0.3974  0.4890 -0.1217
 5332SOL    HW127455   1.431   0.252  12.530  2.4126 -1.7090 -0.6004
 5332SOL    HW227456   1.580   0.272  12.561  0.5080  1.3301  0.8265
 5333SOL     OW27457   3.391   1.219   5.067  0.5256  0.1489  0.3304
 5333SOL    HW127458   3.469   1.252   5.112 -0.9540  2.3461  1.2692
 5333SOL    HW227459   3.409   1.125   5.062  1.6755  0.3915 -0.0555
 5334SOL     OW27460   2.459   1.914   1.135 -0.2747 -0.1131 -0.9135
 5334SOL    HW127461   2.460   1.993   1.082  2.0193  0.5845  0.1759
 5334SOL    HW227462   2.381   1.873   1.098 -1.2566 -0.6190  1.6900
 5335SOL     OW27463   2.810   0.897   5.913 -0.4633 -0.0894 -0.1498
 5335SOL    HW127464   2.728   0.850   5.900 -1.8194  1.7531  1.7265
 5335SOL    HW227465   2.833   0.927   5.825 -0.2598 -0.8965 -0.3725
 5336SOL     OW27466   2.129   4.572   2.423  0.3612  0.4508 -0.6076
 5336SOL    HW127467   2.221   4.555   2.404  1.1724  2.0027  1.9525
 5336SOL    HW227468   2.092   4.488   2.394  3.6233 -1.4003  0.6417
 5337SOL     OW27469   0.278   4.507   0.329 -0.3257 -0.0909 -0.0561
 5337SOL    HW127470   0.267   4.434   0.390  0.8913  0.0609  0.3562
 5337SOL    HW227471   0.254   4.582   0.383  0.2376  1.3150 -1.7588
 5338SOL     OW27472   3.419   0.524   6.086 -0.5925 -0.3772 -0.2937
 5338SOL    HW127473   3.486   0.538   6.018  1.5188  1.5870  2.1758
 5338SOL    HW227474   3.344   0.490   6.037  0.1205 -1.4632 -0.6341
 5339SOL     OW27475   3.543   1.701  16.777 -0.2729 -0.2393 -0.9432
 5339SOL    HW127476   3.509   1.707  16.688  1.1343 -0.0044 -1.4629
 5339SOL    HW227477   3.632   1.668  16.770 -0.5179 -0.7651 -1.6487
 5340SOL     OW27478   3.364   3.641   6.374  0.3950  0.2299  0.0075
 5340SOL    HW127479   3.322   3.617   6.457  1.2417  0.9322  0.6450
 5340SOL    HW227480   3.351   3.735   6.388  0.5742  0.6960 -3.1860
 5341SOL     OW27481   0.264   3.482  12.842 -0.7571 -0.2413 -0.8967
 5341SOL    HW127482   0.265   3.390  12.867  0.9238  0.2329  0.7669
 5341SOL    HW227483   0.278   3.485  12.747 -0.8869 -0.3324 -0.9184
 5342SOL     OW27484   2.553   3.001  17.358 -0.4918 -0.8549  0.5163
 5342SOL    HW127485   2.611   2.935  17.321  0.5339 -0.4039  1.3171
 5342SOL    HW227486   2.620   3.032  17.419  1.4441 -0.9266 -1.5507
 5343SOL     OW27487   1.234   0.291   0.834 -0.8803 -0.2771 -0.2971
 5343SOL    HW127488   1.299   0.299   0.765 -0.9287 -0.1064 -0.3237
 5343SOL    HW227489   1.230   0.196   0.837 -0.1421 -0.3589 -2.0149
 5344SOL     OW27490   3.048   2.189  14.616 -0.7999 -0.3335  0.4028
 5344SOL    HW127491   3.032   2.216  14.526  2.3200  0.0687 -0.0148
 5344SOL    HW227492   3.093   2.260  14.660 -0.5087 -0.4512  0.2934
 5345SOL     OW27493   2.926   2.987   5.489  0.7312  0.2926 -0.1805
 5345SOL    HW127494   2.833   2.975   5.509  0.8515  0.8697  0.7536
 5345SOL    HW227495   2.961   3.005   5.577  1.5357 -0.1544 -0.4174
 5346SOL     OW27496   3.197   4.626   4.462 -0.6571  0.2089 -0.2104
 5346SOL    HW127497   3.203   4.556   4.526 -2.1669  0.4556  0.1996
 5346SOL    HW227498   3.103   4.640   4.458 -0.2324  3.5939  1.9991
 5347SOL     OW27499   0.856   2.823  11.664  0.1524 -0.1438 -0.1826
 5347SOL    HW127500   0.856   2.762  11.590 -2.2611 -0.9322  0.4787
 5347SOL    HW227501   0.847   2.905  11.615  0.9070  0.7139  1.1047
 5348SOL     OW27502   4.002   0.546   5.769 -0.4204  0.2257  0.3222
 5348SOL    HW127503   4.037   0.595   5.843  1.2475 -1.2839  0.5439
 5348SOL    HW227504   3.932   0.505   5.820 -1.0872  3.2692  1.8434
 5349SOL     OW27505   4.103   4.444  15.460 -0.5455  0.2806 -0.4209
 5349SOL    HW127506   4.121   4.518  15.402  0.5460 -0.2239 -0.7330
 5349SOL    HW227507   4.013   4.422  15.435  1.1037 -3.3535 -3.1644
 5350SOL     OW27508   1.359   2.590   2.450  0.3080 -0.8403  0.4712
 5350SOL    HW127509   1.339   2.497   2.463 -0.7089 -0.4131  1.9442
 5350SOL    HW227510   1.390   2.614   2.537  0.4526  0.4941  0.0476
 5351SOL     OW27511   2.789   0.479   0.083 -0.1777 -0.4272  0.6481
 5351SOL    HW127512   2.778   0.499   0.176  1.8912 -0.9893  1.0129
 5351SOL    HW227513   2.840   0.557   0.063 -0.7096 -0.7901 -2.0758
 5352SOL     OW27514   3.867   1.965   5.653 -0.0552 -0.3153  0.0551
 5352SOL    HW127515   3.954   1.925   5.662 -0.1267 -0.4661  0.0731
 5352SOL    HW227516   3.866   2.022   5.731 -0.7580 -0.5062  0.1851
 5353SOL     OW27517   3.745   0.143   0.866  0.1897 -0.4052  0.4377
 5353SOL    HW127518   3.805   0.090   0.919  0.8714  0.2495  0.3128
 5353SOL    HW227519   3.702   0.209   0.920  1.5669  1.2253 -0.4960
 5354SOL     OW27520   1.542   4.426  14.879  0.4227  0.7241  0.6509
 5354SOL    HW127521   1.634   4.406  14.891  0.3246 -0.1000 -0.0196
 5354SOL    HW227522   1.514   4.396  14.793  2.4468 -0.6254  0.4851
 5355SOL     OW27523   0.633   1.068  10.582  0.1077  0.5139 -0.2480
 5355SOL    HW127524   0.545   1.105  10.591  0.0209  0.3403 -0.3648
 5355SOL    HW227525   0.670   1.133  10.523  2.8378 -0.6762  0.1711
 5356SOL     OW27526   0.058   2.142   7.131 -0.0702  0.1787 -0.5285
 5356SOL    HW127527   0.135   2.093   7.101  0.2177  1.3627 -1.7209
 5356SOL    HW227528   0.025   2.083   7.199  1.3544  1.9256  1.6600
 5357SOL     OW27529   0.144   2.509  17.689 -0.3235 -0.4855  0.2815
 5357SOL    HW127530   0.066   2.462   0.026 -0.4569  1.2102  2.5030
 5357SOL    HW227531   0.167   2.574   0.061 -1.3917 -0.9726  1.1387
 5358SOL     OW27532   1.544   3.951   1.807  0.0264  0.0688 -0.2370
 5358SOL    HW127533   1.569   3.970   1.717 -0.0085 -1.8956 -0.6590
 5358SOL    HW227534   1.610   3.892   1.842  1.2497  2.1021  0.8606
 5359SOL     OW27535   2.063   3.255   1.413  0.0394  0.0373 -0.4478
 5359SOL    HW127536   1.987   3.198   1.402 -1.2296  1.4343  1.0778
 5359SOL    HW227537   2.050   3.288   1.502  0.8204 -0.7134 -0.0516
 5360SOL     OW27538   0.511   0.440  12.597 -0.5623 -0.0662  0.0341
 5360SOL    HW127539   0.502   0.526  12.557  1.0460 -0.0702 -0.3513
 5360SOL    HW227540   0.571   0.409  12.529  0.6683  2.4152 -0.0118
 5361SOL     OW27541   1.562   4.680   1.701 -0.1370 -0.1423 -0.5696
 5361SOL    HW127542   1.511   0.037   1.689 -0.9728 -0.1885  2.5052
 5361SOL    HW227543   1.497   4.612   1.685 -0.5182  0.5082 -1.7543
 5362SOL     OW27544   1.192   2.899   9.121 -0.3955  0.5108  0.0755
 5362SOL    HW127545   1.225   2.860   9.201 -0.3024 -1.0331 -0.7025
 5362SOL    HW227546   1.255   2.970   9.108  1.4691 -1.3702 -1.1682
 5363SOL     OW27547   1.762   2.392   7.060  0.1031 -0.4233  0.9010
 5363SOL    HW127548   1.718   2.375   6.977 -0.4489  1.5840  0.7964
 5363SOL    HW227549   1.766   2.487   7.070  0.2401 -0.4483  1.1053
 5364SOL     OW27550   2.058   1.219   8.075 -0.2416 -0.1482  0.2424
 5364SOL    HW127551   2.135   1.261   8.112 -0.6005 -0.5613  1.4541
 5364SOL    HW227552   2.101   1.180   7.999 -0.4925  1.2898 -0.6308
 5365SOL     OW27553   2.294   3.160   2.118 -0.7783 -0.0772 -0.1658
 5365SOL    HW127554   2.324   3.163   2.028 -0.2503  0.1951  0.0206
 5365SOL    HW227555   2.342   3.231   2.162  0.6294  0.1211 -2.0373
 5366SOL     OW27556   3.754   1.258   3.284  0.2990 -0.0239 -0.5517
 5366SOL    HW127557   3.673   1.212   3.263 -0.1371  0.3051  0.4158
 5366SOL    HW227558   3.756   1.300   3.198  3.0667  2.4043  0.7023
 5367SOL     OW27559   2.944   2.761   9.219 -0.4595  0.4332 -0.5273
 5367SOL    HW127560   2.961   2.851   9.190 -0.3222  0.9302  1.0969
 5367SOL    HW227561   3.036   2.735   9.220 -0.0702  1.8286  0.2034
 5368SOL     OW27562   0.835   4.579  13.804  0.2840 -0.8080 -0.7180
 5368SOL    HW127563   0.837   4.500  13.858 -1.9243 -0.1767  0.3026
 5368SOL    HW227564   0.740   4.589  13.795 -0.1084 -1.2796  3.0651
 5369SOL     OW27565   1.774   0.650   5.115  0.6988 -0.1350 -0.4230
 5369SOL    HW127566   1.715   0.619   5.046  0.3457  1.5077 -0.8578
 5369SOL    HW227567   1.809   0.731   5.080 -0.0911 -0.9835 -3.1850
 5370SOL     OW27568   3.464   4.307   8.316  0.4064  0.3662  0.2013
 5370SOL    HW127569   3.478   4.233   8.257 -0.0468  0.6870 -0.3131
 5370SOL    HW227570   3.512   4.285   8.395  0.1372 -1.4423 -0.1443
 5371SOL     OW27571   0.856   2.818   3.017  0.2232  0.8059  0.3359
 5371SOL    HW127572   0.917   2.768   2.962 -1.4780 -0.2199 -0.6195
 5371SOL    HW227573   0.787   2.843   2.956  0.2927  1.9440  0.7206
 5372SOL     OW27574   1.698   4.049   5.143 -0.4386  0.3736 -0.3012
 5372SOL    HW127575   1.610   4.049   5.105 -0.3359 -3.5476 -0.5109
 5372SOL    HW227576   1.698   3.965   5.190 -0.8596  1.1924  1.1758
 5373SOL     OW27577   2.191   3.176  10.719 -0.1691  0.0116 -0.5526
 5373SOL    HW127578   2.197   3.083  10.700  0.0083 -0.2087  0.6362
 5373SOL    HW227579   2.195   3.189  10.813 -0.7055  0.1598 -0.5482
 5374SOL     OW27580   0.131   2.307   7.836 -0.2184  0.2221  0.0860
 5374SOL    HW127581   0.109   2.221   7.873 -0.7986  0.7916  1.0363
 5374SOL    HW227582   0.219   2.295   7.799 -0.1723 -0.1463  0.3136
 5375SOL     OW27583   0.037   0.376   7.006  0.0509 -0.4266 -0.0662
 5375SOL    HW127584   0.042   0.379   6.910 -0.2705  0.7343 -0.0469
 5375SOL    HW227585   0.114   0.429   7.025 -1.1509  0.5819  2.0141
 5376SOL     OW27586   0.825   1.392   3.727  0.0955 -0.8178  0.0706
 5376SOL    HW127587   0.781   1.386   3.812  2.4626 -1.4199  1.2688
 5376SOL    HW227588   0.771   1.332   3.675 -0.1452  1.3819 -2.2081
 5377SOL     OW27589   2.171   3.924   3.439 -0.3789 -1.5177 -0.2728
 5377SOL    HW127590   2.207   3.979   3.508 -0.7849 -1.7870  0.1502
 5377SOL    HW227591   2.217   3.843   3.459  0.9370  0.0059  2.6917
 5378SOL     OW27592   1.596   3.191   7.420  0.9811 -0.2315 -0.1122
 5378SOL    HW127593   1.604   3.260   7.485  0.5398  1.6924 -2.1033
 5378SOL    HW227594   1.503   3.197   7.399  1.0254  1.4481  0.2216
 5379SOL     OW27595   4.667   0.964   6.410 -0.8167  0.6789  0.2795
 5379SOL    HW127596   4.611   0.888   6.394  1.5848 -1.0012  0.0297
 5379SOL    HW227597   4.628   0.987   6.495 -0.5901  1.1927  0.2466
 5380SOL     OW27598   2.198   1.850   3.699  0.1033 -0.0970 -0.4383
 5380SOL    HW127599   2.265   1.914   3.673  0.7798 -0.9281 -0.7598
 5380SOL    HW227600   2.146   1.842   3.620  2.0707  2.0459 -1.9426
 5381SOL     OW27601   2.929   3.447   2.295  0.3716  0.3409 -0.6553
 5381SOL    HW127602   2.975   3.531   2.295  3.5573 -1.4202  1.6744
 5381SOL    HW227603   2.960   3.405   2.215  0.8684 -3.6819  1.6657
 5382SOL     OW27604   3.882   2.581  14.398  0.3144 -0.5700 -0.5851
 5382SOL    HW127605   3.792   2.589  14.427  1.2954 -0.0506  2.3038
 5382SOL    HW227606   3.916   2.670  14.383 -2.9671  0.7076 -0.4408
 5383SOL     OW27607   3.696   2.929  14.960 -0.7427  0.6470  0.4235
 5383SOL    HW127608   3.619   2.904  14.909 -0.3016 -0.0460  0.1060
 5383SOL    HW227609   3.753   2.852  14.967 -1.0245  0.6146  2.3987
 5384SOL     OW27610   2.415   2.691   3.022  0.1067  0.2059  0.7200
 5384SOL    HW127611   2.444   2.618   3.078 -1.7228 -2.1879 -1.4755
 5384SOL    HW227612   2.466   2.769   3.043  1.8927 -0.0856 -2.5614
 5385SOL     OW27613   3.985   1.769   7.922  0.6931  0.3713 -0.0158
 5385SOL    HW127614   3.997   1.863   7.931  0.6247  0.4701 -1.0318
 5385SOL    HW227615   3.973   1.766   7.827 -0.2308  2.1744  0.0499
 5386SOL     OW27616   2.879   0.385   2.504  0.4458 -0.5245  0.4725
 5386SOL    HW127617   2.879   0.294   2.534  1.4065 -0.8497 -0.5161
 5386SOL    HW227618   2.849   0.425   2.585 -1.4106  1.7948 -1.3603
 5387SOL     OW27619   3.606   0.528   1.105  0.1942 -0.5869  0.0318
 5387SOL    HW127620   3.633   0.554   1.017 -0.2890 -0.7041 -0.1482
 5387SOL    HW227621   3.619   0.433   1.103 -3.4237 -1.0251 -2.2944
 5388SOL     OW27622   3.754   2.089   5.904  0.1233 -0.8910  0.3792
 5388SOL    HW127623   3.838   2.053   5.933  1.2475  1.5880  0.1555
 5388SOL    HW227624   3.748   2.157   5.971 -1.1156 -1.0146  0.3808
 5389SOL     OW27625   2.385   1.907   8.500  0.0137  0.9043 -0.9029
 5389SOL    HW127626   2.320   1.977   8.487 -0.5561  0.7409  1.0902
 5389SOL    HW227627   2.333   1.826   8.500  0.1974  0.7880 -0.1715
 5390SOL     OW27628   2.196   1.703   2.988 -0.5651 -0.4160  1.0225
 5390SOL    HW127629   2.223   1.615   3.015 -1.3634 -1.3018 -1.0514
 5390SOL    HW227630   2.271   1.755   3.018  0.0527  0.2064 -1.5639
 5391SOL     OW27631   1.941   4.394   0.344 -0.6602 -0.4856  0.2442
 5391SOL    HW127632   1.966   4.370   0.255 -1.0444  2.3178 -0.6049
 5391SOL    HW227633   1.983   4.319   0.388  1.9482  0.8587  0.0637
 5392SOL     OW27634   2.764   4.410   1.394 -0.3598 -0.0877  0.5232
 5392SOL    HW127635   2.690   4.390   1.337  0.2732  2.1013 -1.0798
 5392SOL    HW227636   2.793   4.498   1.367 -2.4153  1.0878  2.1817
 5393SOL     OW27637   2.030   3.563   2.872  0.0425 -0.1605  0.9808
 5393SOL    HW127638   2.117   3.587   2.839 -0.4308 -2.3791 -1.8171
 5393SOL    HW227639   1.987   3.647   2.859 -1.4024 -1.3343 -1.7941
 5394SOL     OW27640   0.003   4.089   9.160 -0.7352 -0.4659 -0.4297
 5394SOL    HW127641   0.002   3.997   9.135  1.6109 -0.9523  1.2745
 5394SOL    HW227642   4.635   4.099   9.188 -0.5438 -1.2706  0.4536
 5395SOL     OW27643   2.512   0.800  12.272 -0.4998  0.0706  0.6235
 5395SOL    HW127644   2.588   0.843  12.312 -0.9574  0.3019  1.2510
 5395SOL    HW227645   2.555   0.801  12.186  0.7954  0.5444  1.2735
 5396SOL     OW27646   1.266   2.195   7.808  0.1255 -0.4549 -0.0659
 5396SOL    HW127647   1.213   2.260   7.854  0.4876 -1.0319  1.1511
 5396SOL    HW227648   1.322   2.168   7.881 -2.0099  0.2676  1.8525
 5397SOL     OW27649   4.548   0.000   2.436 -0.4954  0.2145 -0.0566
 5397SOL    HW127650   4.456   4.699   2.450  0.0846 -1.5981  0.6441
 5397SOL    HW227651   4.546   0.091   2.407  0.0981  0.1252 -0.3691
 5398SOL     OW27652   0.435   1.712  12.529 -0.1436 -0.1958 -0.6775
 5398SOL    HW127653   0.370   1.739  12.464 -0.7947  3.0600  1.3124
 5398SOL    HW227654   0.415   1.619  12.537 -0.8464  0.0848  0.8217
 5399SOL     OW27655   1.998   1.479  14.779 -0.1629 -0.3584 -0.2639
 5399SOL    HW127656   1.949   1.420  14.837 -1.3242  1.2784  0.4207
 5399SOL    HW227657   2.088   1.462  14.804 -0.6484  1.2615  2.6222
 5400SOL     OW27658   0.506   2.473  13.682 -0.0938 -0.6810 -0.0858
 5400SOL    HW127659   0.472   2.415  13.750 -0.6360 -0.7015 -0.3729
 5400SOL    HW227660   0.435   2.455  13.620  1.1820  0.8335 -2.0030
 5401SOL     OW27661   1.992   0.913   7.581 -0.2887 -0.0359  0.8407
 5401SOL    HW127662   2.044   0.994   7.583  2.1264 -1.5676 -0.8642
 5401SOL    HW227663   1.965   0.895   7.671 -0.0031 -1.1120  0.7091
 5402SOL     OW27664   3.930   0.021   3.492  0.1413  0.0771 -0.1694
 5402SOL    HW127665   3.937   0.042   3.398  1.1920 -0.0248 -0.1118
 5402SOL    HW227666   3.857   0.077   3.518 -0.9672  0.2322 -3.5387
 5403SOL     OW27667   1.014   1.746   6.148  0.8009 -0.1433  0.1480
 5403SOL    HW127668   0.933   1.719   6.190  1.4298 -1.2784  0.6320
 5403SOL    HW227669   1.031   1.821   6.205  2.5089  0.3003 -0.9519
 5404SOL     OW27670   0.278   4.597  10.168  0.4984 -0.0690  0.7752
 5404SOL    HW127671   0.220   4.634  10.236  0.3361 -1.3695  1.3392
 5404SOL    HW227672   0.247   4.653  10.097  0.7928 -0.2115  0.5373
 5405SOL     OW27673   2.710   3.622  11.227  0.5700  0.2955  0.2281
 5405SOL    HW127674   2.645   3.692  11.228 -0.0339 -0.2457 -0.8700
 5405SOL    HW227675   2.723   3.609  11.321 -1.1798 -0.6352  0.3389
 5406SOL     OW27676   0.700   1.252  10.368 -0.5041 -0.0165 -0.0426
 5406SOL    HW127677   0.781   1.258  10.319 -0.5449  0.5076 -0.0388
 5406SOL    HW227678   0.647   1.314  10.318 -0.3809 -1.1274 -1.5757
 5407SOL     OW27679   3.049   0.398  15.928  0.9305 -0.3455 -0.0903
 5407SOL    HW127680   3.092   0.430  16.008 -0.6070  1.7816 -0.1008
 5407SOL    HW227681   3.116   0.341  15.891 -1.0471 -2.4632 -0.4338
 5408SOL     OW27682   4.437   1.758   6.264  0.6849 -0.4345  0.1543
 5408SOL    HW127683   4.443   1.739   6.170  0.7954  0.7250 -0.0686
 5408SOL    HW227684   4.522   1.723   6.292  0.7761  1.8422  2.7684
 5409SOL     OW27685   1.585   4.196  15.678 -0.5239 -0.0499  0.2990
 5409SOL    HW127686   1.675   4.210  15.709 -0.3772  1.2069 -0.6955
 5409SOL    HW227687   1.570   4.108  15.713 -0.5287 -0.9849 -2.0843
 5410SOL     OW27688   0.290   2.368  13.223  0.2131  0.1014  0.1225
 5410SOL    HW127689   0.332   2.361  13.137  0.2591 -0.6767  0.2081
 5410SOL    HW227690   0.360   2.402  13.278 -0.5311  0.3577  0.9176
 5411SOL     OW27691   2.067   2.520   3.227  0.0806  0.2606 -0.0784
 5411SOL    HW127692   2.002   2.470   3.176 -1.1719  0.7572  1.0249
 5411SOL    HW227693   2.025   2.546   3.309  0.1751  2.6627 -0.7726
 5412SOL     OW27694   4.314   2.110  13.061 -0.2519  0.0471 -0.1114
 5412SOL    HW127695   4.276   2.024  13.081 -1.1793  0.9170  1.8500
 5412SOL    HW227696   4.383   2.127  13.125  0.3626  0.2493 -0.8275
 5413SOL     OW27697   3.041   2.473   1.106 -0.0290  0.0726  0.2528
 5413SOL    HW127698   2.947   2.489   1.116 -0.0090 -0.7456  1.8196
 5413SOL    HW227699   3.030   2.378   1.095  1.9458 -0.1404  0.1049
 5414SOL     OW27700   2.790   1.212   1.585 -0.0689  0.2914 -0.1081
 5414SOL    HW127701   2.837   1.206   1.502 -1.1068 -0.1073 -0.6655
 5414SOL    HW227702   2.700   1.202   1.552  0.3627  1.1424 -1.5102
 5415SOL     OW27703   2.150   0.027   1.059 -0.7937  0.8420  0.4666
 5415SOL    HW127704   2.108   4.696   1.126 -0.6483  0.0681 -0.0711
 5415SOL    HW227705   2.207   0.081   1.114  0.5076 -0.3020  0.2454
 5416SOL     OW27706   1.080   4.663   8.332 -0.1777  0.2873 -0.0984
 5416SOL    HW127707   1.151   4.616   8.376  1.5447  3.2570  0.2904
 5416SOL    HW227708   1.014   4.668   8.401 -0.2820  0.2507 -0.1965
 5417SOL     OW27709   4.718   1.265   7.595  0.0861  0.1666 -0.1919
 5417SOL    HW127710   0.082   1.269   7.555 -0.2931  1.9488 -0.8290
 5417SOL    HW227711   0.021   1.299   7.680  0.0110 -0.3119  0.0189
 5418SOL     OW27712   2.928   1.700   0.090  0.5852 -0.5030 -0.6960
 5418SOL    HW127713   2.874   1.771   0.055 -0.4649  0.6956  3.3438
 5418SOL    HW227714   2.904   1.639   0.020 -4.1400 -1.5197  1.8073
 5419SOL     OW27715   1.639   2.693  15.932  0.3745 -0.5407  0.3011
 5419SOL    HW127716   1.625   2.601  15.909 -0.8616 -0.1185 -0.6123
 5419SOL    HW227717   1.569   2.706  15.996  0.4769 -1.1081  0.5262
 5420SOL     OW27718   4.665   3.569   6.514  0.0669  0.0220  0.3434
 5420SOL    HW127719   4.617   3.652   6.514 -0.2744 -0.1646  3.3121
 5420SOL    HW227720   4.591   3.510   6.509  0.1932 -0.0120 -1.1615
 5421SOL     OW27721   0.615   3.787   5.507  0.1568 -0.2409  0.3609
 5421SOL    HW127722   0.626   3.703   5.462 -0.8104  0.0609 -0.4189
 5421SOL    HW227723   0.650   3.843   5.438 -0.2004  2.0409  2.0540
 5422SOL     OW27724   0.716   3.541   9.322 -0.0777  0.0891  0.2445
 5422SOL    HW127725   0.671   3.607   9.376 -2.6773 -0.4103 -1.2933
 5422SOL    HW227726   0.744   3.470   9.380 -0.1151 -0.6624 -0.6682
 5423SOL     OW27727   4.139   2.214   4.095  0.2348 -0.5331 -0.3065
 5423SOL    HW127728   4.118   2.128   4.133  0.7142 -0.6990 -0.4164
 5423SOL    HW227729   4.054   2.254   4.113  1.4051  1.6978  0.2419
 5424SOL     OW27730   3.251   2.363   3.752 -0.2071 -0.5715  0.0888
 5424SOL    HW127731   3.238   2.299   3.822  1.0843 -0.4339  0.4488
 5424SOL    HW227732   3.196   2.325   3.683  1.1746 -2.4867  0.0461
 5425SOL     OW27733   3.907   4.242  15.210  0.0592 -0.1332  0.4637
 5425SOL    HW127734   3.874   4.187  15.139  0.6546  1.7417 -1.2697
 5425SOL    HW227735   3.902   4.333  15.182  0.5757 -0.7232 -1.5299
 5426SOL     OW27736   3.237   1.685   2.990  0.4133 -0.0494 -0.4254
 5426SOL    HW127737   3.155   1.658   2.949  0.1842  0.3209 -0.2064
 5426SOL    HW227738   3.230   1.779   2.972 -1.7606  0.1734  1.5981
 5427SOL     OW27739   2.547   2.870   6.602 -0.0838 -0.6268 -0.1328
 5427SOL    HW127740   2.461   2.912   6.601  0.5323  0.6691  1.2343
 5427SOL    HW227741   2.554   2.864   6.507 -1.8941 -1.5904 -0.2013
 5428SOL     OW27742   1.487   2.476   3.900 -0.1416 -0.5372 -0.2232
 5428SOL    HW127743   1.541   2.468   3.978 -0.1115  0.8377 -0.1083
 5428SOL    HW227744   1.476   2.571   3.896  1.1846 -0.4999 -3.4289
 5429SOL     OW27745   2.727   2.280  12.007  0.3081  0.3369 -0.0129
 5429SOL    HW127746   2.642   2.236  12.016  0.3823  0.2341  0.1969
 5429SOL    HW227747   2.732   2.326  11.924  2.1786  1.2561  0.6161
 5430SOL     OW27748   3.264   0.225  11.547  0.1576 -0.3209 -0.2857
 5430SOL    HW127749   3.225   0.138  11.542  0.4055 -0.3112 -2.0932
 5430SOL    HW227750   3.357   0.214  11.569  0.1094  0.3689  0.2982
 5431SOL     OW27751   3.349   4.096   7.937  0.4438  0.0558 -0.3885
 5431SOL    HW127752   3.338   4.095   7.842 -3.1034  3.3904 -0.0242
 5431SOL    HW227753   3.266   4.131   7.967  0.0034 -0.1356 -1.3845
 5432SOL     OW27754   2.188   4.250  12.659 -0.5924  0.2513 -0.4155
 5432SOL    HW127755   2.214   4.290  12.742 -1.3007  0.2688 -0.2097
 5432SOL    HW227756   2.254   4.182  12.644  0.0154  0.9407 -0.8981
 5433SOL     OW27757   1.256   3.518   4.862  0.3547  0.4026 -0.1408
 5433SOL    HW127758   1.162   3.504   4.851  0.6065 -0.4680 -1.1718
 5433SOL    HW227759   1.259   3.593   4.921 -2.5264  1.0169 -0.7585
 5434SOL     OW27760   1.447   0.330   4.997  0.4677 -0.2735 -0.3655
 5434SOL    HW127761   1.373   0.286   4.954  0.5135  0.1735 -0.9107
 5434SOL    HW227762   1.526   0.310   4.946  1.6006 -0.9169  1.6525
 5435SOL     OW27763   1.848   1.813   4.607 -0.3734  0.4035 -0.0328
 5435SOL    HW127764   1.815   1.844   4.522 -0.7963  0.3109  0.0987
 5435SOL    HW227765   1.939   1.805   4.579 -1.3503 -1.9046 -2.5726
 5436SOL     OW27766   3.906   0.760   0.900  0.2750  0.4398 -0.0770
 5436SOL    HW127767   3.897   0.665   0.903 -1.2612  0.5133 -2.2229
 5436SOL    HW227768   3.854   0.783   0.822  0.1350 -0.7006 -0.3092
 5437SOL     OW27769   1.212   3.989   0.837 -0.0335 -0.3139 -0.1943
 5437SOL    HW127770   1.290   4.041   0.857  0.5157 -0.4028 -2.1256
 5437SOL    HW227771   1.141   4.046   0.865 -0.8061 -0.8617 -1.0561
 5438SOL     OW27772   4.472   0.301  10.748 -0.3521  0.0026 -0.3847
 5438SOL    HW127773   4.566   0.283  10.754 -0.3995  0.7979  3.0487
 5438SOL    HW227774   4.468   0.391  10.717 -0.4956  0.3988  0.7794
 5439SOL     OW27775   2.954   1.882   2.894 -0.0557  0.2189 -0.0845
 5439SOL    HW127776   2.929   1.808   2.949 -2.1833  0.5684 -0.5657
 5439SOL    HW227777   2.983   1.843   2.812  1.2120  0.2330  0.3706
 5440SOL     OW27778   3.235   0.415   0.140 -0.4073  0.4973  0.1537
 5440SOL    HW127779   3.250   0.386   0.229  0.9270 -3.2496 -1.2838
 5440SOL    HW227780   3.187   0.339   0.106  0.5855  0.8992 -2.1822
 5441SOL     OW27781   2.467   2.702   9.726 -0.6690 -0.2382  0.2458
 5441SOL    HW127782   2.501   2.710   9.637 -1.4874  0.4455 -0.0086
 5441SOL    HW227783   2.379   2.738   9.712 -0.7603 -0.1712  0.9959
 5442SOL     OW27784   0.081   1.949   8.983 -0.0944 -0.0334 -0.5498
 5442SOL    HW127785   0.113   2.036   9.008  0.3378 -0.4797  0.4295
 5442SOL    HW227786   0.095   1.892   9.058 -1.7343  0.8997  0.4540
 5443SOL     OW27787   1.878   4.256   2.493  0.4967  0.2019 -0.2479
 5443SOL    HW127788   1.865   4.162   2.480 -0.0253  0.4075 -1.1901
 5443SOL    HW227789   1.815   4.282   2.561 -1.7171 -2.1554 -1.3756
 5444SOL     OW27790   1.806   3.203  17.173 -0.0538 -0.3727 -0.0847
 5444SOL    HW127791   1.832   3.285  17.131 -0.3820 -1.3080 -2.1105
 5444SOL    HW227792   1.868   3.208  17.246 -0.6256 -1.8413  0.4930
 5445SOL     OW27793   0.530   1.816  12.983  0.4414  0.1190  0.0375
 5445SOL    HW127794   0.476   1.859  12.918 -2.9788 -1.3124  1.9418
 5445SOL    HW227795   0.540   1.725  12.955  0.1353  0.1702 -0.2350
 5446SOL     OW27796   3.236   4.311   2.760 -0.1446  0.3691  0.3516
 5446SOL    HW127797   3.320   4.305   2.716 -0.0099 -2.4915  1.0425
 5446SOL    HW227798   3.223   4.405   2.747 -1.0384  0.4711  1.8462
 5447SOL     OW27799   3.464   2.986  12.510  0.1032  0.1662 -0.7163
 5447SOL    HW127800   3.543   3.025  12.473  0.3991 -1.0408 -1.3652
 5447SOL    HW227801   3.467   2.984  12.605 -0.1984 -1.8887 -0.7373
 5448SOL     OW27802   2.617   0.636   4.864  0.1707 -0.1736 -0.5656
 5448SOL    HW127803   2.631   0.707   4.927  0.5236  0.5818 -1.4911
 5448SOL    HW227804   2.687   0.652   4.801  1.7501  0.6568  1.4113
 5449SOL     OW27805   0.493   4.609   8.550  1.1338  0.8533  0.2300
 5449SOL    HW127806   0.428   4.540   8.565  1.4903  1.3509  4.1679
 5449SOL    HW227807   0.466   4.675   8.614 -0.2261  0.6791 -0.1616
 5450SOL     OW27808   1.242   3.695   5.099  0.0611  0.3504 -0.2715
 5450SOL    HW127809   1.296   3.633   5.147  0.0023 -0.6259 -1.4649
 5450SOL    HW227810   1.227   3.764   5.164  0.5137 -0.9006  1.1461
 5451SOL     OW27811   1.538   4.300  10.210  0.0739 -0.2113 -0.6101
 5451SOL    HW127812   1.556   4.359  10.283  0.7465  0.4190 -1.2913
 5451SOL    HW227813   1.458   4.253  10.236 -0.7777  1.8314  0.4759
 5452SOL     OW27814   0.832   3.157   7.901 -0.4109  0.2198 -0.4129
 5452SOL    HW127815   0.781   3.100   7.844  0.8259  0.6178 -1.9103
 5452SOL    HW227816   0.845   3.112   7.984  0.4785  0.1424 -0.5958
 5453SOL     OW27817   2.932   3.394   8.115 -0.1222 -0.5093  0.1014
 5453SOL    HW127818   2.844   3.429   8.125  0.8069  2.5962 -2.7830
 5453SOL    HW227819   2.964   3.366   8.201 -1.2413  1.9862  1.3258
 5454SOL     OW27820   1.121   2.234   1.429 -0.3502 -0.2731  0.0040
 5454SOL    HW127821   1.175   2.190   1.494  1.9783  0.0455 -1.7197
 5454SOL    HW227822   1.126   2.170   1.358 -1.2515  1.0994 -1.3061
 5455SOL     OW27823   3.881   3.201  15.341 -0.0345  0.3355  0.3024
 5455SOL    HW127824   3.857   3.217  15.433 -0.7212 -0.6722  0.3058
 5455SOL    HW227825   3.977   3.200  15.338 -0.1469 -1.3378 -2.3076
 5456SOL     OW27826   1.036   2.688  10.876  0.4029  0.3401 -0.2537
 5456SOL    HW127827   0.946   2.679  10.844 -0.2245  1.2654  1.2525
 5456SOL    HW227828   1.068   2.602  10.847  0.2264  0.1088  0.2233
 5457SOL     OW27829   0.056   3.412   2.495  0.4356  0.2307  0.0108
 5457SOL    HW127830   4.706   3.462   2.456 -0.1392 -2.1170 -1.9247
 5457SOL    HW227831   0.049   3.329   2.448 -2.4879 -0.5511  1.8067
 5458SOL     OW27832   0.312   0.360   2.583  0.0014 -0.0897 -0.8019
 5458SOL    HW127833   0.218   0.363   2.565  0.1287 -2.0035 -1.8052
 5458SOL    HW227834   0.317   0.266   2.600  1.0304  0.1639  0.2845
 5459SOL     OW27835   3.140   1.186   7.580 -0.1887  0.9117 -0.3928
 5459SOL    HW127836   3.173   1.236   7.655 -1.7497  0.2009  0.7649
 5459SOL    HW227837   3.220   1.138   7.557  1.5829  3.4133  0.4592
 5460SOL     OW27838   3.860   2.946   6.188  0.2313  0.1570 -0.1736
 5460SOL    HW127839   3.947   2.951   6.227  1.7601  0.8758 -3.7459
 5460SOL    HW227840   3.871   2.909   6.101  1.6053  2.4814 -0.9859
 5461SOL     OW27841   2.435   1.859   2.996  0.3882  0.2246  0.2711
 5461SOL    HW127842   2.502   1.860   3.065  1.1003  0.8727 -0.4306
 5461SOL    HW227843   2.463   1.798   2.927 -0.1755  1.4175 -1.0008
 5462SOL     OW27844   3.274   1.985   8.308 -0.0863 -0.3535  0.2397
 5462SOL    HW127845   3.315   1.912   8.355 -1.6242  0.1851  2.4070
 5462SOL    HW227846   3.319   2.058   8.348 -0.6162  0.2650 -0.2844
 5463SOL     OW27847   1.717   0.271   0.871 -0.6858 -0.2583  0.1607
 5463SOL    HW127848   1.670   0.340   0.823  2.3146  2.0515  0.5829
 5463SOL    HW227849   1.736   0.329   0.945 -2.0308 -0.2958  0.5481
 5464SOL     OW27850   3.619   3.330   5.744  0.1460  0.0491  0.3451
 5464SOL    HW127851   3.694   3.382   5.772 -0.1982  1.6245 -1.6015
 5464SOL    HW227852   3.589   3.388   5.674  0.0310 -1.8995 -1.2219
 5465SOL     OW27853   0.081   2.822   7.783  0.1474 -0.2447  0.4905
 5465SOL    HW127854   0.019   2.877   7.735 -1.1747 -0.8394  1.5198
 5465SOL    HW227855   0.023   2.767   7.835 -1.1455  1.6409  1.0652
 5466SOL     OW27856   0.218   0.904  13.056 -0.1032  0.1133  0.6910
 5466SOL    HW127857   0.233   0.826  13.109  0.0537 -0.5578 -0.3566
 5466SOL    HW227858   0.194   0.861  12.974 -2.6919  1.0893  0.9068
 5467SOL     OW27859   3.879   0.156  12.772  0.1200 -0.0330  1.1557
 5467SOL    HW127860   3.875   0.189  12.682 -0.7570  0.6017  1.4239
 5467SOL    HW227861   3.963   0.198  12.790  0.0817 -0.5995  2.6558
 5468SOL     OW27862   3.450   3.467   8.514  0.4864  0.2869 -0.7081
 5468SOL    HW127863   3.467   3.534   8.448  1.1923 -0.1813 -1.0008
 5468SOL    HW227864   3.367   3.506   8.542 -0.1847 -1.7047  0.0974
 5469SOL     OW27865   1.687   2.510   1.739 -0.0615  0.5605  0.1836
 5469SOL    HW127866   1.620   2.498   1.807 -3.6499  0.9740 -3.2619
 5469SOL    HW227867   1.737   2.572   1.792  1.6751 -1.2339  0.5921
 5470SOL     OW27868   0.379   3.569   9.078  0.3283  0.1652 -0.0313
 5470SOL    HW127869   0.452   3.511   9.058 -0.4068 -0.8953  0.3466
 5470SOL    HW227870   0.426   3.643   9.117  3.5685 -1.2998 -1.2053
 5471SOL     OW27871   0.553   4.117   7.823  0.1068  0.1868 -0.0608
 5471SOL    HW127872   0.598   4.112   7.907 -1.4274  0.7979  0.8056
 5471SOL    HW227873   0.610   4.069   7.763 -3.9626 -3.3788 -1.1410
 5472SOL     OW27874   3.705   1.686   2.146 -0.5237  0.1915  0.0497
 5472SOL    HW127875   3.672   1.760   2.197 -1.1724 -1.0652  1.4681
 5472SOL    HW227876   3.661   1.698   2.062  0.8028  0.4474 -0.6088
 5473SOL     OW27877   4.706   0.295   5.480 -0.1851  0.0037 -0.2968
 5473SOL    HW127878   4.700   0.287   5.575 -0.3055  0.8598 -0.2317
 5473SOL    HW227879   4.615   0.271   5.459 -0.7294  1.0349  0.9458
 5474SOL     OW27880   2.798   2.635   5.716  0.1773 -0.0154  0.7101
 5474SOL    HW127881   2.714   2.680   5.708  0.7930  1.4392  2.3976
 5474SOL    HW227882   2.828   2.659   5.804  0.3320 -0.6664  0.8330
 5475SOL     OW27883   2.861   1.478   8.811  0.1591 -0.0364  0.2921
 5475SOL    HW127884   2.790   1.418   8.833 -1.0712  0.8660 -1.2096
 5475SOL    HW227885   2.916   1.467   8.889 -0.8862  0.3779  1.0797
 5476SOL     OW27886   0.911   2.603   5.193 -0.2465  0.3291  0.0675
 5476SOL    HW127887   0.824   2.643   5.200 -1.1566 -1.4583 -1.3298
 5476SOL    HW227888   0.927   2.642   5.108 -0.8594  0.4885  0.0229
 5477SOL     OW27889   0.711   3.535   4.578 -0.1120 -0.7319  0.4149
 5477SOL    HW127890   0.783   3.598   4.585  0.0529 -0.9982  1.1777
 5477SOL    HW227891   0.631   3.586   4.573 -0.4391 -1.1660  1.2514
 5478SOL     OW27892   0.559   1.751   7.407 -0.0339 -0.1524  0.2430
 5478SOL    HW127893   0.537   1.658   7.411 -1.2160 -0.0018 -2.9480
 5478SOL    HW227894   0.560   1.773   7.314 -0.2566  1.8406  0.7247
 5479SOL     OW27895   0.145   2.011  15.400  0.4579 -0.7640  0.6493
 5479SOL    HW127896   0.122   2.048  15.485 -1.4362 -0.6316  0.0791
 5479SOL    HW227897   0.071   2.040  15.347  0.3424  0.2650  1.3646
 5480SOL     OW27898   4.449   0.852   7.985  0.4356 -0.1139 -0.3755
 5480SOL    HW127899   4.492   0.768   8.000  1.8864  0.5549 -0.8062
 5480SOL    HW227900   4.373   0.836   8.042 -1.2481  0.4597 -2.4460
 5481SOL     OW27901   1.969   4.537  12.059  0.2924  0.3948  0.0116
 5481SOL    HW127902   2.042   4.537  12.121  0.9433  1.6731 -0.7651
 5481SOL    HW227903   2.011   4.507  11.979 -1.3760  0.6916 -0.9888
 5482SOL     OW27904   0.836   4.440   8.551 -0.3275 -0.3690  0.3153
 5482SOL    HW127905   0.781   4.456   8.628  1.1175  0.4350  1.1688
 5482SOL    HW227906   0.919   4.475   8.583 -1.6782  3.0736  0.0238
 5483SOL     OW27907   2.224   3.257   7.817 -0.5195 -0.3989  0.0017
 5483SOL    HW127908   2.279   3.185   7.785  0.4924 -0.0727  1.0242
 5483SOL    HW227909   2.209   3.312   7.741 -1.2937 -0.6491 -0.0303
 5484SOL     OW27910   2.076   3.265   2.233 -0.1005  0.6071  0.0453
 5484SOL    HW127911   2.097   3.247   2.325 -2.7412  0.1533  0.5571
 5484SOL    HW227912   2.153   3.218   2.201 -0.5685  0.5272 -0.9849
 5485SOL     OW27913   1.841   2.516   4.573 -0.4949  0.7121 -0.5212
 5485SOL    HW127914   1.865   2.493   4.663 -2.1589  1.4615  0.1150
 5485SOL    HW227915   1.795   2.437   4.543  0.4828 -1.0748  2.6881
 5486SOL     OW27916   1.007   1.116  10.897 -0.1746  0.4374  0.2414
 5486SOL    HW127917   1.073   1.084  10.958 -1.3039 -0.5515  0.9504
 5486SOL    HW227918   0.971   1.186  10.951  1.0659  2.7077 -1.8551
 5487SOL     OW27919   3.146   4.147  12.589  0.4005  0.1875 -0.1776
 5487SOL    HW127920   3.102   4.223  12.628  0.4519 -0.0752  0.3903
 5487SOL    HW227921   3.238   4.165  12.605  0.3431 -1.4093  1.9438
 5488SOL     OW27922   2.512   0.086   1.638 -0.1369 -0.2360  0.4637
 5488SOL    HW127923   2.540   0.001   1.604  1.2221  0.6017 -0.4948
 5488SOL    HW227924   2.443   0.057   1.698 -0.6206 -0.8064 -0.3655
 5489SOL     OW27925   2.400   1.001   8.252 -0.1704  0.5793  0.3938
 5489SOL    HW127926   2.468   0.945   8.288  0.5981  0.8314 -0.6875
 5489SOL    HW227927   2.322   0.945   8.251 -0.2699  0.7281  0.0943
 5490SOL     OW27928   0.980   0.859  11.960 -0.5817 -0.5906  0.4869
 5490SOL    HW127929   1.065   0.892  11.931 -0.9155  1.1151  1.4088
 5490SOL    HW227930   0.926   0.909  11.899  2.1866  1.7317 -0.0774
 5491SOL     OW27931   3.991   4.001   5.067  0.8559  0.2151  0.8378
 5491SOL    HW127932   4.025   4.027   4.982 -0.7495  0.0257  0.1330
 5491SOL    HW227933   4.040   3.922   5.089  0.1070  0.1060  2.1566
 5492SOL     OW27934   3.431   2.586  11.640  0.2557 -0.2487 -0.2810
 5492SOL    HW127935   3.391   2.658  11.687  2.2051  1.2533 -0.9385
 5492SOL    HW227936   3.429   2.625  11.552  2.0972 -1.6636 -0.9614
 5493SOL     OW27937   1.254   2.573  16.394 -0.1882  0.0914 -1.0192
 5493SOL    HW127938   1.200   2.503  16.430 -0.2200  1.0136  0.6909
 5493SOL    HW227939   1.223   2.640  16.455 -0.9631  0.2865 -1.6167
 5494SOL     OW27940   4.507   4.008   9.280 -0.0359 -0.1493 -0.0806
 5494SOL    HW127941   4.540   3.952   9.350 -0.2620 -1.4892 -1.0511
 5494SOL    HW227942   4.428   4.043   9.322  0.4583 -1.6874  2.1181
 5495SOL     OW27943   3.673   3.684   3.549 -0.3158  0.8574  0.1280
 5495SOL    HW127944   3.745   3.717   3.495  0.3875 -0.6785  0.1230
 5495SOL    HW227945   3.677   3.588   3.541 -2.9641  0.7533 -0.2290
 5496SOL     OW27946   0.947   2.101   8.631  0.7840  0.3570 -0.3745
 5496SOL    HW127947   0.880   2.137   8.573  0.6548 -1.0857 -1.1333
 5496SOL    HW227948   0.913   2.011   8.630  0.2287  0.5145  2.8656
 5497SOL     OW27949   2.088   3.747   4.741 -0.3178 -0.7847  0.8055
 5497SOL    HW127950   2.130   3.698   4.671 -0.3904 -0.8647  0.8182
 5497SOL    HW227951   2.009   3.775   4.696  1.0005  0.5653 -0.6766
 5498SOL     OW27952   1.310   1.636  10.453  0.3486 -0.7291  0.0194
 5498SOL    HW127953   1.295   1.679  10.369 -1.3841  2.0505  1.7543
 5498SOL    HW227954   1.290   1.712  10.508 -0.3843 -0.6429 -0.3685
 5499SOL     OW27955   2.855   0.998   5.633  0.3406  0.8985  0.8418
 5499SOL    HW127956   2.948   1.002   5.655  0.4255  0.3472  0.5658
 5499SOL    HW227957   2.850   0.922   5.576  1.3176  1.4538  0.0170
 5500SOL     OW27958   4.058   0.266   2.186  0.1156 -0.7357  0.3581
 5500SOL    HW127959   4.069   0.186   2.237 -1.5117 -0.0567  1.7698
 5500SOL    HW227960   4.013   0.218   2.116  0.3797  1.6952 -1.5084
 5501SOL     OW27961   1.832   2.265   0.325 -0.2739  0.0467  0.2739
 5501SOL    HW127962   1.781   2.338   0.362 -0.3107  0.4701 -0.6236
 5501SOL    HW227963   1.758   2.225   0.279 -0.8068  0.0871  1.0770
 5502SOL     OW27964   1.919   0.422   2.645  0.3070 -0.5088 -0.5499
 5502SOL    HW127965   1.967   0.468   2.714 -3.5159  1.7815  0.6433
 5502SOL    HW227966   1.874   0.494   2.600 -0.1934  0.3390  1.2739
 5503SOL     OW27967   0.075   2.233   6.164  0.7621 -0.4228 -0.1103
 5503SOL    HW127968   0.039   2.221   6.251 -1.3860 -0.8430 -1.0630
 5503SOL    HW227969   0.155   2.283   6.183  0.6155 -0.2016 -0.0734
 5504SOL     OW27970   2.278   4.286  12.082 -0.3782 -0.4293 -0.2423
 5504SOL    HW127971   2.298   4.211  12.137  2.0050 -0.6731 -1.3963
 5504SOL    HW227972   2.209   4.251  12.025  2.0889 -1.5513 -2.5530
 5505SOL     OW27973   4.258   1.931   7.163 -0.4966  0.2134  0.4728
 5505SOL    HW127974   4.177   1.880   7.161 -0.6468  0.5631 -3.1638
 5505SOL    HW227975   4.225   2.020   7.156  2.5407  1.1444 -2.3316
 5506SOL     OW27976   2.256   0.162   7.100  0.4267 -0.5230 -0.2507
 5506SOL    HW127977   2.315   0.212   7.156  0.0604  0.1353 -0.4634
 5506SOL    HW227978   2.193   0.115   7.154  1.4552 -0.5103  0.9713
 5507SOL     OW27979   1.389   4.004   8.635  0.1995  0.4124  0.4021
 5507SOL    HW127980   1.455   4.028   8.700 -0.9961  1.0231  1.4064
 5507SOL    HW227981   1.317   3.978   8.693 -1.9019 -1.6232 -3.1545
 5508SOL     OW27982   3.012   1.785  11.702 -1.2238  0.5682 -0.2745
 5508SOL    HW127983   2.963   1.849  11.650 -1.5946 -0.2415 -0.9313
 5508SOL    HW227984   2.957   1.711  11.678  0.7965 -2.0207  3.0670
 5509SOL     OW27985   1.268   4.430   0.620  0.3478 -0.3197  0.0315
 5509SOL    HW127986   1.261   4.381   0.538  2.5257  1.5273 -1.2558
 5509SOL    HW227987   1.347   4.482   0.606  0.3462 -0.2251  0.3575
 5510SOL     OW27988   0.314   3.056  12.642 -0.1263 -0.3913  0.1900
 5510SOL    HW127989   0.339   2.995  12.712 -0.6107  0.2887  0.9583
 5510SOL    HW227990   0.233   3.015  12.614 -0.2704 -0.1725  0.2883
 5511SOL     OW27991   2.418   4.083   9.529  0.1814 -0.5303 -0.0114
 5511SOL    HW127992   2.369   4.105   9.608  0.2909 -0.3059 -0.0070
 5511SOL    HW227993   2.367   4.117   9.455  0.1057  1.0366  0.7519
 5512SOL     OW27994   3.991   2.209   3.782 -0.2494 -0.2390  0.3295
 5512SOL    HW127995   3.992   2.290   3.730 -0.1580 -0.5115 -0.0956
 5512SOL    HW227996   3.985   2.147   3.709 -0.2018 -0.1295  0.2312
 5513SOL     OW27997   4.146   4.452   2.899 -0.3368 -0.1572  0.1413
 5513SOL    HW127998   4.101   4.420   2.821 -1.9036  2.2932  0.0342
 5513SOL    HW227999   4.161   4.545   2.883  1.1733 -0.2157  1.2073
 5514SOL     OW28000   4.013   1.073   2.083  0.3851 -0.2107 -0.0321
 5514SOL    HW128001   3.934   1.111   2.120 -0.1469 -0.8821 -0.4821
 5514SOL    HW228002   3.985   0.982   2.079 -1.1876  0.3512 -1.4996
 5515SOL     OW28003   2.271   2.289   7.731 -0.2562  0.2188  0.4902
 5515SOL    HW128004   2.259   2.383   7.719 -1.7263  0.0798  0.9095
 5515SOL    HW228005   2.189   2.263   7.772  0.0627 -0.3634  0.7683
 5516SOL     OW28006   0.845   1.125   7.642 -0.0721  0.2738  0.2135
 5516SOL    HW128007   0.911   1.096   7.704  0.6565 -0.6136 -0.9751
 5516SOL    HW228008   0.784   1.176   7.696 -0.1700  0.7765 -0.3756
 5517SOL     OW28009   0.143   0.577   1.095 -0.3021 -0.6194  0.6309
 5517SOL    HW128010   0.135   0.492   1.138  0.6742 -1.2132 -0.3486
 5517SOL    HW228011   0.050   0.595   1.078 -0.2482 -1.2029 -0.3033
 5518SOL     OW28012   0.956   4.560   5.879  0.2116 -0.3975  0.2338
 5518SOL    HW128013   0.998   4.480   5.909 -1.7863 -1.4530  0.2132
 5518SOL    HW228014   0.991   4.565   5.790 -1.4420 -2.3102 -0.5385
 5519SOL     OW28015   3.693   1.917  12.632 -0.1440 -0.3311 -0.3328
 5519SOL    HW128016   3.635   1.989  12.658 -1.8549 -1.6805 -0.4767
 5519SOL    HW228017   3.628   1.860  12.593 -0.2908  0.7470 -1.6464
 5520SOL     OW28018   0.008   3.046   4.580 -0.4985 -0.2583 -0.1914
 5520SOL    HW128019   0.077   2.990   4.546  1.4090  2.4210 -0.7743
 5520SOL    HW228020   4.684   2.983   4.634 -0.2969  0.0061  0.2957
 5521SOL     OW28021   2.643   3.565   6.251  0.6201  0.0454  0.3104
 5521SOL    HW128022   2.686   3.630   6.195 -1.8387  1.6788  0.3174
 5521SOL    HW228023   2.600   3.511   6.185  0.3693  1.1094 -0.3919
 5522SOL     OW28024   1.570   2.904  15.060 -0.4519 -0.5664 -0.4359
 5522SOL    HW128025   1.607   2.907  15.148 -2.1503  0.1449  0.2506
 5522SOL    HW228026   1.512   2.980  15.058  0.0753 -0.2421 -2.7799
 5523SOL     OW28027   3.560   3.433   8.777 -0.0267  0.2047 -0.0607
 5523SOL    HW128028   3.567   3.527   8.793 -0.5456  0.5219 -1.6802
 5523SOL    HW228029   3.530   3.433   8.686  0.9132  1.5260 -0.3774
 5524SOL     OW28030   0.272   2.444   9.972  0.2616  0.8783 -0.1283
 5524SOL    HW128031   0.276   2.538   9.957  1.5862  0.9136  0.4691
 5524SOL    HW228032   0.243   2.435  10.063 -0.1704  0.8065 -0.2742
 5525SOL     OW28033   2.212   0.468   6.651 -0.1503 -1.0236  0.7431
 5525SOL    HW128034   2.298   0.461   6.611 -1.5122  0.3560 -2.4321
 5525SOL    HW228035   2.164   0.391   6.621  1.6430 -2.2406  1.0291
 5526SOL     OW28036   2.814   0.739   7.871  0.0779  0.3617 -0.0464
 5526SOL    HW128037   2.759   0.744   7.949  0.4057 -0.2626  0.2189
 5526SOL    HW228038   2.859   0.655   7.873  0.3407  0.5448  1.4400
 5527SOL     OW28039   0.106   1.274   6.635  0.0969  0.0661 -0.3055
 5527SOL    HW128040   0.048   1.292   6.562 -1.8188 -0.0868  1.1816
 5527SOL    HW228041   0.045   1.298   6.705 -0.3088  0.0480 -0.6524
 5528SOL     OW28042   0.174   3.223   6.760  0.1275  0.3468 -0.0151
 5528SOL    HW128043   0.214   3.281   6.695 -2.5386  1.6784 -0.4757
 5528SOL    HW228044   0.117   3.278   6.815  0.6295 -0.1255  0.9773
 5529SOL     OW28045   2.889   1.454  13.374 -0.1839 -0.7885  0.1933
 5529SOL    HW128046   2.973   1.496  13.358 -0.0572 -0.7783  0.9303
 5529SOL    HW228047   2.840   1.524  13.331 -0.1160 -0.9239 -0.1124
 5530SOL     OW28048   0.776   2.669   8.063  0.1120 -0.1129  0.2064
 5530SOL    HW128049   0.692   2.655   8.019  0.8195 -0.4096 -1.0590
 5530SOL    HW228050   0.778   2.602   8.132  0.0045  0.5080  0.8114
 5531SOL     OW28051   0.620   3.354   2.760 -0.0718  0.3311 -0.6879
 5531SOL    HW128052   0.688   3.415   2.732  1.9343 -1.3836  0.4292
 5531SOL    HW228053   0.607   3.319   2.672  0.8461  0.2472 -0.7954
 5532SOL     OW28054   1.498   1.643   4.175 -0.2937 -0.1237 -1.3448
 5532SOL    HW128055   1.409   1.630   4.208 -0.0564  2.0191  0.1259
 5532SOL    HW228056   1.488   1.690   4.092 -4.4478 -0.9961 -1.3288
 5533SOL     OW28057   2.593   1.976   7.741  0.6883 -0.2291 -0.0201
 5533SOL    HW128058   2.546   2.034   7.802  0.2465 -0.3996 -0.2014
 5533SOL    HW228059   2.676   2.024   7.739  0.6654 -0.1669  0.4318
 5534SOL     OW28060   1.376   3.987  12.203  0.4895  0.1300  0.3330
 5534SOL    HW128061   1.324   4.035  12.267 -0.4010 -2.3911  1.4858
 5534SOL    HW228062   1.375   4.052  12.133 -0.6429 -0.6585 -0.3821
 5535SOL     OW28063   0.466   0.774   1.854 -0.6235  0.0104 -0.1772
 5535SOL    HW128064   0.486   0.830   1.929 -1.3332 -1.4247  1.0946
 5535SOL    HW228065   0.466   0.689   1.897 -1.5120 -0.4207 -1.0183
 5536SOL     OW28066   0.940   4.437  12.778 -0.0662  0.0133 -0.1810
 5536SOL    HW128067   1.028   4.440  12.815 -0.0602 -0.7250 -0.1425
 5536SOL    HW228068   0.951   4.456  12.685  0.1935  0.8141  0.0092
 5537SOL     OW28069   3.171   4.192   3.727 -0.3605  0.4528  0.2248
 5537SOL    HW128070   3.161   4.188   3.632 -1.7880  0.5413  0.3702
 5537SOL    HW228071   3.213   4.113   3.761  1.9331  0.8480 -1.7134
 5538SOL     OW28072   3.162   1.185  12.713 -0.2731  0.0940 -0.5371
 5538SOL    HW128073   3.168   1.104  12.662  2.0456 -0.6300  0.8961
 5538SOL    HW228074   3.196   1.244  12.646  1.2853  0.9484  1.0271
 5539SOL     OW28075   3.512   3.526   7.786 -0.5881 -0.0198  0.0935
 5539SOL    HW128076   3.540   3.434   7.779  1.4136  0.6307 -0.3480
 5539SOL    HW228077   3.582   3.578   7.825 -0.6200 -0.7165  1.0924
 5540SOL     OW28078   3.253   4.200   7.451 -0.2826  1.1357  0.1167
 5540SOL    HW128079   3.298   4.148   7.518  0.7344  0.6113 -0.9664
 5540SOL    HW228080   3.278   4.286   7.483  1.6771  1.1763 -1.5510
 5541SOL     OW28081   2.187   0.103  13.477 -0.1702 -0.8300 -0.1261
 5541SOL    HW128082   2.134   0.023  13.473  0.4520 -1.2588  0.1652
 5541SOL    HW228083   2.135   0.166  13.527  0.4313 -0.4362 -0.0023
 5542SOL     OW28084   2.799   0.479   9.475  0.0167  0.1362  0.2203
 5542SOL    HW128085   2.839   0.394   9.455  2.3472  1.1156  0.6342
 5542SOL    HW228086   2.717   0.444   9.510  0.2564 -0.2139  0.4364
 5543SOL     OW28087   1.740   2.905  13.740 -0.0341  0.5624  0.3927
 5543SOL    HW128088   1.739   2.838  13.672 -0.5551  0.2528  0.7114
 5543SOL    HW228089   1.659   2.952  13.720 -0.0311  1.0609  1.5222
 5544SOL     OW28090   3.964   1.747   3.939  0.7079 -0.5917  0.3316
 5544SOL    HW128091   4.022   1.809   3.894 -0.2248 -0.7050 -1.0094
 5544SOL    HW228092   4.024   1.696   3.994  0.5155 -1.1111  0.0523
 5545SOL     OW28093   4.550   4.056   4.523 -0.0519 -0.3942  0.0884
 5545SOL    HW128094   4.635   4.096   4.544 -0.6415  0.5655  0.6131
 5545SOL    HW228095   4.507   4.139   4.504 -0.3489 -1.0231 -2.0669
 5546SOL     OW28096   1.984   0.321   2.198  0.2757 -0.3166  0.7734
 5546SOL    HW128097   1.906   0.330   2.252  0.6186 -0.4845  1.2907
 5546SOL    HW228098   2.021   0.250   2.251 -1.7043 -0.4359  2.0023
 5547SOL     OW28099   3.936   2.549   7.527 -0.8225  0.3423  0.1093
 5547SOL    HW128100   4.007   2.498   7.486 -1.8764 -1.4940  0.5872
 5547SOL    HW228101   3.901   2.599   7.454 -1.2155  2.4188  1.7278
 5548SOL     OW28102   3.090   1.791   4.011 -0.1498  0.2870  0.0429
 5548SOL    HW128103   3.161   1.731   3.988  0.2558  0.1810  1.5687
 5548SOL    HW228104   3.052   1.742   4.083 -0.4151 -1.7312 -1.4581
 5549SOL     OW28105   1.250   1.455  11.131  0.4772  0.3464  0.0777
 5549SOL    HW128106   1.260   1.503  11.049  0.0739 -0.7489 -0.6044
 5549SOL    HW228107   1.172   1.401  11.118 -0.5692  1.6263  0.9735
 5550SOL     OW28108   4.016   1.809   0.223 -0.9621 -0.1973 -0.6001
 5550SOL    HW128109   4.032   1.791   0.316 -1.5053 -1.1022 -0.6775
 5550SOL    HW228110   3.946   1.873   0.238 -0.5687  0.1025 -0.0308
 5551SOL     OW28111   3.333   2.437   8.563 -0.9351  0.5251 -0.0642
 5551SOL    HW128112   3.276   2.463   8.635 -1.1408 -1.4855  0.5185
 5551SOL    HW228113   3.347   2.527   8.534 -1.3428  0.4848 -0.3989
 5552SOL     OW28114   1.773   1.087   8.968 -0.5142 -0.1799  0.8792
 5552SOL    HW128115   1.804   1.040   8.891 -0.8631 -1.3684  1.4612
 5552SOL    HW228116   1.811   1.174   8.954  1.3279 -0.9601  1.0297
 5553SOL     OW28117   0.937   1.838  10.121  0.9219 -0.3558  0.1995
 5553SOL    HW128118   0.968   1.913  10.171  0.6284  0.2708 -0.5571
 5553SOL    HW228119   0.947   1.876  10.034  0.9535 -1.6832 -0.3739
 5554SOL     OW28120   1.998   1.281   4.366  0.1699  0.1014 -0.2397
 5554SOL    HW128121   1.953   1.329   4.296 -0.8642 -0.1004  0.2773
 5554SOL    HW228122   2.089   1.289   4.339  0.1692 -2.4875 -1.0261
 5555SOL     OW28123   1.298   2.958   8.261 -0.0315  0.6825 -0.7306
 5555SOL    HW128124   1.212   2.991   8.235  1.0262  1.5506 -3.1190
 5555SOL    HW228125   1.286   2.954   8.356  0.3473  3.6054 -0.5732
 5556SOL     OW28126   1.036   2.622   6.701  0.1000  0.3136 -0.3844
 5556SOL    HW128127   1.062   2.645   6.790 -1.7967 -1.7442  0.6998
 5556SOL    HW228128   1.122   2.606   6.663  0.4447 -0.2410  0.6340
 5557SOL     OW28129   0.966   4.681   6.143  0.1529  0.8384  0.2799
 5557SOL    HW128130   0.952   4.647   6.054  0.4316 -0.8588  0.8865
 5557SOL    HW228131   1.061   4.694   6.143  0.5054 -1.8350 -0.8330
 5558SOL     OW28132   3.202   2.360   2.592 -0.2262  0.0161  0.0930
 5558SOL    HW128133   3.267   2.349   2.662  0.9050  0.2044 -0.9257
 5558SOL    HW228134   3.253   2.324   2.519 -0.4334  0.3530 -0.2171
 5559SOL     OW28135   3.934   2.486  10.825  0.5156  0.0171  0.1859
 5559SOL    HW128136   3.977   2.406  10.795  1.5013 -0.0413  1.7471
 5559SOL    HW228137   3.874   2.507  10.754 -2.7201 -1.2981  2.4985
 5560SOL     OW28138   1.009   1.709   3.083  0.2660 -0.2727 -0.0948
 5560SOL    HW128139   1.026   1.635   3.024 -1.0470  0.2955 -1.1830
 5560SOL    HW228140   0.916   1.696   3.102  0.5743 -1.9208  0.3228
 5561SOL     OW28141   2.231   0.638  11.845  0.0607 -0.5709  0.3874
 5561SOL    HW128142   2.286   0.642  11.767  1.9688  0.3013  1.7567
 5561SOL    HW228143   2.151   0.679  11.811  0.5249 -0.8447 -1.0307
 5562SOL     OW28144   0.432   1.161   1.043 -0.0088 -0.0292  0.4789
 5562SOL    HW128145   0.337   1.157   1.037  0.1014  1.1143 -1.8453
 5562SOL    HW228146   0.437   1.252   1.014 -2.2193 -0.1041 -0.1237
 5563SOL     OW28147   2.967   2.066  15.553  0.7406 -0.6698  0.4455
 5563SOL    HW128148   2.986   2.154  15.520 -1.5032 -0.0858  0.7156
 5563SOL    HW228149   2.900   2.034  15.493 -0.9446 -1.0567  2.5089
 5564SOL     OW28150   0.183   3.425  17.020 -0.7168  0.3978  0.7063
 5564SOL    HW128151   0.143   3.447  16.936  0.1834  1.3246  0.5292
 5564SOL    HW228152   0.206   3.333  17.009 -0.4560  0.5476  0.0229
 5565SOL     OW28153   1.214   2.798  16.554  0.2685 -0.2010 -0.5555
 5565SOL    HW128154   1.120   2.783  16.558 -0.0986  2.0294 -0.5271
 5565SOL    HW228155   1.213   2.874  16.495 -1.1124  0.8939  0.8883
 5566SOL     OW28156   4.103   0.117   0.092  0.1048 -0.2130 -0.1406
 5566SOL    HW128157   4.066   0.032   0.115 -0.3255  0.1767  0.5868
 5566SOL    HW228158   4.055   0.136   0.011 -2.0745  3.7027  2.0582
 5567SOL     OW28159   0.677   1.229   7.864 -0.3389  0.0430  0.5548
 5567SOL    HW128160   0.606   1.276   7.909  0.8720  1.6047  0.8176
 5567SOL    HW228161   0.655   1.146   7.905 -1.2518  0.5054  1.0075
 5568SOL     OW28162   4.295   2.444   8.393 -0.4845 -0.0598  0.3210
 5568SOL    HW128163   4.230   2.505   8.427 -1.9176 -0.9103 -0.8637
 5568SOL    HW228164   4.235   2.370   8.381 -0.4671  0.1452 -1.0185
 5569SOL     OW28165   1.856   3.958   9.948 -0.3019  0.0701 -0.7719
 5569SOL    HW128166   1.795   4.031   9.950  0.4393  0.6997 -1.2527
 5569SOL    HW228167   1.828   3.907  10.024 -0.4314  1.8026  0.3282
 5570SOL     OW28168   4.378   1.405   3.179  0.5044  0.0395  0.0514
 5570SOL    HW128169   4.415   1.483   3.137  1.1559 -1.7720 -2.7239
 5570SOL    HW228170   4.437   1.335   3.150  0.6215  0.3609 -0.4989
 5571SOL     OW28171   1.230   3.730   8.095  0.3005  0.0325  0.2793
 5571SOL    HW128172   1.238   3.637   8.074  0.1963  0.3297 -1.1294
 5571SOL    HW228173   1.143   3.722   8.135  0.0744 -1.2276 -0.4733
 5572SOL     OW28174   2.587   3.065   9.929 -0.5277 -0.5844 -0.6218
 5572SOL    HW128175   2.667   3.117   9.940 -0.8609 -0.5224  1.3878
 5572SOL    HW228176   2.620   2.975   9.923 -0.9731 -0.8615  1.0715
 5573SOL     OW28177   1.127   4.336   6.222  0.2360  0.0079  0.7031
 5573SOL    HW128178   1.212   4.377   6.206  0.9422 -1.5198  0.5522
 5573SOL    HW228179   1.155   4.259   6.272  1.2090 -0.4286 -0.5194
 5574SOL     OW28180   0.090   4.467   4.580  0.5240 -0.2765  0.3164
 5574SOL    HW128181   0.054   4.519   4.652 -0.9589 -1.1088  0.1804
 5574SOL    HW228182   0.052   4.516   4.508  2.1200  2.5789  1.4226
 5575SOL     OW28183   0.027   1.878   6.745  0.1437 -0.1001 -0.1433
 5575SOL    HW128184   4.678   1.900   6.805 -0.1264  0.7164 -0.7743
 5575SOL    HW228185   0.056   1.790   6.770 -2.3419 -1.2175 -1.1920
 5576SOL     OW28186   3.682   4.551  16.757  0.2545 -0.0059 -0.1270
 5576SOL    HW128187   3.676   4.467  16.801  1.6583 -0.3149 -0.5176
 5576SOL    HW228188   3.694   4.604  16.836 -0.9069 -0.5094  0.3833
 5577SOL     OW28189   1.445   0.914   4.550 -0.7439  0.1679  0.2883
 5577SOL    HW128190   1.376   0.854   4.577  0.6062 -0.0300  3.3832
 5577SOL    HW228191   1.527   0.866   4.563 -1.7631 -1.4535  0.6714
 5578SOL     OW28192   1.741   4.576  16.018 -1.0122 -0.0959  0.2923
 5578SOL    HW128193   1.666   4.635  16.016 -2.2276 -1.6322  1.3197
 5578SOL    HW228194   1.770   4.589  15.927 -2.2646  0.1661 -0.0736
 5579SOL     OW28195   0.955   1.489   2.070  0.5025 -0.2914  0.0073
 5579SOL    HW128196   0.939   1.582   2.050 -0.3481 -0.7602 -1.5004
 5579SOL    HW228197   0.892   1.451   2.009 -0.5888 -0.1535  1.0534
 5580SOL     OW28198   0.621   0.477   4.224  0.0176 -0.4404  0.4206
 5580SOL    HW128199   0.699   0.518   4.263 -0.3289  2.3707 -1.8381
 5580SOL    HW228200   0.665   0.441   4.147 -1.1808  0.1003 -0.5184
 5581SOL     OW28201   4.169   3.778  10.340  0.0594 -0.0114  0.2929
 5581SOL    HW128202   4.198   3.711  10.403 -0.6861  0.3416  1.0126
 5581SOL    HW228203   4.081   3.761  10.308  0.5796 -0.6725 -0.8065
 5582SOL     OW28204   1.948   0.581   5.713  0.1797 -0.1254  0.0970
 5582SOL    HW128205   2.028   0.631   5.695  0.3515 -1.0506 -1.6922
 5582SOL    HW228206   1.916   0.607   5.799  0.3433 -0.7271  0.3369
 5583SOL     OW28207   1.372   4.159   4.145  0.4951 -0.6656 -0.2358
 5583SOL    HW128208   1.408   4.245   4.122 -0.8491 -0.5365 -1.8533
 5583SOL    HW228209   1.433   4.125   4.210  0.9292  1.4372  0.4627
 5584SOL     OW28210   4.594   1.197   6.121 -0.2559 -0.0574 -0.3306
 5584SOL    HW128211   4.584   1.104   6.099  0.3790 -0.1492 -0.2390
 5584SOL    HW228212   4.670   1.186   6.178  0.3316 -0.0124 -1.0956
 5585SOL     OW28213   0.462   0.536  16.267 -0.8378 -0.0544  0.0397
 5585SOL    HW128214   0.389   0.483  16.234  0.7656 -0.8927 -2.1627
 5585SOL    HW228215   0.485   0.584  16.187  0.3500 -0.5964  0.0596
 5586SOL     OW28216   3.053   4.441   4.128 -0.0800  0.0146  0.1518
 5586SOL    HW128217   3.019   4.357   4.099 -1.1379 -0.0787  1.6592
 5586SOL    HW228218   3.141   4.440   4.091 -0.4956 -0.6688 -0.8048
 5587SOL     OW28219   3.414   2.092   1.717  0.2981 -0.4610  0.3402
 5587SOL    HW128220   3.410   2.132   1.631 -3.0690 -0.7903  0.3505
 5587SOL    HW228221   3.418   1.998   1.698 -4.2392 -0.4041 -0.7805
 5588SOL     OW28222   2.080   1.608  17.318 -0.4767 -0.0709  0.1199
 5588SOL    HW128223   2.026   1.668  17.369  0.0255 -0.4663  1.1194
 5588SOL    HW228224   2.107   1.672  17.252  0.9972 -0.5746  0.2170
 5589SOL     OW28225   1.685   1.923   5.175 -0.0677 -0.1996  0.8351
 5589SOL    HW128226   1.728   2.008   5.170 -0.9593  0.1762 -0.4512
 5589SOL    HW228227   1.599   1.948   5.139  0.6628  1.8946  0.5304
 5590SOL     OW28228   4.641   0.718  11.502 -0.5687 -0.4682  0.0269
 5590SOL    HW128229   0.003   0.701  11.542 -0.3894  0.5504  0.1020
 5590SOL    HW228230   4.583   0.659  11.549 -3.2294  0.3963 -2.0905
 5591SOL     OW28231   3.445   4.552   7.741 -0.5206  0.1817  0.2670
 5591SOL    HW128232   3.403   4.608   7.806  0.4037  0.3614  0.7080
 5591SOL    HW228233   3.408   4.465   7.758 -0.0025  0.2885  1.9788
 5592SOL     OW28234   3.966   2.055   7.937  0.0720  0.3865 -0.1147
 5592SOL    HW128235   3.920   2.122   7.884  1.0123  1.1434  0.0272
 5592SOL    HW228236   4.046   2.104   7.957 -0.2484  0.2515  1.4767
 5593SOL     OW28237   3.983   1.035   0.930  0.3627  0.2308 -0.3012
 5593SOL    HW128238   3.984   0.948   0.892 -0.0727 -0.0523  0.3412
 5593SOL    HW228239   3.891   1.030   0.956  0.9163 -2.2958  1.0800
 5594SOL     OW28240   2.596   3.347   1.881 -0.1786 -0.9869 -0.5317
 5594SOL    HW128241   2.643   3.316   1.958  0.5380  1.8776  0.2110
 5594SOL    HW228242   2.639   3.298   1.810 -0.0257  0.0721 -1.1777
 5595SOL     OW28243   1.816   1.981   5.715  0.7933 -0.4482 -0.1269
 5595SOL    HW128244   1.814   1.911   5.650  1.9865  0.1331 -0.7932
 5595SOL    HW228245   1.727   1.980   5.750  0.7501 -0.1905 -0.2343
 5596SOL     OW28246   2.268   1.362  17.277 -0.6146  0.4054  0.1087
 5596SOL    HW128247   2.229   1.391  17.194 -1.3312 -2.0417 -0.4132
 5596SOL    HW228248   2.213   1.284  17.287 -0.3473  0.1566 -0.3607
 5597SOL     OW28249   0.925   1.869  12.799  0.1113  0.5158 -0.0323
 5597SOL    HW128250   0.843   1.885  12.752 -0.9316 -0.7043  1.3771
 5597SOL    HW228251   0.894   1.919  12.875 -1.9502  0.6959 -0.9928
 5598SOL     OW28252   3.942   3.939  11.173 -0.0261  0.4502  0.6162
 5598SOL    HW128253   4.026   3.960  11.213  1.0846  0.7092 -1.8365
 5598SOL    HW228254   3.883   3.953  11.247 -3.5514 -2.8757 -1.5791
 5599SOL     OW28255   1.809   0.198   0.168 -0.2458  0.2812 -0.7043
 5599SOL    HW128256   1.799   0.251   0.088  1.1698  0.2497 -0.9133
 5599SOL    HW228257   1.726   0.151   0.171 -0.6985  1.1827  0.7413
 5600SOL     OW28258   0.064   4.652   2.956  0.2144 -0.0316 -0.6723
 5600SOL    HW128259   4.698   4.646   2.989 -1.3065  1.8639 -4.3461
 5600SOL    HW228260   0.116   4.670   3.034 -0.5865 -1.4783  0.2035
 5601SOL     OW28261   3.894   4.696   5.917 -0.0948 -0.0925  0.4678
 5601SOL    HW128262   3.868   0.043   5.978  2.3285 -0.3706  1.8454
 5601SOL    HW228263   3.977   4.670   5.958 -0.8802 -1.0373  1.4572
 5602SOL     OW28264   2.230   0.519   5.379  0.6751 -0.5423 -0.7690
 5602SOL    HW128265   2.140   0.526   5.348 -0.7881 -1.9914  3.1011
 5602SOL    HW228266   2.271   0.600   5.348  0.6874 -0.6908 -1.1297
 5603SOL     OW28267   0.441   1.255   3.720 -0.8250  0.1667  0.2292
 5603SOL    HW128268   0.500   1.234   3.793 -0.9208 -1.4502 -0.1554
 5603SOL    HW228269   0.487   1.206   3.652  3.1047  1.8219  1.6929
 5604SOL     OW28270   3.061   2.631  14.362 -0.5238  0.4694 -0.4151
 5604SOL    HW128271   3.036   2.723  14.360 -1.0490  0.3837  2.4127
 5604SOL    HW228272   3.063   2.613  14.456  3.2110 -1.8143 -0.9263
 5605SOL     OW28273   4.352   0.253  11.947  0.3723  0.4177 -0.6436
 5605SOL    HW128274   4.441   0.222  11.963  0.1811  2.1273  3.7092
 5605SOL    HW228275   4.323   0.208  11.867  0.4719 -0.6077 -0.0997
 5606SOL     OW28276   4.687   2.649   1.447 -0.1107 -0.1486  0.0161
 5606SOL    HW128277   4.678   2.634   1.542  0.6872  2.2152  0.4603
 5606SOL    HW228278   0.058   2.636   1.435  0.0591 -0.1762  1.3233
 5607SOL     OW28279   1.445   0.406   9.243  0.1292 -0.0856  0.5568
 5607SOL    HW128280   1.405   0.433   9.160 -2.5820 -0.7609  1.6234
 5607SOL    HW228281   1.498   0.484   9.254  2.5759 -1.5401 -0.8532
 5608SOL     OW28282   3.563   1.840   1.978  0.1602  0.2576  0.2862
 5608SOL    HW128283   3.617   1.874   1.907 -2.1162  1.4549 -0.8634
 5608SOL    HW228284   3.485   1.807   1.932 -0.2093  0.2892  0.8915
 5609SOL     OW28285   4.563   3.926   7.229  0.6133 -0.1154 -1.0465
 5609SOL    HW128286   4.502   3.998   7.215 -1.1035 -1.1758  0.9178
 5609SOL    HW228287   4.614   3.954   7.305 -1.5670  1.2682 -0.1033
 5610SOL     OW28288   0.389   1.072  15.328  0.5459  0.4280 -0.2641
 5610SOL    HW128289   0.417   1.081  15.419 -0.2433  1.2629 -0.1095
 5610SOL    HW228290   0.333   1.147  15.313  0.2176 -0.2424 -2.3143
 5611SOL     OW28291   1.355   1.586   1.695  0.2545 -0.0746  0.0098
 5611SOL    HW128292   1.357   1.522   1.767  0.0187 -2.3824 -2.0128
 5611SOL    HW228293   1.293   1.648   1.732  1.6519  2.1929 -1.4949
 5612SOL     OW28294   0.262   1.209   7.507 -0.4142  0.4304 -0.3164
 5612SOL    HW128295   0.246   1.121   7.473  2.0619 -1.1552  2.6344
 5612SOL    HW228296   0.344   1.230   7.462  0.4057  0.4603  1.2189
 5613SOL     OW28297   1.676   2.085   2.251  0.5673  0.0654 -0.6677
 5613SOL    HW128298   1.635   2.166   2.279  0.6944  0.6893 -2.2496
 5613SOL    HW228299   1.685   2.116   2.161 -1.0773  2.2001 -0.0912
 5614SOL     OW28300   0.337   3.975   8.600  0.3400 -0.1400  0.2057
 5614SOL    HW128301   0.310   3.948   8.512 -1.8059  0.8144  0.5732
 5614SOL    HW228302   0.432   3.973   8.595  0.4381  0.1831  2.1973
 5615SOL     OW28303   3.949   4.570   7.646  0.0703 -0.5800  0.0199
 5615SOL    HW128304   3.999   4.601   7.721  1.3648  1.9542 -1.8982
 5615SOL    HW228305   3.864   4.610   7.665  0.9861  0.7816  1.2466
 5616SOL     OW28306   3.016   1.544  17.507 -0.1351 -0.4945 -0.1304
 5616SOL    HW128307   2.923   1.553  17.486 -0.0355 -0.7453 -0.6810
 5616SOL    HW228308   3.030   1.638  17.512 -1.3023 -0.3114 -0.2847
 5617SOL     OW28309   0.564   4.029  12.048  0.3907  0.0626 -0.5112
 5617SOL    HW128310   0.482   4.061  12.087 -0.1490 -0.9292 -0.8524
 5617SOL    HW228311   0.553   3.935  12.060 -0.9086 -0.2079 -3.9519
 5618SOL     OW28312   0.537   4.096   9.346 -0.3714  0.2782  0.6029
 5618SOL    HW128313   0.470   4.061   9.404  0.1768 -2.4898 -0.4313
 5618SOL    HW228314   0.541   4.188   9.372  1.1311 -0.0573  1.5271
 5619SOL     OW28315   0.644   3.304   1.500 -0.1193  0.2312  0.1235
 5619SOL    HW128316   0.626   3.387   1.454 -4.2971  0.1216  1.5469
 5619SOL    HW228317   0.707   3.270   1.436 -0.5823  0.9176 -0.6993
 5620SOL     OW28318   1.698   3.193   9.548  0.6038 -0.1620 -0.6655
 5620SOL    HW128319   1.682   3.150   9.464  1.4773 -1.1334 -0.3383
 5620SOL    HW228320   1.682   3.286   9.535 -2.1155 -0.6068 -0.5296
 5621SOL     OW28321   0.586   4.406   6.621  0.2835  0.0584  0.5789
 5621SOL    HW128322   0.594   4.481   6.680 -1.6728  0.3688  0.4567
 5621SOL    HW228323   0.671   4.365   6.638  0.4507 -0.1878 -0.8658
 5622SOL     OW28324   4.268   0.964  16.987  0.2710 -0.5715  1.2020
 5622SOL    HW128325   4.180   0.967  16.949  0.3218  0.4611  1.1500
 5622SOL    HW228326   4.321   0.941  16.910  1.5557  2.6690  1.0991
 5623SOL     OW28327   1.504   0.318  17.598 -0.0621 -0.8958 -0.1164
 5623SOL    HW128328   1.545   0.401  17.625  0.1337 -0.6214 -1.2843
 5623SOL    HW228329   1.440   0.346  17.533  1.7840  0.6727 -1.2726
 5624SOL     OW28330   2.957   3.150  11.865 -0.2417  0.7426 -0.2729
 5624SOL    HW128331   3.001   3.229  11.896  0.4055 -0.3428  1.5660
 5624SOL    HW228332   2.897   3.142  11.940 -0.4190 -1.5343 -0.6385
 5625SOL     OW28333   1.199   1.256   3.615 -0.3322 -0.2534 -0.1833
 5625SOL    HW128334   1.242   1.338   3.588 -0.1927  0.5228  2.4049
 5625SOL    HW228335   1.204   1.268   3.710  0.5685  0.2657 -0.2912
 5626SOL     OW28336   1.989   1.204   4.814 -0.0743 -0.0330  0.6890
 5626SOL    HW128337   1.913   1.254   4.784 -0.3254 -1.4539 -1.0699
 5626SOL    HW228338   1.973   1.199   4.908 -2.9279  1.8221  0.2977
 5627SOL     OW28339   3.305   2.526   1.192 -0.0161 -0.1813  0.4614
 5627SOL    HW128340   3.326   2.556   1.103 -0.5852 -1.3118 -0.0531
 5627SOL    HW228341   3.210   2.513   1.192  0.0825 -0.8955  1.0355
 5628SOL     OW28342   4.642   0.501   0.742 -0.5443  0.3421 -0.0709
 5628SOL    HW128343   4.550   0.480   0.759 -0.2762  0.3358  1.4028
 5628SOL    HW228344   4.642   0.491   0.647 -2.5236 -3.2335  0.2935
 5629SOL     OW28345   4.709   2.538   3.393 -0.0001 -0.0858  0.0156
 5629SOL    HW128346   4.707   2.612   3.333 -4.4127 -3.4039 -3.9334
 5629SOL    HW228347   0.034   2.466   3.350  0.5187  0.9829 -1.1822
 5630SOL     OW28348   1.955   3.160   3.946  0.1725 -0.3066  0.1981
 5630SOL    HW128349   2.010   3.230   3.911 -0.6783 -0.0489 -0.6174
 5630SOL    HW228350   2.016   3.087   3.931  2.2560  1.3242  0.7824
 5631SOL     OW28351   3.173   3.537   2.689  0.3912  0.4768  0.1796
 5631SOL    HW128352   3.247   3.596   2.698 -0.8165  1.7139  1.8592
 5631SOL    HW228353   3.210   3.464   2.638  1.4472  1.4963 -0.5027
 5632SOL     OW28354   0.830   0.762   2.192 -0.2461  0.3338 -0.0213
 5632SOL    HW128355   0.909   0.780   2.142 -0.5948 -0.8171 -0.9858
 5632SOL    HW228356   0.827   0.666   2.190  0.0674  0.3640 -1.7612
 5633SOL     OW28357   0.681   2.005   8.230 -0.4364  0.1864  0.7361
 5633SOL    HW128358   0.717   2.026   8.144 -0.5447  0.1096  0.6714
 5633SOL    HW228359   0.703   1.912   8.240 -0.3730  0.0473 -0.6651
 5634SOL     OW28360   4.486   1.303   5.061 -0.2499 -0.4358 -0.2032
 5634SOL    HW128361   4.488   1.208   5.074 -2.0322 -1.0457 -4.2395
 5634SOL    HW228362   4.465   1.340   5.146  0.8102  0.2721 -0.2421
 5635SOL     OW28363   3.342   4.636   1.501  0.3689  0.4526 -0.3025
 5635SOL    HW128364   3.268   4.576   1.510  0.5794 -0.0660 -2.0496
 5635SOL    HW228365   3.295   4.719   1.493  1.2035  0.7412 -2.0854
 5636SOL     OW28366   2.420   1.609   7.001  0.5085  0.5097  0.3895
 5636SOL    HW128367   2.345   1.552   6.981  2.0405 -2.2516  2.5268
 5636SOL    HW228368   2.422   1.616   7.096 -3.0646  3.6210  0.2586
 5637SOL     OW28369   0.872   3.724  16.360  0.5129 -0.0080  0.3432
 5637SOL    HW128370   0.841   3.703  16.272  1.5300  4.0983 -0.9885
 5637SOL    HW228371   0.861   3.819  16.366  2.4755  0.2371  0.2670
 5638SOL     OW28372   3.640   2.367   9.211  0.4401 -0.1824 -0.0070
 5638SOL    HW128373   3.620   2.278   9.239  1.0107 -0.3793 -0.2148
 5638SOL    HW228374   3.630   2.354   9.116  0.2421 -0.7073  0.0905
 5639SOL     OW28375   2.886   4.521   9.357  0.1795 -0.3390  0.0771
 5639SOL    HW128376   2.975   4.535   9.323 -0.1867 -0.1194 -0.7756
 5639SOL    HW228377   2.839   4.602   9.336  0.6702  0.1644  0.9475
 5640SOL     OW28378   0.096   1.262   5.226 -0.0736  0.2837 -0.1651
 5640SOL    HW128379   0.056   1.206   5.160  0.4311  1.5831 -1.5861
 5640SOL    HW228380   0.179   1.281   5.181  0.6918 -0.6908  0.8218
 5641SOL     OW28381   1.775   2.424   8.250  0.6383  0.6801 -0.3349
 5641SOL    HW128382   1.802   2.342   8.292  1.3429 -0.0136 -2.1148
 5641SOL    HW228383   1.728   2.475   8.315  2.6385  2.9560 -0.6758
 5642SOL     OW28384   4.413   2.794   5.493 -0.1992  0.0607  0.0136
 5642SOL    HW128385   4.501   2.775   5.462  0.8121  1.9606  1.8029
 5642SOL    HW228386   4.367   2.824   5.414 -0.1628 -0.6762 -0.2918
 5643SOL     OW28387   1.068   4.499   4.770 -0.1835 -0.7411 -0.4469
 5643SOL    HW128388   1.047   4.592   4.776  1.2059 -0.5580  1.2646
 5643SOL    HW228389   1.040   4.473   4.858 -1.8849 -0.8594 -1.0127
 5644SOL     OW28390   0.683   0.645   4.645 -0.5340  0.5103  0.0413
 5644SOL    HW128391   0.753   0.596   4.687 -0.5798  0.7969  0.4565
 5644SOL    HW228392   0.683   0.703   4.722  1.1179  0.8664 -0.2304
 5645SOL     OW28393   1.564   1.985  12.295 -0.1859  0.1442 -1.1804
 5645SOL    HW128394   1.590   2.062  12.345 -3.3843 -0.0645  0.8156
 5645SOL    HW228395   1.643   1.932  12.300 -0.3848 -0.1717 -1.3565
 5646SOL     OW28396   0.622   0.762   4.928 -0.5772 -0.4444  0.3405
 5646SOL    HW128397   0.606   0.773   5.022 -1.1885 -1.4906  0.3673
 5646SOL    HW228398   0.717   0.761   4.933 -0.4533 -0.4590 -1.8205
 5647SOL     OW28399   2.406   3.828   5.329  0.0422  0.4551 -0.1858
 5647SOL    HW128400   2.316   3.798   5.343 -0.1115  0.3322 -1.4790
 5647SOL    HW228401   2.447   3.770   5.393 -2.8903  0.6277  1.8638
 5648SOL     OW28402   3.504   0.904   6.442 -0.4204 -0.0305  0.0353
 5648SOL    HW128403   3.444   0.978   6.432 -0.6768 -0.5623 -2.2665
 5648SOL    HW228404   3.456   0.834   6.399  0.3313  0.7316 -2.0674
 5649SOL     OW28405   0.736   2.892  14.165  0.2422  0.1898 -0.0912
 5649SOL    HW128406   0.743   2.957  14.235 -0.1476 -1.6216  1.6252
 5649SOL    HW228407   0.829   2.893  14.143  0.5745  2.0317  1.3399
 5650SOL     OW28408   2.670   0.789  17.408 -0.7830 -0.1587  0.3758
 5650SOL    HW128409   2.580   0.816  17.422 -1.1496 -0.6436 -1.1390
 5650SOL    HW228410   2.710   0.872  17.435 -0.7138  1.0108 -3.4137
 5651SOL     OW28411   1.448   1.209  13.325  0.6161  0.0618 -0.3634
 5651SOL    HW128412   1.526   1.154  13.333  1.1734  1.1760  1.9151
 5651SOL    HW228413   1.378   1.162  13.371  2.5192  0.1175  2.6070
 5652SOL     OW28414   2.895   0.817  14.209  0.0183 -0.1274 -0.1404
 5652SOL    HW128415   2.911   0.912  14.208  2.4377 -0.5521 -1.1743
 5652SOL    HW228416   2.813   0.807  14.161 -0.6447 -0.8729  1.1423
 5653SOL     OW28417   4.499   0.741   6.421 -0.1746 -0.4353 -0.1109
 5653SOL    HW128418   4.454   0.663   6.388  1.4664 -0.9588 -1.1098
 5653SOL    HW228419   4.464   0.740   6.510  0.1759  0.8881  0.0415
 5654SOL     OW28420   0.199   1.702  15.085 -0.0956 -0.0923  0.4959
 5654SOL    HW128421   0.156   1.703  15.171  1.0565 -0.1836  1.0638
 5654SOL    HW228422   0.151   1.630  15.043 -0.0901  2.4028 -3.6835
 5655SOL     OW28423   2.303   3.311   4.996  0.3791 -0.2900  0.2871
 5655SOL    HW128424   2.332   3.379   5.056 -1.9031 -1.5331  2.7695
 5655SOL    HW228425   2.379   3.252   4.987 -0.7381 -1.4686 -1.4671
 5656SOL     OW28426   2.278   4.158   8.889  0.2556  0.5960  0.7235
 5656SOL    HW128427   2.315   4.187   8.806  2.2339  0.9034  1.7147
 5656SOL    HW228428   2.225   4.236   8.906  1.0603  1.1036  0.8764
 5657SOL     OW28429   1.163   1.013   0.092 -0.2923 -0.0757  0.2907
 5657SOL    HW128430   1.188   1.019  17.694 -1.7970  0.8395 -0.0606
 5657SOL    HW228431   1.146   0.920   0.108 -2.2509  0.4226  1.2131
 5658SOL     OW28432   4.338   1.072   3.843  0.0043  0.0752 -0.0912
 5658SOL    HW128433   4.384   1.116   3.914  1.0119  0.7667 -1.1684
 5658SOL    HW228434   4.318   1.145   3.784 -1.6017 -0.9308 -0.7882
 5659SOL     OW28435   3.210   0.407  16.997 -0.3076  0.5958 -0.0193
 5659SOL    HW128436   3.239   0.316  16.999 -1.5915  0.2004  0.1642
 5659SOL    HW228437   3.294   0.444  17.027  0.0309  0.8232 -1.2429
 5660SOL     OW28438   4.303   3.984  16.329 -0.2965 -0.2976 -0.3365
 5660SOL    HW128439   4.265   4.069  16.307  1.6767  0.9284  0.9817
 5660SOL    HW228440   4.256   3.977  16.412 -0.8897  1.7982 -0.4930
 5661SOL     OW28441   0.625   2.524   3.696 -0.0020  1.1532  0.6773
 5661SOL    HW128442   0.693   2.456   3.692 -0.7825  0.3175  1.6227
 5661SOL    HW228443   0.560   2.471   3.742 -0.0226  2.0900  1.7332
 5662SOL     OW28444   3.435   0.778   4.788  0.0031 -0.1272  0.1729
 5662SOL    HW128445   3.525   0.745   4.779 -0.0069 -1.1615  3.8869
 5662SOL    HW228446   3.405   0.778   4.697 -0.6675 -2.9094  0.3942
 5663SOL     OW28447   1.421   3.348   6.776 -0.3761  0.0372  0.2297
 5663SOL    HW128448   1.470   3.370   6.696 -0.8545  1.0720  0.2181
 5663SOL    HW228449   1.412   3.254   6.759 -2.2902 -0.2397  2.8094
 5664SOL     OW28450   0.103   0.719   8.060 -0.4977  0.0230 -0.3265
 5664SOL    HW128451   0.118   0.809   8.090  0.3615 -0.7075  1.4322
 5664SOL    HW228452   0.008   0.712   8.071 -0.6070  1.1542 -0.5225
 5665SOL     OW28453   0.110   0.577   0.423 -0.2893  0.1096 -0.1534
 5665SOL    HW128454   0.162   0.497   0.433 -1.6629 -0.8373 -0.5863
 5665SOL    HW228455   0.084   0.605   0.510  0.0241  0.0444 -0.0413
 5666SOL     OW28456   2.222   2.840   7.427 -0.1528  0.1617 -0.7178
 5666SOL    HW128457   2.137   2.871   7.460  0.5240  0.6002  0.6149
 5666SOL    HW228458   2.258   2.918   7.384 -2.2063  1.7219  0.3629
 5667SOL     OW28459   1.430   2.003   4.371  0.2040 -0.1730  0.2471
 5667SOL    HW128460   1.371   2.017   4.297 -0.3863  1.8907  1.0985
 5667SOL    HW228461   1.487   2.078   4.352 -0.0843 -0.1344 -0.4773
 5668SOL     OW28462   4.257   3.579   7.556 -0.0541  0.3385  0.0668
 5668SOL    HW128463   4.181   3.619   7.598  0.4057  1.1003  0.1795
 5668SOL    HW228464   4.209   3.547   7.480 -2.4214  0.6211  1.4380
 5669SOL     OW28465   4.474   1.000  16.192  0.6680 -0.0481 -0.1201
 5669SOL    HW128466   4.563   1.017  16.221  0.1131  0.0897  1.4747
 5669SOL    HW228467   4.465   0.909  16.163 -0.6397  1.0781 -3.3652
 5670SOL     OW28468   1.952   2.563   4.037 -0.2300  0.0966  0.1676
 5670SOL    HW128469   1.969   2.650   4.073  1.0679  0.2333 -0.7945
 5670SOL    HW228470   1.892   2.529   4.104  1.5978 -1.4142  1.0475
 5671SOL     OW28471   3.125   3.891   9.028 -0.0139 -0.4953 -0.2636
 5671SOL    HW128472   3.099   3.919   8.941 -0.4491  3.3785  1.1203
 5671SOL    HW228473   3.054   3.925   9.083  2.3199  0.0893  2.3807
 5672SOL     OW28474   4.065   3.823   2.436  0.2982 -0.6592 -0.1082
 5672SOL    HW128475   4.145   3.861   2.400  2.4797 -0.9605  4.5072
 5672SOL    HW228476   4.043   3.757   2.370  0.0716  0.0514 -0.7500
 5673SOL     OW28477   0.961   3.915   7.521 -1.1264 -0.2939  0.4258
 5673SOL    HW128478   0.918   3.834   7.495  0.2210 -1.0327  0.4757
 5673SOL    HW228479   1.050   3.888   7.543 -1.0794 -0.5625 -0.1041
 5674SOL     OW28480   0.746   4.008  13.205 -0.3151  0.0147 -0.3824
 5674SOL    HW128481   0.755   4.007  13.300 -1.3430 -0.0227 -0.2793
 5674SOL    HW228482   0.828   4.048  13.175  0.5530 -2.6183 -1.5151
 5675SOL     OW28483   1.359   4.512   1.623  0.2391  0.2466 -0.7069
 5675SOL    HW128484   1.341   4.427   1.663  0.3815  0.5036 -0.0915
 5675SOL    HW228485   1.348   4.498   1.529 -2.8472 -0.2334 -0.2587
 5676SOL     OW28486   3.950   3.555  11.117  0.0316  0.2869 -0.1018
 5676SOL    HW128487   4.039   3.534  11.088 -0.2885 -0.0991 -0.8115
 5676SOL    HW228488   3.908   3.546  11.031 -2.2109  0.1125  0.9897
 5677SOL     OW28489   0.957   1.074  13.513 -0.0042 -0.5366 -0.0709
 5677SOL    HW128490   0.992   1.123  13.587  2.0481 -0.6286 -0.9685
 5677SOL    HW228491   0.862   1.084  13.517  0.0145 -1.1858  1.8249
 5678SOL     OW28492   0.472   4.209  12.777  0.3778  0.3482  0.3127
 5678SOL    HW128493   0.527   4.187  12.702 -1.2855  0.1601 -0.8470
 5678SOL    HW228494   0.483   4.302  12.796  1.2539  0.8342 -2.6808
 5679SOL     OW28495   1.173   3.825   7.056 -0.3177  0.2059  0.4324
 5679SOL    HW128496   1.230   3.839   6.981  1.2739  0.9792  1.8096
 5679SOL    HW228497   1.117   3.902   7.047  1.1502  1.2915  0.6667
 5680SOL     OW28498   4.044   2.663   2.604 -0.0035 -0.1663  0.4253
 5680SOL    HW128499   4.029   2.656   2.698 -2.7625 -0.9130 -0.0656
 5680SOL    HW228500   3.966   2.711   2.577 -0.2569 -1.2610 -0.8196
 5681SOL     OW28501   1.367   0.365   0.313 -0.1732 -0.1381  0.2164
 5681SOL    HW128502   1.390   0.430   0.247 -0.1810  0.2083  0.5583
 5681SOL    HW228503   1.305   0.305   0.272  0.7682 -0.3948 -0.8419
 5682SOL     OW28504   2.988   0.289   3.254 -0.5213 -0.0261  0.0152
 5682SOL    HW128505   3.030   0.310   3.171  0.0709  1.6277  0.7206
 5682SOL    HW228506   3.024   0.364   3.301  1.1463 -0.3287 -0.7890
 5683SOL     OW28507   4.535   0.080   7.322  0.0875  0.1703 -0.0938
 5683SOL    HW128508   4.569   0.020   7.389  1.6803  2.0699  0.7849
 5683SOL    HW228509   4.617   0.111   7.286  0.5147 -1.4853 -0.5586
 5684SOL     OW28510   3.289   1.020  13.880  0.0361 -0.0337  0.4891
 5684SOL    HW128511   3.337   1.050  13.957  0.2300  1.3920 -0.2015
 5684SOL    HW228512   3.208   0.996  13.926  0.4772  2.0816  2.3537
 5685SOL     OW28513   0.408   4.431   8.878 -0.4395  0.2476 -0.3367
 5685SOL    HW128514   0.384   4.386   8.797 -0.8972  0.0229 -0.0708
 5685SOL    HW228515   0.417   4.522   8.847  0.2243  0.1863 -0.3326
 5686SOL     OW28516   0.002   3.340  17.543  0.0099  0.1527  0.2306
 5686SOL    HW128517   0.084   3.340  17.593  0.7160 -0.2861 -0.9290
 5686SOL    HW228518   0.044   3.343  17.457  2.3386 -1.1939  1.3346
 5687SOL     OW28519   4.488   2.763  14.333 -0.7965 -0.0385  0.2320
 5687SOL    HW128520   4.551   2.691  14.326  0.5648  1.0790  1.0247
 5687SOL    HW228521   4.446   2.750  14.248  0.5155 -1.0935 -0.2562
 5688SOL     OW28522   4.544   2.351  14.235  0.1552  0.5345  0.1426
 5688SOL    HW128523   4.479   2.317  14.297 -0.2450 -1.1077 -1.1556
 5688SOL    HW228524   4.497   2.385  14.159  2.0064 -1.0006 -1.7252
 5689SOL     OW28525   3.544   1.884   2.720 -0.0019  0.1634 -0.1708
 5689SOL    HW128526   3.539   1.891   2.815 -1.1988 -0.1236 -0.2123
 5689SOL    HW228527   3.526   1.792   2.700  2.0356 -0.4547  0.8408
 5690SOL     OW28528   0.802   2.893   9.594 -0.3602 -0.0985 -0.0907
 5690SOL    HW128529   0.853   2.824   9.638 -0.6700 -0.3584 -0.1398
 5690SOL    HW228530   0.785   2.957   9.664 -2.6812  0.7021 -1.4089
 5691SOL     OW28531   2.661   4.285  16.229 -0.2163 -0.0465 -0.3078
 5691SOL    HW128532   2.588   4.228  16.203  1.4121 -3.2141  2.0616
 5691SOL    HW228533   2.610   4.366  16.233 -2.2166 -1.3516  0.7338
 5692SOL     OW28534   1.139   2.357   7.994  0.2861  0.2586  0.1210
 5692SOL    HW128535   1.208   2.424   8.003  0.7496 -0.4646  1.9410
 5692SOL    HW228536   1.056   2.404   7.990 -0.1761 -0.6521 -0.8479
 5693SOL     OW28537   4.005   1.495   5.409  0.4848 -0.4574 -0.1660
 5693SOL    HW128538   4.062   1.492   5.485  1.5469 -0.7725 -0.9784
 5693SOL    HW228539   4.068   1.533   5.348  0.0962 -0.6574 -0.6919
 5694SOL     OW28540   1.733   1.558  10.491 -0.3548 -0.1932 -0.2217
 5694SOL    HW128541   1.781   1.551  10.573 -2.0122 -1.7543  0.6358
 5694SOL    HW228542   1.711   1.466  10.476  2.3345 -0.8284 -0.1999
 5695SOL     OW28543   2.081   4.687  13.771  0.0922 -0.5841 -0.3568
 5695SOL    HW128544   2.157   4.663  13.717  1.4974 -0.0271  1.3708
 5695SOL    HW228545   2.072   4.604  13.816 -0.2077 -0.3501  0.0163
 5696SOL     OW28546   0.801   4.482  11.867  0.5258  0.2247  1.0389
 5696SOL    HW128547   0.880   4.527  11.896 -0.0703  1.7315  0.2951
 5696SOL    HW228548   0.849   4.414  11.818 -0.0077  1.1438 -0.7633
 5697SOL     OW28549   1.043   0.707   3.211  0.1414  0.1563 -0.0711
 5697SOL    HW128550   0.975   0.698   3.278 -1.6593  1.6859 -1.6919
 5697SOL    HW228551   1.114   0.745   3.262 -0.1594 -0.6628  0.9683
 5698SOL     OW28552   2.672   2.393   3.363 -0.4620 -0.5528  0.2294
 5698SOL    HW128553   2.676   2.397   3.459  1.0061 -0.3670  0.1639
 5698SOL    HW228554   2.709   2.476   3.335 -1.1618 -0.1009  0.6500
 5699SOL     OW28555   2.735   1.470   5.571 -0.5262 -0.3266 -0.0490
 5699SOL    HW128556   2.780   1.412   5.633 -0.5943 -1.0812 -0.7076
 5699SOL    HW228557   2.810   1.520   5.539 -0.3007 -0.5167  0.1725
 5700SOL     OW28558   4.535   0.915  15.836  0.6654 -0.4629 -0.1222
 5700SOL    HW128559   4.491   0.885  15.916 -0.4306 -2.0688 -1.3399
 5700SOL    HW228560   4.466   0.879  15.779  0.2556 -2.3260  1.5227
 5701SOL     OW28561   1.498   1.083   4.963  0.4710  0.6344 -0.3908
 5701SOL    HW128562   1.526   1.128   5.043  0.9353  0.6056 -0.5387
 5701SOL    HW228563   1.582   1.039   4.949  0.0633 -0.3415  0.2148
 5702SOL     OW28564   0.344   1.899   3.158 -0.0568  0.5469 -0.7524
 5702SOL    HW128565   0.301   1.960   3.219  0.0868 -0.3222  0.2028
 5702SOL    HW228566   0.267   1.862   3.114 -0.4095  1.7316 -1.1665
 5703SOL     OW28567   1.868   0.506  11.301 -0.6548 -0.1997 -0.0694
 5703SOL    HW128568   1.879   0.416  11.330 -0.3440  0.1539  0.8961
 5703SOL    HW228569   1.956   0.542  11.309 -0.0957 -1.2531 -1.4402
 5704SOL     OW28570   0.154   0.591   3.782 -0.0027 -0.4289  0.7032
 5704SOL    HW128571   0.101   0.518   3.814 -1.8617  0.4018 -0.4465
 5704SOL    HW228572   0.099   0.628   3.713 -0.4631 -0.3531  1.1155
 5705SOL     OW28573   4.697   2.923  14.056 -0.4339  0.7536  0.0307
 5705SOL    HW128574   4.691   2.931  13.961 -0.6701 -0.1866 -0.0313
 5705SOL    HW228575   4.609   2.943  14.087 -0.4493  1.1388 -0.2658
 5706SOL     OW28576   3.282   2.349   7.945  0.4262 -0.3029  0.5224
 5706SOL    HW128577   3.330   2.274   7.909  0.7533  0.7062 -1.1605
 5706SOL    HW228578   3.321   2.419   7.892  0.1943  0.7211  1.7008
 5707SOL     OW28579   0.415   2.841   5.237  0.0095 -0.9174 -0.8027
 5707SOL    HW128580   0.325   2.813   5.221 -0.5316 -0.2321  1.0226
 5707SOL    HW228581   0.412   2.849   5.333  2.4185 -0.7987 -0.7371
 5708SOL     OW28582   1.629   2.082   7.557  0.3900 -0.2430  0.5274
 5708SOL    HW128583   1.614   2.138   7.632  0.6721  2.8554 -1.7506
 5708SOL    HW228584   1.606   1.994   7.589 -1.3159  0.5506  1.4647
 5709SOL     OW28585   0.884   4.420   9.340 -0.1451  0.2391  0.4814
 5709SOL    HW128586   0.916   4.360   9.408  2.4497  1.2914  0.2112
 5709SOL    HW228587   0.937   4.499   9.351  0.2669  0.1561 -0.8917
 5710SOL     OW28588   0.926   4.629   8.985  0.1944 -0.3127 -0.4612
 5710SOL    HW128589   0.998   4.687   8.962 -0.8181  0.5005 -1.5558
 5710SOL    HW228590   0.958   4.543   8.957  1.3553  0.7919 -2.5698
 5711SOL     OW28591   3.087   3.733  16.710  0.7636 -0.2664  0.6090
 5711SOL    HW128592   3.022   3.775  16.767 -0.0098  0.8720 -1.1179
 5711SOL    HW228593   3.070   3.780  16.628 -3.2220 -2.6208  0.1234
 5712SOL     OW28594   1.055   1.553   2.592 -0.3246 -0.1648  0.1073
 5712SOL    HW128595   0.982   1.613   2.610 -0.9491 -1.5988  2.2709
 5712SOL    HW228596   1.108   1.600   2.527  0.1871 -0.6176  0.2036
 5713SOL     OW28597   4.663   3.391   3.970  0.0535 -0.3396  0.4240
 5713SOL    HW128598   4.583   3.342   3.985 -1.1205  1.4696  0.1264
 5713SOL    HW228599   4.642   3.454   3.901 -1.2476  0.0326  1.1620
 5714SOL     OW28600   2.027   0.307   1.934  0.2659 -0.3289 -0.1795
 5714SOL    HW128601   2.004   0.309   2.027 -0.4366 -0.6824 -0.3467
 5714SOL    HW228602   2.109   0.257   1.930 -1.6909 -3.5026 -0.3829
 5715SOL     OW28603   1.287   1.803   1.862  0.2542  0.2309 -0.3789
 5715SOL    HW128604   1.363   1.858   1.846  1.1678 -0.4662  1.5994
 5715SOL    HW228605   1.241   1.858   1.925  0.7311  2.0841 -1.6490
 5716SOL     OW28606   3.711   4.133   5.410  0.0447  0.7032 -0.2304
 5716SOL    HW128607   3.749   4.082   5.339 -0.3192  0.5890 -0.3446
 5716SOL    HW228608   3.664   4.072   5.467 -0.7796 -0.5590 -2.2571
 5717SOL     OW28609   2.136   3.341   1.166  0.2603 -0.4868 -0.6148
 5717SOL    HW128610   2.178   3.261   1.136  2.1108 -0.0693  0.8622
 5717SOL    HW228611   2.102   3.313   1.251 -1.0383 -1.8970 -1.5867
 5718SOL     OW28612   2.994   3.972  14.896 -0.3846  0.2597  0.1542
 5718SOL    HW128613   3.078   4.018  14.902 -0.5232  0.8221 -2.0208
 5718SOL    HW228614   2.957   4.013  14.974  0.0714  0.5738  0.2062
 5719SOL     OW28615   1.475   0.725   3.598 -0.5948  0.4352  0.8981
 5719SOL    HW128616   1.492   0.705   3.690  1.6190  0.7809  0.5737
 5719SOL    HW228617   1.510   0.814   3.599  0.2431  0.0745  3.5643
 5720SOL     OW28618   3.030   3.724   2.274  0.0336  0.2766  0.5212
 5720SOL    HW128619   3.107   3.781   2.275  1.7236 -1.9942  0.0916
 5720SOL    HW228620   2.987   3.754   2.194  1.4370 -1.6183 -0.9577
 5721SOL     OW28621   3.602   0.053   4.242  0.5264 -0.3461  0.6398
 5721SOL    HW128622   3.638   0.094   4.163  0.1438 -0.5003  0.3889
 5721SOL    HW228623   3.534   0.001   4.201 -0.3200  0.8701  0.4897
 5722SOL     OW28624   2.391   3.932   8.105  0.5766  0.5479 -0.0328
 5722SOL    HW128625   2.458   3.867   8.127 -0.6361 -0.3790  0.9115
 5722SOL    HW228626   2.392   3.934   8.009  1.4421 -0.7649 -0.0475
 5723SOL     OW28627   4.507   0.254  16.990 -0.3954 -0.0963  0.2193
 5723SOL    HW128628   4.432   0.313  16.995 -1.0659 -0.8255 -1.1520
 5723SOL    HW228629   4.570   0.315  17.027  0.2509  0.2586 -1.4426
 5724SOL     OW28630   0.318   3.939   9.184 -0.1153 -0.2051  0.2224
 5724SOL    HW128631   0.232   3.909   9.154 -0.8310  0.3955  1.7186
 5724SOL    HW228632   0.295   4.022   9.224 -0.0903 -0.5619  0.9671
 5725SOL     OW28633   4.200   0.800  17.238 -0.2104  0.9631  0.2719
 5725SOL    HW128634   4.247   0.721  17.263 -1.2308  0.0444 -0.7361
 5725SOL    HW228635   4.224   0.817  17.147  1.2283  0.5487  0.5773
 5726SOL     OW28636   0.489   2.612  12.912 -0.4544  0.3566  0.5760
 5726SOL    HW128637   0.468   2.578  12.999  2.9990 -1.9786  0.4673
 5726SOL    HW228638   0.537   2.539  12.875 -0.9268  0.0585  0.5506
 5727SOL     OW28639   3.405   1.230   3.030 -0.5060  0.0659 -0.5024
 5727SOL    HW128640   3.368   1.175   3.099 -0.0355 -1.6067 -1.6086
 5727SOL    HW228641   3.476   1.178   2.995 -0.1806  0.2380 -0.0982
 5728SOL     OW28642   1.125   1.321   7.649 -0.1081 -0.0078  0.2636
 5728SOL    HW128643   1.055   1.327   7.715 -2.5827  0.6884 -2.4383
 5728SOL    HW228644   1.203   1.294   7.697 -0.2644  0.2984  0.6934
 5729SOL     OW28645   4.182   1.167   3.111 -0.8858  0.7050 -0.0737
 5729SOL    HW128646   4.271   1.189   3.084 -0.6416  1.1486  1.0917
 5729SOL    HW228647   4.145   1.201   3.029 -1.0025  1.3249  0.2348
 5730SOL     OW28648   0.665   3.587  12.460 -0.0099  0.3094  0.4350
 5730SOL    HW128649   0.734   3.534  12.499  0.7327 -0.8605 -2.4189
 5730SOL    HW228650   0.691   3.678  12.471 -0.0922  0.3200  0.5395
 5731SOL     OW28651   4.637   2.434   1.948  0.1338 -0.6169  0.0528
 5731SOL    HW128652   4.609   2.405   1.861  0.9158  0.9801 -0.7328
 5731SOL    HW228653   4.687   2.508   1.913  2.5025 -2.3089 -0.1918
 5732SOL     OW28654   3.178   0.193   6.073 -0.2911  0.4766 -0.6532
 5732SOL    HW128655   3.176   0.264   6.138  1.0046  0.3489 -0.4794
 5732SOL    HW228656   3.148   0.236   5.993 -1.0157 -1.1563 -1.2597
 5733SOL     OW28657   1.861   1.923   8.362 -0.1974 -0.1323 -0.4652
 5733SOL    HW128658   1.940   1.869   8.351 -2.1247 -2.8933 -0.7500
 5733SOL    HW228659   1.803   1.889   8.430 -0.5119 -0.8041 -1.0669
 5734SOL     OW28660   4.104   3.451   0.040  0.4701 -0.2948  0.1905
 5734SOL    HW128661   4.074   3.536   0.072  0.3631 -0.1726 -0.2376
 5734SOL    HW228662   4.142   3.405   0.115  1.1971 -0.3171 -0.1897
 5735SOL     OW28663   1.398   0.013  17.382  0.2341  0.2429 -0.0648
 5735SOL    HW128664   1.493   0.018  17.386  0.1612  1.1107  0.7230
 5735SOL    HW228665   1.388   4.709  17.291  0.9918 -1.1845  0.2817
 5736SOL     OW28666   2.339   1.545  10.386  0.1661  0.2771 -0.1904
 5736SOL    HW128667   2.265   1.518  10.440  0.6009  2.0594  1.2722
 5736SOL    HW228668   2.318   1.489  10.311 -0.4736 -0.9214  0.8772
 5737SOL     OW28669   3.785   3.098   7.371  0.1750 -0.1308 -0.2319
 5737SOL    HW128670   3.704   3.138   7.337  1.6293  1.8286 -1.4234
 5737SOL    HW228671   3.743   3.028   7.420  0.5249 -0.4239 -0.3547
 5738SOL     OW28672   0.509   3.896   3.019  0.1190 -0.2678  0.5484
 5738SOL    HW128673   0.507   3.988   2.994  0.6959 -0.4233 -0.0704
 5738SOL    HW228674   0.489   3.897   3.113 -2.6080 -0.6593  0.0016
 5739SOL     OW28675   4.191   1.466   8.985 -0.0389 -0.7992  0.8271
 5739SOL    HW128676   4.240   1.403   8.932  1.9031  0.4564  1.0993
 5739SOL    HW228677   4.106   1.467   8.942 -0.2712 -3.4530  1.2218
 5740SOL     OW28678   1.959   2.421   1.805  0.3488 -0.0347  0.4076
 5740SOL    HW128679   1.972   2.338   1.760 -1.5760 -0.5202  0.7151
 5740SOL    HW228680   1.977   2.471   1.726  1.1315 -0.1475  0.5193
 5741SOL     OW28681   1.686   3.432   3.716 -0.3122 -0.0886 -0.1565
 5741SOL    HW128682   1.664   3.521   3.745 -2.4440 -0.4087 -0.8003
 5741SOL    HW228683   1.632   3.424   3.638  0.5617  1.1411 -0.8957
 5742SOL     OW28684   2.433   0.683   5.258 -0.2652  0.2318  0.0842
 5742SOL    HW128685   2.418   0.749   5.325  1.1972  0.3818  0.2616
 5742SOL    HW228686   2.497   0.730   5.205  0.8559 -4.1918 -2.4980
 5743SOL     OW28687   4.064   3.692  11.334 -0.5298  0.2264  0.0194
 5743SOL    HW128688   4.141   3.717  11.284  0.6217 -2.8233  0.2931
 5743SOL    HW228689   4.015   3.647  11.266 -0.3294 -2.7833  1.8899
 5744SOL     OW28690   1.920   2.423  17.387 -0.4978  0.0047 -0.2654
 5744SOL    HW128691   1.859   2.490  17.416 -1.7431 -1.2150 -0.1021
 5744SOL    HW228692   2.002   2.464  17.415 -0.9685  0.0373  1.0313
 5745SOL     OW28693   2.293   1.800  14.255  0.4201 -0.2301 -0.1265
 5745SOL    HW128694   2.245   1.825  14.176  2.1234  1.7456 -0.5244
 5745SOL    HW228695   2.370   1.856  14.260  0.9629 -0.9046 -1.0136
 5746SOL     OW28696   1.663   0.369   4.577 -1.0830  0.2770  0.0910
 5746SOL    HW128697   1.630   0.441   4.524  0.2806 -1.7124 -3.5036
 5746SOL    HW228698   1.649   0.294   4.519 -0.7255 -0.2254  0.6511
 5747SOL     OW28699   0.951   4.372   7.284 -0.3349 -0.0382 -0.0959
 5747SOL    HW128700   0.954   4.352   7.377  2.8174  1.7996  0.2069
 5747SOL    HW228701   0.928   4.290   7.241  0.7500 -0.1663 -0.4281
 5748SOL     OW28702   3.561   3.274   7.309  0.8589 -0.3381 -0.1914
 5748SOL    HW128703   3.477   3.281   7.263  0.4704 -1.8816  0.2814
 5748SOL    HW228704   3.593   3.361   7.282  0.0131  0.3923  1.1878
 5749SOL     OW28705   1.841   0.487  17.128  0.2604  0.1574 -0.2290
 5749SOL    HW128706   1.847   0.391  17.132 -0.8510  0.0767 -0.5101
 5749SOL    HW228707   1.881   0.503  17.042  0.9692 -1.9834 -0.2944
 5750SOL     OW28708   1.383   3.311   9.638 -0.3530  0.3088 -0.2486
 5750SOL    HW128709   1.463   3.358   9.660 -0.4113 -0.1753  0.9891
 5750SOL    HW228710   1.320   3.339   9.704  0.7465  1.2514  0.4023
 5751SOL     OW28711   1.385   4.229  10.446 -0.1101 -0.2531 -0.3451
 5751SOL    HW128712   1.374   4.224  10.540 -1.3625  0.0450 -0.4804
 5751SOL    HW228713   1.353   4.143  10.420  2.8275 -1.2734 -0.6041
 5752SOL     OW28714   4.143   3.854  14.978  0.2885  0.2916  0.2697
 5752SOL    HW128715   4.141   3.943  14.944 -0.1241  0.7476  1.5060
 5752SOL    HW228716   4.158   3.805  14.897 -2.2943 -1.3923  0.7798
 5753SOL     OW28717   2.858   3.016   5.086 -0.4538  0.3713  0.1676
 5753SOL    HW128718   2.916   2.949   5.050  1.1955  1.2998  1.0913
 5753SOL    HW228719   2.820   3.067   5.014  0.0127 -1.1215 -1.1239
 5754SOL     OW28720   1.190   0.925   4.807 -0.3253  0.5904  0.1805
 5754SOL    HW128721   1.176   0.954   4.717  2.1727 -0.0756 -0.4292
 5754SOL    HW228722   1.140   0.996   4.845 -1.0354  0.6042 -0.7763
 5755SOL     OW28723   4.384   3.991   1.834  0.0139 -0.0896 -0.3606
 5755SOL    HW128724   4.468   4.012   1.793  0.6759 -2.2891 -0.1243
 5755SOL    HW228725   4.357   3.918   1.779 -2.5548  0.5802  0.0502
 5756SOL     OW28726   1.752   2.358  13.190  0.2978  0.7455 -0.4672
 5756SOL    HW128727   1.761   2.413  13.268  1.5018 -0.0576 -0.0521
 5756SOL    HW228728   1.783   2.273  13.219  0.4782  1.6338  1.9238
 5757SOL     OW28729   2.382   0.781  15.398  0.3912 -0.7354  0.0965
 5757SOL    HW128730   2.411   0.691  15.412  2.2675 -0.1847 -0.2073
 5757SOL    HW228731   2.294   0.780  15.436  1.0696  2.6700  1.8353
 5758SOL     OW28732   1.889   3.442  17.608 -0.0228 -0.1482  0.0028
 5758SOL    HW128733   1.961   3.502  17.622 -1.0379  1.0563  0.0795
 5758SOL    HW228734   1.821   3.491  17.654 -0.1520  1.6616 -2.0887
 5759SOL     OW28735   4.433   0.710  16.065 -0.4955 -0.0633  0.0684
 5759SOL    HW128736   4.401   0.630  16.108 -0.8645 -1.6225 -3.1375
 5759SOL    HW228737   4.364   0.723  16.000 -0.9260  0.7793  0.6874
 5760SOL     OW28738   3.204   3.180   9.290 -0.4351  0.3273 -0.1216
 5760SOL    HW128739   3.171   3.263   9.326 -0.3127 -0.4577  1.7704
 5760SOL    HW228740   3.230   3.142   9.374  2.9466 -1.9474 -2.2087
 5761SOL     OW28741   1.332   4.433   1.339  0.1663 -0.1855 -0.5897
 5761SOL    HW128742   1.336   4.383   1.257 -1.6746 -0.3439 -0.5716
 5761SOL    HW228743   1.304   4.516   1.300  0.9099 -0.6842 -2.1944
 5762SOL     OW28744   2.581   0.138   6.918 -0.1201 -0.1545 -0.6196
 5762SOL    HW128745   2.515   0.133   6.849  1.0014 -0.5888 -1.6611
 5762SOL    HW228746   2.657   0.116   6.863  0.8570 -2.6130  1.6781
 5763SOL     OW28747   1.326   3.737   2.571  0.2984 -0.1985 -0.0249
 5763SOL    HW128748   1.252   3.772   2.522  1.3961  1.1841 -0.6684
 5763SOL    HW228749   1.336   3.656   2.521  1.2947 -0.9688  1.3878
 5764SOL     OW28750   2.588   2.379   2.474  0.0291  0.0783 -0.0018
 5764SOL    HW128751   2.552   2.463   2.445 -0.9983  0.3083  1.8964
 5764SOL    HW228752   2.669   2.369   2.424 -0.2156  2.7170 -0.9401
 5765SOL     OW28753   1.901   1.582   3.897 -0.3849  0.2395 -0.0132
 5765SOL    HW128754   1.887   1.508   3.955  0.8230  2.2119  2.7793
 5765SOL    HW228755   1.906   1.535   3.814 -0.5740 -1.2798  0.8368
 5766SOL     OW28756   0.827   3.842   1.543  0.2202 -0.0153  0.3374
 5766SOL    HW128757   0.741   3.811   1.570  0.3219 -0.7793 -0.2093
 5766SOL    HW228758   0.838   3.796   1.460 -0.3498 -0.4911  0.5288
 5767SOL     OW28759   1.725   1.787   2.734 -0.4127  0.0559 -0.2954
 5767SOL    HW128760   1.661   1.719   2.757 -0.9719  0.5786 -0.2780
 5767SOL    HW228761   1.807   1.739   2.737 -0.5258 -0.1942 -1.4411
 5768SOL     OW28762   4.616   1.674   3.305 -0.3282 -0.2009 -0.4541
 5768SOL    HW128763   4.692   1.650   3.357 -0.5677  1.0102  0.4615
 5768SOL    HW228764   4.543   1.621   3.338 -0.0037 -1.1099 -1.1970
 5769SOL     OW28765   4.139   1.429   9.681 -0.4313  0.0180 -0.4450
 5769SOL    HW128766   4.096   1.514   9.687  1.5096  1.0743 -1.6665
 5769SOL    HW228767   4.128   1.408   9.774 -0.7178 -0.6928 -0.6412
 5770SOL     OW28768   0.780   3.788  12.699  0.5139  0.4654 -0.4671
 5770SOL    HW128769   0.874   3.771  12.691  0.7258  0.7764  1.4396
 5770SOL    HW228770   0.749   3.845  12.628  0.7912  0.5003 -0.5623
 5771SOL     OW28771   0.011   4.001  15.533  0.1954  0.4241 -0.1111
 5771SOL    HW128772   4.665   3.969  15.591  2.5004 -1.6068  1.5131
 5771SOL    HW228773   4.716   3.951  15.453 -0.1461 -1.4030  1.1044
 5772SOL     OW28774   3.402   1.767   5.117  0.0757  0.2768  0.2123
 5772SOL    HW128775   3.325   1.733   5.071  0.0279  0.3768  0.2191
 5772SOL    HW228776   3.383   1.738   5.206 -1.0933  1.9070  0.4917
 5773SOL     OW28777   3.858   0.070  11.694  0.5468  0.1867  0.3807
 5773SOL    HW128778   3.918   0.009  11.651  0.1842 -0.1599  0.3690
 5773SOL    HW228779   3.900   0.069  11.780  0.6796  2.2610  0.3515
 5774SOL     OW28780   3.263   0.997   5.291  0.4198 -0.6613 -0.0470
 5774SOL    HW128781   3.187   0.948   5.321 -1.6270  1.9347 -0.9047
 5774SOL    HW228782   3.314   0.926   5.252 -0.7064 -1.8216  0.5979
 5775SOL     OW28783   2.393   1.920  14.555 -0.5329 -0.3957  0.3319
 5775SOL    HW128784   2.438   1.922  14.471 -0.9362  1.9772  0.1842
 5775SOL    HW228785   2.425   1.830  14.570  0.6793 -0.0503 -0.1813
 5776SOL     OW28786   2.041   4.357   1.062  0.3804  0.2135 -0.4106
 5776SOL    HW128787   2.062   4.429   1.122 -0.1813 -1.1911  1.4582
 5776SOL    HW228788   1.946   4.355   1.069  0.5272 -0.0004  1.4566
 5777SOL     OW28789   3.400   2.144   7.794  0.2455  0.1015  0.0252
 5777SOL    HW128790   3.326   2.092   7.826 -0.0727  1.6689  1.8029
 5777SOL    HW228791   3.475   2.090   7.818  0.2821  0.9476  1.7809
 5778SOL     OW28792   3.994   3.252   4.328  0.1286  0.2518  0.4605
 5778SOL    HW128793   3.959   3.326   4.278 -2.7960  0.1153  2.2968
 5778SOL    HW228794   3.934   3.252   4.402 -2.3990  1.4330 -1.5671
 5779SOL     OW28795   0.726   0.364   7.046 -0.8632  0.3236 -0.2432
 5779SOL    HW128796   0.756   0.306   6.976  2.0544 -0.2668  1.4853
 5779SOL    HW228797   0.642   0.328   7.074 -0.5376  0.1096  0.4403
 5780SOL     OW28798   3.648   2.536   2.643  0.3397  0.0479 -0.0222
 5780SOL    HW128799   3.597   2.456   2.635 -1.8530  1.4216  0.1102
 5780SOL    HW228800   3.732   2.505   2.679  0.1974  0.6820  0.8703
 5781SOL     OW28801   2.215   2.006   6.942  0.2300  0.0518 -0.1625
 5781SOL    HW128802   2.195   2.068   7.013  0.1377 -1.1540  0.8663
 5781SOL    HW228803   2.307   1.985   6.958  0.1754 -0.9901 -1.2453
 5782SOL     OW28804   1.366   2.681  11.200  0.1158  0.3324  0.1020
 5782SOL    HW128805   1.433   2.739  11.236 -0.8172  0.5367  1.4851
 5782SOL    HW228806   1.289   2.735  11.214 -1.1054 -1.2471 -0.5039
 5783SOL     OW28807   1.964   2.300  12.311 -0.1415 -0.3955 -0.1832
 5783SOL    HW128808   1.972   2.233  12.243  2.9503  0.3899 -0.5680
 5783SOL    HW228809   1.944   2.256  12.394  0.4022 -0.7181 -0.2267
 5784SOL     OW28810   2.368   1.102   5.334 -0.1451  0.3480 -0.2362
 5784SOL    HW128811   2.461   1.121   5.349 -0.5031  2.9569 -1.4689
 5784SOL    HW228812   2.336   1.143   5.415  0.3221 -2.0122  1.1480
 5785SOL     OW28813   4.562   0.273   3.989 -0.7901 -0.0147  0.3693
 5785SOL    HW128814   4.543   0.238   4.076 -0.1677 -0.1719  0.4391
 5785SOL    HW228815   4.641   0.324   4.002 -0.9122 -0.1533  1.6184
 5786SOL     OW28816   2.350   4.010   2.023 -0.3725 -0.1780 -0.3933
 5786SOL    HW128817   2.269   4.060   2.034 -0.8510 -1.2371  0.9418
 5786SOL    HW228818   2.320   3.966   1.943 -0.8450  0.2223 -0.4420
 5787SOL     OW28819   1.263   4.274   1.685  0.0230  0.2645  0.8181
 5787SOL    HW128820   1.240   4.273   1.778 -2.1239 -0.3499  0.2712
 5787SOL    HW228821   1.253   4.183   1.658 -2.1263  0.5960  0.5689
 5788SOL     OW28822   0.363   3.706  13.009 -0.5399 -0.1130 -0.2016
 5788SOL    HW128823   0.453   3.675  13.010 -0.4959  0.0170 -0.1869
 5788SOL    HW228824   0.322   3.634  12.960 -1.0957  0.1945 -0.1922
 5789SOL     OW28825   2.846   1.648   9.248 -0.0223  0.6093  0.0636
 5789SOL    HW128826   2.888   1.632   9.164  0.4874  1.4651  0.1585
 5789SOL    HW228827   2.808   1.560   9.254  2.5182 -0.5440 -0.8353
 5790SOL     OW28828   0.721   0.169  13.277 -0.3807  0.0970 -0.6963
 5790SOL    HW128829   0.688   0.197  13.191 -2.5347 -1.5284 -0.3902
 5790SOL    HW228830   0.792   0.109  13.254  0.7541  0.8028  0.9722
 5791SOL     OW28831   2.965   4.373   3.503 -0.2041  0.1908 -0.0120
 5791SOL    HW128832   3.034   4.313   3.474 -0.7513 -0.5623  0.2449
 5791SOL    HW228833   2.882   4.326   3.509  0.3400 -0.7733 -0.0329
 5792SOL     OW28834   3.716   1.576  12.654 -0.0363 -0.2810 -0.2002
 5792SOL    HW128835   3.673   1.497  12.620  1.2493 -1.2383  0.4276
 5792SOL    HW228836   3.794   1.575  12.599  1.3652 -0.7288  1.8310
 5793SOL     OW28837   3.059   2.161   0.004 -0.2198 -0.7131 -0.1390
 5793SOL    HW128838   3.115   2.101   0.052  0.5434  1.1136  1.2479
 5793SOL    HW228839   3.010   2.203   0.075  0.2123 -1.4331  0.5849
 5794SOL     OW28840   0.473   0.706   8.176 -0.1269  0.3420  0.6584
 5794SOL    HW128841   0.559   0.729   8.139 -0.9972  2.6456  0.0649
 5794SOL    HW228842   0.490   0.620   8.212  2.5063  0.2803 -0.7368
 5795SOL     OW28843   1.043   2.756  10.290  0.0749 -0.0820  0.1369
 5795SOL    HW128844   0.952   2.767  10.317 -0.5135  1.7703 -2.5871
 5795SOL    HW228845   1.076   2.717  10.371  0.2849 -1.3686 -0.5679
 5796SOL     OW28846   3.615   1.921  13.459 -0.8543  0.4516 -0.2540
 5796SOL    HW128847   3.547   1.889  13.400  0.6074  0.8895 -2.1743
 5796SOL    HW228848   3.558   1.945  13.532 -1.6409 -1.4271 -0.2430
 5797SOL     OW28849   0.624   2.768  15.536  0.9990  0.1446  0.1845
 5797SOL    HW128850   0.660   2.808  15.615 -0.3205  3.3930 -0.8591
 5797SOL    HW228851   0.591   2.845  15.489  1.3046 -1.0856 -2.0643
 5798SOL     OW28852   3.232   3.812  13.516  0.1141  0.0512  0.0967
 5798SOL    HW128853   3.294   3.741  13.531 -0.4574 -0.3224  0.6950
 5798SOL    HW228854   3.217   3.797  13.423  0.8482 -1.5551  0.2490
 5799SOL     OW28855   2.107   1.684   0.003 -0.0272  0.1309  0.3653
 5799SOL    HW128856   2.172   1.626  17.657 -0.6197 -1.2752  1.4838
 5799SOL    HW228857   2.053   1.710  17.623  0.9884 -2.4318 -1.2815
 5800SOL     OW28858   3.282   3.085   9.514  0.2046  0.1597 -0.0007
 5800SOL    HW128859   3.338   3.129   9.578  1.1849 -0.8204 -0.1884
 5800SOL    HW228860   3.290   2.993   9.538  1.1110  0.5182  1.1172
 5801SOL     OW28861   0.145   0.636   6.254  0.9803 -0.5283  0.2943
 5801SOL    HW128862   0.073   0.593   6.207 -0.9244  0.7340  2.0631
 5801SOL    HW228863   0.201   0.649   6.177 -0.3359  1.1402 -0.3578
 5802SOL     OW28864   2.577   0.025   4.968  0.7073 -0.2105  0.9737
 5802SOL    HW128865   2.569   0.099   4.907 -0.7449 -0.0898  1.3010
 5802SOL    HW228866   2.524   0.062   5.039 -0.1433 -0.1769  0.3316
 5803SOL     OW28867   0.440   4.251   2.353 -0.0513 -0.1587  0.4423
 5803SOL    HW128868   0.460   4.222   2.441 -1.3534  1.1517  1.1734
 5803SOL    HW228869   0.352   4.214   2.345 -0.2246  0.2228  0.5741
 5804SOL     OW28870   3.837   2.912   7.016  0.6195 -0.2651 -0.2103
 5804SOL    HW128871   3.742   2.909   7.024  0.7121  2.0924  1.7555
 5804SOL    HW228872   3.839   2.833   6.962 -0.1835 -2.2684  2.7211
 5805SOL     OW28873   1.404   3.609  13.599 -0.1553  0.4161  0.4111
 5805SOL    HW128874   1.451   3.662  13.535  0.8109 -1.6404 -0.5816
 5805SOL    HW228875   1.400   3.522  13.560 -0.4265  0.1408  1.0615
 5806SOL     OW28876   4.018   3.646   7.658  0.0059 -0.9219  0.0928
 5806SOL    HW128877   3.938   3.598   7.639  0.2792 -1.0367 -0.7827
 5806SOL    HW228878   3.992   3.670   7.747  0.0405 -0.8246  0.0776
 5807SOL     OW28879   1.747   3.461   3.103 -0.0668 -0.1010 -0.0266
 5807SOL    HW128880   1.742   3.555   3.084  0.9272  0.0000  0.2023
 5807SOL    HW228881   1.759   3.462   3.198  0.8712  0.8601 -0.1531
 5808SOL     OW28882   0.864   2.390   8.458  0.4831 -0.4582  0.3338
 5808SOL    HW128883   0.792   2.436   8.415  1.2492 -0.1860 -0.6385
 5808SOL    HW228884   0.819   2.306   8.468  2.2890 -1.5517 -0.8741
 5809SOL     OW28885   1.802   2.966   8.361  0.1939 -0.6830  0.5155
 5809SOL    HW128886   1.808   3.048   8.312  2.4733 -1.3408 -0.2675
 5809SOL    HW228887   1.792   2.996   8.451  0.0504 -0.7455  0.5205
 5810SOL     OW28888   1.192   2.303   7.332  0.5316  0.8205  0.0006
 5810SOL    HW128889   1.249   2.261   7.395  1.1766 -0.8302 -1.7034
 5810SOL    HW228890   1.125   2.236   7.339  0.2348  0.9799 -1.2091
 5811SOL     OW28891   0.231   2.756   9.088 -0.7017  0.2109 -0.3639
 5811SOL    HW128892   0.242   2.805   9.006  0.3318 -1.6682 -1.3473
 5811SOL    HW228893   0.177   2.687   9.050 -1.5921  0.4241  0.5269
 5812SOL     OW28894   0.393   0.979   8.201 -0.3104 -0.6966  0.3709
 5812SOL    HW128895   0.427   0.892   8.221  0.4959 -1.0189 -2.3192
 5812SOL    HW228896   0.310   0.977   8.248 -1.5084  0.5118 -1.6757
 5813SOL     OW28897   2.761   4.360   7.936 -0.1681  0.1154 -0.1394
 5813SOL    HW128898   2.683   4.378   7.883 -1.2262  2.7401  2.2992
 5813SOL    HW228899   2.744   4.412   8.015  1.5994  1.0867 -0.3763
 5814SOL     OW28900   4.106   2.439   2.152 -1.0652  0.3184  0.3267
 5814SOL    HW128901   4.061   2.354   2.155  1.5283 -1.0831 -1.1503
 5814SOL    HW228902   4.082   2.461   2.242 -2.2353 -1.2034  0.3901
 5815SOL     OW28903   0.069   2.500   8.783 -0.1070  0.1908 -0.0414
 5815SOL    HW128904   0.028   2.557   8.849  0.8507  3.9776 -2.7259
 5815SOL    HW228905   0.032   2.543   8.706  0.9287 -1.1140 -1.2579
 5816SOL     OW28906   3.430   1.681  12.565 -0.1291  0.4779  0.1471
 5816SOL    HW128907   3.472   1.599  12.539  0.5439  1.2359 -1.1693
 5816SOL    HW228908   3.395   1.718  12.484 -1.9761 -0.4701  0.5228
 5817SOL     OW28909   1.516   3.957   0.588  0.5592 -0.3956 -0.4403
 5817SOL    HW128910   1.432   4.002   0.579 -0.4217 -1.5589  2.8201
 5817SOL    HW228911   1.572   4.023   0.548  1.0163 -1.5880 -1.7651
 5818SOL     OW28912   2.250   4.114   9.318 -0.0692 -0.1343  0.0848
 5818SOL    HW128913   2.298   4.038   9.287 -1.1885 -0.6156 -0.4481
 5818SOL    HW228914   2.161   4.082   9.310 -0.5485  1.4751 -1.0200
 5819SOL     OW28915   4.280   2.489   4.722  0.2834 -0.1394 -0.7924
 5819SOL    HW128916   4.373   2.489   4.697  0.3508  0.6613 -0.5193
 5819SOL    HW228917   4.249   2.568   4.679 -0.0852 -0.7744 -1.6926
 5820SOL     OW28918   3.713   4.578   4.727 -0.1904  0.2523 -0.5109
 5820SOL    HW128919   3.803   4.599   4.701 -0.7015  1.5456 -1.2326
 5820SOL    HW228920   3.720   4.552   4.819  3.0449  1.0920 -0.5252
 5821SOL     OW28921   3.100   0.716   1.819  0.6112  0.2662  0.1252
 5821SOL    HW128922   3.145   0.633   1.835  0.0714  0.4491  2.6645
 5821SOL    HW228923   3.019   0.716   1.870 -0.6992  0.0390 -1.9959
 5822SOL     OW28924   0.965   3.379   2.069  0.4271  0.0591 -0.2740
 5822SOL    HW128925   1.057   3.373   2.043  1.0227  0.8798  1.6142
 5822SOL    HW228926   0.911   3.360   1.993  0.5708 -4.1838  0.7006
 5823SOL     OW28927   2.887   4.507  12.209  0.0049 -0.2205 -0.0961
 5823SOL    HW128928   2.882   4.424  12.256  0.7877 -0.8177 -1.0654
 5823SOL    HW228929   2.973   4.497  12.168  0.6789  0.2868  1.2173
 5824SOL     OW28930   0.978   4.685   9.604 -0.2828  0.5352  0.1527
 5824SOL    HW128931   1.072   4.674   9.621 -0.4215 -0.2246  0.4361
 5824SOL    HW228932   0.945   4.607   9.649  1.0231 -1.7978 -3.0003
 5825SOL     OW28933   3.747   3.886   5.256  0.1865 -0.0002  0.4496
 5825SOL    HW128934   3.802   3.854   5.328  0.0626  0.1700  0.6221
 5825SOL    HW228935   3.747   3.812   5.195 -1.9574  0.3905 -0.0435
 5826SOL     OW28936   2.377   3.604   9.414 -0.0154  0.3162 -0.4001
 5826SOL    HW128937   2.458   3.553   9.420 -0.7518 -1.0648 -2.0327
 5826SOL    HW228938   2.400   3.677   9.471 -1.3637  1.3647 -1.1899
 5827SOL     OW28939   0.170   1.950   6.196 -0.4795 -0.1654  0.3955
 5827SOL    HW128940   0.123   2.031   6.175 -0.0592 -0.5083 -1.8393
 5827SOL    HW228941   0.148   1.944   6.289 -0.4918  0.7552  0.4579
 5828SOL     OW28942   4.280   2.265   9.040  0.0150 -0.3573 -0.3022
 5828SOL    HW128943   4.344   2.211   9.086 -0.4340 -3.1958 -3.0848
 5828SOL    HW228944   4.269   2.215   8.960  1.6554  0.0444 -0.7630
 5829SOL     OW28945   4.113   1.510   3.154  0.5200  0.2991  0.4266
 5829SOL    HW128946   4.151   1.475   3.235  0.9367 -1.7713 -0.6727
 5829SOL    HW228947   4.190   1.527   3.101  0.1492  1.5138  0.2874
 5830SOL     OW28948   0.693   0.352  10.827  0.2145 -0.3307  0.3796
 5830SOL    HW128949   0.658   0.263  10.837 -0.2813  0.0776  2.3754
 5830SOL    HW228950   0.719   0.370  10.918 -1.4734 -0.1464  0.8125
 5831SOL     OW28951   1.932   3.765  17.497  0.4418 -0.6194 -0.5302
 5831SOL    HW128952   1.862   3.737  17.438  0.0060  1.1003 -0.8465
 5831SOL    HW228953   1.918   3.860  17.496  0.5406 -0.5872  1.1470
 5832SOL     OW28954   4.285   4.117   4.635 -0.0354  0.3027 -0.0497
 5832SOL    HW128955   4.366   4.077   4.666 -0.4042  1.3047  2.2550
 5832SOL    HW228956   4.309   4.202   4.597  0.2558  0.1175 -0.2737
 5833SOL     OW28957   3.378   3.198   5.763 -0.3077  0.0205 -1.0570
 5833SOL    HW128958   3.410   3.164   5.847  0.5673  0.2191 -1.3122
 5833SOL    HW228959   3.437   3.272   5.752 -2.1848  1.5389 -0.8819
 5834SOL     OW28960   0.425   3.493   5.942  0.3278  0.3278 -0.1434
 5834SOL    HW128961   0.349   3.447   5.906 -1.4274  0.2211  3.6984
 5834SOL    HW228962   0.440   3.549   5.866  0.1879  1.1398  0.4351
 5835SOL     OW28963   2.172   0.589  12.751  0.5581  0.2692  0.1987
 5835SOL    HW128964   2.141   0.514  12.802 -0.0270  1.4241  1.5473
 5835SOL    HW228965   2.188   0.553  12.664  0.0106 -4.1649  1.9760
 5836SOL     OW28966   0.564   4.644   2.754 -0.0123  0.1970 -0.5027
 5836SOL    HW128967   0.586   0.014   2.765 -0.1985  0.0881  0.7657
 5836SOL    HW228968   0.477   4.644   2.794 -0.3023 -0.5620 -1.1278
 5837SOL     OW28969   1.041   4.440   3.784 -0.3141  0.2975 -0.3794
 5837SOL    HW128970   1.050   4.394   3.701 -1.1732  0.8187 -0.7654
 5837SOL    HW228971   0.947   4.430   3.796 -0.4492  1.4011 -0.4989
 5838SOL     OW28972   0.333   4.284   8.208 -0.1091  0.3641  0.3433
 5838SOL    HW128973   0.319   4.375   8.234  0.8836  1.0615 -1.6103
 5838SOL    HW228974   0.306   4.295   8.117 -0.8264 -1.5031  0.3273
 5839SOL     OW28975   4.154   0.735   2.303  0.9464 -0.4880 -0.1252
 5839SOL    HW128976   4.245   0.766   2.300  1.4241 -1.9563 -0.7508
 5839SOL    HW228977   4.159   0.645   2.271  2.3161 -1.0148  1.5656
 5840SOL     OW28978   0.530   3.093  11.306  0.6531 -0.7312  0.6885
 5840SOL    HW128979   0.499   3.127  11.389 -0.3231  0.3574 -0.1167
 5840SOL    HW228980   0.612   3.139  11.287 -1.0691  1.6078 -1.1256
 5841SOL     OW28981   2.713   1.991   8.051  0.1660 -0.2909 -0.8306
 5841SOL    HW128982   2.679   1.969   8.138  0.9370  0.8704 -0.2262
 5841SOL    HW228983   2.669   2.074   8.034 -1.5532 -0.4094  3.0566
 5842SOL     OW28984   3.447   3.500  10.086  0.2499  0.2133 -0.3869
 5842SOL    HW128985   3.409   3.503  10.174  0.8581  0.3007 -0.1250
 5842SOL    HW228986   3.369   3.507  10.031  0.0221 -1.0951 -0.2295
 5843SOL     OW28987   4.494   2.979   6.063 -0.4103 -0.1383  0.7687
 5843SOL    HW128988   4.403   2.961   6.088  0.2835 -1.0195  2.7351
 5843SOL    HW228989   4.523   2.889   6.045 -0.0199  0.2028 -0.2637
 5844SOL     OW28990   0.394   3.877   3.290  0.2286 -0.5240  0.0572
 5844SOL    HW128991   0.303   3.875   3.261 -0.1358 -2.6128  1.3968
 5844SOL    HW228992   0.386   3.937   3.364  2.6219 -0.8128  0.5590
 5845SOL     OW28993   0.432   3.487   3.502  0.1909 -0.5261 -0.3818
 5845SOL    HW128994   0.360   3.469   3.563  2.2415 -1.6513  1.7222
 5845SOL    HW228995   0.417   3.418   3.437  0.2567 -1.9452  1.1208
 5846SOL     OW28996   0.412   2.346   2.849 -0.6227 -0.1139 -0.2304
 5846SOL    HW128997   0.498   2.323   2.813 -0.3399  0.2834  0.1921
 5846SOL    HW228998   0.373   2.259   2.843 -0.0980 -0.2769 -1.2559
 5847SOL     OW28999   1.606   3.937  16.434 -0.2232  0.8700 -0.3427
 5847SOL    HW129000   1.568   3.874  16.373 -1.0249  0.0440  1.0027
 5847SOL    HW229001   1.657   3.870  16.480 -0.4377 -0.0789 -1.4829
 5848SOL     OW29002   3.525   2.894   6.419 -0.1607  0.2710  0.3102
 5848SOL    HW129003   3.594   2.938   6.370  1.2965 -0.4165  1.7629
 5848SOL    HW229004   3.477   2.973   6.446  1.6665  1.6687 -0.6174
 5849SOL     OW29005   1.479   1.053   7.545  0.0240  0.3562 -0.2834
 5849SOL    HW129006   1.452   1.029   7.457 -0.3734 -0.9531  0.1952
 5849SOL    HW229007   1.411   1.109   7.581 -0.6014 -0.5947  0.0036
 5850SOL     OW29008   2.796   3.823   8.070  0.1168 -0.6217  0.0637
 5850SOL    HW129009   2.844   3.889   8.020 -0.5468 -1.6078 -1.8770
 5850SOL    HW229010   2.738   3.799   7.997 -0.8943 -1.2270  1.0622
 5851SOL     OW29011   0.405   4.198   1.442  0.1855  0.2484  0.0174
 5851SOL    HW129012   0.476   4.139   1.467 -0.1908 -0.8020 -1.4091
 5851SOL    HW229013   0.352   4.140   1.387  1.9351 -1.2333 -0.0886
 5852SOL     OW29014   1.371   2.900   5.859 -0.7165 -0.6302 -0.3209
 5852SOL    HW129015   1.341   2.868   5.944  0.4676  1.6048  0.9181
 5852SOL    HW229016   1.295   2.927   5.808 -0.2838  1.6586  0.2345
 5853SOL     OW29017   3.177   3.842  13.232 -0.0662  0.0083 -0.2633
 5853SOL    HW129018   3.138   3.929  13.241 -0.3609 -0.1861  0.3896
 5853SOL    HW229019   3.263   3.882  13.217  0.3536 -0.8878 -0.2755
 5854SOL     OW29020   4.026   3.274   3.560 -0.6981 -0.3663 -0.3619
 5854SOL    HW129021   4.064   3.202   3.510  1.2376 -0.3220  1.0634
 5854SOL    HW229022   4.104   3.319   3.593 -1.5467 -0.2623  1.4945
 5855SOL     OW29023   0.859   2.333   7.471 -0.7820 -0.1308  0.1642
 5855SOL    HW129024   0.905   2.417   7.465 -0.2163 -0.3045  1.7977
 5855SOL    HW229025   0.849   2.314   7.565  0.3304  2.4908  0.8179
 5856SOL     OW29026   1.712   2.487   6.648 -0.6935  0.0083 -0.4657
 5856SOL    HW129027   1.758   2.414   6.689 -1.1642  0.0651  0.1582
 5856SOL    HW229028   1.627   2.450   6.626 -1.3862  0.0261  2.1244
 5857SOL     OW29029   1.606   1.158  12.926  0.0269  0.2366 -0.2518
 5857SOL    HW129030   1.525   1.204  12.902  0.0450  0.2494 -0.2892
 5857SOL    HW229031   1.656   1.239  12.935  2.1855 -0.8143 -2.5966
 5858SOL     OW29032   0.533   1.401   8.839 -0.0321 -0.3727  0.4959
 5858SOL    HW129033   0.614   1.351   8.826 -0.6057 -1.5012  1.3732
 5858SOL    HW229034   0.476   1.330   8.811  0.0085  0.0505 -0.6824
 5859SOL     OW29035   1.307   1.189  10.461 -0.7816 -0.4620 -0.4297
 5859SOL    HW129036   1.265   1.146  10.387 -1.9283  1.3737 -0.8424
 5859SOL    HW229037   1.315   1.111  10.517 -0.4356  0.6069  1.0245
 5860SOL     OW29038   4.385   4.603   4.405 -0.1499 -0.4517  0.4059
 5860SOL    HW129039   4.377   4.542   4.332  1.1586  0.4276 -0.4845
 5860SOL    HW229040   4.469   4.642   4.379 -1.3843  1.1230 -1.1802
 5861SOL     OW29041   4.045   2.550   0.116 -0.1888  0.5439 -0.0259
 5861SOL    HW129042   4.133   2.556   0.080 -1.4473  2.6240 -2.7677
 5861SOL    HW229043   3.987   2.542   0.040  0.8673 -1.0244 -0.6593
 5862SOL     OW29044   4.398   1.559  10.645 -0.4032 -0.0359  0.7651
 5862SOL    HW129045   4.354   1.478  10.620 -0.3333  0.1697 -0.0202
 5862SOL    HW229046   4.322   1.614  10.666 -1.4015 -1.7043  1.4960
 5863SOL     OW29047   0.131   0.731   6.737  0.2611 -0.4621 -0.6787
 5863SOL    HW129048   0.121   0.683   6.654  1.6382  0.3340 -1.2973
 5863SOL    HW229049   0.197   0.670   6.770  2.4476  2.5693  0.5227
 5864SOL     OW29050   0.710   1.373   9.185 -0.5167 -0.2968 -0.2181
 5864SOL    HW129051   0.670   1.450   9.225  0.8120  0.5802 -0.5814
 5864SOL    HW229052   0.795   1.407   9.154 -1.0434 -0.4358 -1.8055
 5865SOL     OW29053   2.897   4.116   6.261  0.1541  0.3384  0.0299
 5865SOL    HW129054   2.956   4.191   6.253 -0.9854  1.2914  0.6341
 5865SOL    HW229055   2.878   4.117   6.355  2.0621  1.2735  0.4178
 5866SOL     OW29056   0.480   0.363   5.820 -0.1555 -0.0992 -0.3248
 5866SOL    HW129057   0.558   0.409   5.851  0.6864 -1.2008 -0.7964
 5866SOL    HW229058   0.458   0.309   5.896  0.3152  1.7372  1.1031
 5867SOL     OW29059   1.104   1.195   0.277 -0.1279  0.2409 -0.2241
 5867SOL    HW129060   1.015   1.209   0.246  0.2143 -0.3581 -1.4789
 5867SOL    HW229061   1.140   1.136   0.211 -1.7269  0.1836 -1.0461
 5868SOL     OW29062   1.651   4.343   0.624 -0.7996 -0.0853 -0.2373
 5868SOL    HW129063   1.702   4.419   0.599 -1.4901  0.3208 -0.4309
 5868SOL    HW229064   1.601   4.368   0.701 -1.6830 -1.0487 -0.4896
 5869SOL     OW29065   2.199   4.112   8.228 -0.1959 -0.3913 -0.6196
 5869SOL    HW129066   2.285   4.078   8.204 -0.9889 -0.5497 -3.2131
 5869SOL    HW229067   2.193   4.082   8.319  0.6743  0.4108 -0.3063
 5870SOL     OW29068   1.476   3.498  15.122 -0.1092  0.6682 -0.3481
 5870SOL    HW129069   1.420   3.481  15.198  1.0834  0.0594  0.4017
 5870SOL    HW229070   1.546   3.542  15.169  0.5066 -2.4152  1.6934
 5871SOL     OW29071   2.090   4.065  10.786 -0.3291  0.3645  0.7334
 5871SOL    HW129072   2.039   3.984  10.788 -1.9224  1.3560  0.2709
 5871SOL    HW229073   2.042   4.130  10.836 -2.6384 -2.2391  1.9400
 5872SOL     OW29074   1.511   4.218   6.898  0.4052 -0.1731 -0.0606
 5872SOL    HW129075   1.513   4.180   6.985 -0.2076  0.3321  0.1738
 5872SOL    HW229076   1.606   4.218   6.886  0.1754 -0.7583 -1.8576
 5873SOL     OW29077   2.826   1.064  11.319  0.1830  0.1710 -0.3191
 5873SOL    HW129078   2.743   1.019  11.302  0.4908  0.9107 -3.8457
 5873SOL    HW229079   2.842   1.036  11.409 -0.2984  0.2174 -0.2151
 5874SOL     OW29080   0.450   3.202   4.564  0.2999 -0.8073 -0.0605
 5874SOL    HW129081   0.382   3.265   4.541 -0.9381 -1.5449  1.6777
 5874SOL    HW229082   0.405   3.126   4.600 -0.2649 -0.2771  0.3361
 5875SOL     OW29083   1.171   1.502   4.818  0.2834  0.3909  0.7643
 5875SOL    HW129084   1.138   1.414   4.798  1.1466  0.4696 -1.0422
 5875SOL    HW229085   1.250   1.497   4.763  0.1541 -2.2242  0.7917
 5876SOL     OW29086   2.296   2.720   4.354 -0.4968 -0.2246  0.1455
 5876SOL    HW129087   2.213   2.683   4.325 -1.6337  1.5542  1.1175
 5876SOL    HW229088   2.292   2.713   4.449 -2.2906 -1.0090  0.0020
 5877SOL     OW29089   1.518   1.566   1.493  0.4593  0.3951  0.3490
 5877SOL    HW129090   1.581   1.520   1.548 -0.5976 -1.3421  0.0870
 5877SOL    HW229091   1.444   1.571   1.554 -0.8416  1.8121 -1.3329
 5878SOL     OW29092   2.865   3.597   6.967  0.0158 -0.7765 -0.3242
 5878SOL    HW129093   2.946   3.547   6.978 -0.6995 -1.7815  0.4217
 5878SOL    HW229094   2.810   3.529   7.008  0.3313 -0.7923  0.0715
 5879SOL     OW29095   2.311   4.191   5.501 -0.5447 -0.2594  0.4033
 5879SOL    HW129096   2.297   4.109   5.549 -0.4549  0.1645  1.1457
 5879SOL    HW229097   2.229   4.233   5.528 -0.2417 -0.2604  1.3372
 5880SOL     OW29098   0.137   3.463   7.657 -0.1953  0.3277  0.2017
 5880SOL    HW129099   0.197   3.395   7.627 -0.0221  0.4945  0.1727
 5880SOL    HW229100   0.157   3.463   7.750  0.1220 -2.1226  0.1311
 5881SOL     OW29101   3.709   1.059   0.962 -0.2434 -0.2020  0.1067
 5881SOL    HW129102   3.672   1.047   1.049  0.4125  1.2862  0.5991
 5881SOL    HW229103   3.638   1.104   0.916  0.6576  0.0550 -1.0197
 5882SOL     OW29104   1.502   4.180   1.516 -0.0693 -0.1598  0.0093
 5882SOL    HW129105   1.407   4.169   1.510  0.2005 -1.9388 -1.1550
 5882SOL    HW229106   1.521   4.230   1.595  1.1302 -0.4507 -0.0917
 5883SOL     OW29107   4.341   3.387   2.774  1.0042 -0.2859  0.0880
 5883SOL    HW129108   4.299   3.469   2.800 -1.3299 -1.4124 -0.1024
 5883SOL    HW229109   4.273   3.323   2.796  0.7201 -0.3036 -0.8109
 5884SOL     OW29110   3.195   0.502   5.910 -0.1442  0.1030 -0.3024
 5884SOL    HW129111   3.227   0.527   5.823 -1.6242  1.6812 -0.4054
 5884SOL    HW229112   3.133   0.435   5.881 -0.9543  0.2432  1.0963
 5885SOL     OW29113   4.600   0.894  13.140  0.2960 -0.3010  0.5645
 5885SOL    HW129114   4.549   0.836  13.083  0.4166  1.1497 -0.9895
 5885SOL    HW229115   4.664   0.928  13.077  0.5132  0.5053  1.2185
 5886SOL     OW29116   1.784   0.376   9.310 -0.0389 -0.4425 -0.5947
 5886SOL    HW129117   1.847   0.445   9.285  0.4653 -1.0021 -0.8768
 5886SOL    HW229118   1.760   0.400   9.399 -2.5800 -1.0578 -1.1093
 5887SOL     OW29119   4.536   2.035   8.908 -0.3971 -0.6842  0.4185
 5887SOL    HW129120   4.624   2.000   8.922 -0.3328  0.2881  2.5429
 5887SOL    HW229121   4.514   2.064   8.997 -0.5271 -1.4047  0.6222
 5888SOL     OW29122   2.382   3.456   5.595 -0.2497  0.1123  0.6271
 5888SOL    HW129123   2.287   3.446   5.603 -0.2647  0.6718  1.1778
 5888SOL    HW229124   2.401   3.497   5.680  1.3713  1.3129 -0.3271
 5889SOL     OW29125   0.549   3.168   5.449 -0.4590 -0.3502  0.2603
 5889SOL    HW129126   0.460   3.146   5.421  0.2212 -0.5001 -1.8040
 5889SOL    HW229127   0.554   3.225   5.373 -0.0598 -0.3024  0.3217
 5890SOL     OW29128   2.886   1.487   6.402  0.4350  0.5315 -0.2055
 5890SOL    HW129129   2.848   1.572   6.377  1.4141  1.6356  2.0553
 5890SOL    HW229130   2.811   1.446   6.444  2.2569 -1.2018  1.3052
 5891SOL     OW29131   1.348   3.211   8.215 -0.1344  0.5550 -0.3462
 5891SOL    HW129132   1.343   3.116   8.231  1.5330  0.5833  0.2754
 5891SOL    HW229133   1.299   3.227   8.134  1.4294 -0.8686 -1.5790
 5892SOL     OW29134   2.834   0.176   3.435  0.2994 -0.1795  0.1831
 5892SOL    HW129135   2.881   0.216   3.362  1.5072 -0.3864  0.8492
 5892SOL    HW229136   2.886   0.215   3.505 -0.5152  0.0458  0.6726
 5893SOL     OW29137   0.704   0.453   5.451 -0.0429  0.4705  0.2155
 5893SOL    HW129138   0.781   0.404   5.481 -1.9194 -1.1862  2.3361
 5893SOL    HW229139   0.636   0.387   5.467 -0.5068  0.2166 -2.8470
 5894SOL     OW29140   0.081   2.616   5.416  0.1116  0.6844  0.4867
 5894SOL    HW129141   0.147   2.571   5.470  0.7933  0.1849 -0.7628
 5894SOL    HW229142   0.047   2.671   5.486 -0.6024  1.1544 -0.2420
 5895SOL     OW29143   4.046   1.228   9.492  0.1161  0.0377  0.5697
 5895SOL    HW129144   3.951   1.236   9.486 -0.0629 -2.2464  0.4152
 5895SOL    HW229145   4.059   1.271   9.576  2.7268 -0.8330  0.6107
 5896SOL     OW29146   1.905   4.613   5.343 -0.7793 -0.3703  0.0779
 5896SOL    HW129147   1.938   4.696   5.308 -1.8136 -0.3717 -0.9122
 5896SOL    HW229148   1.932   4.553   5.273  1.5621 -0.2789  0.9113
 5897SOL     OW29149   2.834   0.236  16.388 -0.5950  0.0472  0.3573
 5897SOL    HW129150   2.920   0.218  16.426 -0.2819  2.0616  0.5838
 5897SOL    HW229151   2.859   0.322  16.355 -0.7599 -0.7959 -1.9955
 5898SOL     OW29152   0.626   0.131   4.972  0.1657  0.4871  0.2086
 5898SOL    HW129153   0.586   0.044   4.974  1.6863 -0.1931  0.7468
 5898SOL    HW229154   0.550   0.181   4.941 -1.3465 -1.1642  1.2488
 5899SOL     OW29155   2.888   0.471   6.102  0.0591  0.3162 -0.5834
 5899SOL    HW129156   2.855   0.534   6.167 -0.6701 -0.0836 -0.5654
 5899SOL    HW229157   2.961   0.436   6.152 -0.6153 -0.1066  0.0980
 5900SOL     OW29158   4.598   3.664  10.989  0.6439 -1.1075  0.1907
 5900SOL    HW129159   4.675   3.721  10.990 -2.1504  2.6604 -0.8236
 5900SOL    HW229160   4.533   3.733  10.980  1.0160 -0.9385 -1.1721
 5901SOL     OW29161   0.527   0.264   5.565  0.8322 -0.1824 -0.2125
 5901SOL    HW129162   0.496   0.316   5.639 -1.7149 -2.2584  0.1537
 5901SOL    HW229163   0.512   0.177   5.602 -2.2395  0.4602  0.0392
 5902SOL     OW29164   1.198   2.514   1.500  0.1606  0.3015 -0.6564
 5902SOL    HW129165   1.256   2.577   1.456  0.2278  0.9053  0.3007
 5902SOL    HW229166   1.244   2.435   1.471  1.1837 -0.5975  3.4246
 5903SOL     OW29167   3.865   2.610   7.101  0.1324 -0.8143  0.3258
 5903SOL    HW129168   3.944   2.606   7.047  0.2016 -2.5809  0.5510
 5903SOL    HW229169   3.794   2.621   7.037  0.1805 -2.5617 -0.0173
 5904SOL     OW29170   2.934   3.624  13.591  0.2790 -0.1527  0.3284
 5904SOL    HW129171   2.992   3.606  13.666 -0.7853 -2.4642  0.5933
 5904SOL    HW229172   2.987   3.588  13.520  2.2271  0.2131  1.5700
 5905SOL     OW29173   2.252   0.755   2.130 -0.3398  0.4394  0.9875
 5905SOL    HW129174   2.165   0.718   2.146 -1.3830  2.4674 -0.1086
 5905SOL    HW229175   2.297   0.685   2.082  2.9261  0.0942  4.5543
 5906SOL     OW29176   4.569   3.602   3.160 -0.2126 -0.0462  0.1333
 5906SOL    HW129177   4.570   3.539   3.088  3.8629  0.2839 -0.1058
 5906SOL    HW229178   4.523   3.552   3.226  0.5450 -0.3082  0.4571
 5907SOL     OW29179   3.645   1.786   3.213  0.1483 -0.1922  0.2430
 5907SOL    HW129180   3.711   1.717   3.205  0.8100  0.3375  1.0869
 5907SOL    HW229181   3.566   1.739   3.238 -0.8404  0.7628 -1.0943
 5908SOL     OW29182   3.261   0.915   3.150 -0.2264 -0.0003 -0.3304
 5908SOL    HW129183   3.202   0.950   3.217  0.9164  2.3130 -0.5495
 5908SOL    HW229184   3.265   0.986   3.087 -0.8569  0.6327  0.3376
 5909SOL     OW29185   3.913   0.114   3.240  0.4616 -0.2531  0.4982
 5909SOL    HW129186   3.827   0.155   3.237  0.4713 -0.3775 -1.2511
 5909SOL    HW229187   3.894   0.035   3.189  0.7716  2.3419 -3.6474
 5910SOL     OW29188   2.830   0.315  10.468 -0.0964  0.2022 -0.0811
 5910SOL    HW129189   2.925   0.322  10.482 -0.1696  0.1742  0.4097
 5910SOL    HW229190   2.787   0.303  10.552 -2.5453  1.0712 -1.2048
 5911SOL     OW29191   2.137   1.611  12.667 -0.0589  0.1581 -0.0546
 5911SOL    HW129192   2.133   1.517  12.645 -0.3273  0.2616 -0.4560
 5911SOL    HW229193   2.092   1.615  12.751 -0.9395  1.0700 -0.5802
 5912SOL     OW29194   2.883   4.078   5.115  0.1309 -0.3306  0.4218
 5912SOL    HW129195   2.824   4.100   5.187 -1.1275 -2.3587  0.0118
 5912SOL    HW229196   2.942   4.154   5.110  0.8830 -0.9308  0.0852
 5913SOL     OW29197   0.051   0.553   9.280 -0.4134 -0.4153 -0.0813
 5913SOL    HW129198   0.048   0.633   9.333  2.8057  0.6439 -1.5015
 5913SOL    HW229199   4.683   0.547   9.252 -0.5973 -1.7851  0.8126
 5914SOL     OW29200   4.464   4.714   5.317 -0.0401 -0.3922  0.0925
 5914SOL    HW129201   4.390   0.052   5.313  1.5228  1.5356  0.5617
 5914SOL    HW229202   4.452   4.680   5.406  0.9341 -1.8742 -0.3460
 5915SOL     OW29203   1.758   3.314   9.787  0.4077  0.1537  0.1061
 5915SOL    HW129204   1.676   3.357   9.813 -0.0607 -1.6504  1.6615
 5915SOL    HW229205   1.732   3.278   9.703  0.1760 -0.1412  0.3055
 5916SOL     OW29206   0.318   3.863  12.729  0.1882  0.9161 -0.0623
 5916SOL    HW129207   0.251   3.807  12.690  1.0136  0.2252 -0.4711
 5916SOL    HW229208   0.388   3.799  12.733  0.0582  0.8341  0.8484
 5917SOL     OW29209   1.117   2.869   5.340 -0.6038 -0.4807  0.2893
 5917SOL    HW129210   1.084   2.785   5.371 -2.2669 -0.8983 -2.6093
 5917SOL    HW229211   1.198   2.834   5.304 -0.9521 -1.5704  0.5740
 5918SOL     OW29212   3.322   2.296  16.357  0.8737  0.5948 -0.3021
 5918SOL    HW129213   3.280   2.308  16.271  0.4818  0.4940 -0.1273
 5918SOL    HW229214   3.268   2.228  16.396  3.1091 -0.6051  0.6903
 5919SOL     OW29215   4.418   3.555  12.641 -0.0353  0.0199 -0.4431
 5919SOL    HW129216   4.389   3.503  12.715  1.2421 -0.8366 -0.5590
 5919SOL    HW229217   4.389   3.645  12.655  0.4371  0.3355 -1.4709
 5920SOL     OW29218   1.179   4.160   4.444 -0.1408  0.5339 -0.5778
 5920SOL    HW129219   1.215   4.186   4.528 -0.0820 -2.7909  0.4243
 5920SOL    HW229220   1.254   4.169   4.385  1.7705  3.0855  2.2414
 5921SOL     OW29221   2.042   3.351   6.078  0.2679 -0.0661 -0.1640
 5921SOL    HW129222   2.016   3.271   6.124  0.0931  0.7627  1.1868
 5921SOL    HW229223   1.978   3.415   6.108 -1.8441 -1.2639 -2.0695
 5922SOL     OW29224   2.787   4.308  10.555  0.5601 -0.2445 -0.3443
 5922SOL    HW129225   2.731   4.327  10.631  0.6368 -1.2545 -0.0337
 5922SOL    HW229226   2.871   4.292  10.599  0.7682  0.6486 -0.4233
 5923SOL     OW29227   1.877   2.098  13.943  0.2348 -0.2242  0.9916
 5923SOL    HW129228   1.796   2.048  13.950 -0.2703 -0.2067 -4.4974
 5923SOL    HW229229   1.848   2.177  13.988  1.5018  1.6151 -1.3917
 5924SOL     OW29230   0.516   1.549   2.550  0.5215  0.0198  0.1460
 5924SOL    HW129231   0.607   1.558   2.519  0.1314  1.3915 -0.6043
 5924SOL    HW229232   0.515   1.459   2.581 -2.6037 -0.0949 -0.2984
 5925SOL     OW29233   2.316   0.063   9.870 -0.0235  0.1959 -0.2297
 5925SOL    HW129234   2.273   0.021   9.796  0.3057  0.6412 -0.6752
 5925SOL    HW229235   2.342   4.705   9.915 -0.2933  0.3082  0.1267
 5926SOL     OW29236   4.008   2.237   5.289  0.1443 -0.3093 -0.3619
 5926SOL    HW129237   3.999   2.256   5.383  1.0900  2.1264 -0.7671
 5926SOL    HW229238   3.935   2.296   5.277  1.0233  0.1415 -3.4561
 5927SOL     OW29239   0.196   3.466   7.909 -0.1909  0.0537 -0.2247
 5927SOL    HW129240   0.173   3.467   8.002 -3.3356 -1.5827 -0.9891
 5927SOL    HW229241   0.290   3.450   7.914  0.2810  3.0934  0.3445
 5928SOL     OW29242   1.098   0.231   6.187 -0.7706 -0.0722 -0.0292
 5928SOL    HW129243   1.152   0.309   6.175  0.1508 -0.7640 -0.3833
 5928SOL    HW229244   1.080   0.217   6.094  1.0895  0.2773 -0.4421
 5929SOL     OW29245   0.609   1.180   2.804  1.0663  0.7089  0.1239
 5929SOL    HW129246   0.590   1.209   2.714  1.3294 -3.0389 -1.1516
 5929SOL    HW229247   0.661   1.256   2.830  1.5433  0.3676  0.1685
 5930SOL     OW29248   3.045   3.219  12.679  0.4549 -0.2768  0.0505
 5930SOL    HW129249   3.123   3.190  12.633  0.8929 -1.7832  1.7323
 5930SOL    HW229250   3.064   3.311  12.695 -0.7709  0.6493 -3.7795
 5931SOL     OW29251   2.543   0.427   2.391  0.3931  0.3552  0.6925
 5931SOL    HW129252   2.611   0.467   2.337  0.1599  0.7011  0.6541
 5931SOL    HW229253   2.522   0.499   2.450 -1.3832  1.0228 -0.7550
 5932SOL     OW29254   4.213   3.975  12.144 -0.4984 -0.4608  0.1770
 5932SOL    HW129255   4.222   3.911  12.215  0.0396 -0.0863  0.4522
 5932SOL    HW229256   4.267   3.934  12.077 -0.7301 -1.4822  0.6073
 5933SOL     OW29257   2.647   0.926  14.060  0.4993 -0.1656  0.0443
 5933SOL    HW129258   2.623   0.930  13.967 -2.5816 -0.1787  0.8580
 5933SOL    HW229259   2.682   1.014  14.074  2.0863 -1.0163  1.4653
 5934SOL     OW29260   0.121   3.992   5.094 -0.3825  0.4581  0.3230
 5934SOL    HW129261   0.102   4.072   5.045 -0.5656  0.1721 -0.0711
 5934SOL    HW229262   0.100   3.932   5.022 -0.3311  0.0963  0.6118
 5935SOL     OW29263   3.072   2.022   7.672 -0.1559 -0.3889  0.4190
 5935SOL    HW129264   3.068   2.107   7.718  0.4280 -1.6029  2.7287
 5935SOL    HW229265   3.000   1.970   7.709 -1.4871 -0.5411 -2.4179
 5936SOL     OW29266   3.775   4.691  16.521 -0.1796  0.1674 -0.1461
 5936SOL    HW129267   3.712   4.669  16.589  1.8981  0.6559  1.9500
 5936SOL    HW229268   3.736   4.637  16.453  3.7719 -1.8923 -0.7794
 5937SOL     OW29269   2.499   0.117  15.419  0.2007  0.3338  0.2589
 5937SOL    HW129270   2.416   0.144  15.458 -0.4004 -1.6820  0.3695
 5937SOL    HW229271   2.563   0.172  15.465 -1.7472  2.0153  0.9453
 5938SOL     OW29272   1.708   3.044  14.534 -0.1213 -0.0504 -0.2670
 5938SOL    HW129273   1.792   3.002  14.556  0.6348  1.0044 -1.1442
 5938SOL    HW229274   1.729   3.100  14.459 -1.5074 -0.6429 -1.1053
 5939SOL     OW29275   0.760   2.202   6.094  0.4486  0.0695  0.6109
 5939SOL    HW129276   0.797   2.145   6.026 -2.3857  0.8465 -1.6287
 5939SOL    HW229277   0.670   2.171   6.082 -0.7045  3.5745  0.0435
 5940SOL     OW29278   0.864   2.295  10.217 -0.1014  0.0990 -0.6387
 5940SOL    HW129279   0.840   2.203  10.210  0.3021  0.0123 -0.8616
 5940SOL    HW229280   0.955   2.294  10.245 -0.1150  0.9314 -0.5488
 5941SOL     OW29281   4.322   2.626   8.690 -0.1402  0.7330  0.1950
 5941SOL    HW129282   4.270   2.570   8.747 -0.3024 -0.4610 -1.1215
 5941SOL    HW229283   4.275   2.706   8.710 -0.9571 -0.1210  1.6297
 5942SOL     OW29284   0.235   3.366   1.676  0.2774  0.0268  0.3634
 5942SOL    HW129285   0.173   3.435   1.652 -1.9389 -2.4825 -1.1905
 5942SOL    HW229286   0.251   3.400   1.764  1.7839 -0.6936  0.3649
 5943SOL     OW29287   2.127   3.834  11.131  0.0981 -0.1634 -0.2709
 5943SOL    HW129288   2.148   3.922  11.161 -1.5330  0.5063 -1.0778
 5943SOL    HW229289   2.212   3.791  11.142  0.7177  0.4302 -2.6011
 5944SOL     OW29290   1.370   1.088  12.188  0.4637  0.8027 -0.8633
 5944SOL    HW129291   1.417   1.118  12.266 -0.4138  2.3225 -0.9135
 5944SOL    HW229292   1.360   0.994  12.199 -0.0927  0.8595 -0.8776
 5945SOL     OW29293   1.361   1.353   8.244  0.1435 -0.2963  0.7320
 5945SOL    HW129294   1.293   1.305   8.196  0.0076  1.1172 -0.5189
 5945SOL    HW229295   1.344   1.441   8.209 -0.6398 -0.0323  1.7797
 5946SOL     OW29296   3.043   0.975   2.418  0.2964  0.4620 -1.1427
 5946SOL    HW129297   3.116   0.994   2.476 -0.7274  0.2343  0.2301
 5946SOL    HW229298   2.975   1.013   2.474  2.2842  0.8579  1.0289
 5947SOL     OW29299   3.947   3.566  17.361 -0.4231  0.1832  0.2508
 5947SOL    HW129300   3.943   3.487  17.415  2.2270 -0.2378 -0.1657
 5947SOL    HW229301   4.037   3.585  17.389  0.0259  0.5392 -1.4745
 5948SOL     OW29302   1.960   1.150   2.663 -1.0127  0.1430 -0.1773
 5948SOL    HW129303   1.886   1.163   2.604  0.1679 -2.1792 -2.1631
 5948SOL    HW229304   1.910   1.174   2.741  0.2930 -0.8121  0.9667
 5949SOL     OW29305   4.343   1.973   2.710  0.4108 -0.1950 -0.0676
 5949SOL    HW129306   4.363   2.057   2.668 -0.1353  0.2938  0.6659
 5949SOL    HW229307   4.379   1.921   2.638 -1.1586  1.0185 -1.7470
 5950SOL     OW29308   0.972   2.351   4.735  0.3974 -0.4992  0.8464
 5950SOL    HW129309   0.889   2.384   4.699  1.0515  1.0066  0.7310
 5950SOL    HW229310   1.012   2.296   4.667 -1.8881 -1.1069 -0.0122
 5951SOL     OW29311   4.405   2.563   9.150 -0.3780  0.2071 -0.2875
 5951SOL    HW129312   4.454   2.521   9.220  2.2126  1.6822 -1.2063
 5951SOL    HW229313   4.349   2.493   9.116  2.1286 -2.2512  0.6452
 5952SOL     OW29314   4.596   3.760   6.025 -0.3777  0.4143 -0.3042
 5952SOL    HW129315   4.618   3.790   6.113  0.8285  0.1298 -0.5180
 5952SOL    HW229316   4.674   3.774   5.972 -1.7488 -2.4392 -3.0736
 5953SOL     OW29317   1.480   2.015   5.407  0.3737 -0.0485 -0.2076
 5953SOL    HW129318   1.561   2.039   5.363  1.3163  0.7818  1.9535
 5953SOL    HW229319   1.507   1.933   5.450  0.8817  0.8941  1.2843
 5954SOL     OW29320   4.434   4.660   7.733  0.0835 -0.3124  0.2957
 5954SOL    HW129321   4.362   4.721   7.713  0.2542 -0.3217 -0.3418
 5954SOL    HW229322   4.483   4.713   7.797 -2.1551 -0.0023  1.7670
 5955SOL     OW29323   1.853   1.927   0.436 -0.6243 -0.5519  0.0332
 5955SOL    HW129324   1.797   1.920   0.513 -1.2473 -1.2246 -0.4805
 5955SOL    HW229325   1.863   1.840   0.398  0.2709  0.2565 -1.5912
 5956SOL     OW29326   2.355   1.920   3.923 -0.4330  0.6847 -0.6269
 5956SOL    HW129327   2.318   2.008   3.921 -0.5774  0.6261 -0.5224
 5956SOL    HW229328   2.296   1.872   3.865  0.3112 -1.5520  0.4639
 5957SOL     OW29329   0.412   2.479   8.298 -0.3934 -0.0729  0.5720
 5957SOL    HW129330   0.388   2.571   8.285  0.7550  0.2782  0.8859
 5957SOL    HW229331   0.337   2.434   8.261 -0.9122  1.1038  0.2018
 5958SOL     OW29332   3.603   1.884   2.359  0.2465  0.3211  0.8873
 5958SOL    HW129333   3.661   1.928   2.421  0.9577 -0.2172  0.5984
 5958SOL    HW229334   3.574   1.961   2.310  1.1947  1.2984  1.8685
 5959SOL     OW29335   2.814   0.779   7.333 -0.2051  0.1787 -0.4330
 5959SOL    HW129336   2.755   0.766   7.259  0.1920  0.3865 -0.7880
 5959SOL    HW229337   2.899   0.797   7.292 -0.2976  0.5732 -0.4466
 5960SOL     OW29338   3.283   4.586   1.865 -0.1507  0.2422 -0.2381
 5960SOL    HW129339   3.369   4.543   1.873 -0.0008  0.9430  1.8553
 5960SOL    HW229340   3.285   4.659   1.926  0.3367 -0.1140  0.1791
 5961SOL     OW29341   4.373   4.117   9.007  0.1133 -0.4026 -0.0617
 5961SOL    HW129342   4.444   4.064   8.971  1.1277  0.4226  0.7077
 5961SOL    HW229343   4.418   4.202   9.010  1.4186 -1.0570 -1.1436
 5962SOL     OW29344   4.116   2.185   7.102 -0.1787 -0.0536  0.6087
 5962SOL    HW129345   4.135   2.255   7.165  0.7166  0.2891 -0.0214
 5962SOL    HW229346   4.022   2.168   7.107 -0.2329 -0.3315 -1.2492
 5963SOL     OW29347   3.459   2.800  15.897  0.2388 -0.1863  0.4111
 5963SOL    HW129348   3.474   2.840  15.812 -4.4596 -0.2153 -0.4711
 5963SOL    HW229349   3.366   2.774  15.899  0.3740 -0.7830 -0.6819
 5964SOL     OW29350   2.476   0.344   4.127 -0.1054  0.2885  0.0076
 5964SOL    HW129351   2.544   0.384   4.073 -0.8720 -2.9418 -3.2914
 5964SOL    HW229352   2.523   0.274   4.172  0.9569  0.5253 -0.7501
 5965SOL     OW29353   2.805   3.855  13.479  0.5206  0.3235 -0.0139
 5965SOL    HW129354   2.851   3.784  13.524  0.4620 -0.1579 -0.7004
 5965SOL    HW229355   2.768   3.897  13.556  1.1126 -0.6323  0.7877
 5966SOL     OW29356   2.991   1.642  12.963 -0.6463 -0.1454 -0.4120
 5966SOL    HW129357   2.946   1.557  12.965 -1.2706  0.1797 -0.6206
 5966SOL    HW229358   3.059   1.633  12.897 -0.7789 -1.0451 -0.4297
 5967SOL     OW29359   1.239   0.768   6.247 -0.3044 -0.2528 -0.2360
 5967SOL    HW129360   1.306   0.836   6.255 -0.5677 -0.1246  0.8667
 5967SOL    HW229361   1.219   0.748   6.339  1.7177 -0.2298  0.2128
 5968SOL     OW29362   1.072   3.041   6.784  0.0989 -0.4561 -0.3598
 5968SOL    HW129363   1.126   2.989   6.725  1.8826  0.9165  0.0790
 5968SOL    HW229364   1.036   2.976   6.844  0.1606 -0.5432 -0.4164
 5969SOL     OW29365   2.637   4.578   2.892  0.4170  0.1021  0.0305
 5969SOL    HW129366   2.716   4.542   2.853  0.3601 -1.3906  1.2609
 5969SOL    HW229367   2.593   4.492   2.896  1.5324 -0.4283  0.8710
 5970SOL     OW29368   0.505   1.483   2.954 -0.1898 -0.3304  0.2006
 5970SOL    HW129369   0.531   1.573   2.933 -0.1077 -0.8374 -1.8377
 5970SOL    HW229370   0.428   1.505   3.007 -1.4923 -0.6527 -1.5534
 5971SOL     OW29371   4.419   0.674   4.314 -0.0586  0.2034  0.0466
 5971SOL    HW129372   4.513   0.660   4.318 -0.0327  0.9784  2.1132
 5971SOL    HW229373   4.384   0.586   4.298 -3.2291  1.5106 -0.2122
 5972SOL     OW29374   2.712   3.716  15.829  0.0122 -0.3416 -0.5412
 5972SOL    HW129375   2.794   3.681  15.793  0.6720 -0.9349  1.5620
 5972SOL    HW229376   2.641   3.677  15.777 -2.1659  2.1255  0.5670
 5973SOL     OW29377   4.072   4.268   3.436 -0.0369 -0.4985  0.3339
 5973SOL    HW129378   4.151   4.310   3.403 -2.0742 -0.1751 -4.1439
 5973SOL    HW229379   4.084   4.263   3.531 -2.9838 -1.5154  0.6596
 5974SOL     OW29380   4.181   4.284  16.760 -0.3657 -0.3303  0.2001
 5974SOL    HW129381   4.128   4.353  16.800 -2.1227 -0.8111 -1.2972
 5974SOL    HW229382   4.270   4.319  16.753 -0.2674 -0.0812  2.8552
 5975SOL     OW29383   0.375   0.642   4.885 -0.0975 -0.5235  0.1026
 5975SOL    HW129384   0.461   0.682   4.900  0.8996 -2.3741 -0.6178
 5975SOL    HW229385   0.403   0.551   4.877  0.2616 -0.5074  1.1902
 5976SOL     OW29386   2.507   0.627   4.299 -0.1363  0.0611  0.0277
 5976SOL    HW129387   2.515   0.683   4.222 -1.5155 -1.0302 -0.9113
 5976SOL    HW229388   2.470   0.549   4.259 -1.8909  0.3369  1.1304
 5977SOL     OW29389   1.521   0.374   7.897  0.2891 -0.2495 -0.1561
 5977SOL    HW129390   1.451   0.414   7.845  1.6461  2.9258  0.4726
 5977SOL    HW229391   1.549   0.456   7.937 -0.8361 -0.5834  1.3006
 5978SOL     OW29392   3.476   1.215   2.150  0.3122  0.6301  0.0049
 5978SOL    HW129393   3.494   1.301   2.187  0.0983  0.1867  1.1620
 5978SOL    HW229394   3.500   1.222   2.058 -2.2856  1.3837 -0.6240
 5979SOL     OW29395   2.239   0.960   6.242  0.3879 -0.1916 -0.2389
 5979SOL    HW129396   2.149   0.955   6.274  0.4744 -0.9726 -0.1228
 5979SOL    HW229397   2.222   0.955   6.148 -1.6072  0.9030  0.0687
 5980SOL     OW29398   3.090   2.443   5.046 -0.2598  0.1696 -0.6475
 5980SOL    HW129399   3.142   2.398   4.979 -0.7610 -0.1161 -0.8418
 5980SOL    HW229400   3.005   2.399   5.039 -2.4269  4.2105  0.1691
 5981SOL     OW29401   3.460   0.312   0.404 -0.6436  0.0826  0.4052
 5981SOL    HW129402   3.489   0.221   0.400 -1.4125 -0.0503 -2.0841
 5981SOL    HW229403   3.364   0.306   0.412 -0.7235 -0.5291 -1.0983
 5982SOL     OW29404   0.328   4.619   4.127 -0.9126  0.0127 -0.1643
 5982SOL    HW129405   0.381   4.566   4.187  0.4334 -1.5701 -2.7526
 5982SOL    HW229406   0.364   4.602   4.039  3.4528  1.8808  1.2604
 5983SOL     OW29407   2.072   1.863   0.181 -0.6693 -0.5123  0.7397
 5983SOL    HW129408   2.096   1.791   0.123 -0.9082  0.2192 -0.2726
 5983SOL    HW229409   2.114   1.842   0.265  1.5709 -1.3380 -0.5825
 5984SOL     OW29410   1.056   0.638   3.599 -0.1296  0.6269  0.1694
 5984SOL    HW129411   1.124   0.603   3.541  1.3543  2.6417  0.7089
 5984SOL    HW229412   0.988   0.662   3.536  2.1175  0.7527 -2.2136
 5985SOL     OW29413   3.568   1.097   0.434 -0.1190 -0.0857 -0.5273
 5985SOL    HW129414   3.531   1.018   0.394  3.3103 -1.8724 -0.1742
 5985SOL    HW229415   3.658   1.064   0.430  0.7509  2.3573 -0.9263
 5986SOL     OW29416   0.134   2.591  14.578  0.1387 -0.2362  0.6073
 5986SOL    HW129417   0.202   2.597  14.510  0.4388 -0.6058  0.8788
 5986SOL    HW229418   0.062   2.584  14.515 -0.4450 -0.6415  1.3285
 5987SOL     OW29419   1.307   3.444   1.776 -0.4178  0.0112  0.6120
 5987SOL    HW129420   1.256   3.508   1.727  1.7298 -0.2396 -1.9564
 5987SOL    HW229421   1.358   3.403   1.706 -1.3446  0.3235 -0.2513
 5988SOL     OW29422   2.696   4.464   0.182  0.1809  0.2258  0.2782
 5988SOL    HW129423   2.762   4.421   0.237  1.3057  2.3028  0.5409
 5988SOL    HW229424   2.706   4.557   0.201  3.0390 -0.2655  1.2340
 5989SOL     OW29425   0.711   0.011   8.423 -0.3745 -0.4702 -0.5449
 5989SOL    HW129426   0.657   4.664   8.461  1.3981  0.5355  3.8163
 5989SOL    HW229427   0.748   4.674   8.358 -0.8541 -0.3906 -0.8883
 5990SOL     OW29428   1.533   1.286  11.974 -0.2557 -0.3474  0.1854
 5990SOL    HW129429   1.538   1.293  12.069 -1.0816  1.5130  0.0709
 5990SOL    HW229430   1.619   1.320  11.949  0.0152 -2.7450 -2.1717
 5991SOL     OW29431   3.001   2.565  12.430 -0.3084 -0.2040 -0.3077
 5991SOL    HW129432   3.044   2.553  12.515 -0.4445  1.2063 -0.0408
 5991SOL    HW229433   2.923   2.511  12.441 -0.0714 -0.0317  2.2559
 5992SOL     OW29434   4.242   3.709  16.327  0.0758  0.8162 -0.5226
 5992SOL    HW129435   4.255   3.726  16.420  1.9737  2.7437 -1.1227
 5992SOL    HW229436   4.289   3.785  16.291 -0.0804  0.7941 -0.7799
 5993SOL     OW29437   2.583   0.147  17.658 -0.3433 -0.1655  0.0839
 5993SOL    HW129438   2.546   0.141   0.052  0.0655 -0.0933  0.2609
 5993SOL    HW229439   2.547   0.070  17.612 -0.3349 -1.0758  1.6003
 5994SOL     OW29440   3.212   0.334   2.967 -0.3298  0.2341 -0.2972
 5994SOL    HW129441   3.141   0.390   2.936 -3.5100 -2.7373  1.6684
 5994SOL    HW229442   3.244   0.287   2.890  1.8594  3.7892 -1.5881
 5995SOL     OW29443   0.337   1.556   6.257  0.1107 -0.2816  0.8313
 5995SOL    HW129444   0.295   1.601   6.330  2.6541  0.3412  1.9040
 5995SOL    HW229445   0.299   1.468   6.263 -1.2182  0.2768  0.5221
 5996SOL     OW29446   1.653   2.918   7.438  0.1879  0.3828 -0.3071
 5996SOL    HW129447   1.646   3.013   7.427  0.2947  0.6350  1.7574
 5996SOL    HW229448   1.601   2.887   7.364 -2.3311  0.5937  1.3760
 5997SOL     OW29449   0.773   0.592   5.242 -0.4799 -0.2904  0.4187
 5997SOL    HW129450   0.732   0.538   5.309  1.2345 -1.3938  0.5723
 5997SOL    HW229451   0.790   0.666   5.301 -0.3381  1.5415 -1.9011
 5998SOL     OW29452   2.077   3.163   4.983  0.4173  0.8111 -0.5281
 5998SOL    HW129453   2.138   3.235   4.999 -0.5828  1.6724 -0.6018
 5998SOL    HW229454   2.142   3.109   4.938  1.8390  0.1524  2.3604
 5999SOL     OW29455   2.339   3.230   8.546 -0.0888 -0.3024  0.0398
 5999SOL    HW129456   2.295   3.313   8.564  1.3734  1.0641 -2.8977
 5999SOL    HW229457   2.430   3.250   8.565 -0.0774  2.7432 -3.2981
 6000SOL     OW29458   4.254   2.221   8.730 -0.0590  0.3347  0.1899
 6000SOL    HW129459   4.347   2.241   8.732 -0.4146  1.5848  4.5711
 6000SOL    HW229460   4.258   2.128   8.707 -0.8400  0.4578 -0.4502
 6001SOL     OW29461   3.255   4.363  12.327  0.7476  0.7603 -0.6066
 6001SOL    HW129462   3.226   4.413  12.403  0.1887  0.9285 -0.9338
 6001SOL    HW229463   3.229   4.416  12.251  1.1217 -2.4054 -2.9417
 6002SOL     OW29464   0.680   1.273  14.621  0.1185 -0.8555  0.6447
 6002SOL    HW129465   0.708   1.333  14.691 -0.4942 -1.0252  1.0393
 6002SOL    HW229466   0.725   1.306  14.544 -1.5970 -1.8325 -0.7684
 6003SOL     OW29467   3.112   3.351   2.908 -0.0017  0.1818 -0.0461
 6003SOL    HW129468   3.163   3.288   2.857 -1.8965 -1.6914  0.3072
 6003SOL    HW229469   3.099   3.426   2.850 -0.0463 -0.0706 -0.3648
 6004SOL     OW29470   1.676   2.296   4.491 -0.2791 -0.2220 -0.1583
 6004SOL    HW129471   1.589   2.331   4.507  0.2151  0.2193  1.5497
 6004SOL    HW229472   1.665   2.248   4.409 -1.4977  1.7342 -1.1363
 6005SOL     OW29473   1.599   4.182   0.421 -0.2073 -0.7941 -0.3497
 6005SOL    HW129474   1.562   4.233   0.348 -1.7860  0.9528  1.6505
 6005SOL    HW229475   1.611   4.247   0.490 -0.4506  0.9677 -1.9656
 6006SOL     OW29476   2.238   4.136  15.975  0.0682 -0.3515  0.4607
 6006SOL    HW129477   2.208   4.064  15.920 -0.7435  0.3930 -0.0740
 6006SOL    HW229478   2.164   4.170  16.025  0.6413 -1.6643  2.1808
 6007SOL     OW29479   2.296   0.800   2.850  0.2416  0.0132 -0.5948
 6007SOL    HW129480   2.339   0.883   2.871 -0.3278  0.3827 -0.9017
 6007SOL    HW229481   2.238   0.844   2.788 -2.9166 -4.9796 -1.2281
 6008SOL     OW29482   2.274   3.737  14.885 -0.1127 -0.5056 -0.1753
 6008SOL    HW129483   2.316   3.775  14.807  0.9502 -0.9987  0.1485
 6008SOL    HW229484   2.186   3.745  14.849 -0.2154 -3.6628 -0.6391
 6009SOL     OW29485   3.679   2.991   8.051 -0.2343 -0.3579  0.7763
 6009SOL    HW129486   3.685   2.896   8.039  2.3990 -0.1931  0.8539
 6009SOL    HW229487   3.592   3.002   8.013 -0.3791 -3.9906  0.0612
 6010SOL     OW29488   2.013   4.033  14.933  0.0776 -0.5947  0.3227
 6010SOL    HW129489   2.050   4.079  15.009  1.1287 -1.1009  0.1161
 6010SOL    HW229490   1.990   4.110  14.882 -0.1617 -0.5351  0.5196
 6011SOL     OW29491   4.148   0.223   2.755 -0.5730  0.5294 -0.5234
 6011SOL    HW129492   4.230   0.258   2.791  0.1527 -0.8897 -0.8052
 6011SOL    HW229493   4.148   0.269   2.671  0.9478  1.8532  0.2022
 6012SOL     OW29494   0.238   2.079   6.778  0.0016  0.3072  0.0421
 6012SOL    HW129495   0.184   2.014   6.820  1.2885  1.6370  3.7709
 6012SOL    HW229496   0.235   2.153   6.839 -0.3310 -0.0441  0.4525
 6013SOL     OW29497   3.315   4.569   6.428  0.2663 -0.1110 -0.4187
 6013SOL    HW129498   3.251   4.500   6.411 -1.9564  1.7078  0.6092
 6013SOL    HW229499   3.275   4.617   6.500 -1.4097 -0.0045 -1.4298
 6014SOL     OW29500   0.292   4.319  10.557 -0.3528  0.2278  0.6365
 6014SOL    HW129501   0.219   4.330  10.618  0.3891  2.9549  1.0339
 6014SOL    HW229502   0.309   4.404  10.515  0.4248  0.4727  1.4384
 6015SOL     OW29503   2.481   2.728   7.226 -0.6237  0.5258  0.1617
 6015SOL    HW129504   2.452   2.701   7.313 -0.9001 -0.2288 -0.1690
 6015SOL    HW229505   2.399   2.708   7.183 -0.6998 -1.0917  1.0585
 6016SOL     OW29506   3.888   3.411   6.547  0.0118  0.1293 -0.5143
 6016SOL    HW129507   3.924   3.344   6.604  0.9457  0.1185 -1.1058
 6016SOL    HW229508   3.909   3.365   6.466  0.8419  1.2663 -0.9561
 6017SOL     OW29509   1.470   1.099  12.433  0.3720  0.3018  0.3332
 6017SOL    HW129510   1.435   1.029  12.488 -0.1505  0.3915  0.1132
 6017SOL    HW229511   1.555   1.092  12.476 -0.1240  1.3343  1.5046
 6018SOL     OW29512   3.371   0.672  12.607  0.1836 -0.1573 -0.2648
 6018SOL    HW129513   3.346   0.749  12.556 -0.4603  0.5976  1.2155
 6018SOL    HW229514   3.294   0.657  12.662  1.8716  1.3995  2.5009
 6019SOL     OW29515   0.800   2.012   7.054 -0.3269 -0.4442  0.3856
 6019SOL    HW129516   0.795   1.993   7.148 -1.6978  0.6161  0.5276
 6019SOL    HW229517   0.820   2.106   7.055 -0.9716 -0.2911 -1.2097
 6020SOL     OW29518   0.033   2.546   0.402 -0.0656  0.0945 -0.3236
 6020SOL    HW129519   0.066   2.572   0.488 -1.1115 -1.9823  0.7122
 6020SOL    HW229520   0.073   2.613   0.347  1.7509  0.5479  1.5308
 6021SOL     OW29521   1.335   3.689   0.119 -0.1448  0.4029  0.1889
 6021SOL    HW129522   1.341   3.712   0.212 -0.6032 -1.0786  0.5777
 6021SOL    HW229523   1.239   3.686   0.109 -0.0850  1.7158 -0.7860
 6022SOL     OW29524   3.439   4.288  16.913 -0.1723 -0.1850 -0.3331
 6022SOL    HW129525   3.424   4.295  17.008 -3.1212  1.0075 -0.8910
 6022SOL    HW229526   3.375   4.219  16.897  1.0256 -1.7451  1.5238
 6023SOL     OW29527   0.013   4.163   5.356  1.1117  0.4222  0.3578
 6023SOL    HW129528   0.043   4.125   5.273  0.2492  1.2351 -0.3337
 6023SOL    HW229529   0.043   4.253   5.347 -0.0146  1.1536  3.8006
 6024SOL     OW29530   0.167   3.856   7.397  0.4218 -0.5818  0.2479
 6024SOL    HW129531   0.214   3.852   7.480  0.3726  0.0609  0.3120
 6024SOL    HW229532   0.123   3.771   7.400  1.0823 -0.8880  1.1096
 6025SOL     OW29533   3.680   1.084  13.667  1.2150 -0.2355 -0.1196
 6025SOL    HW129534   3.752   1.127  13.713  0.9653 -0.4184  0.4436
 6025SOL    HW229535   3.723   1.068  13.584  2.5449 -3.0069  1.1003
 6026SOL     OW29536   2.237   3.362   8.056 -0.0640 -0.4709  0.0029
 6026SOL    HW129537   2.145   3.386   8.042  0.1364  0.3781  0.1626
 6026SOL    HW229538   2.232   3.292   7.990  0.7995 -1.5293  1.0723
 6027SOL     OW29539   1.026   4.222   2.447 -0.8725  0.4356  0.7795
 6027SOL    HW129540   0.934   4.226   2.421 -0.9503 -0.4104  0.9214
 6027SOL    HW229541   1.069   4.236   2.363 -1.6362  2.5174  0.7154
 6028SOL     OW29542   3.157   2.713  10.769  0.0490 -0.4378  0.0633
 6028SOL    HW129543   3.161   2.808  10.770 -0.4127 -0.4235  0.2971
 6028SOL    HW229544   3.127   2.698  10.859  2.7123  1.7717  1.3190
 6029SOL     OW29545   0.503   4.188   2.599 -0.0530 -0.1797  0.4588
 6029SOL    HW129546   0.432   4.148   2.649 -1.8863  0.0433 -1.9756
 6029SOL    HW229547   0.580   4.153   2.644 -0.1859  1.2581  1.7997
 6030SOL     OW29548   3.259   3.521  10.390 -0.7532 -0.1165 -0.0521
 6030SOL    HW129549   3.314   3.565  10.455  0.3707 -0.0391 -1.0554
 6030SOL    HW229550   3.245   3.595  10.332 -0.0583 -0.8889 -1.2111
 6031SOL     OW29551   1.636   3.768  17.028  0.2913 -0.0869  0.1455
 6031SOL    HW129552   1.621   3.686  17.076 -0.0684  0.7339  1.4229
 6031SOL    HW229553   1.732   3.763  17.023  0.4269 -0.1074  2.6438
 6032SOL     OW29554   0.624   2.676   5.830  0.0154  0.0942  0.5071
 6032SOL    HW129555   0.597   2.762   5.863 -0.2970  0.5622 -0.9567
 6032SOL    HW229556   0.675   2.704   5.754 -0.6993  0.3572  0.1275
 6033SOL     OW29557   2.025   4.177   0.605 -0.5859 -0.3200 -0.7059
 6033SOL    HW129558   1.947   4.134   0.637 -0.6969 -1.2793 -2.2349
 6033SOL    HW229559   2.061   4.223   0.681 -0.2747  1.7957 -2.1264
 6034SOL     OW29560   0.062   4.432  16.239 -0.1715  0.3483  0.4103
 6034SOL    HW129561   0.028   4.486  16.167 -1.6693  1.1454  1.7032
 6034SOL    HW229562   0.066   4.503  16.304  0.4342  0.9968 -0.3271
 6035SOL     OW29563   0.016   4.157  11.040  0.0157 -0.1710 -0.2398
 6035SOL    HW129564   4.692   4.174  11.122  1.1410  1.6108  0.0355
 6035SOL    HW229565   0.107   4.172  11.064  0.6450 -0.3169 -2.5509
 6036SOL     OW29566   2.105   2.564   2.834 -0.3020 -0.2352  0.5863
 6036SOL    HW129567   2.166   2.497   2.865 -0.5596 -0.2276  1.1165
 6036SOL    HW229568   2.114   2.622   2.910  2.7541 -0.6737  0.5513
 6037SOL     OW29569   0.203   4.096  12.787  0.6883  0.2461  0.0131
 6037SOL    HW129570   0.279   4.153  12.779  0.3051  0.7192 -0.2977
 6037SOL    HW229571   0.235   4.029  12.727 -0.6204 -0.6430  0.3035
 6038SOL     OW29572   2.964   3.145  15.357 -0.3026  0.3563 -0.5953
 6038SOL    HW129573   3.033   3.210  15.345  0.4958 -0.2720  0.6145
 6038SOL    HW229574   2.897   3.198  15.400 -0.1235 -0.4975  0.7329
 6039SOL     OW29575   3.605   1.436   2.260  0.2236  0.2489 -0.0638
 6039SOL    HW129576   3.649   1.435   2.345  1.0975  0.4481 -0.5179
 6039SOL    HW229577   3.605   1.531   2.244  1.0198  0.4087  0.9176
 6040SOL     OW29578   3.559   3.962  11.536 -0.5007  0.0883 -0.4821
 6040SOL    HW129579   3.494   3.893  11.549 -0.5729 -0.1231 -1.9540
 6040SOL    HW229580   3.516   4.024  11.477 -0.4950 -0.8212 -1.4552
 6041SOL     OW29581   3.520   2.546  10.419  0.2880 -0.2187 -0.0494
 6041SOL    HW129582   3.591   2.609  10.426  0.7896 -0.7801 -0.1323
 6041SOL    HW229583   3.444   2.602  10.435 -0.2437 -0.7328 -0.8000
 6042SOL     OW29584   1.608   0.939  12.791  0.2650  0.2033 -0.1253
 6042SOL    HW129585   1.594   1.014  12.849  0.3239  0.5395 -0.5468
 6042SOL    HW229586   1.702   0.938  12.774  0.2448  2.7983 -0.3222
 6043SOL     OW29587   1.152   3.627  15.581  0.3453  0.7360  0.0562
 6043SOL    HW129588   1.090   3.698  15.597  1.1623  0.9567  2.2683
 6043SOL    HW229589   1.144   3.575  15.660  1.9986  1.6358  0.8381
 6044SOL     OW29590   2.921   1.397  17.142 -0.5852  0.0179  0.0245
 6044SOL    HW129591   2.932   1.437  17.228  1.3249  1.4986 -0.8965
 6044SOL    HW229592   2.980   1.455  17.093  1.4066 -1.2518  0.9020
 6045SOL     OW29593   2.202   2.696  10.390  0.4922 -0.1155 -0.0213
 6045SOL    HW129594   2.253   2.738  10.459  0.1677  0.7270 -0.3000
 6045SOL    HW229595   2.272   2.650  10.343  0.4026  0.4565 -0.7008
 6046SOL     OW29596   0.437   4.271   4.079  0.1276  0.1958  0.5484
 6046SOL    HW129597   0.351   4.240   4.050  0.9372 -2.4237  0.9631
 6046SOL    HW229598   0.455   4.327   4.003  1.0518  0.6687  1.1137
 6047SOL     OW29599   2.350   3.891   1.238 -0.0320  0.3236 -0.4217
 6047SOL    HW129600   2.277   3.923   1.185  0.3957  0.5704 -0.8625
 6047SOL    HW229601   2.302   3.822   1.284  1.0184 -1.2089 -1.6633
 6048SOL     OW29602   2.301   0.506   0.797 -0.2440  0.3881 -0.2788
 6048SOL    HW129603   2.229   0.570   0.796  0.3568  1.0450 -1.8259
 6048SOL    HW229604   2.348   0.526   0.878 -0.9507  0.8771  0.0168
 6049SOL     OW29605   2.576   1.798   7.337 -0.2618 -0.0877 -0.6452
 6049SOL    HW129606   2.507   1.744   7.299 -0.0716 -1.2529  0.6724
 6049SOL    HW229607   2.521   1.836   7.407  1.4427  0.0723  0.6082
 6050SOL     OW29608   1.178   2.224   1.069 -0.3664 -0.0604 -0.0058
 6050SOL    HW129609   1.232   2.211   0.990  0.2733 -0.4215  0.4916
 6050SOL    HW229610   1.233   2.176   1.131 -1.4995 -0.3731  0.7584
 6051SOL     OW29611   2.271   3.429   0.734  0.4092  0.2649 -0.2429
 6051SOL    HW129612   2.289   3.462   0.823 -3.6963  0.1709  0.6515
 6051SOL    HW229613   2.195   3.484   0.715 -1.4860 -2.1141  0.4494
 6052SOL     OW29614   0.040   3.188   2.889  0.1309 -0.1141  0.1620
 6052SOL    HW129615   4.702   3.255   2.858  0.5862  0.2259 -0.0081
 6052SOL    HW229616   4.720   3.160   2.970  0.0988  0.0233  0.1922
 6053SOL     OW29617   3.454   0.257   8.810 -0.3914  0.6181  0.4816
 6053SOL    HW129618   3.461   0.316   8.735  0.9801  2.7117  2.2428
 6053SOL    HW229619   3.361   0.238   8.814 -0.3833  0.6102  0.6457
 6054SOL     OW29620   2.558   3.987  16.581 -0.2126  0.2553 -0.5638
 6054SOL    HW129621   2.462   3.986  16.584 -0.1695 -0.2032  0.8662
 6054SOL    HW229622   2.560   4.076  16.546  3.3092 -0.1498 -1.3325
 6055SOL     OW29623   0.314   1.406   9.303 -0.2977  0.1842  0.3640
 6055SOL    HW129624   0.292   1.481   9.358  0.4563 -1.0655  2.3651
 6055SOL    HW229625   0.305   1.331   9.360 -0.2752 -1.1389 -1.3781
 6056SOL     OW29626   1.664   4.511   8.406  0.1157 -0.4585  0.0921
 6056SOL    HW129627   1.740   4.569   8.411  0.9876 -1.4910 -0.8362
 6056SOL    HW229628   1.697   4.421   8.416 -1.2095 -0.5508  3.4024
 6057SOL     OW29629   1.413   1.054   0.979  0.1365  0.0147 -0.0494
 6057SOL    HW129630   1.445   1.000   0.906  0.7856 -0.6999  0.7603
 6057SOL    HW229631   1.446   1.143   0.963  4.0231 -1.2551  0.8792
 6058SOL     OW29632   0.032   3.476   8.870  0.2817 -0.6397  0.7537
 6058SOL    HW129633   0.097   3.470   8.940  1.0363  0.8624  0.1795
 6058SOL    HW229634   4.700   3.399   8.887 -0.5821 -0.4605 -1.2342
 6059SOL     OW29635   3.786   0.430  11.254  0.0695  0.3698 -0.6971
 6059SOL    HW129636   3.755   0.468  11.172  1.3991 -2.3789 -2.4516
 6059SOL    HW229637   3.812   0.342  11.227  0.0181  0.1404 -0.0084
 6060SOL     OW29638   0.440   4.388   2.796  0.4543 -0.3036 -0.4024
 6060SOL    HW129639   0.420   4.344   2.713 -0.4207 -1.7632  0.5905
 6060SOL    HW229640   0.501   4.455   2.765  0.5722  0.8847  2.4085
 6061SOL     OW29641   3.955   3.389   5.968  0.0877 -0.1567 -0.5556
 6061SOL    HW129642   4.017   3.388   6.041  0.1282  0.5780 -0.5731
 6061SOL    HW229643   4.005   3.337   5.906  1.6223  0.3853  0.2301
 6062SOL     OW29644   3.562   3.948   2.129  0.2999 -0.3510 -0.4369
 6062SOL    HW129645   3.535   3.973   2.041  1.3915  1.3451 -0.2819
 6062SOL    HW229646   3.582   4.033   2.167  0.8361 -0.1984 -1.0523
 6063SOL     OW29647   3.148   3.331  11.952  0.2582 -0.7865  0.0573
 6063SOL    HW129648   3.212   3.301  11.888  1.2077 -0.9574  1.0906
 6063SOL    HW229649   3.134   3.420  11.922 -0.6815 -0.4780  1.3910
 6064SOL     OW29650   0.272   3.214  12.946 -0.5050 -0.0359 -1.0256
 6064SOL    HW129651   0.283   3.161  12.866  3.4584  0.9191 -1.1330
 6064SOL    HW229652   0.357   3.236  12.983 -0.5175 -2.3388  0.3825
 6065SOL     OW29653   0.828   3.496   1.653 -0.2063 -0.3239  0.3546
 6065SOL    HW129654   0.889   3.472   1.584 -1.7174 -0.9643 -0.7699
 6065SOL    HW229655   0.759   3.529   1.595 -0.6037 -0.7921  0.5632
 6066SOL     OW29656   3.192   4.074   4.876  0.0254  0.5339 -0.2460
 6066SOL    HW129657   3.262   4.011   4.855 -0.1291 -0.0460  0.9806
 6066SOL    HW229658   3.171   4.112   4.791 -1.3013 -0.8843 -0.5544
 6067SOL     OW29659   4.522   2.537   4.592 -0.4296 -0.2268  0.3225
 6067SOL    HW129660   4.519   2.599   4.519 -1.0180 -0.7738 -0.1191
 6067SOL    HW229661   4.582   2.574   4.656  0.6194 -0.7978 -0.3432
 6068SOL     OW29662   1.575   1.713   1.821 -0.1962 -0.3390 -0.1440
 6068SOL    HW129663   1.517   1.646   1.785  0.5137 -2.3944  2.5301
 6068SOL    HW229664   1.644   1.718   1.756 -2.2145  2.5704 -2.0518
 6069SOL     OW29665   1.375   4.069   6.113 -0.3856 -0.1178 -1.0299
 6069SOL    HW129666   1.329   4.005   6.167 -0.8072  1.6583  0.7358
 6069SOL    HW229667   1.307   4.100   6.053 -2.9102  1.4008  2.5915
 6070SOL     OW29668   4.138   4.253   3.704  0.2790 -0.3961 -0.0200
 6070SOL    HW129669   4.199   4.188   3.738  1.1399  1.1331  1.3684
 6070SOL    HW229670   4.053   4.215   3.726  0.7624 -2.1341 -1.1244
 6071SOL     OW29671   3.154   2.686   0.847  0.2122  0.1256 -0.0960
 6071SOL    HW129672   3.244   2.680   0.878  0.4332  0.5838 -0.6586
 6071SOL    HW229673   3.124   2.774   0.869  0.5445  0.4276 -0.8663
 6072SOL     OW29674   3.447   0.342   1.748 -0.8469  0.2241 -0.3700
 6072SOL    HW129675   3.398   0.364   1.669  1.3077  0.2797 -1.6885
 6072SOL    HW229676   3.473   0.251   1.738 -1.5090 -0.2252  2.0492
 6073SOL     OW29677   4.158   3.059   3.462  0.1674 -0.1422  0.2304
 6073SOL    HW129678   4.186   2.991   3.523 -0.0198  0.7314  1.3134
 6073SOL    HW229679   4.238   3.066   3.410 -0.5859  2.2880 -0.6371
 6074SOL     OW29680   2.362   1.579   1.251  0.1178 -0.0745  0.0597
 6074SOL    HW129681   2.436   1.549   1.303  2.1500  0.2758 -2.6009
 6074SOL    HW229682   2.391   1.554   1.163 -0.7291  3.9356 -1.3744
 6075SOL     OW29683   1.295   4.054   6.605 -0.2781 -0.3489  0.0022
 6075SOL    HW129684   1.259   4.117   6.667  0.0246 -0.4836  0.3117
 6075SOL    HW229685   1.222   3.993   6.611 -1.4033  0.9874 -0.0759
 6076SOL     OW29686   0.393   0.325   4.909 -0.1453  0.0169  0.3465
 6076SOL    HW129687   0.301   0.318   4.933  0.6559 -0.3017  3.2819
 6076SOL    HW229688   0.428   0.358   4.991  2.9385  0.3447 -1.0880
 6077SOL     OW29689   3.986   0.058   7.497 -0.3861  0.4014 -0.8260
 6077SOL    HW129690   3.980   4.695   7.538 -1.9761  1.0401  0.3089
 6077SOL    HW229691   4.081   0.063   7.494 -0.1426 -2.2425  2.2746
 6078SOL     OW29692   1.409   4.329  11.456 -0.3477 -0.4631  0.2061
 6078SOL    HW129693   1.426   4.385  11.381 -1.8193 -0.0089  0.2124
 6078SOL    HW229694   1.482   4.271  11.433  1.4640  1.4111  1.1965
 6079SOL     OW29695   2.274   2.083   2.823 -0.3801 -0.4864  0.7813
 6079SOL    HW129696   2.310   2.038   2.899  1.9360  2.0520  1.1495
 6079SOL    HW229697   2.339   2.145   2.793 -0.2889 -0.3380  1.2810
 6080SOL     OW29698   2.584   3.555  11.994 -0.2467  0.4566 -0.4399
 6080SOL    HW129699   2.522   3.626  11.976  2.1939  2.2843 -1.5985
 6080SOL    HW229700   2.669   3.597  12.006  0.8048 -2.0040  0.6381
 6081SOL     OW29701   1.344   0.563   5.140 -0.4704  0.4916 -0.0022
 6081SOL    HW129702   1.393   0.643   5.124  1.4754 -0.6754  0.0461
 6081SOL    HW229703   1.420   0.507   5.126 -2.3087 -1.5815 -1.8971
 6082SOL     OW29704   4.501   4.160  16.508 -0.2259  0.1105 -0.0888
 6082SOL    HW129705   4.592   4.188  16.513 -0.6794  2.0591 -2.7802
 6082SOL    HW229706   4.440   4.232  16.529  1.0182  1.4351 -1.0373
 6083SOL     OW29707   4.188   3.309   3.990  0.1477 -0.6518  0.4340
 6083SOL    HW129708   4.134   3.231   3.976  0.3543 -0.7924  0.4176
 6083SOL    HW229709   4.122   3.373   3.965 -1.8396 -1.6547  3.1130
 6084SOL     OW29710   0.703   1.842   2.261 -0.7385 -0.7317 -0.6379
 6084SOL    HW129711   0.787   1.829   2.305  0.1738 -0.8993 -2.4371
 6084SOL    HW229712   0.695   1.753   2.226  0.1393  0.3526 -3.5369
 6085SOL     OW29713   4.411   0.346   7.456  0.2995  0.3675 -0.8232
 6085SOL    HW129714   4.487   0.371   7.404  0.0671  1.5425 -0.5897
 6085SOL    HW229715   4.386   0.261   7.420  0.4903  0.6995 -1.7164
 6086SOL     OW29716   2.446   1.284  14.815 -0.0025  0.4589 -0.0338
 6086SOL    HW129717   2.420   1.197  14.784 -0.2727  0.1012  1.2108
 6086SOL    HW229718   2.500   1.262  14.890  0.4182 -1.4694 -0.8911
 6087SOL     OW29719   0.306   3.309   3.286  0.0436  0.2864 -0.4632
 6087SOL    HW129720   0.291   3.232   3.231 -2.3120  0.1501  0.3783
 6087SOL    HW229721   0.312   3.378   3.220 -0.3012 -1.0084 -1.8608
 6088SOL     OW29722   0.941   1.393   2.980  0.7782  0.0948  0.7650
 6088SOL    HW129723   0.890   1.342   3.043  0.7289  0.2018  0.8123
 6088SOL    HW229724   0.881   1.401   2.906 -0.2462 -0.1328  1.5650
 6089SOL     OW29725   0.304   2.190   6.528  0.1564  0.1669  0.5140
 6089SOL    HW129726   0.269   2.149   6.607 -0.5550  1.3449  0.8061
 6089SOL    HW229727   0.372   2.127   6.503  0.2269  0.9800 -1.2875
 6090SOL     OW29728   1.091   1.950   3.499  0.4536 -0.1626 -0.1381
 6090SOL    HW129729   0.999   1.927   3.493  1.0259 -2.0123 -1.6492
 6090SOL    HW229730   1.093   2.018   3.431 -0.1317 -0.7040 -0.6869
 6091SOL     OW29731   2.094   0.575   3.036  1.0323  0.1898  0.0267
 6091SOL    HW129732   2.103   0.601   2.945 -0.9019  0.1025 -0.1851
 6091SOL    HW229733   2.000   0.594   3.043  1.1475  0.6940  0.1919
 6092SOL     OW29734   0.087   3.342   6.189  0.1377 -0.3531 -0.0253
 6092SOL    HW129735   0.136   3.343   6.106  2.5221 -1.0835  1.3801
 6092SOL    HW229736   0.000   3.364   6.155  0.9693 -0.4444 -2.2378
 6093SOL     OW29737   4.584   3.803  13.293  0.2580  0.7628 -0.1037
 6093SOL    HW129738   4.534   3.735  13.248  2.5095 -1.7584  1.1803
 6093SOL    HW229739   4.592   3.853  13.212 -0.4483 -1.1504 -1.3491
 6094SOL     OW29740   4.522   1.863  13.179 -0.1976  0.2624 -0.1466
 6094SOL    HW129741   4.466   1.848  13.103 -2.1378 -0.6008  1.4742
 6094SOL    HW229742   4.528   1.959  13.178 -0.3746  0.2775  0.6996
 6095SOL     OW29743   4.510   2.428   7.529  0.4214  0.1576 -0.3008
 6095SOL    HW129744   4.559   2.420   7.447  1.3040  1.4957  0.1156
 6095SOL    HW229745   4.582   2.448   7.588  0.9998  0.4224 -1.0881
 6096SOL     OW29746   0.504   1.850   4.699 -0.3723  0.0469  0.0252
 6096SOL    HW129747   0.569   1.801   4.749  0.8487  1.0163 -0.6145
 6096SOL    HW229748   0.485   1.780   4.637 -1.2034  0.8661 -0.6406
 6097SOL     OW29749   1.063   2.638   8.146  0.1386  0.6447  0.7363
 6097SOL    HW129750   1.007   2.626   8.222 -1.4824  1.4893 -0.3189
 6097SOL    HW229751   0.996   2.665   8.082  0.8842  1.3536  0.2593
 6098SOL     OW29752   2.507   2.492   3.615  0.0776  0.1873 -0.6955
 6098SOL    HW129753   2.563   2.557   3.572  0.5814  0.1572 -0.0971
 6098SOL    HW229754   2.422   2.514   3.578 -0.8353 -0.9937  0.6997
 6099SOL     OW29755   1.651   3.152  12.512  0.7560 -0.2330  0.4247
 6099SOL    HW129756   1.707   3.134  12.587 -0.5291  0.4877  1.5540
 6099SOL    HW229757   1.568   3.123  12.550  1.3015 -0.1762  1.6372
 6100SOL     OW29758   3.171   3.257  10.156 -0.2041  0.0631 -0.0440
 6100SOL    HW129759   3.106   3.326  10.146 -0.8195 -0.3552  1.0598
 6100SOL    HW229760   3.190   3.240  10.064  0.2081 -0.0861  0.0690
 6101SOL     OW29761   1.795   2.384   4.208 -0.4175  0.1816 -0.6905
 6101SOL    HW129762   1.756   2.301   4.236  0.3786 -0.4927 -1.5610
 6101SOL    HW229763   1.716   2.439   4.209 -0.8655 -0.4953  1.1754
 6102SOL     OW29764   0.237   4.483   2.529  0.0268  0.5628  0.0333
 6102SOL    HW129765   0.162   4.476   2.469 -0.4149 -0.5420  0.7083
 6102SOL    HW229766   0.208   4.460   2.617 -0.6514  1.2921 -0.0033
 6103SOL     OW29767   3.920   3.488   4.177  0.1828  0.8352 -0.5555
 6103SOL    HW129768   3.915   3.479   4.082  0.9694  1.8370 -0.6901
 6103SOL    HW229769   3.867   3.567   4.190 -0.8368  0.1104 -0.3560
 6104SOL     OW29770   0.424   3.338   3.907 -0.4078 -0.1263  0.1294
 6104SOL    HW129771   0.478   3.259   3.907 -0.6466 -0.2912  0.4572
 6104SOL    HW229772   0.467   3.394   3.843  0.7957 -2.2870 -0.9455
 6105SOL     OW29773   1.989   1.004   6.323  0.0091  0.1451 -0.8761
 6105SOL    HW129774   1.976   0.982   6.415 -0.8827 -0.3484 -1.1194
 6105SOL    HW229775   1.897   0.995   6.298 -0.8949 -0.2314  2.6430
 6106SOL     OW29776   3.946   2.853  15.680  0.0855  0.0332 -0.0533
 6106SOL    HW129777   3.986   2.939  15.675  0.6021 -0.2099 -0.1015
 6106SOL    HW229778   3.864   2.861  15.632  0.0327  0.2180  0.0696
 6107SOL     OW29779   4.417   3.926   6.732  0.0920 -0.1571  0.1881
 6107SOL    HW129780   4.336   3.957   6.773  0.0053  0.0070 -0.0992
 6107SOL    HW229781   4.386   3.851   6.682  0.1347 -0.8490  1.2027
 6108SOL     OW29782   1.297   2.584   6.585  0.2450 -0.2659  0.7142
 6108SOL    HW129783   1.353   2.603   6.510 -1.1740 -0.1357 -0.2977
 6108SOL    HW229784   1.263   2.497   6.568 -0.8778  0.3951 -0.3976
 6109SOL     OW29785   4.467   2.218   5.760  0.1025 -0.0428 -0.6252
 6109SOL    HW129786   4.497   2.166   5.835 -1.3776  0.1920  0.1538
 6109SOL    HW229787   4.372   2.215   5.778  0.5296  1.3289  1.9369
 6110SOL     OW29788   0.322   0.247  13.062  0.1515  0.5500  0.5442
 6110SOL    HW129789   0.378   0.181  13.020 -0.4036 -0.2687  1.0928
 6110SOL    HW229790   0.325   0.228  13.155 -1.6155 -0.8411  0.3083
 6111SOL     OW29791   3.635   2.216   8.077  0.0068  0.3336 -0.2171
 6111SOL    HW129792   3.714   2.232   8.025  0.3092  1.5814  0.6213
 6111SOL    HW229793   3.593   2.295   8.044 -1.7350 -0.0575  1.0607
 6112SOL     OW29794   2.928   4.122   4.222 -0.5047  0.1789 -0.0842
 6112SOL    HW129795   2.924   4.162   4.135 -2.0457  4.1949  1.8651
 6112SOL    HW229796   2.985   4.047   4.204  1.4682  1.8623 -0.8492
 6113SOL     OW29797   0.241   0.172   7.923 -0.2186 -0.5380 -0.3951
 6113SOL    HW129798   0.294   0.143   7.997 -1.5270  0.2294  0.8226
 6113SOL    HW229799   0.308   0.200   7.860 -2.3437  1.8949 -1.5577
 6114SOL     OW29800   3.780   1.137   2.217 -1.1882 -0.0277 -0.0680
 6114SOL    HW129801   3.728   1.162   2.294  0.0274 -0.8604  1.0248
 6114SOL    HW229802   3.746   1.199   2.152 -0.5832  1.1724  0.7631
 6115SOL     OW29803   4.515   2.034  16.544 -0.3194 -0.1564  0.3489
 6115SOL    HW129804   4.552   1.968  16.484 -1.3298 -0.5201  0.1204
 6115SOL    HW229805   4.584   2.032  16.610 -0.5354 -1.7491  0.5258
 6116SOL     OW29806   0.020   2.188   3.427  0.5123 -0.0792 -0.3603
 6116SOL    HW129807   0.105   2.180   3.383  2.7017 -0.2425  3.8961
 6116SOL    HW229808   4.680   2.190   3.356  1.5818 -0.2358 -1.3086
 6117SOL     OW29809   3.071   0.645   2.588  0.0194 -0.2268 -0.5381
 6117SOL    HW129810   3.026   0.634   2.672  1.4047  1.5996  0.4308
 6117SOL    HW229811   3.009   0.597   2.533 -0.1535  1.6377 -1.9435
 6118SOL     OW29812   0.430   2.227  13.798  0.6132  0.1817 -0.1264
 6118SOL    HW129813   0.485   2.237  13.876 -2.3400 -1.5431  2.1618
 6118SOL    HW229814   0.495   2.187  13.741  0.2267 -0.3841 -0.1665
 6119SOL     OW29815   2.648   2.115  13.322 -0.0322  0.2515  0.3055
 6119SOL    HW129816   2.708   2.187  13.344 -0.0738  1.8419 -4.6280
 6119SOL    HW229817   2.567   2.152  13.357 -0.7370 -1.4766  0.4970
 6120SOL     OW29818   1.505   3.770   6.056 -0.0514 -0.0375  0.1744
 6120SOL    HW129819   1.453   3.738   6.130 -0.0959  1.4407  0.7772
 6120SOL    HW229820   1.483   3.862   6.044  0.2094  0.0236  0.1564
 6121SOL     OW29821   4.716   0.801   5.153 -0.0743  0.1544 -0.2101
 6121SOL    HW129822   0.038   0.738   5.096 -0.6273 -0.5327  0.1084
 6121SOL    HW229823   4.653   0.739   5.191  0.9529 -0.2124  0.9063
 6122SOL     OW29824   1.909   2.214   0.028 -0.0479  0.3344  0.6194
 6122SOL    HW129825   1.971   2.267   0.078  0.0772 -0.0793  0.9032
 6122SOL    HW229826   1.896   2.147   0.095 -1.2432 -0.4200 -0.3682
 6123SOL     OW29827   3.239   4.593   0.697  0.2095  0.0073 -0.0554
 6123SOL    HW129828   3.172   4.561   0.757 -0.4243  0.4363 -0.5364
 6123SOL    HW229829   3.319   4.595   0.749 -0.3573 -0.2305  0.8246
 6124SOL     OW29830   0.067   2.529   4.175 -0.6195 -0.3946  0.6345
 6124SOL    HW129831   0.072   2.434   4.169  1.0373 -0.0579 -3.5555
 6124SOL    HW229832   0.067   2.540   4.080  2.4776  0.8281  0.7809
 6125SOL     OW29833   4.234   3.073   1.837  0.0090 -0.4810  0.2042
 6125SOL    HW129834   4.323   3.073   1.802 -0.2317  0.6400 -0.4186
 6125SOL    HW229835   4.210   2.981   1.837  0.9559 -0.7240 -3.7972
 6126SOL     OW29836   2.539   2.421   5.660 -1.0349  0.6276 -0.2587
 6126SOL    HW129837   2.551   2.469   5.741 -1.7343 -1.8708  1.3067
 6126SOL    HW229838   2.510   2.491   5.601  2.5252  0.6152 -2.0099
 6127SOL     OW29839   0.925   1.170   1.320 -0.4569  0.2878 -0.6486
 6127SOL    HW129840   0.844   1.152   1.271  0.3067  0.0794 -1.8356
 6127SOL    HW229841   0.914   1.264   1.307 -2.4356  0.3241  1.2288
 6128SOL     OW29842   4.570   2.594  12.892  0.1706 -0.3605 -0.3577
 6128SOL    HW129843   4.552   2.500  12.893  1.8684 -0.6763  0.5313
 6128SOL    HW229844   4.665   2.587  12.890  0.3193  1.7159 -0.6032
 6129SOL     OW29845   4.493   0.454   5.906 -0.3927  0.2103  0.7092
 6129SOL    HW129846   4.406   0.419   5.927 -0.6052  0.3512  0.0711
 6129SOL    HW229847   4.474   0.547   5.890 -2.2628 -0.4236 -0.7330
 6130SOL     OW29848   3.881   0.710   1.583  0.1323  0.3080 -0.0318
 6130SOL    HW129849   3.926   0.637   1.624 -0.3052 -0.2936 -0.6179
 6130SOL    HW229850   3.790   0.695   1.609  0.6463 -0.8592  1.1017
 6131SOL     OW29851   1.676   4.473   4.634 -0.7492  0.5477 -0.4130
 6131SOL    HW129852   1.609   4.429   4.582 -0.0173  1.8998 -2.5429
 6131SOL    HW229853   1.709   4.406   4.693  0.3407  1.4549  0.0142
 6132SOL     OW29854   0.510   2.323   6.737 -0.3529  0.2385 -0.4094
 6132SOL    HW129855   0.520   2.405   6.786 -0.9530 -1.4545  2.5643
 6132SOL    HW229856   0.462   2.346   6.658 -1.2368  1.4519  0.4741
 6133SOL     OW29857   1.711   2.918   4.630  0.3942  0.1174 -0.2136
 6133SOL    HW129858   1.768   2.841   4.624  0.4581  0.2160 -0.9873
 6133SOL    HW229859   1.750   2.963   4.704 -0.1910  1.4427 -0.7114
 6134SOL     OW29860   0.441   1.001   9.435  0.5529 -0.3300  0.2964
 6134SOL    HW129861   0.511   0.990   9.500 -0.9196  1.2005  2.1367
 6134SOL    HW229862   0.396   1.084   9.451 -2.1008 -1.6480 -0.4254
 6135SOL     OW29863   2.218   3.790  16.944 -0.6168  0.4871 -0.4506
 6135SOL    HW129864   2.218   3.702  16.982  1.5327  0.8453  0.4362
 6135SOL    HW229865   2.211   3.767  16.852 -2.8079  1.0414 -0.4152
 6136SOL     OW29866   4.311   3.878   5.556 -0.0535 -0.1020  0.6114
 6136SOL    HW129867   4.373   3.816   5.517  1.6160  1.9792 -0.1012
 6136SOL    HW229868   4.253   3.818   5.603 -0.9634  0.1688 -0.1733
 6137SOL     OW29869   2.847   4.390  11.792  0.4270  0.3101 -0.3790
 6137SOL    HW129870   2.764   4.411  11.835 -0.2684  0.1454 -1.6517
 6137SOL    HW229871   2.822   4.407  11.702 -0.3443 -1.2445 -0.4634
 6138SOL     OW29872   3.207   3.606   1.704 -0.6974  0.2987 -0.4911
 6138SOL    HW129873   3.113   3.624   1.711 -0.3704  1.7310  0.3189
 6138SOL    HW229874   3.221   3.572   1.793  1.8875  2.5685 -0.0207
 6139SOL     OW29875   0.818   2.368  13.658 -0.4299 -0.5112  0.6194
 6139SOL    HW129876   0.756   2.437  13.682 -0.1778  0.7110 -2.3254
 6139SOL    HW229877   0.817   2.381  13.564  4.3306 -1.2274  0.4979
 6140SOL     OW29878   1.471   4.021  16.691  1.0802  0.5230  0.3114
 6140SOL    HW129879   1.486   4.021  16.596 -1.2096  1.1538 -0.0408
 6140SOL    HW229880   1.481   3.926  16.703 -0.5955  0.1807 -0.9720
 6141SOL     OW29881   0.100   4.384   5.275  0.2756  0.2376 -0.2308
 6141SOL    HW129882   0.188   4.386   5.313 -0.5227  0.3448  1.6188
 6141SOL    HW229883   0.119   4.388   5.181 -2.3601 -1.6676 -0.8337
 6142SOL     OW29884   1.804   3.301  11.748 -0.1921  0.3317  0.2522
 6142SOL    HW129885   1.770   3.219  11.712 -0.4673  0.2492  0.6994
 6142SOL    HW229886   1.729   3.321  11.804 -0.6010  0.1342 -0.2198
 6143SOL     OW29887   4.031   1.106   7.795 -0.1070  0.2063 -0.2126
 6143SOL    HW129888   3.982   1.054   7.731  0.6852  0.4280 -0.9897
 6143SOL    HW229889   4.116   1.061   7.796 -0.1110  0.2500  1.6494
 6144SOL     OW29890   1.810   1.456   6.931  0.4045  0.0400 -0.1434
 6144SOL    HW129891   1.897   1.448   6.891  0.7195  0.6258  0.4239
 6144SOL    HW229892   1.821   1.531   6.990 -1.0291 -0.3670  0.6432
 6145SOL     OW29893   3.587   2.914   8.336 -0.4307  0.3161  0.2934
 6145SOL    HW129894   3.530   2.975   8.382 -1.3872 -0.4765  0.1569
 6145SOL    HW229895   3.522   2.856   8.295 -1.4295  0.7093  1.3327
 6146SOL     OW29896   0.018   0.318   8.775 -0.0479  0.0351 -0.2114
 6146SOL    HW129897   0.101   0.326   8.822 -0.4541  2.4344  0.1154
 6146SOL    HW229898   0.031   0.387   8.710  0.1572  0.5700  0.3912
 6147SOL     OW29899   1.422   0.473   2.044  0.1187  0.5489  0.1515
 6147SOL    HW129900   1.363   0.407   2.080  1.1230 -0.1561  0.5064
 6147SOL    HW229901   1.418   0.451   1.951 -0.7057 -0.3922  0.4136
 6148SOL     OW29902   1.410   3.603   9.275 -0.4088 -0.1025  0.1702
 6148SOL    HW129903   1.316   3.587   9.285 -0.5727 -0.3861 -1.8578
 6148SOL    HW229904   1.437   3.636   9.361 -0.5969  1.5952 -0.4037
 6149SOL     OW29905   0.584   1.985   8.569  0.2300  0.1889  0.2445
 6149SOL    HW129906   0.491   1.960   8.570 -0.6928  3.6929  0.3136
 6149SOL    HW229907   0.586   1.994   8.664 -1.2133 -1.3880  0.4309
 6150SOL     OW29908   3.715   2.387  16.985 -0.2278 -0.1501 -0.1288
 6150SOL    HW129909   3.788   2.368  16.926  0.2377  3.1228 -0.6216
 6150SOL    HW229910   3.681   2.468  16.947 -1.1202 -0.5496 -0.1783
 6151SOL     OW29911   0.573   3.451  13.841  0.1561  0.8352 -0.5045
 6151SOL    HW129912   0.558   3.535  13.797 -0.8202  0.0197 -1.7734
 6151SOL    HW229913   0.520   3.398  13.781  0.5862 -0.1345 -0.0125
 6152SOL     OW29914   1.212   3.835   2.123  0.4308  0.0283  0.1823
 6152SOL    HW129915   1.264   3.784   2.060 -2.7496 -1.2822 -1.3768
 6152SOL    HW229916   1.121   3.832   2.092  0.3612  1.8368  0.2083
 6153SOL     OW29917   3.007   2.742   8.091  0.2044 -0.2012 -0.4546
 6153SOL    HW129918   3.086   2.794   8.107 -1.0085  1.7760 -0.7654
 6153SOL    HW229919   2.936   2.804   8.108 -0.5426 -1.2610  0.2796
 6154SOL     OW29920   3.309   3.152  15.694 -0.4605  0.4882 -0.3663
 6154SOL    HW129921   3.244   3.091  15.658  0.2730 -0.3953 -0.2026
 6154SOL    HW229922   3.359   3.178  15.616  0.6481  1.5375  0.6999
 6155SOL     OW29923   2.577   0.025   5.553 -0.2834  0.4795  0.1307
 6155SOL    HW129924   2.648   4.691   5.527  0.2822 -0.2074  3.1450
 6155SOL    HW229925   2.609   0.107   5.514 -2.0984  1.0143 -0.2404
 6156SOL     OW29926   0.576   1.208  12.617  0.2926 -0.3484 -0.1563
 6156SOL    HW129927   0.558   1.129  12.566  0.3278 -0.5436  0.1358
 6156SOL    HW229928   0.667   1.217  12.591  0.2958  2.2070  0.7852
 6157SOL     OW29929   1.487   0.679   1.449 -0.0624 -0.0747 -0.0616
 6157SOL    HW129930   1.565   0.687   1.504  0.0410 -1.1720 -0.0427
 6157SOL    HW229931   1.414   0.673   1.511 -0.6743 -0.2012 -0.7937
 6158SOL     OW29932   1.020   3.467   4.702 -0.1771 -0.1035 -0.1284
 6158SOL    HW129933   0.998   3.389   4.753  0.8386 -1.3877 -1.6580
 6158SOL    HW229934   0.943   3.523   4.690  0.0595  0.1658 -0.3777
 6159SOL     OW29935   1.610   4.103   3.042 -0.4125  0.3741  0.4348
 6159SOL    HW129936   1.705   4.096   3.048 -0.5933 -2.4021  0.0780
 6159SOL    HW229937   1.578   4.015   3.057 -1.0182  0.3096 -1.1688
 6160SOL     OW29938   1.183   1.965   7.213  0.4290  0.2453 -0.1958
 6160SOL    HW129939   1.215   1.920   7.291 -2.8527  0.6399  1.3644
 6160SOL    HW229940   1.117   2.023   7.250 -2.2489 -1.2037 -2.6813
 6161SOL     OW29941   0.660   4.574   7.887 -0.3120 -0.5146 -0.2953
 6161SOL    HW129942   0.583   4.517   7.891  0.2137 -1.1297  0.9642
 6161SOL    HW229943   0.730   4.509   7.879 -0.8752 -1.1414 -0.1021
 6162SOL     OW29944   0.953   3.429   2.375 -0.6603 -0.4309  0.3126
 6162SOL    HW129945   0.981   3.419   2.284  0.0224 -1.2356  0.6139
 6162SOL    HW229946   0.919   3.518   2.373  2.2238  0.6572 -0.3594
 6163SOL     OW29947   4.599   4.139   6.347  0.2125  0.3016  0.2545
 6163SOL    HW129948   4.638   4.143   6.434 -0.5785 -0.7919  0.6561
 6163SOL    HW229949   4.527   4.201   6.358 -0.4406 -0.5624  0.8243
 6164SOL     OW29950   1.727   3.051   3.833 -0.0311 -0.1211  0.0629
 6164SOL    HW129951   1.807   3.102   3.822  0.7754 -0.9003  2.3982
 6164SOL    HW229952   1.680   3.073   3.752  3.5712  0.1128 -1.9332
 6165SOL     OW29953   3.596   3.517   2.208 -0.3314 -0.2684 -1.0073
 6165SOL    HW129954   3.529   3.460   2.170 -2.0371 -1.5830  4.0445
 6165SOL    HW229955   3.675   3.489   2.163  2.4678  3.0826  1.8315
 6166SOL     OW29956   2.845   3.305   7.833  0.0241  0.2974  0.5343
 6166SOL    HW129957   2.849   3.400   7.844  0.2271  0.4133 -0.5840
 6166SOL    HW229958   2.756   3.276   7.852 -0.0814  1.6530  2.1831
 6167SOL     OW29959   4.675   1.668  10.557  0.2342 -0.4468 -0.2378
 6167SOL    HW129960   4.626   1.748  10.544  0.3017 -0.3222  0.2699
 6167SOL    HW229961   4.613   1.618  10.610 -1.8479  0.2881 -2.0020
 6168SOL     OW29962   1.823   4.154   0.767 -0.2959  0.6600  0.2973
 6168SOL    HW129963   1.771   4.192   0.838 -2.1164  2.0705 -1.7820
 6168SOL    HW229964   1.778   4.206   0.700  3.4023  0.9531 -1.9253
 6169SOL     OW29965   0.029   0.113   8.512  0.2268  0.0021  0.0422
 6169SOL    HW129966   0.117   0.144   8.533  0.6147 -0.5849 -0.7023
 6169SOL    HW229967   0.051   0.020   8.518 -0.5625 -0.0370  2.0731
 6170SOL     OW29968   4.266   2.256   6.743 -0.4232 -0.0682 -0.6924
 6170SOL    HW129969   4.350   2.211   6.751 -0.9575 -1.2852 -1.8316
 6170SOL    HW229970   4.204   2.195   6.783  0.3905 -1.1925 -1.1417
 6171SOL     OW29971   0.358   4.022   1.119 -0.1816  0.2587 -0.2644
 6171SOL    HW129972   0.328   3.961   1.187 -1.5010 -0.9843 -1.9520
 6171SOL    HW229973   0.274   4.051   1.083 -1.0603 -0.1284  1.4878
 6172SOL     OW29974   2.221   2.771   9.695  0.3878 -0.0810  0.2749
 6172SOL    HW129975   2.219   2.854   9.647 -1.1025 -0.3948 -0.2197
 6172SOL    HW229976   2.134   2.738   9.673  1.1827 -0.4233 -2.2821
 6173SOL     OW29977   1.548   3.734  13.350  0.3738  0.2971  0.4733
 6173SOL    HW129978   1.615   3.679  13.390  2.1162  1.3431 -1.0540
 6173SOL    HW229979   1.506   3.671  13.291  0.4276 -0.1319  0.8927
 6174SOL     OW29980   2.991   1.540   3.172  0.2534 -0.0826 -0.0959
 6174SOL    HW129981   2.915   1.594   3.193 -0.6550 -1.4691  0.2185
 6174SOL    HW229982   2.971   1.490   3.092  0.4903 -2.8535  1.5564
 6175SOL     OW29983   4.058   0.701  15.976 -0.3826  0.1862  0.0549
 6175SOL    HW129984   4.038   0.794  15.971  0.0021  0.1598 -1.7718
 6175SOL    HW229985   4.143   0.698  15.932 -0.0712  0.7254  0.6302
 6176SOL     OW29986   3.867   1.654   4.266  0.0068 -0.3094 -0.2930
 6176SOL    HW129987   3.928   1.665   4.193  1.8600 -4.2213  0.6720
 6176SOL    HW229988   3.829   1.570   4.242 -0.9210  0.4900 -1.6112
 6177SOL     OW29989   0.170   3.579   6.369 -0.1962  0.4461  0.1663
 6177SOL    HW129990   0.088   3.593   6.416 -1.8460 -2.3427 -1.8748
 6177SOL    HW229991   0.150   3.506   6.310 -0.2063 -0.0123  0.7371
 6178SOL     OW29992   3.956   4.393   8.993  0.3235 -0.5538 -0.3443
 6178SOL    HW129993   4.022   4.325   9.006  0.6805 -0.0907  0.3050
 6178SOL    HW229994   3.990   4.456   8.930 -0.0712  0.4077  0.3786
 6179SOL     OW29995   1.542   1.995   5.740 -0.1481  0.1748 -0.2256
 6179SOL    HW129996   1.480   1.977   5.810  0.0640  1.2963  0.2534
 6179SOL    HW229997   1.487   2.048   5.682 -0.2207  0.4532  0.1012
 6180SOL     OW29998   2.497   3.709   5.097 -0.2066 -0.9890  0.1649
 6180SOL    HW129999   2.467   3.756   5.175  0.2711  0.0908 -0.3021
 6180SOL    HW230000   2.561   3.645   5.128 -0.1749 -1.5376 -1.0201
 6181SOL     OW30001   0.867   3.292   4.339 -0.5845  0.3032 -0.0064
 6181SOL    HW130002   0.812   3.278   4.416 -1.2567 -0.9808 -0.7234
 6181SOL    HW230003   0.857   3.381   4.306 -2.3134  0.2308  0.3401
 6182SOL     OW30004   2.861   4.427   5.259 -0.2845  0.1077  0.7295
 6182SOL    HW130005   2.837   4.461   5.173  1.1337 -1.0944 -0.1530
 6182SOL    HW230006   2.785   4.373   5.282  1.7327 -2.9416  0.3114
 6183SOL     OW30007   0.146   3.200   3.858  0.3050  0.1894 -0.0599
 6183SOL    HW130008   0.138   3.124   3.916 -2.4428  0.6708  0.1805
 6183SOL    HW230009   0.239   3.211   3.877 -0.0443  1.3330  0.9711
 6184SOL     OW30010   3.172   4.179  14.914  0.1024  0.5793 -0.4845
 6184SOL    HW130011   3.175   4.227  14.831  1.7354  2.0212  0.3905
 6184SOL    HW230012   3.255   4.211  14.949  1.0543 -2.1623 -0.2977
 6185SOL     OW30013   3.894   2.986  13.511  0.0714 -0.2023 -0.0110
 6185SOL    HW130014   3.854   3.064  13.550 -2.5940  0.0079 -3.1151
 6185SOL    HW230015   3.816   2.933  13.492 -0.9913  1.2998  0.0918
 6186SOL     OW30016   3.150   2.396   0.817 -0.2774  0.1935  0.5876
 6186SOL    HW130017   3.160   2.490   0.802 -1.7018  0.4354  1.1745
 6186SOL    HW230018   3.132   2.411   0.910 -1.2232  3.1627 -0.0717
 6187SOL     OW30019   2.249   0.010   6.397  0.7005  0.3934 -0.4529
 6187SOL    HW130020   2.344   0.008   6.406  0.8844  3.3850 -1.5029
 6187SOL    HW230021   2.222   0.084   6.451 -1.7836 -0.0788 -1.0624
 6188SOL     OW30022   1.769   3.564  13.404  0.3012  0.1904 -0.3484
 6188SOL    HW130023   1.789   3.494  13.466 -1.0403 -0.4524 -0.6372
 6188SOL    HW230024   1.823   3.540  13.328  0.8583 -0.7453  0.3444
 6189SOL     OW30025   1.960   1.047   5.764 -0.1737  1.1281 -0.1888
 6189SOL    HW130026   1.968   1.142   5.774 -0.8338  0.7179  4.1695
 6189SOL    HW230027   1.867   1.037   5.747 -0.0965 -0.3649  0.2644
 6190SOL     OW30028   0.388   3.629   8.712  0.1364 -0.6421  0.0501
 6190SOL    HW130029   0.462   3.585   8.751 -0.1790 -0.1797  1.1709
 6190SOL    HW230030   0.415   3.715   8.744  0.1857 -0.1083 -1.3787
 6191SOL     OW30031   0.115   4.183   1.624  0.7332 -0.3247  0.0628
 6191SOL    HW130032   0.042   4.190   1.563  0.6013  0.1382  0.2704
 6191SOL    HW230033   0.194   4.205   1.574 -1.7046 -0.5983 -3.8507
 6192SOL     OW30034   1.304   1.004   0.577  0.2186  0.0571  0.5144
 6192SOL    HW130035   1.217   1.029   0.608 -0.3182 -0.0798 -0.8854
 6192SOL    HW230036   1.281   0.970   0.491 -1.0331  0.9634  0.4927
 6193SOL     OW30037   3.408   0.936   0.992  0.0959 -0.4305  0.1101
 6193SOL    HW130038   3.420   0.940   0.897 -1.6939 -0.0098 -0.1010
 6193SOL    HW230039   3.316   0.959   1.002 -0.4760 -1.5454 -2.7222
 6194SOL     OW30040   0.682   1.655   7.122 -0.8399 -0.0407  0.0842
 6194SOL    HW130041   0.684   1.561   7.103 -0.9944 -0.2634  1.1830
 6194SOL    HW230042   0.767   1.668   7.164 -0.9866  0.2150  0.2988
 6195SOL     OW30043   4.125   0.836   9.360  0.5026 -0.2850 -0.2664
 6195SOL    HW130044   4.111   0.763   9.421  0.0493 -0.1842 -0.2552
 6195SOL    HW230045   4.172   0.789   9.291 -1.3834 -1.3938 -0.7707
 6196SOL     OW30046   1.779   3.732   3.004 -0.0971 -0.0136 -0.4693
 6196SOL    HW130047   1.858   3.758   3.051 -0.9938  0.3174  0.8605
 6196SOL    HW230048   1.708   3.783   3.043  1.5579  1.1997  0.9773
 6197SOL     OW30049   0.782   3.288   7.182 -0.6818 -0.0444  0.7866
 6197SOL    HW130050   0.804   3.294   7.089 -1.2627 -1.6383  0.5547
 6197SOL    HW230051   0.693   3.324   7.185 -0.9292 -0.5901 -0.0672
 6198SOL     OW30052   0.269   2.378   8.898 -0.2370  0.3584 -0.2378
 6198SOL    HW130053   0.242   2.312   8.962 -0.8318  1.0130  0.1770
 6198SOL    HW230054   0.187   2.418   8.872 -0.5052 -2.0912 -3.2077
 6199SOL     OW30055   4.380   1.043   5.425 -0.0865 -0.5448 -0.1892
 6199SOL    HW130056   4.419   1.103   5.488 -0.8114  1.2388 -1.4527
 6199SOL    HW230057   4.306   1.095   5.394  0.4831  1.4468  1.8588
 6200SOL     OW30058   4.101   2.321  10.165  0.3726  0.2571  0.4997
 6200SOL    HW130059   4.025   2.373  10.191  0.2162 -0.5392  1.6516
 6200SOL    HW230060   4.120   2.274  10.247  0.0071  1.8046  1.4723
 6201SOL     OW30061   0.706   2.791   5.185 -0.1072  0.1162  0.1676
 6201SOL    HW130062   0.615   2.781   5.159 -0.3836 -0.0691  1.1880
 6201SOL    HW230063   0.710   2.884   5.209  0.4830  0.2930 -0.6148
 6202SOL     OW30064   0.742   1.751   3.180 -0.2538 -0.3834 -0.0037
 6202SOL    HW130065   0.685   1.734   3.255 -1.2325  2.6292 -0.0808
 6202SOL    HW230066   0.694   1.713   3.106 -0.4129 -0.3792  0.0987
 6203SOL     OW30067   1.544   1.374   4.189  0.3182  0.6699  0.7580
 6203SOL    HW130068   1.509   1.350   4.104 -1.5878 -2.1308  2.3280
 6203SOL    HW230069   1.530   1.469   4.187 -0.9369  0.4717 -0.1610
 6204SOL     OW30070   1.865   1.119   3.370  0.7311 -0.1996  0.2389
 6204SOL    HW130071   1.821   1.063   3.306 -0.7383  1.4356 -0.2073
 6204SOL    HW230072   1.933   1.165   3.319 -1.7312 -0.1525 -2.9916
 6205SOL     OW30073   3.461   3.987   6.375 -0.2933  0.2807  0.3335
 6205SOL    HW130074   3.477   4.070   6.331 -0.2240 -0.1375 -0.4206
 6205SOL    HW230075   3.545   3.974   6.419 -0.9536 -1.8720  0.9645
 6206SOL     OW30076   0.629   2.897   2.804  0.7917 -0.0885  0.1929
 6206SOL    HW130077   0.557   2.960   2.807  1.0686  0.2878 -1.2105
 6206SOL    HW230078   0.698   2.954   2.768 -0.1659 -0.1688 -1.7584
 6207SOL     OW30079   0.978   0.788   5.722  0.0997 -0.4436  0.2200
 6207SOL    HW130080   0.966   0.693   5.721 -0.3926 -0.3662 -0.7543
 6207SOL    HW230081   1.073   0.798   5.717 -0.1768  1.0033 -2.4008
 6208SOL     OW30082   2.863   4.416  10.302  0.2953  0.0934 -0.1572
 6208SOL    HW130083   2.817   4.479  10.246 -0.3438 -0.4728 -0.2634
 6208SOL    HW230084   2.832   4.440  10.389 -0.2112  1.5503 -0.7388
 6209SOL     OW30085   3.248   3.350   4.581  0.1141 -0.4458 -0.0047
 6209SOL    HW130086   3.243   3.432   4.532 -0.1442 -0.5784 -0.1983
 6209SOL    HW230087   3.286   3.388   4.660 -0.9311 -0.8347  0.6738
 6210SOL     OW30088   0.251   1.094   4.479  0.4792 -0.2260  0.2128
 6210SOL    HW130089   0.338   1.133   4.491  0.2308  0.3126  0.2744
 6210SOL    HW230090   0.240   1.043   4.559  2.2603 -0.0056  0.6023
 6211SOL     OW30091   3.677   0.450   3.045  0.2359  0.1314  0.3063
 6211SOL    HW130092   3.681   0.396   3.123  2.0044  0.8677  0.7376
 6211SOL    HW230093   3.745   0.516   3.060  0.6026 -0.5884  1.8029
 6212SOL     OW30094   0.400   3.973   4.320 -0.3770  0.1700  0.3479
 6212SOL    HW130095   0.495   3.972   4.309 -0.4322 -0.8889 -0.0721
 6212SOL    HW230096   0.379   3.953   4.228 -0.0958  2.8516 -0.2884
 6213SOL     OW30097   1.706   2.387  13.737  0.0890  0.1278  0.1402
 6213SOL    HW130098   1.654   2.404  13.815 -0.4793  1.2434 -0.4658
 6213SOL    HW230099   1.714   2.292  13.739  0.2080  0.1169 -0.8012
 6214SOL     OW30100   3.153   2.778   4.722  0.1483  0.0223  0.3111
 6214SOL    HW130101   3.065   2.802   4.750  1.5004  3.2697  1.7644
 6214SOL    HW230102   3.152   2.685   4.698 -1.6629 -0.6217  2.8569
 6215SOL     OW30103   2.477   1.080   6.338 -0.0156 -0.1249 -0.1433
 6215SOL    HW130104   2.539   1.037   6.279  0.5057 -0.6176  0.7572
 6215SOL    HW230105   2.393   1.053   6.302  0.4863 -1.8034 -0.0347
 6216SOL     OW30106   1.976   3.520   2.500 -0.7944  0.1508 -0.5425
 6216SOL    HW130107   1.882   3.523   2.519 -0.6888 -0.0074 -0.0045
 6216SOL    HW230108   2.001   3.433   2.531 -1.3487 -0.7301 -2.5328
 6217SOL     OW30109   4.268   1.898   6.455 -0.1296 -0.1227  0.2977
 6217SOL    HW130110   4.333   1.876   6.389  0.7032 -2.6053  1.9222
 6217SOL    HW230111   4.191   1.847   6.429  0.4631 -1.0898  0.4569
 6218SOL     OW30112   1.142   1.847   4.444  0.5683 -0.3149 -0.1900
 6218SOL    HW130113   1.128   1.916   4.379 -3.9760 -0.7222  0.3720
 6218SOL    HW230114   1.199   1.886   4.511 -0.4968 -1.3066  1.2834
 6219SOL     OW30115   3.973   1.202   4.569 -0.1534 -0.2212 -0.2488
 6219SOL    HW130116   3.988   1.231   4.659  1.2738 -2.2981  0.1830
 6219SOL    HW230117   3.930   1.276   4.526  0.9382 -0.1270 -1.1696
 6220SOL     OW30118   4.560   3.252  10.502  0.2171 -0.3590 -0.0967
 6220SOL    HW130119   4.482   3.236  10.556  1.9726 -0.4135  2.4131
 6220SOL    HW230120   4.544   3.213  10.416 -0.5286 -1.6538  0.6311
 6221SOL     OW30121   3.400   3.209   8.147 -0.3059 -0.3439  0.0241
 6221SOL    HW130122   3.482   3.242   8.183 -1.3586  0.9085  1.2857
 6221SOL    HW230123   3.348   3.289   8.137  1.3999  1.0716  2.4568
 6222SOL     OW30124   0.541   2.339   8.769  0.7507 -0.1124 -0.1276
 6222SOL    HW130125   0.502   2.315   8.685  0.8122  1.3662 -0.5823
 6222SOL    HW230126   0.462   2.342   8.823 -1.2146 -0.6379 -2.9524
 6223SOL     OW30127   0.915   3.269   6.297 -0.4907 -0.2397  0.2616
 6223SOL    HW130128   0.913   3.253   6.391  1.3768  2.4927  0.7873
 6223SOL    HW230129   0.830   3.257   6.256 -1.3082  0.6163  1.7358
 6224SOL     OW30130   3.065   2.846   8.377 -0.2833 -0.0976  0.0147
 6224SOL    HW130131   3.120   2.914   8.417 -1.3073  1.2125 -0.8102
 6224SOL    HW230132   3.073   2.878   8.287  0.0837 -0.2802 -0.0188
 6225SOL     OW30133   2.419   0.700   0.420 -0.1326  0.6996  0.1155
 6225SOL    HW130134   2.456   0.615   0.443  3.4920  2.5690  1.0756
 6225SOL    HW230135   2.325   0.681   0.429 -0.2884  1.5277  0.2086
 6226SOL     OW30136   0.175   3.559  12.376 -0.1044 -0.1324  0.3962
 6226SOL    HW130137   0.125   3.513  12.308  0.0627 -2.7619  2.0323
 6226SOL    HW230138   0.132   3.644  12.370  0.3833  0.0922  0.0900
 6227SOL     OW30139   4.482   0.775   4.623 -0.7870  0.1701 -0.4136
 6227SOL    HW130140   4.527   0.718   4.561 -1.4220  1.8068 -2.3951
 6227SOL    HW230141   4.408   0.718   4.646  0.4058 -1.5256 -0.7558
 6228SOL     OW30142   1.982   2.580   8.167  0.1204  0.1607 -0.1839
 6228SOL    HW130143   2.023   2.596   8.252 -1.7884 -0.6638  0.8891
 6228SOL    HW230144   1.908   2.526   8.193  1.4350 -1.3798  0.3613
 6229SOL     OW30145   1.531   3.756  16.771  0.0621 -0.0599 -0.1681
 6229SOL    HW130146   1.609   3.729  16.724  0.4830 -2.1013  1.6889
 6229SOL    HW230147   1.559   3.765  16.862  1.8861  1.2414 -0.8560
 6230SOL     OW30148   4.201   1.683   2.684  0.1037 -0.1773  0.0247
 6230SOL    HW130149   4.268   1.646   2.627 -0.1143 -0.8205  0.1868
 6230SOL    HW230150   4.129   1.624   2.661  1.0824 -1.0783 -0.6953
 6231SOL     OW30151   2.888   1.783   0.506  0.6958 -0.6508  0.2914
 6231SOL    HW130152   2.950   1.710   0.498 -0.7128 -1.9936  1.5096
 6231SOL    HW230153   2.801   1.749   0.483  0.4426 -1.7965  2.9100
 6232SOL     OW30154   2.052   3.245   6.371 -0.3351 -0.1196  0.2802
 6232SOL    HW130155   2.128   3.218   6.423 -0.0286  1.9191  0.8993
 6232SOL    HW230156   1.997   3.263   6.447 -1.3250 -0.6056 -0.3344
 6233SOL     OW30157   3.790   3.075  17.549  0.2028 -0.0614  0.0587
 6233SOL    HW130158   3.822   3.096  17.636  1.6791  1.2430 -0.7900
 6233SOL    HW230159   3.871   3.060  17.500  0.7472 -1.2963  1.3514
 6234SOL     OW30160   1.883   2.741   8.454 -0.6859  0.4640  0.0557
 6234SOL    HW130161   1.803   2.696   8.426 -0.6677  0.7600 -0.4764
 6234SOL    HW230162   1.867   2.830   8.421  0.3986 -0.1914 -2.1849
 6235SOL     OW30163   0.124   0.774   8.342 -0.8023  0.6970 -0.0026
 6235SOL    HW130164   0.114   0.686   8.303 -0.7919 -0.8764  3.5461
 6235SOL    HW230165   0.121   0.840   8.273 -1.1410 -0.9799 -1.5911
 6236SOL     OW30166   2.561   4.589   0.987  0.0644 -0.8981  0.1891
 6236SOL    HW130167   2.604   4.591   1.072 -0.5545 -6.2937  0.6085
 6236SOL    HW230168   2.515   4.673   0.978  1.6911 -0.3978 -3.4790
 6237SOL     OW30169   2.629   4.575   2.507 -0.0672  0.2373 -0.3122
 6237SOL    HW130170   2.660   4.633   2.438  0.5272 -1.9119 -1.8498
 6237SOL    HW230171   2.613   4.642   2.574  0.4301  0.2732 -0.2310
 6238SOL     OW30172   0.669   4.360  12.669  0.0502  0.1336 -0.2354
 6238SOL    HW130173   0.698   4.388  12.582 -0.2205  0.1295 -0.3268
 6238SOL    HW230174   0.753   4.353  12.714  0.2261  1.5223 -0.3392
 6239SOL     OW30175   2.106   2.985   6.944  0.3463  0.0642  0.3336
 6239SOL    HW130176   2.113   2.896   6.908  1.9715 -0.1277  1.1153
 6239SOL    HW230177   2.198   3.011   6.945  0.3051  0.1415  1.5441
 6240SOL     OW30178   1.438   2.312   6.115  0.9657  0.0037  0.5607
 6240SOL    HW130179   1.359   2.362   6.137  1.4361  0.6647  0.7261
 6240SOL    HW230180   1.498   2.373   6.072  1.9612 -0.4954  1.2328
 6241SOL     OW30181   2.217   1.443  13.864 -0.0523  0.3126  0.3922
 6241SOL    HW130182   2.241   1.353  13.842 -1.3646  0.1213 -0.2486
 6241SOL    HW230183   2.155   1.419  13.933 -1.3952  2.5725 -0.0530
 6242SOL     OW30184   2.986   2.431   7.539 -0.2501 -0.4502 -0.3838
 6242SOL    HW130185   3.025   2.516   7.561  0.0850 -0.9340  0.8752
 6242SOL    HW230186   2.910   2.463   7.490 -0.7362  0.6734  1.1073
 6243SOL     OW30187   4.189   3.452  11.010  0.1450  0.0248  0.2199
 6243SOL    HW130188   4.210   3.366  11.046  1.7420  1.0187  1.6995
 6243SOL    HW230189   4.278   3.483  10.990  0.6525 -0.4636  1.7054
 6244SOL     OW30190   2.742   3.762   7.552  0.1953  0.4469 -0.1886
 6244SOL    HW130191   2.826   3.719   7.537  0.3423  0.3070  1.0234
 6244SOL    HW230192   2.773   3.853   7.556  0.7869  0.1911  1.1590
 6245SOL     OW30193   1.710   4.480   2.363 -0.0892  0.0512  0.0644
 6245SOL    HW130194   1.746   4.426   2.433 -0.8967  1.0264  1.2484
 6245SOL    HW230195   1.705   4.411   2.297 -1.1218  1.8321 -1.7308
 6246SOL     OW30196   0.132   1.974   5.916  0.0202  0.0225 -0.1050
 6246SOL    HW130197   0.163   1.966   6.006  2.0431  0.6936 -0.7401
 6246SOL    HW230198   0.181   2.051   5.888  2.8526 -1.6741  0.2848
 6247SOL     OW30199   0.877   1.739   5.373 -0.6376  0.0131 -0.3326
 6247SOL    HW130200   0.941   1.764   5.439 -0.9433  3.6178 -1.4101
 6247SOL    HW230201   0.894   1.806   5.306 -1.3917  0.8092  0.2741
 6248SOL     OW30202   3.096   4.070   7.255 -0.4063  0.7265 -0.3534
 6248SOL    HW130203   3.168   4.092   7.314  0.8794  2.1561 -2.4658
 6248SOL    HW230204   3.123   3.978   7.254 -0.1941  0.7970 -1.6345
 6249SOL     OW30205   3.946   2.056  12.560  0.1665 -0.2776  0.2768
 6249SOL    HW130206   3.872   2.081  12.615  0.0804  0.6469 -0.2506
 6249SOL    HW230207   3.973   1.967  12.582  1.4287 -0.3792 -1.6818
 6250SOL     OW30208   4.516   2.980   7.951  0.2437  0.3504 -0.4494
 6250SOL    HW130209   4.602   3.020   7.964  0.5541 -0.1489 -0.9642
 6250SOL    HW230210   4.454   3.046   7.981  0.5489  0.5161 -0.1793
 6251SOL     OW30211   1.941   4.232  14.725  0.3082 -0.4443 -0.0903
 6251SOL    HW130212   1.856   4.191  14.712 -0.2609  0.2925  1.2512
 6251SOL    HW230213   1.916   4.301  14.787 -1.5543 -2.5534  1.5381
 6252SOL     OW30214   2.254   1.073   6.511 -0.0136  0.0731 -0.7339
 6252SOL    HW130215   2.252   1.166   6.532 -0.2779 -0.4874  1.6980
 6252SOL    HW230216   2.201   1.063   6.432 -2.2374  0.0897  0.7490
 6253SOL     OW30217   3.750   2.090   5.179  0.0361 -0.4494 -0.1119
 6253SOL    HW130218   3.769   2.170   5.229 -2.3624  0.3724 -0.5223
 6253SOL    HW230219   3.657   2.085   5.202  0.2313 -1.3141  0.5097
 6254SOL     OW30220   3.249   3.125   6.769  0.6851  0.1601 -0.2044
 6254SOL    HW130221   3.285   3.205   6.807  3.1283 -1.1700  0.2608
 6254SOL    HW230222   3.232   3.067   6.843 -0.4835  0.7194 -0.0340
 6255SOL     OW30223   2.224   2.690   4.642 -0.5280 -0.3843  0.0624
 6255SOL    HW130224   2.210   2.607   4.688  0.1814 -0.1732  0.6499
 6255SOL    HW230225   2.316   2.686   4.617 -1.0362 -0.2328 -1.8858
 6256SOL     OW30226   0.538   3.519   5.012 -0.5164 -0.2050  0.4974
 6256SOL    HW130227   0.602   3.561   5.070 -0.4458  0.2605  0.0820
 6256SOL    HW230228   0.546   3.565   4.929 -0.4392  0.8127  1.0686
 6257SOL     OW30229   1.131   3.841   3.898  0.0693  0.1000 -0.1317
 6257SOL    HW130230   1.079   3.898   3.841 -0.1061  0.0140 -0.0577
 6257SOL    HW230231   1.059   3.806   3.950  0.8610 -0.0249  0.8692
 6258SOL     OW30232   0.553   4.172   6.995  0.1863  0.4069 -0.7260
 6258SOL    HW130233   0.540   4.116   7.072  0.6748 -0.3299 -1.1775
 6258SOL    HW230234   0.602   4.243   7.036  0.6844  0.0649 -0.7240
 6259SOL     OW30235   4.159   1.889   5.661  0.2440  0.3930  0.0650
 6259SOL    HW130236   4.227   1.821   5.659  1.9669  2.0745  0.9112
 6259SOL    HW230237   4.193   1.955   5.599  0.2728  2.1253  1.9219
 6260SOL     OW30238   2.532   4.083   5.773  0.1576 -0.2896  0.1859
 6260SOL    HW130239   2.460   4.113   5.829  0.5419 -1.1516  1.1442
 6260SOL    HW230240   2.484   4.008   5.738  1.4340 -0.9420 -0.1478
 6261SOL     OW30241   2.034   4.548  17.455  0.5782 -0.3921 -0.0511
 6261SOL    HW130242   2.113   4.539  17.402  0.1504 -1.1162 -0.5534
 6261SOL    HW230243   1.966   4.522  17.393  0.3084 -0.0640  0.1016
 6262SOL     OW30244   3.693   0.568  16.193 -0.2637  0.0168  0.1389
 6262SOL    HW130245   3.687   0.622  16.113  1.8795 -1.0156 -0.7165
 6262SOL    HW230246   3.747   0.627  16.245 -1.1358  0.5616  0.4256
 6263SOL     OW30247   2.829   1.403   2.856 -0.4319 -0.1261 -0.3034
 6263SOL    HW130248   2.865   1.336   2.914 -0.5390  0.6898  0.7121
 6263SOL    HW230249   2.750   1.425   2.906  0.5471  0.1708  1.1075
 6264SOL     OW30250   1.283   3.285   3.518 -0.2322 -0.0922 -0.2277
 6264SOL    HW130251   1.305   3.200   3.479 -1.6951  0.4896 -2.3183
 6264SOL    HW230252   1.228   3.258   3.591 -0.0169  0.8366  0.2731
 6265SOL     OW30253   2.742   3.742   2.697 -0.6591 -0.1344 -0.0642
 6265SOL    HW130254   2.676   3.776   2.637  0.0090  2.3796  0.6542
 6265SOL    HW230255   2.810   3.712   2.636 -1.8309 -2.6097 -0.1729
 6266SOL     OW30256   1.753   3.102   2.453 -0.3164 -0.3472  0.0482
 6266SOL    HW130257   1.687   3.157   2.410  0.9567  1.5261  0.4738
 6266SOL    HW230258   1.805   3.169   2.498 -0.4239 -0.5664  0.4923
 6267SOL     OW30259   3.198   3.265  10.721  0.3805  0.1344  0.3182
 6267SOL    HW130260   3.195   3.250  10.626  0.7274  1.1686  0.1466
 6267SOL    HW230261   3.108   3.235  10.734  0.7702 -0.6094  1.2766
 6268SOL     OW30262   4.191   0.793   7.485  0.3804  0.0301  0.3545
 6268SOL    HW130263   4.176   0.831   7.398  0.8505 -0.9596 -0.1731
 6268SOL    HW230264   4.273   0.828   7.518  0.6108  1.4155 -1.6776
 6269SOL     OW30265   1.943   4.156  16.038 -0.1482 -0.0052  0.2770
 6269SOL    HW130266   1.891   4.078  16.056 -0.4049  0.0974 -0.0214
 6269SOL    HW230267   1.893   4.228  16.077  0.3909  0.7921 -0.5185
 6270SOL     OW30268   1.032   0.408   6.490  0.2135 -0.0812 -0.3608
 6270SOL    HW130269   1.107   0.356   6.519 -0.0812 -1.5962 -2.3475
 6270SOL    HW230270   1.082   0.464   6.431 -1.2711  0.7887 -0.7917
 6271SOL     OW30271   2.551   0.626   6.279 -0.3380 -0.5436 -0.2753
 6271SOL    HW130272   2.642   0.630   6.310 -0.1136 -0.8632 -0.8980
 6271SOL    HW230273   2.529   0.718   6.266  1.8590 -0.0761 -0.6235
 6272SOL     OW30274   2.660   4.203   7.272 -0.4887  0.0430 -0.1338
 6272SOL    HW130275   2.625   4.291   7.283  1.7414  0.7063  1.7314
 6272SOL    HW230276   2.673   4.176   7.363 -1.9951  2.1860  0.7310
 6273SOL     OW30277   3.891   3.013  16.031 -0.3578 -0.1122  0.1036
 6273SOL    HW130278   3.870   3.079  15.966 -0.8582 -1.1732 -0.8144
 6273SOL    HW230279   3.976   2.973  16.009  0.0054  1.6954 -1.7040
 6274SOL     OW30280   1.437   1.195   3.969 -0.5334  0.3875  0.3402
 6274SOL    HW130281   1.510   1.164   3.915  1.8565  1.6537  2.8518
 6274SOL    HW230282   1.378   1.121   3.958 -0.2930  0.1371  0.7561
 6275SOL     OW30283   2.657   2.660   3.851 -0.4605 -0.3062  0.1835
 6275SOL    HW130284   2.746   2.689   3.831 -1.5400  1.3260 -2.2603
 6275SOL    HW230285   2.654   2.586   3.791 -0.7318 -0.9158  0.9458
 6276SOL     OW30286   3.754   1.550   4.959 -0.4026 -0.1868  0.1911
 6276SOL    HW130287   3.714   1.559   4.873  0.8075 -0.2991 -0.3763
 6276SOL    HW230288   3.834   1.600   4.946 -0.6396  0.3043  0.6101
 6277SOL     OW30289   2.299   4.027  14.400 -0.5041 -0.2579 -0.3129
 6277SOL    HW130290   2.262   4.055  14.484  0.2688  1.1403 -0.4413
 6277SOL    HW230291   2.368   4.092  14.390 -0.4465 -0.0653  1.3485
 6278SOL     OW30292   2.912   4.451   3.087 -0.0362  0.5934 -0.1108
 6278SOL    HW130293   2.836   4.509   3.077  0.1176  0.4653 -1.9153
 6278SOL    HW230294   2.973   4.497   3.030  0.7349  0.6168  0.7347
 6279SOL     OW30295   2.364   3.507   4.018 -0.1712 -0.0210 -0.1099
 6279SOL    HW130296   2.323   3.490   4.103 -0.5353 -0.7733 -0.4373
 6279SOL    HW230297   2.406   3.422   4.015  0.8823  0.4791  0.5476
 6280SOL     OW30298   4.468   1.024   5.082 -0.1986 -0.7457  0.0062
 6280SOL    HW130299   4.508   0.945   5.044  3.2673 -0.2476  2.6566
 6280SOL    HW230300   4.384   0.992   5.113  0.0777 -0.7259  0.7697
 6281SOL     OW30301   0.724   3.947   9.556 -0.3322 -0.2739 -1.1896
 6281SOL    HW130302   0.674   4.007   9.500  0.8581  0.1171 -1.8272
 6281SOL    HW230303   0.682   3.865   9.532 -2.0190  0.4126 -0.6024
 6282SOL     OW30304   0.023   2.218  16.248  0.0952  0.2812  0.1367
 6282SOL    HW130305   0.107   2.184  16.219 -1.0165 -2.1524 -0.2272
 6282SOL    HW230306   4.694   2.153  16.201  2.6853  0.1425 -2.5414
 6283SOL     OW30307   4.570   2.606  14.010 -0.0588  0.4088  0.6795
 6283SOL    HW130308   4.522   2.662  13.950 -0.3532  0.5728  1.0696
 6283SOL    HW230309   4.633   2.671  14.043  1.8671 -0.3154 -1.5635
 6284SOL     OW30310   0.230   3.233   4.854  0.4934  0.2060  0.1740
 6284SOL    HW130311   0.286   3.164   4.818  0.1614 -0.1874  0.4181
 6284SOL    HW230312   0.139   3.207   4.844  0.1761  1.2136  0.4343
 6285SOL     OW30313   1.834   0.522  15.299 -0.0024 -0.1257 -0.2614
 6285SOL    HW130314   1.771   0.581  15.341  0.0337  1.0942 -1.9288
 6285SOL    HW230315   1.783   0.487  15.225 -0.6370 -0.2947  0.2562
 6286SOL     OW30316   4.204   0.860   4.361 -0.0427  0.6128 -0.2979
 6286SOL    HW130317   4.170   0.862   4.450 -0.7473  0.8604 -0.5688
 6286SOL    HW230318   4.292   0.829   4.380 -0.1838 -0.8914 -2.0187
 6287SOL     OW30319   0.600   0.242   1.496  0.3110  0.1894  0.0853
 6287SOL    HW130320   0.505   0.251   1.491  0.2410 -0.7861 -0.2363
 6287SOL    HW230321   0.629   0.295   1.571  0.5832  0.1164  0.0324
 6288SOL     OW30322   0.999   2.613  11.146  0.1121 -0.2257 -0.1624
 6288SOL    HW130323   0.927   2.554  11.123  1.3427 -1.2343 -1.3705
 6288SOL    HW230324   1.030   2.645  11.061 -4.1819 -1.1052 -2.0828
 6289SOL     OW30325   3.498   1.776  11.445 -0.1031 -0.3388  0.1884
 6289SOL    HW130326   3.414   1.732  11.437 -0.8049  1.2954 -1.4843
 6289SOL    HW230327   3.510   1.772  11.540  1.5588  2.5894  0.0918
 6290SOL     OW30328   4.306   2.364   6.388 -0.0311  0.5911  0.0376
 6290SOL    HW130329   4.247   2.304   6.434 -1.5792  2.2984  0.2923
 6290SOL    HW230330   4.247   2.432   6.354  1.7469  2.0483 -0.0926
 6291SOL     OW30331   1.018   2.702   4.359 -0.0378  0.1469 -0.2659
 6291SOL    HW130332   1.032   2.747   4.442 -0.3723 -1.7703  0.8445
 6291SOL    HW230333   1.036   2.773   4.298 -0.9830 -0.3782 -1.1577
 6292SOL     OW30334   2.992   2.229  12.059  0.3726 -0.1255  0.2885
 6292SOL    HW130335   2.902   2.261  12.048 -0.2136 -1.9343 -0.1406
 6292SOL    HW230336   3.044   2.307  12.038 -1.1498  0.7170 -0.4561
 6293SOL     OW30337   2.519   2.432   3.153 -0.4782 -0.1433  0.2192
 6293SOL    HW130338   2.564   2.408   3.234 -1.0654 -1.3942  0.1826
 6293SOL    HW230339   2.595   2.441   3.096 -2.6581 -0.7221 -2.7566
 6294SOL     OW30340   3.014   3.811   9.594 -0.2439  0.0641 -0.1638
 6294SOL    HW130341   2.954   3.737   9.585 -1.0094  0.4185  2.0525
 6294SOL    HW230342   2.958   3.872   9.643 -0.7783  2.1684 -3.3693
 6295SOL     OW30343   2.892   0.709   2.001  0.2876  0.3109 -0.2935
 6295SOL    HW130344   2.809   0.660   2.002 -1.0214  2.5818  1.4954
 6295SOL    HW230345   2.940   0.683   2.080 -1.1303 -3.3905 -0.6562
 6296SOL     OW30346   3.200   0.112   6.448  0.3820 -0.6204 -0.1039
 6296SOL    HW130347   3.231   0.051   6.381  1.3316 -0.0794 -0.1496
 6296SOL    HW230348   3.281   0.163   6.454  1.2879 -2.2639  1.6284
 6297SOL     OW30349   0.523   2.635  15.320  0.3443  0.0195  0.1238
 6297SOL    HW130350   0.557   2.667  15.404 -1.2965 -1.1601  1.2493
 6297SOL    HW230351   0.520   2.543  15.344 -0.9227  0.1183  0.3908
 6298SOL     OW30352   0.006   4.581   3.549  0.2538  0.2816  0.2537
 6298SOL    HW130353   0.094   4.617   3.542  0.5010 -0.2237  0.7257
 6298SOL    HW230354   0.027   4.522   3.621 -0.3996 -1.3566 -0.8995
 6299SOL     OW30355   2.944   4.359   4.381  0.0037  0.0327  0.1597
 6299SOL    HW130356   2.946   4.269   4.349 -2.3386  0.3134 -0.7546
 6299SOL    HW230357   2.987   4.400   4.306  2.0294  0.7389  1.6797
 6300SOL     OW30358   2.187   4.018  12.004 -0.7390 -0.0267  0.3048
 6300SOL    HW130359   2.232   4.008  12.088 -0.2939 -0.9318 -0.0289
 6300SOL    HW230360   2.146   3.932  12.018  0.2713 -0.0575  3.1667
 6301SOL     OW30361   3.204   1.014   8.064  0.1030 -0.1870  0.4660
 6301SOL    HW130362   3.126   1.007   8.008  1.7560 -1.8256 -1.6397
 6301SOL    HW230363   3.229   0.922   8.058  2.1036  0.3721  0.0946
 6302SOL     OW30364   1.364   3.466   6.480 -0.2396  0.3192 -0.1707
 6302SOL    HW130365   1.274   3.467   6.512  0.1073 -0.3595  0.8104
 6302SOL    HW230366   1.366   3.376   6.446  0.2794  0.2164  0.1355
 6303SOL     OW30367   0.846   1.006   1.041  0.1678 -0.3342  0.3514
 6303SOL    HW130368   0.781   0.941   1.014 -1.5689  1.3951  0.3707
 6303SOL    HW230369   0.788   1.073   1.078  0.7318  0.8305 -0.8685
 6304SOL     OW30370   1.553   2.420   0.825 -0.0285 -0.1029  0.7205
 6304SOL    HW130371   1.466   2.441   0.791  0.4785 -2.6033 -2.0678
 6304SOL    HW230372   1.594   2.502   0.797 -0.6547 -1.0093 -2.8082
 6305SOL     OW30373   1.014   1.254   6.766  0.2467 -0.9723 -0.3256
 6305SOL    HW130374   0.985   1.269   6.856  1.2901 -0.1419 -0.1271
 6305SOL    HW230375   1.050   1.340   6.744  0.1095 -0.0086  3.2444
 6306SOL     OW30376   2.086   2.806   2.185  0.3420 -0.0849  0.4359
 6306SOL    HW130377   2.031   2.883   2.172  0.3290 -0.5163 -2.1128
 6306SOL    HW230378   2.155   2.850   2.235  0.5133  1.6308 -1.3239
 6307SOL     OW30379   0.286   0.136  11.245  0.0032  0.1211  0.1749
 6307SOL    HW130380   0.366   0.136  11.192  0.4282  2.9333  0.8276
 6307SOL    HW230381   0.308   0.198  11.315  0.9776  1.1082 -0.9986
 6308SOL     OW30382   0.992   4.416   5.348  0.0773 -0.5715  0.7450
 6308SOL    HW130383   1.083   4.386   5.352  0.1277 -0.3672  1.1468
 6308SOL    HW230384   0.957   4.388   5.433 -2.4944 -1.5535 -0.6604
 6309SOL     OW30385   1.389   4.588  13.094  0.0701  0.6135 -0.1416
 6309SOL    HW130386   1.424   4.534  13.024  2.5046 -0.2595  1.7604
 6309SOL    HW230387   1.349   4.660  13.044 -0.9568 -0.8071 -1.3842
 6310SOL     OW30388   2.735   3.108   8.537 -0.6929  0.1765 -0.0159
 6310SOL    HW130389   2.715   3.196   8.507  0.5225 -0.8106 -3.8035
 6310SOL    HW230390   2.822   3.109   8.498 -0.7125  0.3901 -0.0518
 6311SOL     OW30391   4.401   0.260   5.495  0.9406 -0.3180 -0.4038
 6311SOL    HW130392   4.355   0.282   5.576 -0.6658  1.5802 -1.8253
 6311SOL    HW230393   4.329   0.214   5.452  0.5845  0.5786 -0.7810
 6312SOL     OW30394   2.102   2.957   3.697  0.6315  0.3166 -0.6773
 6312SOL    HW130395   2.130   2.937   3.786  0.5801  1.2988 -0.4389
 6312SOL    HW230396   2.129   2.880   3.648 -0.8511 -0.6293  0.0086
 6313SOL     OW30397   0.667   3.576  14.081  0.1008  0.5981  0.3272
 6313SOL    HW130398   0.625   3.515  14.142 -1.8179  0.0451 -1.5256
 6313SOL    HW230399   0.630   3.532  14.004  0.9928 -0.3858  0.4558
 6314SOL     OW30400   1.367   2.735  14.284  0.0161 -0.5356  0.5860
 6314SOL    HW130401   1.276   2.713  14.265 -0.2333  0.1107  1.0282
 6314SOL    HW230402   1.370   2.780  14.368  1.1708 -1.3166  0.9713
 6315SOL     OW30403   0.903   3.780   4.042 -0.1038  0.4496 -0.0878
 6315SOL    HW130404   0.824   3.762   3.990  0.3505 -0.3222 -0.4939
 6315SOL    HW230405   0.920   3.691   4.073  1.2493  0.4249 -0.9359
 6316SOL     OW30406   4.224   4.274  16.275 -0.3507  0.1960 -0.1393
 6316SOL    HW130407   4.141   4.321  16.269 -1.0399 -1.1364 -1.0780
 6316SOL    HW230408   4.273   4.335  16.330  2.3995 -0.8358 -1.4488
 6317SOL     OW30409   1.745   1.942   6.509  0.2440 -0.1819  0.5979
 6317SOL    HW130410   1.714   1.855   6.487  1.4706 -0.2570 -0.8922
 6317SOL    HW230411   1.778   1.930   6.598  1.7255  1.8202  0.3189
 6318SOL     OW30412   3.984   4.253   9.703  0.1839 -0.7524 -0.1168
 6318SOL    HW130413   3.951   4.241   9.614 -0.6808  1.4676 -0.1192
 6318SOL    HW230414   3.989   4.163   9.735  0.4352 -0.4869  0.5894
 6319SOL     OW30415   4.655   2.592   7.097  0.0682  0.3409 -0.5235
 6319SOL    HW130416   0.017   2.600   7.140 -0.9577 -0.0267  1.5534
 6319SOL    HW230417   4.679   2.543   7.018 -1.4316  0.9678 -1.3754
 6320SOL     OW30418   4.310   0.273  16.004 -0.0766 -0.5573  0.4083
 6320SOL    HW130419   4.311   0.195  15.948 -0.5797  0.4706 -1.0412
 6320SOL    HW230420   4.225   0.308  15.976 -1.0199 -2.7465  0.5082
 6321SOL     OW30421   3.713   2.665   3.705  0.0410 -0.4971 -0.2665
 6321SOL    HW130422   3.718   2.581   3.751  1.0262 -0.3180 -0.0482
 6321SOL    HW230423   3.776   2.718   3.755 -1.1635  0.4446  0.2444
 6322SOL     OW30424   0.494   3.696   6.448 -0.3316 -0.2021 -0.3291
 6322SOL    HW130425   0.429   3.766   6.444  0.4900  0.4792 -1.6592
 6322SOL    HW230426   0.462   3.650   6.371  0.8366 -1.0186 -0.3223
 6323SOL     OW30427   0.973   3.002   8.625 -0.1086  0.0256 -0.1380
 6323SOL    HW130428   1.021   2.935   8.578  3.7308  2.4384  0.3587
 6323SOL    HW230429   0.910   2.949   8.673  2.0301 -2.9083 -0.5742
 6324SOL     OW30430   3.813   0.735   4.290 -0.1522  0.4074 -1.3300
 6324SOL    HW130431   3.849   0.820   4.314  0.2334 -0.6309  1.8035
 6324SOL    HW230432   3.886   0.680   4.261 -2.5857 -1.7202 -3.3956
 6325SOL     OW30433   3.001   3.216   4.287 -0.3527 -0.8111  0.4496
 6325SOL    HW130434   3.004   3.228   4.192  0.0236 -0.2516  0.5303
 6325SOL    HW230435   3.029   3.125   4.286  1.7539 -0.1736  1.6542
 6326SOL     OW30436   1.324   1.794  10.761  0.1912 -0.3121 -0.0927
 6326SOL    HW130437   1.260   1.816  10.693 -0.1891 -0.7462  0.1256
 6326SOL    HW230438   1.379   1.872  10.764  0.4921 -0.4847 -0.9120
 6327SOL     OW30439   3.010   3.086  12.338  0.0736 -0.0751  0.1935
 6327SOL    HW130440   2.987   3.177  12.316  1.3905  0.3291  0.4635
 6327SOL    HW230441   2.987   3.095  12.430 -0.4798 -0.5493  0.0971
 6328SOL     OW30442   0.168   3.668  11.155 -0.3999 -0.3283  0.2222
 6328SOL    HW130443   0.129   3.728  11.091 -1.8641 -1.2972  0.2058
 6328SOL    HW230444   0.086   3.622  11.175 -0.5378  0.1063  0.6523
 6329SOL     OW30445   1.864   4.130   1.771 -0.0824  0.0211 -0.2495
 6329SOL    HW130446   1.833   4.078   1.697  0.1505  0.9149 -0.9821
 6329SOL    HW230447   1.882   4.070   1.843  0.9109 -1.0522 -1.4162
 6330SOL     OW30448   4.057   1.173   4.084 -0.5361 -0.5162  0.2614
 6330SOL    HW130449   4.033   1.243   4.146  0.2726  1.0344 -1.1610
 6330SOL    HW230450   4.141   1.147   4.122 -0.3288 -0.8727 -0.4302
 6331SOL     OW30451   2.911   3.808   1.401  0.1548 -0.4095 -0.6440
 6331SOL    HW130452   2.929   3.796   1.308 -1.0627 -0.0650 -0.9233
 6331SOL    HW230453   2.995   3.849   1.421 -0.3485 -0.2132  1.0316
 6332SOL     OW30454   3.245   1.405   2.846 -0.6008  0.5917 -0.7046
 6332SOL    HW130455   3.308   1.346   2.888  1.0196  2.2194 -0.8167
 6332SOL    HW230456   3.301   1.475   2.813  0.7340  0.0171  0.2967
 6333SOL     OW30457   0.862   0.988  16.051  0.0550 -0.0468  0.4529
 6333SOL    HW130458   0.871   1.076  16.014 -2.3498 -1.0797 -2.5428
 6333SOL    HW230459   0.769   0.978  16.030 -0.5628  1.9255  2.2680
 6334SOL     OW30460   3.372   3.744   2.685 -0.4554 -0.3542 -0.3264
 6334SOL    HW130461   3.441   3.785   2.634 -1.8406  0.2890 -1.6918
 6334SOL    HW230462   3.337   3.821   2.731  1.0138  0.5404 -0.7237
 6335SOL     OW30463   0.592   3.463  17.329  0.5128  0.0614 -0.3393
 6335SOL    HW130464   0.520   3.519  17.300  2.3183  0.6509 -3.6890
 6335SOL    HW230465   0.541   3.397  17.376  0.4454  0.7036  0.4892
 6336SOL     OW30466   1.724   2.979   2.864 -0.6652  0.0624 -0.0320
 6336SOL    HW130467   1.721   2.972   2.960  0.0461  1.3905  0.0861
 6336SOL    HW230468   1.815   2.999   2.844 -0.4971  1.7137  2.3088
 6337SOL     OW30469   0.837   0.833   7.419  0.5202 -0.4784 -0.5931
 6337SOL    HW130470   0.774   0.763   7.401  0.0093 -0.0683 -0.4166
 6337SOL    HW230471   0.782   0.878   7.483  1.6784 -0.2831  0.2526
 6338SOL     OW30472   3.637   4.195   8.521 -0.2422 -0.8665  0.2440
 6338SOL    HW130473   3.728   4.188   8.495  0.0197 -0.3099  1.0228
 6338SOL    HW230474   3.641   4.272   8.578  1.0140  1.3040 -2.7685
 6339SOL     OW30475   1.835   2.100   8.658  0.6582  0.4187 -0.2424
 6339SOL    HW130476   1.918   2.062   8.686  0.0450 -0.5060  0.3656
 6339SOL    HW230477   1.797   2.130   8.741 -1.5262 -3.0602  0.0300
 6340SOL     OW30478   1.554   0.719  11.961 -0.1527 -0.4886 -0.3635
 6340SOL    HW130479   1.554   0.693  11.869 -0.6393  1.1750 -0.8394
 6340SOL    HW230480   1.559   0.815  11.959  0.2573 -0.5382 -1.5927
 6341SOL     OW30481   3.864   0.651   4.586  0.2195 -0.2233 -0.1237
 6341SOL    HW130482   3.899   0.594   4.517  1.6158  1.5249 -0.8493
 6341SOL    HW230483   3.944   0.700   4.605 -0.9771  1.3932  0.7220
 6342SOL     OW30484   0.798   2.826   7.765 -0.0150 -0.1530 -0.2601
 6342SOL    HW130485   0.705   2.809   7.778  0.0273 -0.9594 -1.0331
 6342SOL    HW230486   0.793   2.904   7.709 -0.1184  0.0710  0.0637
 6343SOL     OW30487   2.791   2.320   3.629 -0.3419 -0.2634 -0.1809
 6343SOL    HW130488   2.803   2.364   3.713 -2.7916 -2.0459  1.1187
 6343SOL    HW230489   2.700   2.289   3.633 -0.4905  0.7124  3.4867
 6344SOL     OW30490   3.145   0.029   6.833 -0.4339  0.0566  0.5423
 6344SOL    HW130491   3.202   0.075   6.895  0.2020 -0.5316  0.3937
 6344SOL    HW230492   3.138   4.659   6.855 -1.7170  0.5643  2.3057
 6345SOL     OW30493   0.883   2.773   6.082  0.9556 -0.6112 -0.7385
 6345SOL    HW130494   0.977   2.754   6.092  0.5872 -2.2319 -0.2469
 6345SOL    HW230495   0.866   2.762   5.989  1.9464  1.6814 -1.1901
 6346SOL     OW30496   1.394   4.707   5.594  0.3646 -0.2162  0.4658
 6346SOL    HW130497   1.454   0.058   5.586  1.6030 -1.1900  0.7466
 6346SOL    HW230498   1.336   4.718   5.518 -0.9016 -0.3773  1.4215
 6347SOL     OW30499   0.233   2.423   3.249  0.2278  0.8614 -0.7761
 6347SOL    HW130500   0.220   2.347   3.192  0.3226  0.2445  0.0309
 6347SOL    HW230501   0.276   2.480   3.184  0.6429 -1.3974 -2.4814
 6348SOL     OW30502   4.123   4.284   5.711 -0.1920  0.2846  0.7461
 6348SOL    HW130503   4.215   4.306   5.723  0.2578 -0.3032 -1.6604
 6348SOL    HW230504   4.124   4.223   5.637 -1.4120  1.3679 -0.1750
 6349SOL     OW30505   1.020   2.174   8.227 -0.5775  0.1848 -0.1938
 6349SOL    HW130506   1.101   2.175   8.175 -0.6794 -0.2841 -0.3620
 6349SOL    HW230507   1.012   2.083   8.256 -0.2566 -0.0702 -0.8807
 6350SOL     OW30508   2.093   1.208   3.257  0.2758  0.4758 -0.4223
 6350SOL    HW130509   2.101   1.215   3.352 -0.6356 -0.3559 -0.2782
 6350SOL    HW230510   2.180   1.171   3.244  1.0459  1.9350  0.6951
 6351SOL     OW30511   3.906   4.113   1.783 -0.5138 -0.4892 -0.3994
 6351SOL    HW130512   3.957   4.035   1.763 -0.9715 -0.8179 -0.2789
 6351SOL    HW230513   3.864   4.090   1.866  0.0052 -0.4446 -0.1230
 6352SOL     OW30514   1.959   2.371   7.560  0.5021  0.0898  0.1101
 6352SOL    HW130515   1.931   2.284   7.530 -1.0395 -0.0501  1.9751
 6352SOL    HW230516   1.878   2.420   7.570  0.0959 -1.0167  2.2063
 6353SOL     OW30517   0.554   1.954   2.810 -0.0009 -0.2863 -0.1292
 6353SOL    HW130518   0.574   2.042   2.779  1.2166 -0.9849 -1.3499
 6353SOL    HW230519   0.505   1.920   2.735  1.6591  1.6059 -2.0767
 6354SOL     OW30520   3.605   0.626   1.635  0.4733 -0.0566  0.1158
 6354SOL    HW130521   3.617   0.594   1.546 -1.2497 -1.1008  0.2453
 6354SOL    HW230522   3.543   0.696   1.615 -1.2473 -1.5784  0.0791
 6355SOL     OW30523   1.873   2.137  15.800 -0.0541  0.5406 -0.3932
 6355SOL    HW130524   1.843   2.150  15.710 -2.3098 -2.0500 -0.0319
 6355SOL    HW230525   1.939   2.070  15.782  0.6388  0.7084  1.6159
 6356SOL     OW30526   3.469   0.159  14.200  0.5444  0.1355  0.1818
 6356SOL    HW130527   3.436   0.071  14.216  1.5795 -0.5595 -1.4446
 6356SOL    HW230528   3.452   0.173  14.106 -3.7833 -0.8881  0.8319
 6357SOL     OW30529   4.622   1.096  15.165 -0.7042  0.2327 -0.1075
 6357SOL    HW130530   4.527   1.100  15.176 -0.5485  2.0202  0.5704
 6357SOL    HW230531   4.653   1.101  15.255  0.4836 -0.0686 -0.4952
 6358SOL     OW30532   4.653   3.847   4.038 -0.0115  0.1453  0.3844
 6358SOL    HW130533   4.665   3.785   4.110  0.5831 -1.0538 -0.7425
 6358SOL    HW230534   4.657   3.934   4.078  0.0469 -0.1551  1.0367
 6359SOL     OW30535   4.140   0.125   6.643 -0.2161  0.2291  0.3326
 6359SOL    HW130536   4.142   0.030   6.656  1.2569  0.3704  1.1683
 6359SOL    HW230537   4.233   0.145   6.630 -0.1921  0.1876  0.4365
 6360SOL     OW30538   3.704   4.120   6.230 -0.0845 -0.3907  0.1156
 6360SOL    HW130539   3.776   4.126   6.293 -0.5972 -0.5132  0.7143
 6360SOL    HW230540   3.750   4.149   6.152 -1.0546  1.5105  0.2482
 6361SOL     OW30541   2.994   4.664   8.183 -0.2334  0.3369  0.0137
 6361SOL    HW130542   3.065   4.714   8.224  0.2911 -1.0877  0.8292
 6361SOL    HW230543   2.990   4.705   8.096  0.0610  1.7565  0.6754
 6362SOL     OW30544   1.806   1.662   7.434 -0.1762 -0.1135 -0.0590
 6362SOL    HW130545   1.780   1.709   7.513  1.3350  0.6266 -0.0077
 6362SOL    HW230546   1.740   1.689   7.370 -1.8760 -0.5414  1.4977
 6363SOL     OW30547   2.478   1.884  15.361  0.2048 -0.2440  0.3921
 6363SOL    HW130548   2.388   1.907  15.381  0.1292  0.6448 -0.9482
 6363SOL    HW230549   2.473   1.872  15.266  0.9149 -3.4747  0.7623
 6364SOL     OW30550   3.685   2.831   6.704  0.4302  0.8558 -0.8163
 6364SOL    HW130551   3.681   2.854   6.611 -0.8297 -2.0512 -1.4899
 6364SOL    HW230552   3.777   2.839   6.730  0.6796 -1.7673 -0.8320
 6365SOL     OW30553   2.125   3.798   5.826 -0.4811  0.1566 -0.0779
 6365SOL    HW130554   2.074   3.846   5.892 -2.2094  0.4164 -1.5836
 6365SOL    HW230555   2.164   3.734   5.885 -1.4467  0.1097  0.5130
 6366SOL     OW30556   2.453   4.499   1.467 -0.0136  0.1872  0.1392
 6366SOL    HW130557   2.432   4.434   1.533 -0.2704 -0.3482 -0.4643
 6366SOL    HW230558   2.491   4.452   1.393  1.8210  2.6484 -0.4682
 6367SOL     OW30559   3.237   4.667   7.984 -0.0608 -0.0564  0.5285
 6367SOL    HW130560   3.170   0.012   7.992 -1.2972 -1.1035 -0.7193
 6367SOL    HW230561   3.317   4.719   7.978  1.0282 -1.6171  1.5608
 6368SOL     OW30562   0.390   1.361  16.152  0.4749  0.3823 -0.2634
 6368SOL    HW130563   0.296   1.369  16.140  0.2349  0.9497  1.9974
 6368SOL    HW230564   0.394   1.292  16.218 -0.8419 -0.9156 -1.5542
 6369SOL     OW30565   0.328   1.651  11.138 -0.2685 -0.1359 -0.1539
 6369SOL    HW130566   0.295   1.708  11.068  0.2454  0.2483 -0.0819
 6369SOL    HW230567   0.405   1.623  11.089 -0.6317  1.8446 -1.8457
 6370SOL     OW30568   3.256   2.813  13.411 -0.0120  0.2497 -0.2472
 6370SOL    HW130569   3.241   2.864  13.490 -2.3635 -0.1486 -0.4440
 6370SOL    HW230570   3.238   2.723  13.438 -0.1574  0.3430 -0.0371
 6371SOL     OW30571   1.816   1.465  13.969  0.2514 -0.3003  0.4806
 6371SOL    HW130572   1.883   1.523  14.005  1.1619 -1.9946  1.4925
 6371SOL    HW230573   1.766   1.523  13.911  0.0471 -0.2841  0.6749
 6372SOL     OW30574   4.116   3.718   0.131  0.3919  0.0050  0.3572
 6372SOL    HW130575   4.054   3.740   0.201  0.9398 -0.4969  1.0074
 6372SOL    HW230576   4.090   3.772   0.057  0.3830 -1.0308 -0.3989
 6373SOL     OW30577   1.489   1.178   8.868 -0.2519 -0.0616  0.1768
 6373SOL    HW130578   1.516   1.239   8.799  2.6577 -0.4388  0.9906
 6373SOL    HW230579   1.576   1.152   8.899 -0.9396 -0.0708  2.1405
 6374SOL     OW30580   1.673   0.905   8.030 -0.2349  0.8362 -0.4703
 6374SOL    HW130581   1.721   0.949   8.100 -2.5503 -1.1163  2.3576
 6374SOL    HW230582   1.711   0.945   7.952 -3.0959 -0.6093 -2.6366
 6375SOL     OW30583   2.871   4.614   7.429  0.2925 -0.2998  0.4165
 6375SOL    HW130584   2.834   4.634   7.343  0.6375  2.2877  0.8757
 6375SOL    HW230585   2.824   4.674   7.486 -1.4453  0.1612 -1.5077
 6376SOL     OW30586   2.767   1.178   4.021 -0.7616 -0.2412  0.1043
 6376SOL    HW130587   2.692   1.148   3.971 -0.3936  0.1558 -0.6877
 6376SOL    HW230588   2.815   1.102   4.055  0.2093 -0.3166 -1.4082
 6377SOL     OW30589   3.889   1.252   5.333  0.2156  0.1010 -0.1550
 6377SOL    HW130590   3.919   1.203   5.410 -1.0854  1.2239  1.0614
 6377SOL    HW230591   3.917   1.342   5.349 -2.7281  0.7800  1.1925
 6378SOL     OW30592   2.925   3.713  13.286  0.1468 -0.7058  0.6095
 6378SOL    HW130593   2.884   3.774  13.347  2.8053 -1.8445  3.5484
 6378SOL    HW230594   2.999   3.772  13.270 -1.5787  1.6522  1.3093
 6379SOL     OW30595   1.882   1.399   7.976 -0.7352 -0.9843 -0.2134
 6379SOL    HW130596   1.912   1.443   7.896 -0.3766 -0.5399  0.1705
 6379SOL    HW230597   1.960   1.350   8.002  0.6720  1.0720 -0.6037
 6380SOL     OW30598   2.201   0.072  14.714  0.1814  0.0929 -0.0253
 6380SOL    HW130599   2.266   0.003  14.728 -0.8261 -0.7493  0.5546
 6380SOL    HW230600   2.126   0.029  14.756  0.7559 -0.7656  0.1161
 6381SOL     OW30601   3.737   1.918   3.595 -0.1533  0.0283 -0.5334
 6381SOL    HW130602   3.795   1.916   3.519 -0.7274 -1.9640 -0.9418
 6381SOL    HW230603   3.669   1.980   3.568 -0.6249  0.1752  0.9777
 6382SOL     OW30604   2.819   3.354   3.342 -0.1455  0.6172 -0.0133
 6382SOL    HW130605   2.825   3.407   3.422 -0.4471  0.6332 -0.0024
 6382SOL    HW230606   2.905   3.370   3.302  0.3911  3.0572  2.0246
 6383SOL     OW30607   0.775   2.077  12.344  0.0335  0.6885  0.3454
 6383SOL    HW130608   0.861   2.097  12.306 -1.1763  3.4507 -0.9794
 6383SOL    HW230609   0.778   1.982  12.353  0.6107  0.6611 -0.0804
 6384SOL     OW30610   0.874   1.631  13.027  0.0635  0.1815  0.4956
 6384SOL    HW130611   0.935   1.704  13.031  0.1103  0.2303 -0.8666
 6384SOL    HW230612   0.939   1.575  12.985  0.6707  0.3160  1.2583
 6385SOL     OW30613   2.085   2.334   8.402  0.4956  0.3411 -0.0131
 6385SOL    HW130614   2.097   2.393   8.476 -0.8544  0.9488 -0.2713
 6385SOL    HW230615   2.000   2.297   8.427  1.0475 -1.4990 -0.8488
 6386SOL     OW30616   1.430   1.435   1.930 -0.0130 -0.6952 -0.1120
 6386SOL    HW130617   1.380   1.429   2.011  1.3257  1.1912  0.8507
 6386SOL    HW230618   1.398   1.350   1.901  1.4582 -0.7150 -1.7406
 6387SOL     OW30619   3.512   4.067   5.179 -0.3919  0.1869 -0.1787
 6387SOL    HW130620   3.532   3.994   5.238 -2.8994 -1.0017 -0.8051
 6387SOL    HW230621   3.562   4.043   5.101  1.8242  1.2836  0.9137
 6388SOL     OW30622   2.546   4.542  16.278  0.5425 -0.1109 -0.0007
 6388SOL    HW130623   2.550   4.604  16.205 -0.0817 -1.1555 -0.9202
 6388SOL    HW230624   2.456   4.562  16.303  0.4392 -0.2147 -0.2875
 6389SOL     OW30625   1.510   1.070   2.459 -0.0071 -0.1423 -0.2140
 6389SOL    HW130626   1.502   1.014   2.382  0.4786 -0.6870  0.1321
 6389SOL    HW230627   1.436   1.129   2.445  0.9041  0.9979 -0.2772
 6390SOL     OW30628   0.473   3.146   7.700  0.5221 -0.2200 -0.1019
 6390SOL    HW130629   0.476   3.173   7.792 -0.7066 -0.6799  0.0714
 6390SOL    HW230630   0.479   3.051   7.701 -0.0653 -0.2513 -0.0111
 6391SOL     OW30631   4.483   0.143   7.985 -0.1534  0.0940  0.1938
 6391SOL    HW130632   4.444   0.134   8.072  0.1072  0.9330  0.3927
 6391SOL    HW230633   4.573   0.116   8.004 -0.1078 -0.4110 -0.7050
 6392SOL     OW30634   2.758   0.868   4.940 -0.4619 -0.0972 -0.0036
 6392SOL    HW130635   2.830   0.870   4.878 -1.8507 -0.4847 -1.6412
 6392SOL    HW230636   2.736   0.957   4.967  1.0506 -0.0310  1.0495
 6393SOL     OW30637   2.158   0.318   1.569  0.1074  0.0383 -0.5018
 6393SOL    HW130638   2.134   0.227   1.552  0.3364 -0.1728  0.3373
 6393SOL    HW230639   2.236   0.328   1.515  1.4141 -2.0225  0.9794
 6394SOL     OW30640   1.545   2.326  16.071  0.0656 -0.4292  0.4649
 6394SOL    HW130641   1.466   2.363  16.033  1.2408  0.7081 -0.8847
 6394SOL    HW230642   1.561   2.240  16.032 -2.6530 -2.0802  3.0088
 6395SOL     OW30643   2.843   0.095   2.621 -0.5057 -0.0910 -0.2733
 6395SOL    HW130644   2.874   0.095   2.712 -0.4769 -0.3319 -0.2836
 6395SOL    HW230645   2.747   0.096   2.632 -0.6199 -2.6852 -1.0835
 6396SOL     OW30646   1.439   0.723   6.649  0.3882  0.0343  0.1196
 6396SOL    HW130647   1.530   0.731   6.620  0.1473 -2.8721 -1.4526
 6396SOL    HW230648   1.389   0.779   6.590  2.1019  0.5650 -0.8405
 6397SOL     OW30649   3.316   3.407   3.122  0.5550  0.2808  0.0226
 6397SOL    HW130650   3.257   3.378   3.053  0.5140 -1.1422  0.6601
 6397SOL    HW230651   3.367   3.470   3.071  2.8234 -0.8295  0.8869
 6398SOL     OW30652   2.874   1.380  14.930 -0.3194 -0.2503 -0.0956
 6398SOL    HW130653   2.897   1.368  14.838  2.2583 -2.0454  0.7950
 6398SOL    HW230654   2.782   1.407  14.922 -0.5274 -0.6959  0.7818
 6399SOL     OW30655   0.469   0.550  15.978 -0.2257  0.1840 -0.1934
 6399SOL    HW130656   0.481   0.481  15.913  0.5484  1.3910 -1.3396
 6399SOL    HW230657   0.378   0.579  15.976 -1.2782 -3.1200  0.0230
 6400SOL     OW30658   3.393   4.298   5.479 -0.9710 -0.5787  0.1183
 6400SOL    HW130659   3.347   4.288   5.396  0.7025 -1.3025 -0.7250
 6400SOL    HW230660   3.370   4.217   5.523  3.9236 -0.9177  2.0500
 6401SOL     OW30661   3.548   1.691  10.893  0.4533 -0.6318 -0.4103
 6401SOL    HW130662   3.615   1.711  10.827  1.4899 -1.1469  0.4776
 6401SOL    HW230663   3.513   1.779  10.906  0.8754 -0.3811 -0.9499
 6402SOL     OW30664   1.898   3.050   5.162 -0.3320 -0.5644 -0.8652
 6402SOL    HW130665   1.904   3.088   5.249  0.5035 -1.2688 -0.6144
 6402SOL    HW230666   1.963   3.101   5.115  1.0296  0.1449  1.8418
 6403SOL     OW30667   1.432   1.564  14.792  0.1876 -0.3766  0.0029
 6403SOL    HW130668   1.466   1.476  14.804 -0.7990 -0.9484 -1.4320
 6403SOL    HW230669   1.506   1.626  14.789 -0.0608 -0.0533  0.5357
 6404SOL     OW30670   4.143   0.580   9.471  0.5824  0.1934 -0.0958
 6404SOL    HW130671   4.148   0.504   9.413 -0.0275  0.9417 -1.1137
 6404SOL    HW230672   4.213   0.566   9.535  0.8799  0.8834 -0.2779
 6405SOL     OW30673   3.156   0.018   3.575 -0.1212  0.0332 -0.3953
 6405SOL    HW130674   3.082   4.690   3.607  0.8888 -1.8605 -1.0960
 6405SOL    HW230675   3.161   4.701   3.489  2.9468  0.6064 -0.4914
 6406SOL     OW30676   1.304   0.668   8.112 -0.6474  0.1362 -0.0540
 6406SOL    HW130677   1.382   0.647   8.062 -0.4518 -0.1006  0.3502
 6406SOL    HW230678   1.275   0.578   8.125 -0.8294  0.0097 -1.4270
 6407SOL     OW30679   2.950   3.206  10.799 -0.3113  0.7190 -0.6274
 6407SOL    HW130680   2.945   3.236  10.890  0.7458 -0.0817 -0.2996
 6407SOL    HW230681   2.905   3.122  10.813 -1.3416  1.0585 -1.8802
 6408SOL     OW30682   1.317   1.038   1.354 -0.8704 -0.1888 -0.7604
 6408SOL    HW130683   1.355   1.110   1.404  0.4408 -0.3972 -1.4620
 6408SOL    HW230684   1.240   1.019   1.407  0.1780  0.3579  0.9706
 6409SOL     OW30685   4.680   2.728   3.199 -0.0645  0.7711  0.5730
 6409SOL    HW130686   4.694   2.754   3.108 -0.6403 -0.2671  0.1888
 6409SOL    HW230687   4.590   2.753   3.217 -0.1521  0.9005 -0.0471
 6410SOL     OW30688   3.688   4.587  10.188  0.8608 -0.2344 -0.1709
 6410SOL    HW130689   3.725   4.676  10.189 -1.8569  0.8998  1.5695
 6410SOL    HW230690   3.614   4.593  10.248  0.6983 -2.9885 -0.1374
 6411SOL     OW30691   1.286   0.539   7.381  0.1954 -0.3136  0.2567
 6411SOL    HW130692   1.256   0.492   7.459 -2.1873 -0.9343 -1.0362
 6411SOL    HW230693   1.319   0.463   7.332 -1.1088 -0.5898 -0.1925
 6412SOL     OW30694   2.026   1.395  11.396 -0.6228  0.0161 -0.1105
 6412SOL    HW130695   2.082   1.337  11.447  2.0327  0.9772 -1.9217
 6412SOL    HW230696   2.074   1.477  11.408 -1.3879  0.4176  0.1552
 6413SOL     OW30697   0.165   4.087   9.381  0.2926 -0.5796  0.1379
 6413SOL    HW130698   0.100   4.096   9.451  0.9051  0.5272  0.5719
 6413SOL    HW230699   0.121   4.107   9.298 -0.2825 -0.8564  0.3777
 6414SOL     OW30700   0.355   3.923   9.496 -0.0229 -0.2568 -0.1690
 6414SOL    HW130701   0.288   3.974   9.451 -0.2030 -1.4221 -1.2198
 6414SOL    HW230702   0.342   3.844   9.444 -0.3434 -0.1131 -0.3068
 6415SOL     OW30703   2.884   0.913   0.907  0.1720 -0.0319  0.1358
 6415SOL    HW130704   2.956   0.875   0.857  0.8760  0.9390  0.4046
 6415SOL    HW230705   2.888   0.876   0.996  1.0405 -1.5012 -0.5138
 6416SOL     OW30706   3.386   1.517   3.705  0.0660 -0.5054 -0.6139
 6416SOL    HW130707   3.451   1.453   3.733  0.5418  0.7192  1.0937
 6416SOL    HW230708   3.431   1.563   3.634 -1.2735  0.4508 -0.8435
 6417SOL     OW30709   3.431   3.831   7.140  0.0377  0.3129 -0.3878
 6417SOL    HW130710   3.457   3.848   7.049  2.2189  0.8975  0.3425
 6417SOL    HW230711   3.348   3.789   7.119 -1.1475  1.8167  1.2036
 6418SOL     OW30712   2.108   4.234   6.455  0.1240  0.0841  0.4911
 6418SOL    HW130713   2.147   4.310   6.412  0.9033 -1.1423 -0.9600
 6418SOL    HW230714   2.120   4.270   6.543  1.5703 -1.1636  0.8088
 6419SOL     OW30715   3.195   4.634  11.729 -0.0369 -0.7754 -0.5567
 6419SOL    HW130716   3.180   4.723  11.762  0.4276 -0.7266 -0.4742
 6419SOL    HW230717   3.169   4.650  11.638 -3.1890 -0.5869  0.3882
 6420SOL     OW30718   1.354   0.347   0.579  0.1275 -0.1795  0.2415
 6420SOL    HW130719   1.372   0.336   0.486 -0.2033 -0.2615  0.1870
 6420SOL    HW230720   1.284   0.413   0.573  0.3116  0.0087  0.1641
 6421SOL     OW30721   1.193   1.536   9.100 -0.1671 -0.2418 -0.1755
 6421SOL    HW130722   1.269   1.479   9.105 -1.1513 -1.5283 -0.0049
 6421SOL    HW230723   1.231   1.593   9.034  1.4493 -0.5871  0.4505
 6422SOL     OW30724   3.515   1.417   0.273 -0.0842  0.7070 -0.3709
 6422SOL    HW130725   3.460   1.350   0.314  1.4891 -0.4309 -0.1140
 6422SOL    HW230726   3.540   1.387   0.186 -0.7340 -3.1042  0.7374
 6423SOL     OW30727   3.762   0.269   5.049  0.7009  0.5726 -0.0505
 6423SOL    HW130728   3.853   0.254   5.023 -0.2906 -0.1602 -3.0692
 6423SOL    HW230729   3.710   0.225   4.982 -1.7444  3.0687  0.2007
 6424SOL     OW30730   2.577   0.463   3.622  0.3493 -0.1152  0.4073
 6424SOL    HW130731   2.531   0.472   3.706  0.4165  0.8299  0.3374
 6424SOL    HW230732   2.609   0.551   3.605  1.5964 -0.6489 -0.0355
 6425SOL     OW30733   1.113   2.628   2.311  0.3855  0.1929 -0.2450
 6425SOL    HW130734   1.172   2.653   2.383  0.6763  1.9127 -1.0964
 6425SOL    HW230735   1.106   2.533   2.315 -3.2357  0.4387 -0.7361
 6426SOL     OW30736   4.014   1.652   5.943 -0.1994  0.1009 -0.4363
 6426SOL    HW130737   3.969   1.619   6.020  1.8608 -2.4238 -0.3109
 6426SOL    HW230738   3.948   1.662   5.875  1.7546  0.4941 -2.2785
 6427SOL     OW30739   4.559   1.928   2.901 -0.2831  0.9025  0.2199
 6427SOL    HW130740   4.615   1.896   2.830  0.8306  2.2494  0.4837
 6427SOL    HW230741   4.478   1.942   2.852 -0.8000 -4.4975 -0.4824
 6428SOL     OW30742   0.987   3.031   4.990  0.1045  0.2345 -0.5327
 6428SOL    HW130743   0.997   2.938   4.971 -0.0945  0.3365 -1.1326
 6428SOL    HW230744   0.914   3.053   4.933 -1.0626 -0.6683  0.6148
 6429SOL     OW30745   1.583   1.738  11.907 -1.1591  0.3621 -0.1689
 6429SOL    HW130746   1.641   1.803  11.868 -0.2139  0.2438  1.0427
 6429SOL    HW230747   1.649   1.687  11.954 -0.5501 -0.7946 -2.2828
 6430SOL     OW30748   4.382   3.702  11.345  0.3320 -0.3141  0.4728
 6430SOL    HW130749   4.405   3.610  11.328  0.5932 -0.2344  0.3863
 6430SOL    HW230750   4.468   3.745  11.350 -0.2284  0.7518  0.9172
 6431SOL     OW30751   2.376   3.720  11.888  0.8300  0.4586 -0.9721
 6431SOL    HW130752   2.297   3.734  11.835 -0.5440  0.3531  1.0456
 6431SOL    HW230753   2.335   3.669  11.959 -3.9413  0.7293 -3.5290
 6432SOL     OW30754   2.328   3.807  15.575  0.6185  0.4189  0.3497
 6432SOL    HW130755   2.353   3.761  15.655 -0.6030 -1.8217 -0.5505
 6432SOL    HW230756   2.414   3.809  15.532  0.4065  0.1816 -0.0888
 6433SOL     OW30757   3.949   4.282   4.719 -0.0520 -0.3747  0.2825
 6433SOL    HW130758   3.974   4.216   4.653 -0.9535  1.7979 -2.2430
 6433SOL    HW230759   3.962   4.364   4.670 -0.4302 -0.2178  0.4495
 6434SOL     OW30760   0.530   3.544   7.656 -0.1204 -0.2503  0.0153
 6434SOL    HW130761   0.545   3.535   7.562 -0.9961 -0.8330 -0.0702
 6434SOL    HW230762   0.481   3.463   7.671  1.6610 -0.9106  2.3307
 6435SOL     OW30763   3.441   2.870   5.803  0.1093 -0.0496  0.0304
 6435SOL    HW130764   3.514   2.874   5.865  0.2236  0.1935 -0.1179
 6435SOL    HW230765   3.410   2.780   5.812  1.3728 -0.6549 -1.5532
 6436SOL     OW30766   1.292   1.405   3.882 -0.2966 -0.2499  0.4864
 6436SOL    HW130767   1.323   1.326   3.925  0.0874  0.1891  1.0106
 6436SOL    HW230768   1.374   1.454   3.876 -0.3924  0.1240  2.2457
 6437SOL     OW30769   1.467   0.039   8.832  0.3197 -0.1299  0.0516
 6437SOL    HW130770   1.486   4.723   8.747  0.7711 -0.5793  0.3598
 6437SOL    HW230771   1.374   0.053   8.816  0.2464 -0.6903 -0.0082
 6438SOL     OW30772   0.234   4.049   1.849 -1.0035  0.6145  0.1771
 6438SOL    HW130773   0.174   4.001   1.906  0.6318 -3.1998 -1.3517
 6438SOL    HW230774   0.199   4.130   1.811 -2.3187  0.4012  0.9523
 6439SOL     OW30775   0.239   3.635  15.355 -0.3620 -0.6356 -0.4938
 6439SOL    HW130776   0.215   3.545  15.333 -1.4901 -0.4475 -0.0168
 6439SOL    HW230777   0.330   3.627  15.326 -1.3411 -0.9411 -3.4458
 6440SOL     OW30778   2.736   2.191  17.293  0.3904  0.7469 -0.4499
 6440SOL    HW130779   2.752   2.148  17.377  1.0707 -1.1892 -1.5667
 6440SOL    HW230780   2.817   2.240  17.282  1.1724 -0.4569 -0.0262
 6441SOL     OW30781   3.803   2.229   2.173  0.1271  0.2104 -0.4796
 6441SOL    HW130782   3.836   2.153   2.125  0.7952  0.8246 -0.9856
 6441SOL    HW230783   3.710   2.214   2.158  0.2880 -0.5023 -0.7795
 6442SOL     OW30784   3.677   1.554   0.452  0.3269  0.1210  0.4435
 6442SOL    HW130785   3.625   1.528   0.376  2.5673 -0.2353 -0.9704
 6442SOL    HW230786   3.611   1.597   0.506  1.6804 -1.0006  2.9749
 6443SOL     OW30787   1.820   3.925   4.767 -0.6797  0.0598 -0.3427
 6443SOL    HW130788   1.748   3.864   4.785  2.3226 -3.5016 -0.5144
 6443SOL    HW230789   1.840   3.899   4.677 -2.2044 -0.6330 -0.4742
 6444SOL     OW30790   4.621   0.638   9.525  0.4045  0.4712 -0.0765
 6444SOL    HW130791   4.622   0.662   9.618  1.4301  0.3274 -0.0515
 6444SOL    HW230792   4.676   0.560   9.533  1.1498  1.1487  1.3491
 6445SOL     OW30793   3.030   2.553  16.372  0.0459  0.4771  0.8119
 6445SOL    HW130794   2.934   2.550  16.382 -0.1003  0.5851 -0.5494
 6445SOL    HW230795   3.043   2.495  16.297 -0.9886  0.4881  0.6180
 6446SOL     OW30796   0.338   0.637  14.395 -0.2404  0.1387 -0.2604
 6446SOL    HW130797   0.296   0.686  14.465 -3.4099 -0.0463 -2.0407
 6446SOL    HW230798   0.271   0.628  14.327  0.8542 -0.1606 -1.2964
 6447SOL     OW30799   0.074   3.788   4.887  0.4102 -0.3982 -0.4534
 6447SOL    HW130800   0.140   3.730   4.851  0.3157  0.2578 -1.6939
 6447SOL    HW230801   0.039   3.823   4.805  2.0241 -0.9920 -1.3860
 6448SOL     OW30802   2.948   2.800   9.979  0.4916 -0.3363 -0.2072
 6448SOL    HW130803   2.936   2.709   9.954 -1.2663 -0.0576 -0.3474
 6448SOL    HW230804   3.041   2.819   9.962  1.0249 -2.8332 -0.0918
 6449SOL     OW30805   2.889   2.353   5.392  0.1372 -0.0924 -0.1126
 6449SOL    HW130806   2.875   2.406   5.314 -2.7368 -0.1407  0.3646
 6449SOL    HW230807   2.919   2.422   5.451 -0.6837  1.6466 -1.7248
 6450SOL     OW30808   4.350   3.687   5.911 -0.4673  0.3235  0.2451
 6450SOL    HW130809   4.341   3.597   5.883 -1.1766  0.2880  0.5985
 6450SOL    HW230810   4.438   3.693   5.948  0.0648 -0.7823 -0.8408
 6451SOL     OW30811   1.828   0.224   5.271 -0.3159  0.1388  0.0952
 6451SOL    HW130812   1.850   0.252   5.360 -1.2562  0.7925  0.1221
 6451SOL    HW230813   1.739   0.257   5.261 -0.4262 -0.3436 -0.5336
 6452SOL     OW30814   1.339   3.478  15.382  0.3607 -0.3078 -0.2963
 6452SOL    HW130815   1.305   3.389  15.393  1.9771 -0.9910 -0.7743
 6452SOL    HW230816   1.273   3.530  15.428 -0.0059  0.6951 -1.9749
 6453SOL     OW30817   3.304   3.908  13.766  0.0083 -0.3019  0.4566
 6453SOL    HW130818   3.273   3.893  13.856  0.5384 -1.7768  0.3944
 6453SOL    HW230819   3.236   3.871  13.710  0.4306 -0.3807  0.0044
 6454SOL     OW30820   0.366   0.509   8.015  0.9362  0.3452  0.0132
 6454SOL    HW130821   0.436   0.499   8.079  0.9886  3.4389  0.4101
 6454SOL    HW230822   0.329   0.597   8.014 -0.2069 -0.1316 -0.0970
 6455SOL     OW30823   0.115   0.279  12.499 -0.2718 -0.0369  0.4019
 6455SOL    HW130824   0.144   0.368  12.517 -0.6710 -0.2522  2.1408
 6455SOL    HW230825   0.028   0.286  12.461 -0.5864 -2.1672  0.6886
 6456SOL     OW30826   2.193   2.775   3.531  0.0836 -0.5913  0.6375
 6456SOL    HW130827   2.178   2.682   3.512 -2.8668 -0.3467  1.8749
 6456SOL    HW230828   2.289   2.766   3.533  0.0222 -1.3176  0.4442
 6457SOL     OW30829   1.379   3.909   7.229  0.2254 -0.5849 -0.3527
 6457SOL    HW130830   1.344   3.996   7.242 -0.6673 -1.0732  0.5203
 6457SOL    HW230831   1.300   3.864   7.200 -1.4009 -0.5092  4.0080
 6458SOL     OW30832   4.677   3.254  10.823 -0.3923 -1.3394 -0.4406
 6458SOL    HW130833   4.636   3.337  10.800 -0.8418 -0.5705  3.1378
 6458SOL    HW230834   4.652   3.255  10.915  0.2940 -2.1515 -0.2439
 6459SOL     OW30835   3.097   2.669  11.024  0.1495  0.0961 -0.5078
 6459SOL    HW130836   3.141   2.601  11.076  0.4931 -1.3091 -2.6720
 6459SOL    HW230837   3.088   2.739  11.089 -3.0950 -1.0953  0.2989
 6460SOL     OW30838   4.239   0.179  17.161  0.4187  0.1620 -0.5108
 6460SOL    HW130839   4.326   0.141  17.161  1.0829  1.7051  0.1489
 6460SOL    HW230840   4.254   0.268  17.129 -0.9061  0.8407  0.7777
 6461SOL     OW30841   1.278   0.156   4.617  0.1250 -0.7948  0.1800
 6461SOL    HW130842   1.258   0.190   4.704  0.3052 -0.7692  0.2136
 6461SOL    HW230843   1.360   0.107   4.627  0.5966  0.0327  0.4052
 6462SOL     OW30844   2.748   2.677   6.637  0.6290  1.0971  0.0986
 6462SOL    HW130845   2.686   2.750   6.644  1.1887  1.7189 -1.4659
 6462SOL    HW230846   2.818   2.716   6.688  0.7669  1.1674 -0.1460
 6463SOL     OW30847   2.189   3.951   3.814 -0.1364  0.0618 -0.0010
 6463SOL    HW130848   2.208   4.001   3.735  0.2309  1.1760  0.7993
 6463SOL    HW230849   2.280   3.936   3.842  0.4376 -1.9501 -3.0060
 6464SOL     OW30850   2.912   2.118   6.399  0.4904  0.1232  0.0703
 6464SOL    HW130851   2.825   2.143   6.431  0.3172  0.0818 -0.3737
 6464SOL    HW230852   2.932   2.034   6.440  3.7041  1.0655  0.4485
 6465SOL     OW30853   2.617   1.832  14.377  0.1827 -0.2672  0.2513
 6465SOL    HW130854   2.694   1.888  14.363  2.4305 -2.3314  4.1519
 6465SOL    HW230855   2.664   1.759  14.418  1.5085 -0.9735 -2.5523
 6466SOL     OW30856   1.508   3.006   4.001  0.0614  0.4187 -0.4553
 6466SOL    HW130857   1.461   3.068   3.944 -1.5301 -0.2876  0.0911
 6466SOL    HW230858   1.596   3.020   3.967  0.1379 -1.3615 -1.0031
 6467SOL     OW30859   1.334   2.661   3.017 -0.1919  0.1608  0.5115
 6467SOL    HW130860   1.421   2.623   3.029 -1.5387 -3.6264 -1.7399
 6467SOL    HW230861   1.336   2.746   3.061 -1.6803  0.1079  0.6616
 6468SOL     OW30862   1.382   0.655  17.409 -0.0021 -0.1482  0.6606
 6468SOL    HW130863   1.338   0.574  17.432  1.2370 -1.4473 -1.5711
 6468SOL    HW230864   1.321   0.703  17.353 -1.9894 -1.7350  1.4733
 6469SOL     OW30865   3.047   3.812   8.455  0.3367  0.0471 -0.0699
 6469SOL    HW130866   2.995   3.760   8.394  0.5175  0.3275 -0.4654
 6469SOL    HW230867   3.056   3.898   8.413  0.3519  0.2539  0.3502
 6470SOL     OW30868   0.140   2.667   6.652 -0.4047  0.4266 -0.1195
 6470SOL    HW130869   0.160   2.587   6.603 -0.3782 -0.3601  1.2033
 6470SOL    HW230870   0.219   2.716   6.629 -1.6198  2.1397 -0.7776
 6471SOL     OW30871   3.533   2.433   3.062  0.5115  0.2491  0.4715
 6471SOL    HW130872   3.605   2.386   3.104  0.7699  0.3091  0.1000
 6471SOL    HW230873   3.510   2.371   2.992  0.9080  1.2946 -0.5756
 6472SOL     OW30874   3.873   4.332   3.846 -0.4992  0.4570  0.3094
 6472SOL    HW130875   3.883   4.414   3.797 -1.7104  0.6215  0.3324
 6472SOL    HW230876   3.871   4.359   3.938 -1.2456 -1.2889  0.7989
 6473SOL     OW30877   3.644   3.258   4.715  0.4843 -0.1378 -0.4002
 6473SOL    HW130878   3.676   3.200   4.784 -0.3105 -2.4271 -1.9545
 6473SOL    HW230879   3.573   3.205   4.676  1.1192 -0.1560 -1.5415
 6474SOL     OW30880   3.715   1.486   8.972  0.3467  0.1213 -0.1057
 6474SOL    HW130881   3.745   1.406   8.928  2.2105  0.7055  0.0967
 6474SOL    HW230882   3.751   1.490   9.061  2.2973 -1.3247 -0.8129
 6475SOL     OW30883   0.199   4.205   0.951 -0.7597 -0.5807 -0.6530
 6475SOL    HW130884   0.292   4.222   0.935 -0.8521  0.3621 -0.1611
 6475SOL    HW230885   0.151   4.258   0.888  0.3625 -0.8249 -1.7131
 6476SOL     OW30886   4.018   1.890   8.607 -0.1394  0.4791  0.0128
 6476SOL    HW130887   3.996   1.835   8.683  1.5219 -0.2059 -0.0003
 6476SOL    HW230888   4.089   1.942   8.646  0.6416 -2.1858  2.1909
 6477SOL     OW30889   4.537   3.559  13.126 -0.0893  0.2589 -0.0947
 6477SOL    HW130890   4.630   3.556  13.104 -0.3916  1.5073 -1.5069
 6477SOL    HW230891   4.539   3.513  13.211 -0.5041  1.1341  0.3880
 6478SOL     OW30892   4.027   0.303   6.488  0.3725 -0.5252  0.4248
 6478SOL    HW130893   4.067   0.241   6.548 -1.5342 -0.7608  1.4599
 6478SOL    HW230894   4.089   0.372   6.463 -0.0707 -0.8943 -1.6914
 6479SOL     OW30895   3.410   4.604   2.129 -0.0992  0.0849 -0.1834
 6479SOL    HW130896   3.438   4.536   2.067 -1.2628 -0.6493  0.0945
 6479SOL    HW230897   3.416   4.686   2.080  0.9147  1.7070  2.6479
 6480SOL     OW30898   4.667   4.527   4.838  0.1367 -0.0128 -0.1260
 6480SOL    HW130899   4.713   4.472   4.902  1.8817  0.3366 -1.0836
 6480SOL    HW230900   0.018   4.587   4.829 -0.3148  0.7896  1.5586
 6481SOL     OW30901   4.106   4.272   8.166 -0.0009  0.1715 -0.3037
 6481SOL    HW130902   4.030   4.250   8.113  0.5621 -1.8984 -0.2144
 6481SOL    HW230903   4.147   4.186   8.174 -0.3623  0.0191 -0.0525
 6482SOL     OW30904   4.034   3.490  14.873  0.4181  0.1186 -0.1105
 6482SOL    HW130905   3.983   3.433  14.816  1.0959  0.1163 -0.7044
 6482SOL    HW230906   4.017   3.571  14.826  0.2258 -1.0806 -2.1098
 6483SOL     OW30907   3.798   0.490   2.617  0.3626 -0.7724 -0.1449
 6483SOL    HW130908   3.783   0.512   2.525  1.7948  2.3815  0.3870
 6483SOL    HW230909   3.870   0.552   2.629  0.1541 -0.6285  0.3594
 6484SOL     OW30910   1.544   3.663   3.845 -0.3272  0.0942  0.7339
 6484SOL    HW130911   1.451   3.642   3.836 -0.1696 -1.4819  2.7309
 6484SOL    HW230912   1.556   3.741   3.791  2.6592 -0.9349 -0.0482
 6485SOL     OW30913   2.979   2.628  12.970 -0.1966 -0.1227  0.1223
 6485SOL    HW130914   3.058   2.609  12.919 -0.4269 -1.6767  0.3345
 6485SOL    HW230915   3.023   2.683  13.036  0.1889 -1.1438  0.7171
 6486SOL     OW30916   0.349   4.144   3.414  0.5089  0.4072  0.1207
 6486SOL    HW130917   0.415   4.204   3.380 -0.8086  1.7790 -0.0102
 6486SOL    HW230918   0.266   4.190   3.423  0.8978  0.8011  1.7361
 6487SOL     OW30919   3.580   0.453   2.052  0.2601 -0.2610 -0.0769
 6487SOL    HW130920   3.516   0.484   2.116 -1.5377 -0.5598 -1.7346
 6487SOL    HW230921   3.590   0.364   2.086 -0.3328 -0.1971  0.2714
 6488SOL     OW30922   2.668   0.527  17.516 -0.1725  0.2187  0.4505
 6488SOL    HW130923   2.690   0.524  17.609 -0.1988  0.9883  0.4817
 6488SOL    HW230924   2.677   0.619  17.491 -0.5904  0.7718  2.2836
 6489SOL     OW30925   4.261   2.307   8.105 -0.3889  0.5104 -0.8105
 6489SOL    HW130926   4.182   2.354   8.132 -0.6246 -0.1234 -0.3918
 6489SOL    HW230927   4.270   2.243   8.176  1.9112  0.7065 -0.9433
 6490SOL     OW30928   4.364   2.602   0.221  0.3022  0.0075 -0.1100
 6490SOL    HW130929   4.356   2.649   0.304  1.9473  0.1376 -0.0222
 6490SOL    HW230930   4.355   2.510   0.246 -1.6552  0.1750 -0.2351
 6491SOL     OW30931   0.684   0.656   0.752  0.0125 -0.3377 -0.6876
 6491SOL    HW130932   0.719   0.728   0.804 -1.5253 -0.8522  1.0629
 6491SOL    HW230933   0.592   0.658   0.777  0.5735 -0.5313  1.4180
 6492SOL     OW30934   3.513   3.066  14.536 -0.1048 -0.3390 -0.0272
 6492SOL    HW130935   3.442   3.094  14.479 -0.8813  0.4777  1.3425
 6492SOL    HW230936   3.557   3.151  14.530  1.8629 -1.3351  0.4066
 6493SOL     OW30937   2.870   2.242   1.886  0.2497  0.3982  0.0642
 6493SOL    HW130938   2.785   2.263   1.926  0.2894 -2.6502  1.6957
 6493SOL    HW230939   2.835   2.224   1.799 -0.8208 -0.1569  0.6112
 6494SOL     OW30940   0.011   2.013  16.754 -0.6209 -0.0764 -0.0435
 6494SOL    HW130941   0.006   2.086  16.816  0.0420 -0.4189  0.4187
 6494SOL    HW230942   4.720   1.935  16.807  1.3339 -0.6731 -0.4047
 6495SOL     OW30943   0.113   2.202   7.527 -0.1003 -0.1917  0.4893
 6495SOL    HW130944   0.032   2.190   7.576 -0.3278 -3.9733 -0.7561
 6495SOL    HW230945   0.117   2.113   7.490  0.8973 -0.1928  0.5885
 6496SOL     OW30946   1.653   4.037   7.580 -0.0750  0.0768 -0.3897
 6496SOL    HW130947   1.601   4.104   7.625  0.2974  0.3308 -0.3433
 6496SOL    HW230948   1.682   4.081   7.500  2.9087 -2.0694 -0.4368
 6497SOL     OW30949   2.477   2.162   3.145  0.0941 -0.0310  0.6256
 6497SOL    HW130950   2.485   2.257   3.145 -1.6472  0.1049  3.8003
 6497SOL    HW230951   2.542   2.147   3.076 -0.7110 -0.5805 -0.0217
 6498SOL     OW30952   4.455   4.700  15.663  0.1419 -0.6683 -0.0354
 6498SOL    HW130953   4.455   4.614  15.621  1.5742 -2.0293  2.7352
 6498SOL    HW230954   4.542   4.704  15.702 -0.5539  0.6429  1.4021
 6499SOL     OW30955   4.453   1.222   4.048 -0.1986 -0.0962 -0.1914
 6499SOL    HW130956   4.534   1.209   4.097  1.2760  0.1954 -2.5237
 6499SOL    HW230957   4.394   1.244   4.119 -0.0818  3.0161 -1.0519
 6500SOL     OW30958   2.914   0.465   4.096 -0.1127  0.0861  0.0112
 6500SOL    HW130959   2.979   0.413   4.050  2.0844  3.4370 -0.7059
 6500SOL    HW230960   2.965   0.526   4.150 -1.1599 -0.1525  1.2999
 6501SOL     OW30961   2.202   0.754   5.021  0.6230  0.0401  0.2500
 6501SOL    HW130962   2.129   0.737   4.961 -0.7099  0.0816  1.8353
 6501SOL    HW230963   2.245   0.669   5.015 -0.4329 -0.3358 -1.9316
 6502SOL     OW30964   2.585   1.268   8.617  0.0665  0.9820  0.2161
 6502SOL    HW130965   2.614   1.237   8.531 -2.0050 -0.0230 -0.1026
 6502SOL    HW230966   2.519   1.201   8.631  0.8748  0.2880  0.6965
 6503SOL     OW30967   0.200   3.573   7.054  0.6457  0.3222 -0.0901
 6503SOL    HW130968   0.189   3.577   6.959 -2.7574 -0.9299  0.2570
 6503SOL    HW230969   0.114   3.539   7.078  2.0356 -2.1281  1.4545
 6504SOL     OW30970   3.231   1.389   9.008  0.0088  0.0914  0.3445
 6504SOL    HW130971   3.199   1.303   8.979 -0.1731 -0.1003  1.1179
 6504SOL    HW230972   3.310   1.361   9.054 -1.5412 -1.4168  2.0896
 6505SOL     OW30973   1.198   1.701  13.512  0.4751 -0.0824  0.2687
 6505SOL    HW130974   1.124   1.761  13.501 -0.5864 -1.1573  1.5395
 6505SOL    HW230975   1.164   1.648  13.584  1.9067  0.5933  1.4239
 6506SOL     OW30976   0.109   2.807   5.226 -0.1425 -0.1655 -0.4407
 6506SOL    HW130977   0.130   2.754   5.303  1.6294  0.4944 -0.4621
 6506SOL    HW230978   0.032   2.851   5.262  0.8498 -0.6567  2.2586
 6507SOL     OW30979   3.094   3.720  12.099  0.0621  0.8224 -0.1303
 6507SOL    HW130980   3.127   3.809  12.107 -0.8327  1.1333  0.1280
 6507SOL    HW230981   3.124   3.677  12.179  1.1745 -0.4642 -1.2440
 6508SOL     OW30982   3.362   0.126   1.983 -0.0905  0.2006 -0.1098
 6508SOL    HW130983   3.300   0.198   1.974 -0.6075  0.0162  1.8934
 6508SOL    HW230984   3.442   0.167   2.018  1.2331 -0.5413 -2.2531
 6509SOL     OW30985   1.967   1.971   2.653 -0.3644 -0.2121 -0.1416
 6509SOL    HW130986   1.885   1.923   2.644 -1.7356  2.3882 -1.1751
 6509SOL    HW230987   2.001   1.937   2.736 -0.8683 -0.9486 -0.2340
 6510SOL     OW30988   0.451   4.332   1.805  0.6456 -0.4363 -0.1190
 6510SOL    HW130989   0.440   4.307   1.896  1.9671 -2.2486 -0.4565
 6510SOL    HW230990   0.361   4.354   1.781  0.4349 -0.2670  0.8182
 6511SOL     OW30991   3.303   1.992   6.444  0.0819 -0.9671 -0.0425
 6511SOL    HW130992   3.258   1.994   6.529 -0.3680 -1.1296 -0.2799
 6511SOL    HW230993   3.388   2.024   6.476  0.7945 -1.9371 -0.9716
 6512SOL     OW30994   4.128   4.019   4.851  0.5178 -0.1739  0.0912
 6512SOL    HW130995   4.202   3.961   4.869  0.9105  0.0299 -0.8443
 6512SOL    HW230996   4.152   4.064   4.770  1.8002 -0.9245  0.0440
 6513SOL     OW30997   0.308   3.764   2.804 -0.1154 -0.0925 -0.3356
 6513SOL    HW130998   0.218   3.741   2.827 -1.0494  0.6723 -3.1109
 6513SOL    HW230999   0.351   3.760   2.889 -0.0545 -0.5468 -0.3863
 6514SOL     OW31000   1.915   2.716   6.055 -0.3721  0.1558  0.0495
 6514SOL    HW131001   2.001   2.706   6.014 -0.9070  0.9318 -1.2728
 6514SOL    HW231002   1.879   2.631   6.033 -3.9379  1.5848  0.4233
 6515SOL     OW31003   0.621   3.251  14.411 -0.1679 -0.4050 -0.6094
 6515SOL    HW131004   0.662   3.314  14.470 -0.6525 -1.1809  0.5591
 6515SOL    HW231005   0.540   3.299  14.394 -0.7830 -1.3963 -0.4816
 6516SOL     OW31006   0.485   3.222  12.534 -0.1014 -0.4959  0.3164
 6516SOL    HW131007   0.423   3.292  12.555  1.2651  1.2295 -1.3993
 6516SOL    HW231008   0.438   3.148  12.571 -0.1482 -0.2190  0.8148
 6517SOL     OW31009   3.585   0.221   2.391 -0.1601 -0.0101  0.7417
 6517SOL    HW131010   3.547   0.261   2.470  1.6523  1.1397  1.0245
 6517SOL    HW231011   3.673   0.203   2.424  0.6126  0.0285 -1.3179
 6518SOL     OW31012   3.590   4.411  16.538  0.4537  0.2873 -0.3918
 6518SOL    HW131013   3.659   4.344  16.531 -0.6978 -0.9430  0.0739
 6518SOL    HW231014   3.635   4.460  16.607 -2.3404  0.4439  1.3315
 6519SOL     OW31015   2.335   2.127   6.211 -0.3689 -0.5963 -0.1033
 6519SOL    HW131016   2.340   2.160   6.122  1.2030  0.7946  0.5043
 6519SOL    HW231017   2.312   2.036   6.189 -1.2144 -0.6693  1.0475
 6520SOL     OW31018   2.638   2.998   5.529 -0.3006  0.6806 -0.0658
 6520SOL    HW131019   2.568   3.060   5.550 -1.5338 -0.3089 -1.3463
 6520SOL    HW231020   2.638   3.021   5.436  1.1628  1.2458  0.0712
 6521SOL     OW31021   4.182   1.076   1.869 -0.1170  0.1295  0.5742
 6521SOL    HW131022   4.092   1.108   1.860 -0.1422  0.7374  2.8967
 6521SOL    HW231023   4.171   1.036   1.956 -1.9223 -0.1983  0.1915
 6522SOL     OW31024   4.239   4.572   6.699  0.4701 -0.1611  0.6635
 6522SOL    HW131025   4.327   4.584   6.663  0.8091 -2.6921  0.7020
 6522SOL    HW231026   4.269   4.592   6.788  1.3155  0.1565  0.3164
 6523SOL     OW31027   3.716   2.725  10.470 -0.3648  0.0056  0.1134
 6523SOL    HW131028   3.800   2.679  10.478 -1.4065 -1.9438 -0.2668
 6523SOL    HW231029   3.704   2.756  10.560  0.8270  2.4966 -0.5816
 6524SOL     OW31030   2.491   0.978  15.055 -0.4874 -0.0833 -0.3331
 6524SOL    HW131031   2.528   1.039  14.991  3.5576 -3.1518 -0.9232
 6524SOL    HW231032   2.446   0.913  15.002  1.1054 -0.9337 -0.6349
 6525SOL     OW31033   1.105   4.312   8.707  0.6240  0.0671  0.3089
 6525SOL    HW131034   1.172   4.379   8.721  2.3542 -1.7741  0.7469
 6525SOL    HW231035   1.062   4.306   8.792 -0.7404  0.4619 -0.3481
 6526SOL     OW31036   3.355   1.743   5.990 -0.0081 -0.0290  0.4219
 6526SOL    HW131037   3.307   1.781   6.063  1.3401 -0.4419  1.5289
 6526SOL    HW231038   3.443   1.736   6.027 -1.1062  3.8316  3.7654
 6527SOL     OW31039   0.288   4.235  11.870  0.3433 -0.0628  0.1015
 6527SOL    HW131040   0.294   4.152  11.918  0.5205  0.2717  0.6585
 6527SOL    HW231041   0.259   4.295  11.938  0.7110 -0.7059  0.8176
 6528SOL     OW31042   3.511   2.745  13.309  0.0645 -0.1738  0.4117
 6528SOL    HW131043   3.576   2.749  13.379  0.4014 -0.3954  0.1141
 6528SOL    HW231044   3.467   2.830  13.312 -0.1276 -0.1642 -2.1044
 6529SOL     OW31045   3.122   0.995  12.525 -0.4891  0.1855 -0.1499
 6529SOL    HW131046   3.087   0.939  12.594  0.8046  0.8802  1.0866
 6529SOL    HW231047   3.150   0.927  12.464  2.4586 -0.7318  2.2335
 6530SOL     OW31048   0.552   0.912   1.054  0.0742  0.1453  0.2296
 6530SOL    HW131049   0.551   0.887   1.146 -0.5492  0.1155  0.2095
 6530SOL    HW231050   0.518   1.001   1.051  0.3931  0.1835 -2.5886
 6531SOL     OW31051   1.451   1.580   7.113  0.2719 -0.0363  0.4156
 6531SOL    HW131052   1.395   1.564   7.037  0.5317  1.4287 -0.1061
 6531SOL    HW231053   1.423   1.513   7.175 -1.2755 -0.9120 -1.2267
 6532SOL     OW31054   3.499   4.723   7.356 -0.5405  0.3334  0.0830
 6532SOL    HW131055   3.515   0.039   7.442  2.6834 -1.2632  0.2253
 6532SOL    HW231056   3.557   0.060   7.310  2.9978 -3.5064 -0.4948
 6533SOL     OW31057   1.802   4.663  15.740  0.6045  0.1566 -0.1510
 6533SOL    HW131058   1.724   4.630  15.695  1.2583 -0.1656 -1.0356
 6533SOL    HW231059   1.806   0.031  15.709  0.4185  0.4369  0.6243
 6534SOL     OW31060   2.562   1.530   5.175  0.1505 -0.0234 -0.1869
 6534SOL    HW131061   2.642   1.478   5.164  0.3450  1.0253 -3.4852
 6534SOL    HW231062   2.558   1.550   5.269 -0.9005  2.2189 -0.7279
 6535SOL     OW31063   0.626   2.541   2.619 -0.1232  0.0737 -0.0674
 6535SOL    HW131064   0.665   2.457   2.595 -0.5020  0.0765 -0.6909
 6535SOL    HW231065   0.648   2.551   2.712 -0.7558  2.7178 -0.2080
 6536SOL     OW31066   3.721   2.109   6.242  0.6727 -0.1313  0.4284
 6536SOL    HW131067   3.807   2.149   6.248  0.3668  0.4668  0.8326
 6536SOL    HW231068   3.683   2.164   6.174  1.7525 -1.2757 -1.0929
 6537SOL     OW31069   3.434   1.076   5.772  0.2714  0.1022  0.5935
 6537SOL    HW131070   3.406   1.122   5.692 -0.4902  1.8608  1.8878
 6537SOL    HW231071   3.523   1.108   5.786  0.1915 -0.0018  1.2981
 6538SOL     OW31072   3.976   0.869   5.054  0.1863 -0.3928  0.0588
 6538SOL    HW131073   3.911   0.924   5.097  0.5868  0.4287 -0.3825
 6538SOL    HW231074   3.976   0.894   4.962 -1.0603  1.1184  0.4828
 6539SOL     OW31075   0.046   1.371   3.965  0.1122 -0.3090  0.1877
 6539SOL    HW131076   0.039   1.298   4.027  0.1970  0.2888  0.9107
 6539SOL    HW231077   0.086   1.445   4.011  1.0769 -1.1945  0.7824
 6540SOL     OW31078   0.144   1.930  16.525 -0.4083  0.1862 -0.3189
 6540SOL    HW131079   0.119   1.971  16.608 -2.8614  0.9898 -1.4401
 6540SOL    HW231080   0.065   1.875  16.518 -1.2040  1.3307 -0.3334
 6541SOL     OW31081   3.758   3.472   4.826 -0.6788 -0.4566 -0.4343
 6541SOL    HW131082   3.765   3.413   4.901 -1.5233 -1.6216 -1.2703
 6541SOL    HW231083   3.738   3.404   4.762  0.3781 -0.8356 -0.3566
 6542SOL     OW31084   2.512   2.407  14.032 -0.3219 -0.3552  0.1934
 6542SOL    HW131085   2.478   2.324  14.000  1.1050 -0.7108 -0.3982
 6542SOL    HW231086   2.496   2.458  13.952  0.6527  0.1990  0.3601
 6543SOL     OW31087   0.134   3.989   3.587  0.1151 -0.0802 -0.0268
 6543SOL    HW131088   0.143   3.917   3.649  1.0821  2.0304  2.3211
 6543SOL    HW231089   0.122   4.053   3.657 -1.5372  1.2136 -1.4920
 6544SOL     OW31090   1.189   0.903  11.051  0.3867 -0.2854 -0.0755
 6544SOL    HW131091   1.183   0.834  10.984  0.5900 -0.3355 -0.0416
 6544SOL    HW231092   1.245   0.964  11.004 -1.0602 -0.1655 -1.6265
 6545SOL     OW31093   0.171   2.351   7.229 -0.2589 -0.2815  0.0208
 6545SOL    HW131094   0.243   2.297   7.262 -0.1462 -0.8232 -1.1154
 6545SOL    HW231095   0.132   2.283   7.175 -1.9084  1.2953 -0.7576
 6546SOL     OW31096   2.028   0.440   7.927 -0.0785 -0.4520  0.3065
 6546SOL    HW131097   2.123   0.431   7.936  0.4102  1.8483 -2.7922
 6546SOL    HW231098   2.010   0.346   7.928  1.2229 -0.7222 -1.1311
 6547SOL     OW31099   4.401   2.786   2.330  0.2178  0.3608 -0.6959
 6547SOL    HW131100   4.402   2.725   2.404  0.7928  0.6708 -0.4385
 6547SOL    HW231101   4.475   2.744   2.285  0.6336 -0.0098  0.3376
 6548SOL     OW31102   4.515   1.779   5.902 -0.6948 -0.3268 -0.6938
 6548SOL    HW131103   4.445   1.714   5.906 -2.5563  1.6319 -1.0991
 6548SOL    HW231104   4.505   1.808   5.811  1.8238 -0.4267 -1.0088
 6549SOL     OW31105   0.552   2.127  13.569 -0.3759 -0.1352  0.2618
 6549SOL    HW131106   0.506   2.066  13.512 -0.4664  1.2330 -1.1535
 6549SOL    HW231107   0.488   2.197  13.576 -0.1736  0.1735 -0.9762
 6550SOL     OW31108   3.377   2.690  15.493 -0.4902 -0.4994 -0.0132
 6550SOL    HW131109   3.424   2.616  15.453  1.6139  2.0956 -2.3281
 6550SOL    HW231110   3.358   2.741  15.414 -2.3082 -1.4988 -0.2209
 6551SOL     OW31111   0.616   4.137  15.626 -0.0691 -0.2682 -0.4915
 6551SOL    HW131112   0.561   4.078  15.677  0.3003 -1.8347 -1.8991
 6551SOL    HW231113   0.603   4.103  15.538  1.2514  1.5665 -1.3923
 6552SOL     OW31114   4.272   0.439   6.050  0.2544 -0.3804  0.4529
 6552SOL    HW131115   4.203   0.392   6.096  2.2187 -1.7683  1.9429
 6552SOL    HW231116   4.233   0.524   6.027  1.9358 -0.1429 -1.5659
 6553SOL     OW31117   0.252   2.797   2.672  0.0340  0.4296  0.3632
 6553SOL    HW131118   0.209   2.719   2.708 -0.9589  0.9211  0.2296
 6553SOL    HW231119   0.329   2.765   2.626 -0.1192 -2.9467  2.4458
 6554SOL     OW31120   1.557   2.283   1.295  0.0707  0.5739 -0.7700
 6554SOL    HW131121   1.594   2.332   1.222  0.1878 -1.0476 -1.8114
 6554SOL    HW231122   1.566   2.353   1.360 -0.0400  0.4628 -0.6358
 6555SOL     OW31123   1.713   0.434   2.019 -0.4114  0.1483  0.2742
 6555SOL    HW131124   1.620   0.454   2.035 -1.3296 -1.6700 -2.8991
 6555SOL    HW231125   1.751   0.457   2.104  1.3978 -1.0107 -0.2298
 6556SOL     OW31126   0.493   2.591   6.823  0.8132 -0.0133  0.3558
 6556SOL    HW131127   0.410   2.638   6.819  0.8421 -0.2531 -2.8421
 6556SOL    HW231128   0.505   2.554   6.910  1.2063  1.8753  1.0959
 6557SOL     OW31129   3.457   3.619   8.209  0.3079  0.1039 -0.5577
 6557SOL    HW131130   3.438   3.676   8.135 -0.5725  0.0407 -0.3754
 6557SOL    HW231131   3.553   3.622   8.207  0.3563 -1.1870 -0.1959
 6558SOL     OW31132   4.461   1.632  12.115  0.2741  0.5397 -0.1673
 6558SOL    HW131133   4.415   1.560  12.070  1.8016  0.3853 -1.4878
 6558SOL    HW231134   4.394   1.664  12.176  0.2887 -2.9466  1.6629
 6559SOL     OW31135   2.410   1.060   4.318  0.2433  0.6182  0.2694
 6559SOL    HW131136   2.487   1.004   4.310 -0.5980 -0.6479  1.2098
 6559SOL    HW231137   2.365   1.017   4.390 -0.3120  1.7757  0.6232
 6560SOL     OW31138   2.089   1.919   3.472  0.1405  0.8613 -0.0452
 6560SOL    HW131139   2.121   2.002   3.437 -1.3864  1.2051 -0.6329
 6560SOL    HW231140   2.071   1.875   3.389  2.1727  0.1285 -0.0915
 6561SOL     OW31141   0.774   3.701   6.412 -0.1612  0.7124 -0.5058
 6561SOL    HW131142   0.679   3.691   6.421 -0.0471 -0.4442 -0.6582
 6561SOL    HW231143   0.774   3.747   6.328 -1.9336  0.8340 -0.4279
 6562SOL     OW31144   2.425   4.559   7.566 -0.6718 -0.8238  0.3708
 6562SOL    HW131145   2.463   4.638   7.527  1.3138 -1.4053  1.1293
 6562SOL    HW231146   2.412   4.522   7.479 -0.2636  0.6617 -0.3278
 6563SOL     OW31147   2.807   0.572   1.606  0.3078  0.2001  0.2132
 6563SOL    HW131148   2.799   0.642   1.541 -0.3191 -0.4773 -0.4324
 6563SOL    HW231149   2.882   0.595   1.661  0.5416  0.4732 -0.2178
 6564SOL     OW31150   2.683   4.269  16.921 -0.0988 -0.0569 -0.5058
 6564SOL    HW131151   2.679   4.186  16.873  0.4032  0.8752 -2.1402
 6564SOL    HW231152   2.626   4.322  16.865 -0.3849 -0.5651 -0.7010
 6565SOL     OW31153   2.511   2.461   5.183 -0.1655 -0.0139 -0.1931
 6565SOL    HW131154   2.463   2.388   5.143 -2.0475  0.0558  1.8930
 6565SOL    HW231155   2.435   2.517   5.195  0.0483  0.4562 -1.0341
 6566SOL     OW31156   0.970   3.558   5.017 -0.0044 -0.3234 -0.1356
 6566SOL    HW131157   0.994   3.466   5.020  1.1910 -0.0040 -0.1284
 6566SOL    HW231158   1.054   3.603   5.021  0.4009 -1.0041 -1.0116
 6567SOL     OW31159   0.970   0.068   2.671  0.2490 -0.0434 -0.1194
 6567SOL    HW131160   1.061   0.097   2.670  0.3586 -0.3981 -0.7483
 6567SOL    HW231161   0.977   4.695   2.674  0.8274 -0.0178 -0.6931
 6568SOL     OW31162   2.119   3.236   7.087 -0.1954 -0.2835 -0.2992
 6568SOL    HW131163   2.087   3.310   7.037 -0.2822  1.0033  1.6814
 6568SOL    HW231164   2.107   3.162   7.027  2.0620 -2.1609  1.5211
 6569SOL     OW31165   1.478   3.825  16.051  0.6321  0.4664  0.5357
 6569SOL    HW131166   1.525   3.774  16.117  0.6914  0.8070  0.7551
 6569SOL    HW231167   1.392   3.781  16.049  1.5444 -1.3295  0.6220
 6570SOL     OW31168   0.692   3.399   3.266 -0.1243  0.1190  0.1687
 6570SOL    HW131169   0.706   3.404   3.172  0.6036  0.3991  0.2956
 6570SOL    HW231170   0.615   3.453   3.284 -0.8403 -0.1737 -1.9457
 6571SOL     OW31171   0.610   4.210   9.054  1.1724  0.0203 -0.1045
 6571SOL    HW131172   0.548   4.203   9.126  1.0971  0.7054 -0.1055
 6571SOL    HW231173   0.656   4.293   9.069  2.4108 -0.7689  0.4701
 6572SOL     OW31174   3.486   2.671   7.182  0.6677 -0.9973  0.1716
 6572SOL    HW131175   3.450   2.592   7.143 -3.2202  0.5298  0.6696
 6572SOL    HW231176   3.569   2.662   7.134  0.0921 -0.7191 -0.8813
 6573SOL     OW31177   4.687   1.395   6.842  0.2713  0.6537 -0.1226
 6573SOL    HW131178   0.025   1.468   6.849 -0.7219  1.5129 -0.3792
 6573SOL    HW231179   4.605   1.443   6.826 -0.9424 -0.6946  1.9427
 6574SOL     OW31180   0.453   0.672   3.530 -0.1609 -0.1711  0.8469
 6574SOL    HW131181   0.427   0.642   3.443  0.6815  3.1078 -0.4977
 6574SOL    HW231182   0.432   0.765   3.522  0.0294 -0.0847  1.3370
 6575SOL     OW31183   3.324   2.827   9.631 -0.0424 -0.6805  0.1075
 6575SOL    HW131184   3.292   2.789   9.550 -1.4489  0.7057  0.0258
 6575SOL    HW231185   3.411   2.787   9.634  0.6918  0.8980 -0.3488
 6576SOL     OW31186   3.675   3.122   5.400 -0.7314  0.2427  0.0225
 6576SOL    HW131187   3.585   3.144   5.377 -0.5561  1.0859  0.1364
 6576SOL    HW231188   3.667   3.075   5.483  1.1694 -1.3059 -0.6852
 6577SOL     OW31189   0.825   1.413   4.300 -0.1712  0.0532 -0.5325
 6577SOL    HW131190   0.825   1.317   4.302  1.8863  0.0252 -0.9787
 6577SOL    HW231191   0.731   1.431   4.302  0.1131  1.7340 -2.7160
 6578SOL     OW31192   0.237   0.435   8.891  0.5324 -0.7922  0.1023
 6578SOL    HW131193   0.263   0.497   8.959 -3.6568  0.8151  0.2697
 6578SOL    HW231194   0.239   0.491   8.814 -0.8791  0.8812  1.2693
 6579SOL     OW31195   3.601   3.351   6.430  0.5853  0.4470 -0.3224
 6579SOL    HW131196   3.596   3.259   6.405 -1.7795  0.6508 -0.6056
 6579SOL    HW231197   3.678   3.349   6.487 -0.7059  1.0895  1.4496
 6580SOL     OW31198   1.775   0.044  10.462 -0.1023 -0.0940 -0.3110
 6580SOL    HW131199   1.687   0.054  10.498  0.6071  4.9073 -0.0522
 6580SOL    HW231200   1.790   0.136  10.441  0.6103 -0.3685 -1.0039
 6581SOL     OW31201   4.358   3.987   7.710  0.1768 -0.2273 -0.6500
 6581SOL    HW131202   4.319   4.071   7.686  0.2833 -0.4562 -1.6423
 6581SOL    HW231203   4.369   4.003   7.804 -0.9247  0.8894 -0.7075
 6582SOL     OW31204   0.729   4.471   5.668 -0.0128 -0.2984 -0.1918
 6582SOL    HW131205   0.652   4.415   5.680  0.0685 -0.4665 -0.4490
 6582SOL    HW231206   0.798   4.409   5.643 -1.1779 -1.2317 -1.1242
 6583SOL     OW31207   4.366   2.953  16.157  0.2650  0.5142  0.2283
 6583SOL    HW131208   4.460   2.951  16.173  0.3548  0.8124 -0.2692
 6583SOL    HW231209   4.342   3.039  16.193 -0.4914 -0.2853  1.6333
 6584SOL     OW31210   0.491   3.711   4.179  0.5181  0.1815 -0.4303
 6584SOL    HW131211   0.493   3.637   4.239 -0.4070 -0.2388 -0.9236
 6584SOL    HW231212   0.398   3.716   4.157  0.5104  1.5510 -0.1106
 6585SOL     OW31213   2.862   4.144   8.539 -0.0417 -0.5287 -0.4142
 6585SOL    HW131214   2.882   4.182   8.625  0.6255 -1.2471 -0.2544
 6585SOL    HW231215   2.836   4.055   8.563 -0.9422 -0.5753 -1.5679
 6586SOL     OW31216   1.471   3.832   8.415  0.0414 -0.4799  0.1958
 6586SOL    HW131217   1.383   3.820   8.379 -0.7953  1.2227  1.6342
 6586SOL    HW231218   1.443   3.886   8.489  0.5228 -0.8709  0.6675
 6587SOL     OW31219   3.223   4.682  14.470 -0.1751 -0.0697 -0.1817
 6587SOL    HW131220   3.315   4.668  14.448  0.2304  0.7120  0.9581
 6587SOL    HW231221   3.186   0.018  14.405 -1.2151  0.5501  0.9574
 6588SOL     OW31222   3.359   3.265  11.743  0.9702  0.3227  0.2116
 6588SOL    HW131223   3.403   3.347  11.716  0.3647  0.4610 -0.3496
 6588SOL    HW231224   3.426   3.197  11.744  0.1043 -0.4669  2.9823
 6589SOL     OW31225   3.931   2.480  15.254  0.4170 -0.4247 -0.1383
 6589SOL    HW131226   3.900   2.516  15.172  2.0308 -1.0088 -1.0089
 6589SOL    HW231227   3.890   2.536  15.320 -2.9316 -1.7512 -1.0925
 6590SOL     OW31228   1.489   1.575   4.476 -0.4501 -0.3597  0.3299
 6590SOL    HW131229   1.427   1.644   4.454 -0.7283 -0.9304 -0.6870
 6590SOL    HW231230   1.447   1.500   4.434 -2.3016  1.5180 -1.1942
 6591SOL     OW31231   0.730   2.854  15.791 -0.0764 -0.2198  0.2234
 6591SOL    HW131232   0.705   2.765  15.816  0.0337 -0.1312  0.6393
 6591SOL    HW231233   0.650   2.906  15.791 -0.6737 -1.1010 -1.9137
 6592SOL     OW31234   3.086   3.620   3.080 -0.4353 -0.2794  0.2466
 6592SOL    HW131235   3.047   3.560   3.016 -0.3129  0.6335 -0.6919
 6592SOL    HW231236   3.094   3.701   3.030  1.2224 -0.7657 -0.2885
 6593SOL     OW31237   3.223   1.549  14.150  0.6958 -0.3796 -0.2034
 6593SOL    HW131238   3.295   1.612  14.141  0.1619  0.2291 -0.2575
 6593SOL    HW231239   3.214   1.537  14.055 -0.1401  1.7237 -0.4081
 6594SOL     OW31240   0.865   1.939   9.548  0.1273 -0.5067  0.2364
 6594SOL    HW131241   0.949   1.975   9.576  0.0108 -0.9927  1.2279
 6594SOL    HW231242   0.822   2.023   9.531  0.9483  0.0661  1.0128
 6595SOL     OW31243   3.715   2.615   8.750  0.0675 -0.5425 -0.1334
 6595SOL    HW131244   3.642   2.555   8.740 -1.4162  1.0834  0.8235
 6595SOL    HW231245   3.669   2.698   8.739 -0.2260 -0.8299 -1.0239
 6596SOL     OW31246   4.288   2.673   3.425  0.2291  0.5340  0.4771
 6596SOL    HW131247   4.349   2.656   3.497 -2.4690 -2.1725  2.1224
 6596SOL    HW231248   4.208   2.670   3.479 -0.4004 -1.4394 -0.5740
 6597SOL     OW31249   1.740   3.343   9.040  0.0601 -0.9462  0.2950
 6597SOL    HW131250   1.763   3.431   9.072 -1.0282 -0.0510 -1.4330
 6597SOL    HW231251   1.663   3.330   9.096 -0.9778 -1.5967 -1.2794
 6598SOL     OW31252   1.598   0.813  14.393 -0.2568 -0.1023 -0.2253
 6598SOL    HW131253   1.505   0.798  14.407 -0.6147  0.5926 -1.8685
 6598SOL    HW231254   1.606   0.895  14.441 -0.5597 -0.4000  0.3279
 6599SOL     OW31255   2.968   3.669   8.224 -0.7275  0.2057  0.3591
 6599SOL    HW131256   2.939   3.731   8.158 -1.4914  0.6032  1.0634
 6599SOL    HW231257   2.977   3.581   8.186  1.5296 -0.8244  3.2473
 6600SOL     OW31258   2.531   2.951   8.690 -0.1650 -0.3854  0.2573
 6600SOL    HW131259   2.606   3.005   8.664 -0.3855  1.2344  3.0058
 6600SOL    HW231260   2.567   2.864   8.672 -0.3835 -0.4694  0.2321
 6601SOL     OW31261   2.677   3.259   7.354  0.1879  0.1761 -0.3504
 6601SOL    HW131262   2.690   3.352   7.370  2.4702 -0.3672  0.9113
 6601SOL    HW231263   2.655   3.233   7.443  0.2177  0.0575 -0.3777
 6602SOL     OW31264   3.302   0.181   7.680  0.2683  0.4555 -0.2980
 6602SOL    HW131265   3.276   0.226   7.760  2.0436 -2.5877  1.9247
 6602SOL    HW231266   3.248   0.102   7.683 -0.3498  0.8574 -0.5938
 6603SOL     OW31267   3.372   0.057  17.249 -0.0651  0.0369 -0.2458
 6603SOL    HW131268   3.286   0.077  17.285 -0.1939  0.9591 -1.0740
 6603SOL    HW231269   3.355   4.700  17.199 -0.4338 -1.4270  2.1999
 6604SOL     OW31270   1.560   0.296  16.154 -0.3493  0.1614 -0.2972
 6604SOL    HW131271   1.535   0.280  16.245  2.4709 -1.3754  0.1944
 6604SOL    HW231272   1.641   0.348  16.152 -0.7694  0.8580  0.5388
 6605SOL     OW31273   1.896   4.211   7.753  0.3825  0.2153 -0.1188
 6605SOL    HW131274   1.862   4.299   7.767  1.2476  0.6930 -1.0167
 6605SOL    HW231275   1.989   4.227   7.733  0.5820 -0.9377 -0.1056
 6606SOL     OW31276   4.287   2.264   5.242  0.1299 -0.0991 -0.3313
 6606SOL    HW131277   4.338   2.296   5.316 -0.9238 -0.2011  0.4447
 6606SOL    HW231278   4.199   2.253   5.278 -0.0956  2.7296 -0.0082
 6607SOL     OW31279   0.231   2.270   1.969  0.1090  0.3956 -0.1246
 6607SOL    HW131280   0.309   2.217   1.956 -1.2005 -0.2776 -5.1237
 6607SOL    HW231281   0.218   2.319   1.887 -1.4633 -3.5753 -2.2472
 6608SOL     OW31282   3.675   2.281   8.334  0.3044 -0.4606  0.4821
 6608SOL    HW131283   3.684   2.271   8.239 -1.0788 -0.3694  0.3455
 6608SOL    HW231284   3.582   2.277   8.355 -0.0625  0.5158 -1.0169
 6609SOL     OW31285   1.950   2.901  14.617  0.0759  0.3076  0.3745
 6609SOL    HW131286   2.034   2.933  14.584 -0.3449 -2.3473 -3.2068
 6609SOL    HW231287   1.959   2.808  14.598 -0.5823 -0.2293  2.6262
 6610SOL     OW31288   1.056   1.437   4.039 -0.0239  0.4401 -0.1358
 6610SOL    HW131289   0.985   1.413   3.979  1.7701 -2.4224 -1.1213
 6610SOL    HW231290   1.138   1.415   3.995  0.8311  0.7584  1.3077
 6611SOL     OW31291   0.431   2.533  17.008 -0.2450 -0.0306  0.3856
 6611SOL    HW131292   0.525   2.546  17.001 -0.7216  3.5433  0.7126
 6611SOL    HW231293   0.396   2.606  16.956 -2.2312 -1.2600 -0.0387
 6612SOL     OW31294   0.328   3.991   5.268  0.1630  0.0689 -0.4994
 6612SOL    HW131295   0.252   3.979   5.211  0.7753 -2.3181 -0.8472
 6612SOL    HW231296   0.399   3.984   5.204  1.9541 -0.8024  1.5648
 6613SOL     OW31297   4.044   4.071   2.227  0.3298 -0.7415 -0.0537
 6613SOL    HW131298   4.050   4.087   2.133 -0.9155 -1.1492 -0.1970
 6613SOL    HW231299   4.136   4.067   2.255  0.4718  0.3846 -0.3407
 6614SOL     OW31300   0.182   3.499   3.955  0.0502 -0.2777 -0.4173
 6614SOL    HW131301   0.261   3.449   3.937  0.5848  0.1343  0.7796
 6614SOL    HW231302   0.116   3.431   3.940 -0.1631 -0.4128  1.0943
 6615SOL     OW31303   2.535   3.568   3.641  0.4553 -0.0922  0.2623
 6615SOL    HW131304   2.449   3.584   3.679  1.2045 -2.0033  2.7446
 6615SOL    HW231305   2.552   3.483   3.681  1.2333  0.7036  1.6280
 6616SOL     OW31306   2.649   3.541   9.403 -0.1530 -0.1298  0.8355
 6616SOL    HW131307   2.677   3.454   9.432 -1.7910 -0.2805  1.9228
 6616SOL    HW231308   2.693   3.594   9.469 -2.3582 -0.7254  2.7741
 6617SOL     OW31309   0.335   4.256   0.139  0.5389  0.1747  0.1676
 6617SOL    HW131310   0.277   4.179   0.146 -0.8563  1.0455 -1.7403
 6617SOL    HW231311   0.413   4.212   0.172  0.5414  0.8953  1.1046
 6618SOL     OW31312   4.464   4.385   3.591 -0.3576  0.3466 -0.5735
 6618SOL    HW131313   4.538   4.369   3.533 -0.4188 -0.0651 -0.5369
 6618SOL    HW231314   4.388   4.355   3.541  0.5085  1.4780 -2.5750
 6619SOL     OW31315   0.190   0.233   6.446  0.0903 -0.0397 -0.0596
 6619SOL    HW131316   0.251   0.306   6.449  0.3750 -0.2808  0.0472
 6619SOL    HW231317   0.123   0.260   6.509 -1.0717  1.9544 -2.1847
 6620SOL     OW31318   3.073   0.272   7.460  0.0538 -0.3824 -0.0011
 6620SOL    HW131319   3.108   0.336   7.522  2.0459  0.7274 -2.2934
 6620SOL    HW231320   3.036   0.209   7.523 -1.5181 -0.1914 -0.7243
 6621SOL     OW31321   2.329   2.681   3.842  0.0224 -1.4892 -0.3202
 6621SOL    HW131322   2.373   2.700   3.759  0.8287  2.9447  1.0807
 6621SOL    HW231323   2.369   2.727   3.915  0.3938  0.0684 -1.4962
 6622SOL     OW31324   1.569   3.738   7.081 -0.0690  0.4221  0.1242
 6622SOL    HW131325   1.506   3.705   7.145  1.6215 -0.6025  1.2353
 6622SOL    HW231326   1.624   3.800   7.129 -0.3019 -1.2140  2.4734
 6623SOL     OW31327   4.416   4.320  11.065  0.1363  0.2243  0.3768
 6623SOL    HW131328   4.480   4.389  11.083  1.0639 -0.3834 -0.5564
 6623SOL    HW231329   4.459   4.272  10.994 -0.4055  1.4490 -0.7823
 6624SOL     OW31330   3.978   2.757  13.365  0.0839  0.4099 -0.2277
 6624SOL    HW131331   3.961   2.843  13.404 -1.0153  0.4195 -0.7289
 6624SOL    HW231332   3.904   2.764  13.305 -0.0319  0.8679 -0.0310
 6625SOL     OW31333   1.085   3.245   4.128 -0.9262  0.2606  0.5346
 6625SOL    HW131334   1.052   3.171   4.178 -0.4107  0.1309  0.6789
 6625SOL    HW231335   1.140   3.202   4.063 -0.0223  0.8497  0.9138
 6626SOL     OW31336   2.352   2.738  15.440 -0.2946 -0.1070  0.7665
 6626SOL    HW131337   2.445   2.725  15.461 -0.2473 -0.9511  0.0102
 6626SOL    HW231338   2.339   2.655  15.395  1.4306  0.6250 -1.0978
 6627SOL     OW31339   1.782   4.243   8.485 -0.0338  0.4265  0.4184
 6627SOL    HW131340   1.803   4.283   8.569  0.0528 -1.2613  1.2041
 6627SOL    HW231341   1.776   4.148   8.491  0.3953  0.3970  0.3978
 6628SOL     OW31342   2.104   4.702  17.032 -0.0030  0.3607  0.3009
 6628SOL    HW131343   2.062   0.065  17.038  0.2979  0.5867 -0.7305
 6628SOL    HW231344   2.196   0.006  17.032  0.3814 -0.9859 -1.9948
 6629SOL     OW31345   4.085   0.889  12.421  0.0874 -0.7689  0.4260
 6629SOL    HW131346   4.092   0.793  12.424 -0.3966 -0.8213 -0.1293
 6629SOL    HW231347   4.170   0.918  12.455  0.4376 -1.5663  0.2303
 6630SOL     OW31348   3.723   0.927   0.723  0.0012 -0.8874 -0.0863
 6630SOL    HW131349   3.710   0.954   0.814  2.7006  1.2696 -0.3552
 6630SOL    HW231350   3.774   1.003   0.696 -1.3435 -0.3769 -1.1692
 6631SOL     OW31351   2.838   1.136   5.023  0.0859 -0.1471  0.0152
 6631SOL    HW131352   2.787   1.150   4.943 -0.6608 -3.6258 -0.0867
 6631SOL    HW231353   2.920   1.095   4.996  0.6280 -0.1518  1.6708
 6632SOL     OW31354   3.460   1.677   0.589  0.2053 -0.0770  0.1210
 6632SOL    HW131355   3.464   1.772   0.590  0.3034 -0.1056  2.5679
 6632SOL    HW231356   3.371   1.655   0.563 -1.0771  4.1171  0.9818
 6633SOL     OW31357   0.500   4.097   5.644 -0.7195 -0.0775  0.2393
 6633SOL    HW131358   0.431   4.101   5.578 -2.4228 -0.1265  2.0161
 6633SOL    HW231359   0.575   4.131   5.594  0.2289 -0.5522  1.3515
 6634SOL     OW31360   2.601   0.036   2.705 -0.0281 -0.3364 -0.3928
 6634SOL    HW131361   2.560   0.122   2.710  0.4942 -0.2087  1.8561
 6634SOL    HW231362   2.584   4.722   2.791  0.2818 -1.8166 -0.9624
 6635SOL     OW31363   2.762   2.408   6.908 -0.4082 -0.2117  0.4068
 6635SOL    HW131364   2.720   2.492   6.890 -1.0811 -1.0503 -1.9548
 6635SOL    HW231365   2.776   2.410   7.002 -0.9284  0.0399  0.4754
 6636SOL     OW31366   3.334   3.441   5.250  0.5407 -0.2125  0.0178
 6636SOL    HW131367   3.248   3.464   5.284  0.4098  0.3938 -0.7168
 6636SOL    HW231368   3.331   3.485   5.165  0.6944 -0.5426 -0.1577
 6637SOL     OW31369   4.561   2.144   7.592  0.0017 -0.4159 -0.3616
 6637SOL    HW131370   4.512   2.090   7.530 -1.3019  0.5963 -0.2091
 6637SOL    HW231371   4.519   2.228   7.573 -0.7978 -0.7895 -0.2343
 6638SOL     OW31372   2.047   0.665   8.810  0.3129 -0.5058  0.3524
 6638SOL    HW131373   1.955   0.652   8.835  0.0445 -2.9933 -1.9043
 6638SOL    HW231374   2.093   0.588   8.844 -0.3198 -0.4738  1.3005
 6639SOL     OW31375   4.074   4.257   5.158  0.6466 -0.3899 -0.1570
 6639SOL    HW131376   4.053   4.171   5.124 -1.5608 -1.1428  3.1714
 6639SOL    HW231377   4.168   4.265   5.143  1.1454 -1.2604  2.4878
 6640SOL     OW31378   3.892   3.302   7.814 -0.0029  0.4618  0.2012
 6640SOL    HW131379   3.832   3.357   7.864 -0.6532 -0.1870  0.1249
 6640SOL    HW231380   3.920   3.249   7.890 -0.2057  1.1200  0.7345
 6641SOL     OW31381   2.380   3.239   9.936  0.0111 -0.2590 -0.7177
 6641SOL    HW131382   2.467   3.201   9.947  0.4208  0.1689 -2.5068
 6641SOL    HW231383   2.346   3.187   9.863 -2.7583 -2.1411  1.9339
 6642SOL     OW31384   1.427   4.380  12.187 -0.1105 -0.1031 -0.1010
 6642SOL    HW131385   1.481   4.433  12.127 -2.1186  1.5050 -0.4989
 6642SOL    HW231386   1.400   4.314  12.124  0.9558 -0.8992  0.2771
 6643SOL     OW31387   3.951   0.704  17.249 -0.4339 -0.1898 -0.7449
 6643SOL    HW131388   3.957   0.612  17.272 -0.5329  0.3262  1.3582
 6643SOL    HW231389   4.039   0.714  17.212 -0.5492 -0.3627 -1.0701
 6644SOL     OW31390   3.774   4.048   5.931 -0.0341 -0.0800  0.5053
 6644SOL    HW131391   3.790   4.037   5.837 -0.6428  2.7618  0.0896
 6644SOL    HW231392   3.758   4.142   5.939  1.4275  0.3139 -1.1611
 6645SOL     OW31393   1.338   0.185   7.993 -0.5390 -0.1996  0.1129
 6645SOL    HW131394   1.415   0.240   7.981 -0.4199 -0.8424 -2.0245
 6645SOL    HW231395   1.374   0.097   7.978 -0.3761 -0.6206  2.9108
 6646SOL     OW31396   2.531   0.970   8.007 -0.1084 -0.4601 -0.2823
 6646SOL    HW131397   2.578   0.887   8.010 -2.0221 -1.5281  0.5506
 6646SOL    HW231398   2.528   0.991   8.100  1.2210 -0.0435 -0.3346
 6647SOL     OW31399   2.921   0.406   2.225 -0.3761 -0.5927 -0.0344
 6647SOL    HW131400   2.925   0.402   2.320 -0.3342 -2.4566 -0.1183
 6647SOL    HW231401   2.965   0.491   2.228  0.5438 -1.1327  1.8555
 6648SOL     OW31402   4.315   3.830   2.681 -0.1386  0.5949  0.0812
 6648SOL    HW131403   4.251   3.769   2.716  0.4234  0.6967  1.3064
 6648SOL    HW231404   4.386   3.782   2.638 -0.1063  0.2446  0.5278
 6649SOL     OW31405   3.311   2.082   9.376 -0.5997  0.4257 -0.2331
 6649SOL    HW131406   3.356   2.134   9.444 -0.5125 -0.8745  0.7061
 6649SOL    HW231407   3.240   2.045   9.428 -1.8130  2.1966 -0.6287
 6650SOL     OW31408   1.646   2.208   7.219  0.3762 -0.0008  0.1258
 6650SOL    HW131409   1.607   2.274   7.276 -0.7842  0.7257 -1.5112
 6650SOL    HW231410   1.673   2.270   7.150 -1.5481  1.1455  0.4294
 6651SOL     OW31411   4.227   4.242   7.722  0.5086 -0.2161  0.7764
 6651SOL    HW131412   4.237   4.284   7.808  1.4839  1.0645  0.0309
 6651SOL    HW231413   4.220   4.321   7.668 -0.0727 -1.6001 -1.1584
 6652SOL     OW31414   4.047   2.994   4.207  0.0640 -0.4344  0.3707
 6652SOL    HW131415   4.024   3.076   4.249  1.5182  0.4526 -0.5761
 6652SOL    HW231416   4.125   2.975   4.260 -0.3682 -0.8693  0.8539
 6653SOL     OW31417   0.200   3.155  13.429  0.2774 -0.0161  0.7239
 6653SOL    HW131418   0.295   3.144  13.427  0.0177 -1.8885 -1.6654
 6653SOL    HW231419   0.183   3.156  13.335 -0.7461 -0.9710  0.9075
 6654SOL     OW31420   4.079   4.516   0.349  0.5064  0.8355  0.3154
 6654SOL    HW131421   4.012   4.497   0.283  1.1898  0.4433 -0.2717
 6654SOL    HW231422   4.155   4.493   0.295  0.1957  0.1139  0.1828
 6655SOL     OW31423   4.708   2.433  11.965 -0.1878  0.3103 -0.4322
 6655SOL    HW131424   4.685   2.421  11.873 -0.5982 -1.7654 -0.0787
 6655SOL    HW231425   4.622   2.445  12.007  0.2412 -1.4983  0.9602
 6656SOL     OW31426   2.709   2.949   2.413  0.5609 -0.6144 -0.0947
 6656SOL    HW131427   2.694   3.012   2.343 -0.2017 -0.5431  0.1346
 6656SOL    HW231428   2.803   2.929   2.405  1.1395  1.1658  2.2593
 6657SOL     OW31429   3.784   1.386   4.214 -0.1448 -0.6782 -0.0336
 6657SOL    HW131430   3.819   1.380   4.125 -2.0852 -1.6923 -0.7196
 6657SOL    HW231431   3.723   1.312   4.219  0.0090 -0.8690 -1.0009
 6658SOL     OW31432   2.831   1.717   3.385  0.8524 -0.4902 -0.2227
 6658SOL    HW131433   2.755   1.774   3.394 -0.1266 -1.6114 -1.3098
 6658SOL    HW231434   2.808   1.642   3.440  2.6486 -1.9431 -1.4278
 6659SOL     OW31435   1.940   0.540   5.323 -0.1402  0.0919  0.5530
 6659SOL    HW131436   1.906   0.475   5.384 -2.3355 -0.0241 -0.8106
 6659SOL    HW231437   1.868   0.584   5.279 -0.7029 -0.9425  0.4439
 6660SOL     OW31438   0.100   2.737  17.084 -0.3667  0.0269  0.2223
 6660SOL    HW131439   0.151   2.719  17.005 -2.3891 -1.4628 -0.7458
 6660SOL    HW231440   0.138   2.667  17.138  1.0206 -0.1916 -1.0319
 6661SOL     OW31441   0.402   1.099   8.767 -0.1386  0.6927  0.0253
 6661SOL    HW131442   0.389   1.070   8.677  2.3517 -0.5259  0.0363
 6661SOL    HW231443   0.331   1.159   8.787 -2.1444 -1.5232 -0.4913
 6662SOL     OW31444   0.129   3.710   0.148 -0.5198 -0.4046 -0.5431
 6662SOL    HW131445   0.034   3.713   0.159 -0.4539 -0.8066  0.1071
 6662SOL    HW231446   0.142   3.805   0.140 -0.9356 -0.0928  2.6993
 6663SOL     OW31447   2.266   2.582   7.428  0.1133 -0.7392 -0.6652
 6663SOL    HW131448   2.225   2.539   7.353 -0.1421 -2.1443  0.2880
 6663SOL    HW231449   2.235   2.673   7.426 -0.8725 -1.0112  1.8967
 6664SOL     OW31450   4.273   3.474  12.404 -0.4071  0.1607  0.3393
 6664SOL    HW131451   4.252   3.382  12.422  2.2122 -0.7022 -1.0281
 6664SOL    HW231452   4.334   3.498  12.474  0.4646 -0.8773 -0.0544
 6665SOL     OW31453   2.817   4.397   2.781 -0.1265  0.6474 -0.2381
 6665SOL    HW131454   2.791   4.306   2.766  0.4140  0.2342  1.2917
 6665SOL    HW231455   2.860   4.408   2.697 -1.5593 -1.3284 -1.2508
 6666SOL     OW31456   1.230   3.075  14.439  1.1671  0.1526 -0.0177
 6666SOL    HW131457   1.195   3.161  14.462 -1.9280 -1.1374  0.1407
 6666SOL    HW231458   1.306   3.054  14.492  1.0180 -1.1262 -0.2967
 6667SOL     OW31459   2.559   1.988   6.356 -0.0361 -0.3591 -0.3914
 6667SOL    HW131460   2.490   2.044   6.320  0.7212 -1.0877 -2.9651
 6667SOL    HW231461   2.620   2.045   6.403 -2.0977  1.0826  0.5546
 6668SOL     OW31462   0.807   0.935   5.879 -0.4247 -0.3180  0.6007
 6668SOL    HW131463   0.869   0.920   5.808 -1.0000  0.2915 -0.0263
 6668SOL    HW231464   0.861   0.900   5.950  2.5587  0.1323 -1.4746
 6669SOL     OW31465   4.495   4.554   2.938 -0.4231  0.0516 -0.0350
 6669SOL    HW131466   4.443   4.631   2.962  0.2487  0.6262 -0.4215
 6669SOL    HW231467   4.527   4.586   2.854 -0.8013  1.3831  0.3263
 6670SOL     OW31468   4.198   1.766   3.468  0.2084  0.0794 -0.4820
 6670SOL    HW131469   4.213   1.834   3.403 -1.4986 -0.3001 -1.2616
 6670SOL    HW231470   4.259   1.790   3.538  1.2780 -0.1057 -1.3657
 6671SOL     OW31471   1.891   2.478   9.064 -0.4720 -0.5166 -0.4095
 6671SOL    HW131472   1.854   2.566   9.057 -1.7735 -1.0739 -0.3882
 6671SOL    HW231473   1.924   2.482   9.154 -0.4800 -1.2841 -0.3724
 6672SOL     OW31474   4.182   1.275   2.839 -0.4967 -0.0298 -0.6880
 6672SOL    HW131475   4.255   1.336   2.824 -2.6280  1.8782 -3.2648
 6672SOL    HW231476   4.175   1.252   2.746  0.5513  2.6740 -1.4424
 6673SOL     OW31477   1.932   2.409   5.343 -0.3078 -0.0599  0.4515
 6673SOL    HW131478   1.865   2.458   5.389  0.8794  2.7520 -0.8264
 6673SOL    HW231479   2.009   2.414   5.400 -0.4300 -0.2634  0.6360
 6674SOL     OW31480   4.139   1.431   4.913  0.3768 -0.2800  0.0284
 6674SOL    HW131481   4.089   1.512   4.922 -0.0836 -1.1091  4.5728
 6674SOL    HW231482   4.173   1.423   5.002  0.8152  2.1372  0.0744
 6675SOL     OW31483   4.540   4.467   5.243 -0.3611 -0.8881 -0.6886
 6675SOL    HW131484   4.628   4.455   5.279 -0.7660  0.4258  0.7736
 6675SOL    HW231485   4.518   4.556   5.273  1.5791 -0.5753 -0.1841
 6676SOL     OW31486   2.678   2.203   6.483 -0.0257  0.0774  0.0845
 6676SOL    HW131487   2.673   2.195   6.578  4.4477 -0.8792  0.2488
 6676SOL    HW231488   2.672   2.297   6.468  0.9236  0.4605  2.0545
 6677SOL     OW31489   1.784   2.707   9.165 -0.2033  0.4415 -0.6762
 6677SOL    HW131490   1.815   2.754   9.242 -0.5359 -0.6176  0.0993
 6677SOL    HW231491   1.688   2.707   9.176 -0.1588 -0.0011 -0.2897
 6678SOL     OW31492   1.851   0.844   3.888  0.2692  0.3123  0.1467
 6678SOL    HW131493   1.850   0.752   3.916 -0.2751 -0.1734 -1.4546
 6678SOL    HW231494   1.775   0.881   3.932  0.0668 -0.0184  0.0728
 6679SOL     OW31495   2.032   3.990   9.196 -0.1010 -0.2576 -0.0920
 6679SOL    HW131496   2.056   4.024   9.110  0.0881 -1.3022 -0.4437
 6679SOL    HW231497   1.939   4.011   9.188 -0.4953 -1.6269  0.9514
 6680SOL     OW31498   2.887   4.218   7.151 -0.0058 -0.2248 -0.6462
 6680SOL    HW131499   2.920   4.143   7.201 -0.9044 -0.1776  0.0238
 6680SOL    HW231500   2.795   4.226   7.179 -0.0640  0.5930 -1.0847
 6681SOL     OW31501   2.601   2.944   8.294 -0.2687 -0.2334  0.0689
 6681SOL    HW131502   2.574   3.002   8.365 -1.0109  0.2650 -0.6140
 6681SOL    HW231503   2.516   2.942   8.249 -0.6701 -1.0829  0.8724
 6682SOL     OW31504   2.982   3.053   8.680  0.1563 -0.2224  0.0417
 6682SOL    HW131505   2.995   3.079   8.771 -0.9682  1.4609 -0.2723
 6682SOL    HW231506   2.897   3.009   8.687 -0.0316  0.3078  1.0439
 6683SOL     OW31507   3.727   3.432   2.450 -0.0222 -0.1221 -0.3755
 6683SOL    HW131508   3.664   3.488   2.406  0.0876 -0.3032 -0.7599
 6683SOL    HW231509   3.813   3.472   2.446 -1.0509  1.7374 -3.7369
 6684SOL     OW31510   2.753   3.871   8.595 -0.2242 -0.7584  0.4987
 6684SOL    HW131511   2.715   3.797   8.547 -0.3540 -1.7210  2.0733
 6684SOL    HW231512   2.673   3.898   8.641  0.9746  0.3327  1.9618
 6685SOL     OW31513   1.162   3.634  14.822 -0.8105 -0.3457 -0.3686
 6685SOL    HW131514   1.183   3.706  14.881 -1.8516  0.7978 -1.3897
 6685SOL    HW231515   1.235   3.578  14.847  2.0769  3.4414 -0.1927
 6686SOL     OW31516   4.274   1.517   2.899  0.4741 -0.7661  0.2524
 6686SOL    HW131517   4.356   1.549   2.936  0.2551  1.6839 -1.3758
 6686SOL    HW231518   4.257   1.584   2.832 -3.4460 -2.4671 -0.4860
 6687SOL     OW31519   1.211   2.840   8.776 -0.5408  0.2121 -0.4960
 6687SOL    HW131520   1.249   2.805   8.857 -0.8454  0.0729 -0.4129
 6687SOL    HW231521   1.131   2.867   8.822 -0.4539  0.5792 -0.5599
 6688SOL     OW31522   0.472   4.004   3.869  0.1537  0.0754 -0.3550
 6688SOL    HW131523   0.564   3.997   3.846 -0.0730  1.4224 -1.6583
 6688SOL    HW231524   0.448   3.911   3.866  0.1169  0.1550 -2.4508
 6689SOL     OW31525   1.923   4.569   8.302  0.3536  0.4797  0.9420
 6689SOL    HW131526   1.998   4.523   8.340  0.9712 -0.2776 -1.1956
 6689SOL    HW231527   1.960   4.655   8.283  0.3577  0.9056  2.8759
 6690SOL     OW31528   1.283   1.780   5.773 -0.6630  0.3954  0.1847
 6690SOL    HW131529   1.255   1.866   5.803 -3.7212 -0.1317 -1.0925
 6690SOL    HW231530   1.210   1.729   5.810  1.0374 -2.1829  0.0259
 6691SOL     OW31531   1.278   3.572   4.534 -0.0566  0.2493 -0.3070
 6691SOL    HW131532   1.247   3.543   4.620  0.4708 -0.7411 -0.4523
 6691SOL    HW231533   1.238   3.505   4.479  1.9935 -1.3580  0.1656
 6692SOL     OW31534   3.622   3.404  10.981  0.0116  0.3435  0.0235
 6692SOL    HW131535   3.623   3.470  11.050 -0.2959 -0.6589  0.9816
 6692SOL    HW231536   3.712   3.414  10.950  0.5512  2.2802  2.2624
 6693SOL     OW31537   4.689   4.502   8.864 -0.0667  0.2777  0.0874
 6693SOL    HW131538   0.013   4.568   8.913 -1.4865  0.9711  0.5152
 6693SOL    HW231539   0.019   4.424   8.877  0.2762  0.3801 -0.6794
 6694SOL     OW31540   4.297   2.771  11.557 -0.0007  0.2161  0.2518
 6694SOL    HW131541   4.280   2.728  11.640 -0.2290  2.0988  1.1782
 6694SOL    HW231542   4.219   2.773  11.502  1.4250  4.2522 -1.6166
 6695SOL     OW31543   0.428   4.251   2.071 -0.2911 -0.0637 -0.4167
 6695SOL    HW131544   0.387   4.165   2.065 -0.1623  0.0151 -2.2517
 6695SOL    HW231545   0.414   4.261   2.166 -1.2628 -2.9146 -0.2710
 6696SOL     OW31546   4.312   3.444  17.293  0.2519 -0.2723 -0.1426
 6696SOL    HW131547   4.277   3.359  17.317  1.0417  0.5537  3.9085
 6696SOL    HW231548   4.274   3.498  17.363 -0.5338 -1.6812  0.5129
 6697SOL     OW31549   2.350   4.408   8.265 -0.0103 -0.0032 -0.3586
 6697SOL    HW131550   2.392   4.343   8.209  0.4460  1.0028 -1.1795
 6697SOL    HW231551   2.287   4.353   8.311  0.7514  0.9214  1.7878
 6698SOL     OW31552   0.477   4.509   2.416 -0.0589  0.2071  0.4723
 6698SOL    HW131553   0.476   4.436   2.354 -0.3685 -0.4612  1.2601
 6698SOL    HW231554   0.405   4.492   2.478 -0.8291 -1.3360 -0.8496
 6699SOL     OW31555   1.484   3.713   7.774  0.1686  0.3939  0.0745
 6699SOL    HW131556   1.405   3.702   7.721 -1.3857  0.6028  2.3318
 6699SOL    HW231557   1.539   3.757   7.710 -0.3428 -1.6920 -1.8174
 6700SOL     OW31558   4.209   3.553   3.267 -0.0556 -0.2975 -0.4849
 6700SOL    HW131559   4.201   3.463   3.236  0.4461 -0.4619 -0.1476
 6700SOL    HW231560   4.120   3.583   3.283  0.5740  1.1871  0.2469
 6701SOL     OW31561   3.067   2.291   3.573 -0.4701  0.2475  0.7325
 6701SOL    HW131562   2.975   2.279   3.599 -0.0403 -2.0782  1.1911
 6701SOL    HW231563   3.061   2.336   3.489 -0.3727  0.8927  1.0734
 6702SOL     OW31564   1.086   3.834   2.423 -0.2705  0.0309 -0.0205
 6702SOL    HW131565   1.070   3.790   2.339 -2.1539  0.9274 -0.1276
 6702SOL    HW231566   1.006   3.885   2.434 -0.3774 -0.1508  0.0449
 6703SOL     OW31567   1.864   3.940  15.807 -0.4832  0.2282 -0.0125
 6703SOL    HW131568   1.823   3.960  15.891 -2.6337  2.3344 -1.5425
 6703SOL    HW231569   1.898   4.026  15.783  0.7705 -0.5854 -1.1337
 6704SOL     OW31570   1.029   0.670   7.148 -0.1465  0.6697 -0.5262
 6704SOL    HW131571   0.952   0.624   7.114 -1.2308 -0.6203  3.6061
 6704SOL    HW231572   1.077   0.606   7.201  0.8921  1.9253  0.0331
 6705SOL     OW31573   3.527   1.159   7.314 -0.1025 -0.4325 -0.7389
 6705SOL    HW131574   3.577   1.165   7.395 -1.3681 -0.8977  0.0728
 6705SOL    HW231575   3.491   1.247   7.303 -0.7781 -0.4234  1.6872
 6706SOL     OW31576   2.916   4.611   0.475  0.2168  0.2594  0.1659
 6706SOL    HW131577   2.964   4.691   0.496 -1.6169  1.9679 -2.1274
 6706SOL    HW231578   2.840   4.644   0.427  0.4161 -0.9911 -0.9959
 6707SOL     OW31579   2.819   0.752   1.371 -0.5455  0.2429  0.5864
 6707SOL    HW131580   2.760   0.826   1.386 -1.7821 -0.8235  1.0200
 6707SOL    HW231581   2.847   0.778   1.283 -0.3396 -1.1242  0.2369
 6708SOL     OW31582   3.872   0.523   3.551  0.0631  0.0019 -0.3838
 6708SOL    HW131583   3.794   0.562   3.513  0.4227 -0.8738 -2.0155
 6708SOL    HW231584   3.833   0.454   3.605  1.2418 -0.4782 -0.1189
 6709SOL     OW31585   2.075   0.311   2.935 -0.6830  0.2882  0.0451
 6709SOL    HW131586   2.111   0.347   3.016 -1.7176 -0.2128  0.7252
 6709SOL    HW231587   1.985   0.343   2.942 -1.2441 -0.9737 -1.5128
 6710SOL     OW31588   1.502   2.075   3.643 -0.3084 -0.1888  0.3032
 6710SOL    HW131589   1.576   2.127   3.673 -0.9784 -0.3081  2.1545
 6710SOL    HW231590   1.444   2.065   3.718  0.7151  0.5076  1.1880
 6711SOL     OW31591   2.280   2.150  13.928  0.1709 -0.3458  0.2764
 6711SOL    HW131592   2.311   2.110  14.009 -0.9397 -1.3756  0.2065
 6711SOL    HW231593   2.354   2.127  13.873 -0.2124  0.6148 -0.6388
 6712SOL     OW31594   0.212   0.591   9.654  0.1110 -0.1915 -0.2924
 6712SOL    HW131595   0.301   0.588   9.690  0.0076 -2.7165 -0.2392
 6712SOL    HW231596   0.178   0.662   9.708  2.1771  0.1024  0.6138
 6713SOL     OW31597   3.326   1.505   4.224  0.2317 -0.0022 -0.2951
 6713SOL    HW131598   3.383   1.494   4.148 -0.8676 -3.2888 -0.6697
 6713SOL    HW231599   3.245   1.539   4.186 -1.4738 -3.5741  0.0926
 6714SOL     OW31600   4.172   1.609   5.218 -0.0519  0.2287  0.4270
 6714SOL    HW131601   4.122   1.691   5.224 -0.9278 -0.2260 -0.7469
 6714SOL    HW231602   4.264   1.634   5.224 -0.0568  0.0166  1.4782
 6715SOL     OW31603   0.124   3.740   8.776 -0.4169  0.0689  0.2157
 6715SOL    HW131604   0.067   3.663   8.784  0.6639 -0.9576 -2.1232
 6715SOL    HW231605   0.211   3.700   8.785 -0.8883 -0.1415  3.7660
 6716SOL     OW31606   2.345   1.614   6.171 -0.1640  0.4094 -0.4399
 6716SOL    HW131607   2.387   1.647   6.250  0.1456  1.5084 -1.0624
 6716SOL    HW231608   2.400   1.646   6.100 -0.2061  2.0872  0.2931
 6717SOL     OW31609   2.147   2.064   0.385  0.3385  0.4689 -0.3194
 6717SOL    HW131610   2.175   1.984   0.430  0.9960 -0.7718 -2.9643
 6717SOL    HW231611   2.051   2.061   0.377  0.2326  0.8725  0.8034
 6718SOL     OW31612   1.639   0.346   1.565 -0.4334  0.5879 -0.6502
 6718SOL    HW131613   1.702   0.390   1.622 -0.5886 -0.4690  0.3543
 6718SOL    HW231614   1.699   0.299   1.507 -0.6165 -0.8635  0.3414
 6719SOL     OW31615   3.676   2.491   3.366  0.2233 -0.2000 -0.4739
 6719SOL    HW131616   3.611   2.469   3.433 -1.6783  0.4623 -2.1070
 6719SOL    HW231617   3.669   2.409   3.316  1.6006  0.1982 -1.3059
 6720SOL     OW31618   4.585   4.179  17.246 -0.7146  0.4059 -0.2041
 6720SOL    HW131619   4.500   4.138  17.260  0.3510 -0.6610  3.0758
 6720SOL    HW231620   4.594   4.244  17.316 -0.2710 -0.0997  0.2049
 6721SOL     OW31621   1.888   0.651   0.925  0.4463 -0.1081 -0.2916
 6721SOL    HW131622   1.827   0.578   0.940 -0.1366  0.9955  2.7821
 6721SOL    HW231623   1.841   0.731   0.901 -0.9552 -0.5960  0.7986
 6722SOL     OW31624   1.810   2.734   7.902  0.2300 -0.2015 -0.3441
 6722SOL    HW131625   1.758   2.747   7.981  0.5574 -0.6041 -0.0648
 6722SOL    HW231626   1.838   2.643   7.909  0.5256 -0.1308 -0.6156
 6723SOL     OW31627   3.465   0.159   3.544 -0.0063 -0.1544 -0.1500
 6723SOL    HW131628   3.401   0.224   3.571  0.5925  0.0872  0.7126
 6723SOL    HW231629   3.435   0.120   3.462 -0.5258 -2.1122  0.9570
 6724SOL     OW31630   1.528   2.672   6.932 -0.2525 -0.5355 -0.0210
 6724SOL    HW131631   1.495   2.585   6.908 -1.3073  0.7684 -3.2872
 6724SOL    HW231632   1.447   2.714   6.963 -1.1591 -0.6311 -2.2393
 6725SOL     OW31633   3.737   2.952   3.059  0.0892  0.0459  0.1593
 6725SOL    HW131634   3.689   2.879   3.099 -0.9664  0.1690 -0.8989
 6725SOL    HW231635   3.728   3.016   3.129 -2.4244 -0.0572 -0.0743
 6726SOL     OW31636   0.356   1.441   2.324 -0.1688 -0.9507 -0.5415
 6726SOL    HW131637   0.324   1.523   2.287 -3.4080 -1.1299  1.8171
 6726SOL    HW231638   0.425   1.483   2.376 -1.2198  0.0528  0.0427
 6727SOL     OW31639   2.027   3.293   8.756  0.1296  0.3293  0.0589
 6727SOL    HW131640   2.110   3.342   8.752 -0.3537  1.1187 -0.4443
 6727SOL    HW231641   1.955   3.339   8.712 -0.8204 -0.4942  0.7845
 6728SOL     OW31642   0.038   3.083   5.862  0.1899  0.0911 -0.3947
 6728SOL    HW131643   4.716   3.010   5.904  3.2450 -1.3191  0.4058
 6728SOL    HW231644   4.708   3.094   5.783 -1.4160  0.8673  0.7870
 6729SOL     OW31645   3.449   1.734  12.820 -0.1166  0.4649  0.0339
 6729SOL    HW131646   3.440   1.740  12.725 -0.3503 -1.5406 -0.0683
 6729SOL    HW231647   3.452   1.639  12.828 -0.2038  0.3127 -1.7956
 6730SOL     OW31648   3.054   2.292  16.248 -0.3900 -0.1109 -0.1966
 6730SOL    HW131649   3.086   2.210  16.285  1.7744 -0.4807 -2.8669
 6730SOL    HW231650   2.987   2.255  16.190  0.3475 -1.1120 -0.4136
 6731SOL     OW31651   3.803   4.447   8.138  0.4167 -0.4741 -1.0003
 6731SOL    HW131652   3.798   4.384   8.066  1.7072  2.4470 -3.6505
 6731SOL    HW231653   3.835   4.524   8.091  0.0087  0.2094 -0.1681
 6732SOL     OW31654   4.627   0.302   9.023  0.3883  0.1288  0.0873
 6732SOL    HW131655   4.655   0.231   9.080  0.9119 -0.6764 -1.1841
 6732SOL    HW231656   4.687   0.306   8.949  0.5264 -0.5225  0.1676
 6733SOL     OW31657   2.961   3.260   4.754 -0.1601  0.1559  0.2255
 6733SOL    HW131658   3.033   3.197   4.744  0.9923  1.7075 -1.1949
 6733SOL    HW231659   3.004   3.325   4.811  0.0212  0.8623 -0.7150
 6734SOL     OW31660   2.360   3.064   7.656  0.0492  0.1272 -0.5862
 6734SOL    HW131661   2.326   2.991   7.707 -0.1711  0.9053  0.3788
 6734SOL    HW231662   2.345   3.032   7.567  1.6105 -1.2294 -0.3597
 6735SOL     OW31663   2.498   3.115   0.387 -0.0607  0.0231 -0.2186
 6735SOL    HW131664   2.587   3.080   0.383 -1.4582 -3.6607  0.8568
 6735SOL    HW231665   2.472   3.084   0.473 -0.1893  0.8232  0.0287
 6736SOL     OW31666   4.483   3.859   2.964  0.0247 -0.4882  0.6577
 6736SOL    HW131667   4.425   3.833   3.035 -0.9208  0.5657  0.2617
 6736SOL    HW231668   4.417   3.855   2.895 -1.1789 -2.1912  1.9040
 6737SOL     OW31669   0.026   3.114   1.952  0.1142 -0.0186 -0.0486
 6737SOL    HW131670   0.102   3.107   1.895  0.0926 -0.6243 -0.0006
 6737SOL    HW231671   0.060   3.090   2.038 -1.6275 -0.1888  0.5904
 6738SOL     OW31672   3.250   3.320   4.093  0.0836 -0.5763 -0.2710
 6738SOL    HW131673   3.237   3.317   3.998  2.6015  2.6626 -0.7255
 6738SOL    HW231674   3.311   3.248   4.105  0.1264 -0.3447  0.9188
 6739SOL     OW31675   3.303   2.693   3.531  0.1911 -0.4562 -0.5880
 6739SOL    HW131676   3.347   2.705   3.447 -1.3131 -0.5772 -1.3891
 6739SOL    HW231677   3.267   2.779   3.550 -1.3361 -1.1696 -0.3055
 6740SOL     OW31678   1.460   1.461   7.900  0.4061  0.4437 -0.2001
 6740SOL    HW131679   1.513   1.537   7.877 -0.7269  2.0295  2.4262
 6740SOL    HW231680   1.431   1.491   7.986 -0.0737 -0.2515 -0.1153
 6741SOL     OW31681   4.332   1.592   1.373  0.0567 -0.1131 -0.0848
 6741SOL    HW131682   4.348   1.629   1.286 -2.3234 -0.3289 -0.6190
 6741SOL    HW231683   4.259   1.532   1.359  1.0452 -0.5971 -3.0433
 6742SOL     OW31684   4.273   3.403   3.593 -0.2549  0.1121  0.1741
 6742SOL    HW131685   4.325   3.464   3.542 -0.3252  0.7727  0.8980
 6742SOL    HW231686   4.292   3.427   3.684 -0.4382  0.8715  0.0088
 6743SOL     OW31687   1.393   2.783   9.601 -0.0131 -0.6657  0.5086
 6743SOL    HW131688   1.381   2.744   9.688 -1.9970  0.8623  0.9245
 6743SOL    HW231689   1.367   2.871   9.629 -1.0065 -0.4979 -0.9594
 6744SOL     OW31690   3.048   4.541   0.261  0.1548  0.4075 -0.2790
 6744SOL    HW131691   3.007   4.577   0.339 -0.5342  2.7045 -1.6797
 6744SOL    HW231692   3.126   4.494   0.291  0.4231  0.1771 -1.3103
 6745SOL     OW31693   3.312   2.550   4.366  0.0242  0.3964  0.0285
 6745SOL    HW131694   3.285   2.481   4.305 -0.9035  0.5978  0.2032
 6745SOL    HW231695   3.388   2.588   4.322 -0.5768 -0.4787 -1.7676
 6746SOL     OW31696   0.745   2.722  10.838  0.3166 -0.0422  0.6713
 6746SOL    HW131697   0.706   2.640  10.870 -0.4198  0.9671  2.3464
 6746SOL    HW231698   0.684   2.787  10.874  1.9913  2.7198 -1.5214
 6747SOL     OW31699   3.822   2.070  12.320 -0.3655  0.1453  0.3563
 6747SOL    HW131700   3.884   2.003  12.290 -0.6320 -0.1635  0.4986
 6747SOL    HW231701   3.854   2.090  12.408 -1.0749 -0.5413  0.7658
 6748SOL     OW31702   2.948   4.009   7.947  0.7623  0.0104  0.4754
 6748SOL    HW131703   3.017   3.987   7.884  2.1113  0.5148  1.7782
 6748SOL    HW231704   2.986   4.082   7.997 -1.3560  2.0437 -0.8875
 6749SOL     OW31705   1.694   0.127   3.470 -0.0125 -0.4980 -0.7715
 6749SOL    HW131706   1.776   0.080   3.453 -1.7116 -3.9191  0.3233
 6749SOL    HW231707   1.634   0.103   3.399 -2.1868  0.5309  0.7304
 6750SOL     OW31708   3.830   3.859   6.919  0.2100  0.2908 -0.4496
 6750SOL    HW131709   3.833   3.777   6.871  0.1257 -0.5099  0.9208
 6750SOL    HW231710   3.789   3.914   6.852 -2.8144 -1.0125  0.3439
 6751SOL     OW31711   1.294   4.024   1.104  0.2545 -0.2782 -0.4028
 6751SOL    HW131712   1.386   4.002   1.087  0.0484 -0.0499 -1.7790
 6751SOL    HW231713   1.247   3.951   1.065 -0.9560  0.9882 -1.2965
 6752SOL     OW31714   4.188   3.401   4.723  0.6699  0.1205 -0.2084
 6752SOL    HW131715   4.118   3.430   4.665  1.2979 -0.0537 -1.0589
 6752SOL    HW231716   4.225   3.345   4.655 -1.4205 -1.8622  0.2763
 6753SOL     OW31717   0.502   2.480  11.077  0.0850  0.1261 -0.6999
 6753SOL    HW131718   0.451   2.449  11.153  1.2707 -2.3050 -0.9193
 6753SOL    HW231719   0.441   2.546  11.044 -0.5526 -0.3094 -0.4166
 6754SOL     OW31720   1.891   3.065   5.431  0.0956 -0.4949  0.1029
 6754SOL    HW131721   1.822   3.077   5.497 -1.0947  0.2886 -1.2973
 6754SOL    HW231722   1.888   2.971   5.415 -0.2559 -0.4773  0.0680
 6755SOL     OW31723   4.125   2.906   5.841  0.2879 -0.8875 -0.2383
 6755SOL    HW131724   4.104   2.975   5.779 -0.1638 -0.7522  0.0653
 6755SOL    HW231725   4.213   2.877   5.817 -0.0113 -2.0683  0.1059
 6756SOL     OW31726   3.802   3.057   1.787  0.2336  0.5215 -0.3827
 6756SOL    HW131727   3.788   2.970   1.824  2.3637  0.8274  1.1517
 6756SOL    HW231728   3.729   3.109   1.818 -1.3366 -0.9667 -1.5816
 6757SOL     OW31729   4.099   0.764  12.001  0.2749 -0.5069 -0.1526
 6757SOL    HW131730   4.062   0.839  12.046  0.8428  0.6423 -1.5930
 6757SOL    HW231731   4.067   0.772  11.911  2.4342 -2.1317 -1.0540
 6758SOL     OW31732   4.663   0.151   9.273  0.5072 -0.2099 -0.0337
 6758SOL    HW131733   4.597   0.175   9.339 -1.2153 -2.3219 -0.9718
 6758SOL    HW231734   4.659   0.056   9.274 -2.2043 -0.1077 -0.1906
 6759SOL     OW31735   3.587   1.747   8.889 -0.9958 -0.2276  0.3809
 6759SOL    HW131736   3.499   1.731   8.855 -1.6442 -0.5495  2.1892
 6759SOL    HW231737   3.634   1.667   8.865 -0.8338 -0.3396  1.0657
 6760SOL     OW31738   1.256   3.260   4.658 -0.4493  0.1381  0.0737
 6760SOL    HW131739   1.245   3.328   4.725 -0.4073 -0.6145  0.8506
 6760SOL    HW231740   1.241   3.294   4.570  2.7956  1.1782 -0.0537
 6761SOL     OW31741   2.975   3.556   7.834 -0.5005 -0.4641  0.2178
 6761SOL    HW131742   3.061   3.595   7.848 -1.1287  1.1067 -0.3260
 6761SOL    HW231743   2.916   3.625   7.864 -0.5794 -0.1940 -0.5657
 6762SOL     OW31744   1.678   3.270   6.441  0.1597  0.0111 -0.6765
 6762SOL    HW131745   1.595   3.225   6.457  1.1230 -1.9130 -1.0933
 6762SOL    HW231746   1.735   3.216   6.496 -0.5035 -0.6085 -0.6016
 6763SOL     OW31747   0.536   0.425   5.143 -0.3018  1.1064 -0.0889
 6763SOL    HW131748   0.525   0.350   5.202 -0.1208  2.8566  2.1786
 6763SOL    HW231749   0.500   0.492   5.201  0.0041  0.3319  0.9845
 6764SOL     OW31750   3.398   2.112   1.359  0.0550  0.0957 -0.0413
 6764SOL    HW131751   3.428   2.200   1.339  1.0884 -0.9519 -3.1071
 6764SOL    HW231752   3.331   2.133   1.424  0.1828 -1.0507  0.4735
 6765SOL     OW31753   0.739   2.393  10.793 -0.0894 -0.7186  0.1637
 6765SOL    HW131754   0.671   2.336  10.756  1.7057 -0.7823 -3.0426
 6765SOL    HW231755   0.803   2.373  10.725 -1.9883 -0.2064 -1.7395
 6766SOL     OW31756   0.064   2.236  15.948 -0.3794  0.4058  0.1527
 6766SOL    HW131757   0.142   2.260  15.997  0.5773  2.4057 -2.3838
 6766SOL    HW231758   0.042   2.327  15.928 -1.8127 -0.0581 -0.4271
 6767SOL     OW31759   4.339   2.752   7.876  0.1355  0.5962  0.3644
 6767SOL    HW131760   4.419   2.803   7.885  0.3725  0.1105  1.0447
 6767SOL    HW231761   4.351   2.707   7.960 -0.0760  0.4993  0.3428
 6768SOL     OW31762   1.383   1.796   7.832  0.6259 -0.2295  0.4572
 6768SOL    HW131763   1.448   1.834   7.892  1.3088  2.1203 -1.7770
 6768SOL    HW231764   1.311   1.854   7.853 -0.1475 -1.1100  0.2180
 6769SOL     OW31765   0.799   3.512   6.076 -0.0866 -0.8884  0.3012
 6769SOL    HW131766   0.742   3.459   6.131 -1.7686 -0.0741 -0.6310
 6769SOL    HW231767   0.815   3.455   6.001 -2.2501  0.0057 -0.8572
 6770SOL     OW31768   0.784   2.072   7.907  0.0502  0.1069  0.2838
 6770SOL    HW131769   0.817   2.077   7.818 -1.2928 -0.1684 -0.2290
 6770SOL    HW231770   0.765   1.978   7.908 -2.2616  0.5265 -2.6836
 6771SOL     OW31771   4.369   3.951   6.251  0.2963 -0.5787  0.2844
 6771SOL    HW131772   4.306   3.979   6.185  2.2816  1.0321 -0.9675
 6771SOL    HW231773   4.436   4.020   6.252 -0.1412 -0.1711  1.5211
 6772SOL     OW31774   2.127   1.511  15.788  0.6554  0.2365 -0.2388
 6772SOL    HW131775   2.098   1.495  15.878  0.3019 -1.6906 -0.6963
 6772SOL    HW231776   2.042   1.514  15.746 -0.7968 -1.9674  2.5612
 6773SOL     OW31777   1.262   2.699   7.938 -0.4345 -0.4606 -0.1741
 6773SOL    HW131778   1.219   2.666   8.017 -0.4687 -0.4501 -0.1883
 6773SOL    HW231779   1.187   2.699   7.879 -0.5260  0.5673 -0.0572
 6774SOL     OW31780   4.123   0.675   5.995 -0.8629 -0.2324 -0.2174
 6774SOL    HW131781   4.063   0.724   6.052 -1.1623  1.1302 -1.6800
 6774SOL    HW231782   4.194   0.738   5.983 -1.5214  0.7286  0.9111
 6775SOL     OW31783   1.629   0.735  12.232  0.2250 -0.2799 -0.4690
 6775SOL    HW131784   1.596   0.731  12.143  0.7730  1.9127 -0.7802
 6775SOL    HW231785   1.712   0.688  12.228  0.2395  0.0563 -4.1637
 6776SOL     OW31786   3.087   3.891  12.491 -0.4694 -0.2594  0.8716
 6776SOL    HW131787   3.071   3.979  12.524  2.0319  0.7954 -0.6750
 6776SOL    HW231788   3.180   3.876  12.511  0.0560  1.8841  0.0042
 6777SOL     OW31789   0.725   4.357   4.735 -0.0129 -0.3454 -0.6283
 6777SOL    HW131790   0.814   4.324   4.745  0.3091  0.6301 -0.2587
 6777SOL    HW231791   0.711   4.383   4.643  1.2133 -1.5634 -1.1418
 6778SOL     OW31792   1.240   2.163   2.674 -0.0006 -0.0295 -0.4918
 6778SOL    HW131793   1.264   2.216   2.750  1.4196 -1.2344 -0.1056
 6778SOL    HW231794   1.147   2.140   2.688 -0.5801  1.8590 -1.3063
 6779SOL     OW31795   2.468   1.608   1.990 -0.1001  0.0380  0.0232
 6779SOL    HW131796   2.433   1.562   2.066 -0.2225 -2.1030 -1.3147
 6779SOL    HW231797   2.388   1.629   1.943 -0.1638  0.8332  0.4852
 6780SOL     OW31798   1.937   3.790   1.032 -0.2232 -0.1139 -0.3890
 6780SOL    HW131799   1.979   3.850   1.093 -0.6411  1.1969 -1.3843
 6780SOL    HW231800   1.963   3.712   1.080  1.2169  0.1161 -0.8003
 6781SOL     OW31801   3.170   1.244   1.900 -0.3909  0.5132  0.0178
 6781SOL    HW131802   3.166   1.268   1.993 -1.0680 -0.2569  0.1841
 6781SOL    HW231803   3.089   1.282   1.865 -0.0621  1.5526  0.3804
 6782SOL     OW31804   3.157   2.380   7.160  0.2564  0.4230  0.8584
 6782SOL    HW131805   3.145   2.321   7.234 -0.9626 -0.7829 -0.3178
 6782SOL    HW231806   3.066   2.399   7.141  0.2266 -1.8386 -1.1801
 6783SOL     OW31807   1.623   4.618   5.326  0.0899 -0.2032 -0.1000
 6783SOL    HW131808   1.718   4.619   5.335 -0.1508 -2.7239  2.7456
 6783SOL    HW231809   1.619   4.681   5.254  0.6605  1.0516  0.9809
 6784SOL     OW31810   2.975   0.568   2.889  0.1021 -0.3119 -0.6779
 6784SOL    HW131811   2.912   0.566   2.962  1.3431 -2.0720  0.3485
 6784SOL    HW231812   3.036   0.633   2.924  1.1723 -1.0677 -1.1442
 6785SOL     OW31813   1.980   4.017   2.218 -0.0046 -1.0261  0.4155
 6785SOL    HW131814   1.923   3.980   2.150 -1.1986 -0.8472  1.3200
 6785SOL    HW231815   1.916   4.047   2.282  0.5562 -0.3643  0.6665
 6786SOL     OW31816   3.174   0.147   1.474 -0.6308  0.3705 -0.2300
 6786SOL    HW131817   3.096   0.197   1.448 -0.0766  1.4662  0.2184
 6786SOL    HW231818   3.246   0.210   1.472 -1.2271  1.1063  2.0054
 6787SOL     OW31819   0.474   1.299  11.252 -0.3842 -0.4975  0.1058
 6787SOL    HW131820   0.555   1.313  11.301 -0.3448  0.9554 -0.3819
 6787SOL    HW231821   0.513   1.259  11.174 -0.6079  0.6128 -0.5701
 6788SOL     OW31822   1.398   2.461   8.128 -0.1050  0.1034  0.2547
 6788SOL    HW131823   1.471   2.476   8.068 -0.6120  0.2312 -0.3213
 6788SOL    HW231824   1.377   2.551   8.153  1.2747  0.7764 -0.9696
 6789SOL     OW31825   2.000   0.292  15.359  0.0534 -1.0162 -0.5283
 6789SOL    HW131826   1.927   0.234  15.377 -1.7933  1.2431 -0.7026
 6789SOL    HW231827   1.952   0.372  15.337  1.6634 -0.3676 -1.6948
 6790SOL     OW31828   4.344   4.296   6.020  0.3617 -0.3437  0.1900
 6790SOL    HW131829   4.431   4.257   6.010  1.3323  1.4369  1.6116
 6790SOL    HW231830   4.333   4.297   6.115 -1.1050 -2.1248  0.0396
 6791SOL     OW31831   3.546   3.999   8.684  0.1780 -0.3773  0.0038
 6791SOL    HW131832   3.548   4.035   8.773 -0.5962 -0.4433  0.0456
 6791SOL    HW231833   3.584   4.059   8.620 -2.9341  2.7132  1.0432
 6792SOL     OW31834   2.540   0.428   5.292 -0.2281 -0.3919  0.0613
 6792SOL    HW131835   2.580   0.453   5.209  0.8729  2.2501  1.3921
 6792SOL    HW231836   2.470   0.493   5.302 -0.9110 -1.5000  2.4570
 6793SOL     OW31837   2.364   3.911   2.294 -0.3107 -0.1602  0.2964
 6793SOL    HW131838   2.342   3.917   2.201 -0.9520 -2.1748  0.3046
 6793SOL    HW231839   2.445   3.963   2.300 -0.6715  0.5908 -1.2855
 6794SOL     OW31840   2.530   3.696   5.527  0.3487 -0.0412  0.2638
 6794SOL    HW131841   2.624   3.715   5.521 -0.2559  3.0172  0.1904
 6794SOL    HW231842   2.523   3.602   5.542  1.9092  0.1647  2.2294
 6795SOL     OW31843   3.916   3.718   7.912  0.9203 -0.5308  0.4157
 6795SOL    HW131844   3.848   3.651   7.926  0.4540  0.0604  0.9654
 6795SOL    HW231845   3.958   3.714   7.998  0.5684 -0.6079  0.5820
 6796SOL     OW31846   1.465   3.160   8.531  0.5263  0.5392  0.4387
 6796SOL    HW131847   1.502   3.080   8.494  3.0025  1.5223  0.8062
 6796SOL    HW231848   1.439   3.141   8.621 -0.2640 -0.1236  0.0733
 6797SOL     OW31849   2.732   4.527   8.198  0.1472 -0.6927 -0.4732
 6797SOL    HW131850   2.766   4.489   8.279 -0.2094  0.0031 -0.0035
 6797SOL    HW231851   2.804   4.588   8.184 -1.7305  0.9497 -2.8979
 6798SOL     OW31852   0.055   0.332  16.839  0.1892 -0.5189 -0.1191
 6798SOL    HW131853   0.072   0.426  16.849 -0.5534 -0.3891 -0.0639
 6798SOL    HW231854   4.684   0.323  16.854  0.4901  2.6946  3.7680
 6799SOL     OW31855   2.905   2.208   9.655 -0.1120  0.3258  0.6836
 6799SOL    HW131856   2.855   2.169   9.583 -1.5267  1.8506  0.8362
 6799SOL    HW231857   2.832   2.249   9.702  0.5097  2.2975 -0.0693
 6800SOL     OW31858   2.950   3.672  15.273  0.6227 -0.8267  0.6255
 6800SOL    HW131859   2.872   3.693  15.222  1.3412  1.3617  0.4125
 6800SOL    HW231860   3.018   3.664  15.206  0.2779  0.0326  0.1739
 6801SOL     OW31861   0.617   2.921   4.819 -0.2923 -0.2200 -0.6786
 6801SOL    HW131862   0.639   2.828   4.825 -0.4403 -0.1911  0.3166
 6801SOL    HW231863   0.542   2.913   4.760 -1.3727 -0.1262  0.6863
 6802SOL     OW31864   3.738   4.567   6.165 -0.1122 -0.6478  0.2422
 6802SOL    HW131865   3.801   4.528   6.226  1.6262  0.8343 -0.5922
 6802SOL    HW231866   3.672   4.603   6.224  0.2083 -2.5600  1.7394
 6803SOL     OW31867   0.352   3.397   8.560  0.3143 -1.1065 -0.3979
 6803SOL    HW131868   0.357   3.434   8.471  1.5464  0.0062  0.1405
 6803SOL    HW231869   0.351   3.475   8.616 -0.5362 -2.3124  1.2443
 6804SOL     OW31870   3.535   3.532   2.721 -0.2569  0.1563 -0.2504
 6804SOL    HW131871   3.466   3.598   2.725  1.4658  2.0347 -1.5498
 6804SOL    HW231872   3.514   3.492   2.636 -0.8392 -0.0781  0.0016
 6805SOL     OW31873   4.159   0.355   3.642  0.5751 -0.1934 -0.2953
 6805SOL    HW131874   4.148   0.433   3.697 -0.7464  0.4366 -1.4638
 6805SOL    HW231875   4.215   0.390   3.572  0.3977  0.4161 -0.1293
 6806SOL     OW31876   2.227   3.622  10.842 -0.1308 -0.1220  0.0821
 6806SOL    HW131877   2.223   3.556  10.773 -1.1993  1.2976 -1.2017
 6806SOL    HW231878   2.202   3.575  10.922  2.2231 -1.0151  0.3152
 6807SOL     OW31879   4.383   1.811   3.661 -0.1138  0.9005  0.3678
 6807SOL    HW131880   4.467   1.765   3.661 -0.6956 -0.1505 -0.8554
 6807SOL    HW231881   4.396   1.898   3.700  3.6267  0.8451 -0.7475
 6808SOL     OW31882   3.395   0.871   1.592  0.1561  0.2984  0.4745
 6808SOL    HW131883   3.312   0.916   1.602  0.3263  0.4898  1.0482
 6808SOL    HW231884   3.447   0.937   1.638 -0.9587  1.6928 -0.2879
 6809SOL     OW31885   1.223   3.448   1.401  0.3256 -0.3848  0.1593
 6809SOL    HW131886   1.248   3.525   1.351  0.6266 -2.5035 -2.9398
 6809SOL    HW231887   1.308   3.423   1.438  0.5571  0.7586  0.3962
 6810SOL     OW31888   0.358   0.381   0.660 -0.7640 -0.3558 -0.1075
 6810SOL    HW131889   0.301   0.304   0.671 -0.0239 -1.0965 -1.4383
 6810SOL    HW231890   0.327   0.436   0.731  0.5562  1.0956 -0.6712
 6811SOL     OW31891   0.825   3.770   6.135  0.9024  0.2407  0.1114
 6811SOL    HW131892   0.919   3.772   6.151  0.9900  0.5007 -0.4105
 6811SOL    HW231893   0.819   3.678   6.108 -1.3459  0.1213  1.0612
 6812SOL     OW31894   3.563   1.007   3.000 -0.3884 -0.1427  0.0959
 6812SOL    HW131895   3.630   0.996   3.067 -1.0818 -0.5805  0.7157
 6812SOL    HW231896   3.581   0.930   2.945  0.1522  0.9341 -1.2329
 6813SOL     OW31897   2.655   0.740   7.134  0.2780  0.2424 -0.0876
 6813SOL    HW131898   2.691   0.685   7.065 -0.5862  0.7654 -0.9558
 6813SOL    HW231899   2.568   0.701   7.140 -0.4981  2.1062  0.5681
 6814SOL     OW31900   4.453   0.319   1.142 -0.0668  0.2504 -0.1115
 6814SOL    HW131901   4.470   0.332   1.049  0.1365  0.1757 -0.0838
 6814SOL    HW231902   4.381   0.383   1.140  0.7974  1.2325 -0.2468
 6815SOL     OW31903   2.869   3.746  15.002  0.2222 -0.6908  0.1838
 6815SOL    HW131904   2.830   3.741  14.914  1.6281  1.9371 -0.5986
 6815SOL    HW231905   2.921   3.825  14.994  1.2138 -1.2771  0.9278
 6816SOL     OW31906   1.920   3.466  15.638  0.2547  0.5073  0.3464
 6816SOL    HW131907   1.948   3.535  15.699 -0.0718 -0.2129  1.3108
 6816SOL    HW231908   1.827   3.488  15.643  0.5312  1.6501  0.3534
 6817SOL     OW31909   1.591   2.928   6.813  0.2403 -0.0734  0.4291
 6817SOL    HW131910   1.563   2.847   6.855  1.2077 -0.8384 -0.3909
 6817SOL    HW231911   1.676   2.934   6.857  1.8718 -0.9337 -2.6237
 6818SOL     OW31912   3.921   3.997   7.118  0.2003  0.5417  0.4450
 6818SOL    HW131913   3.882   3.934   7.058  0.6249  0.6055  0.1088
 6818SOL    HW231914   3.989   3.936   7.145  1.2653  0.7317 -1.8541
 6819SOL     OW31915   1.103   4.473   4.063 -0.1667  0.0984  0.1977
 6819SOL    HW131916   1.008   4.466   4.073 -0.0199 -1.8499  0.2307
 6819SOL    HW231917   1.112   4.441   3.974  1.4074 -1.0657  0.7875
 6820SOL     OW31918   2.618   0.982   0.092 -0.3302  0.2486  0.4099
 6820SOL    HW131919   2.625   0.983  17.691  2.6338  3.7082  0.6807
 6820SOL    HW231920   2.709   0.951   0.101 -0.6268 -0.8863 -0.4918
 6821SOL     OW31921   0.114   3.676   3.156  0.2812 -0.3896 -0.5871
 6821SOL    HW131922   0.040   3.621   3.183 -0.1362  0.5618  0.1967
 6821SOL    HW231923   0.103   3.746   3.220  0.2447 -0.5244 -0.4455
 6822SOL     OW31924   3.870   0.630  10.237  0.5474  0.0417  0.0784
 6822SOL    HW131925   3.912   0.640  10.152  1.7576  0.1950  0.7020
 6822SOL    HW231926   3.923   0.691  10.288  1.1861  0.6329 -1.2851
 6823SOL     OW31927   3.398   1.547   8.586 -0.1387  0.1470 -0.8172
 6823SOL    HW131928   3.340   1.472   8.570 -0.6990  0.3195  0.4212
 6823SOL    HW231929   3.434   1.521   8.671 -1.4487  2.9010  0.5887
 6824SOL     OW31930   0.538   2.448  13.312 -0.1761 -0.0759  0.0706
 6824SOL    HW131931   0.624   2.423  13.345  0.8220  1.9658 -0.9355
 6824SOL    HW231932   0.542   2.543  13.321 -0.1983 -0.0188 -0.5278
 6825SOL     OW31933   3.875   3.896   1.424  0.5259  0.1417  0.0525
 6825SOL    HW131934   3.822   3.873   1.348 -0.5169 -2.3163  1.5197
 6825SOL    HW231935   3.816   3.889   1.499  0.6425 -2.5613 -0.1151
 6826SOL     OW31936   0.737   0.798  10.564  0.0221 -0.0055 -0.1011
 6826SOL    HW131937   0.693   0.883  10.575 -1.0737 -0.4218 -1.2348
 6826SOL    HW231938   0.695   0.773  10.481  1.5708 -0.7503 -0.6595
 6827SOL     OW31939   4.424   0.268   2.833  0.1231  0.3307  0.0517
 6827SOL    HW131940   4.519   0.261   2.845  0.2933  0.3903 -1.2083
 6827SOL    HW231941   4.420   0.265   2.737  1.7253 -0.5034  0.0009
 6828SOL     OW31942   1.077   1.041  10.334 -0.0573 -0.0425 -0.2634
 6828SOL    HW131943   1.018   1.112  10.311  0.8957  0.6227 -0.6648
 6828SOL    HW231944   1.061   1.029  10.428 -0.5604 -1.1530 -0.4925
 6829SOL     OW31945   1.285   0.149   0.092  0.1859  0.4361 -0.1398
 6829SOL    HW131946   1.375   0.116   0.089 -0.0028 -0.3932  3.0568
 6829SOL    HW231947   1.240   0.112   0.168 -1.5025  3.2026  0.2242
 6830SOL     OW31948   1.613   1.351   6.811 -0.0902 -0.2042 -0.3537
 6830SOL    HW131949   1.592   1.411   6.740 -1.0105 -0.0557  0.0506
 6830SOL    HW231950   1.678   1.404   6.858  1.1222 -3.3201  1.4616
 6831SOL     OW31951   0.487   0.246   9.514  0.0730 -0.0743 -0.6484
 6831SOL    HW131952   0.540   0.174   9.548  0.0383 -0.1023 -0.6537
 6831SOL    HW231953   0.529   0.323   9.554 -0.8055  0.3228 -0.4802
 6832SOL     OW31954   0.799   3.621  17.257  0.2596 -0.5667 -0.0423
 6832SOL    HW131955   0.737   3.551  17.276 -1.2691  0.5799 -0.8610
 6832SOL    HW231956   0.747   3.693  17.224  1.6982 -0.1779 -1.4476
 6833SOL     OW31957   3.477   3.330   3.438 -0.0775  0.3734 -0.1610
 6833SOL    HW131958   3.508   3.243   3.461  0.1932  0.5373  0.0961
 6833SOL    HW231959   3.413   3.359   3.503  1.0148 -1.8863  1.9189
 6834SOL     OW31960   3.388   1.765   1.611  0.3072 -0.7291 -0.1437
 6834SOL    HW131961   3.394   1.757   1.706 -0.2031 -0.6817 -0.1045
 6834SOL    HW231962   3.300   1.802   1.606 -0.0956 -1.5598  0.8420
 6835SOL     OW31963   0.845   0.621   4.310  0.3515 -0.0676  0.2661
 6835SOL    HW131964   0.916   0.603   4.372  1.2320  1.8135 -0.2000
 6835SOL    HW231965   0.894   0.638   4.229 -1.5428 -0.7137 -1.0108
 6836SOL     OW31966   2.079   4.585  16.024  0.1705  0.1316 -0.2277
 6836SOL    HW131967   2.124   4.533  16.091 -2.1043 -1.2261  0.2320
 6836SOL    HW231968   1.989   4.586  16.057  0.3945  2.4124  0.3199
 6837SOL     OW31969   0.022   3.488  16.799  0.0759 -0.1539 -0.2187
 6837SOL    HW131970   4.658   3.510  16.766  1.7576  2.6385 -2.8263
 6837SOL    HW231971   0.064   3.479  16.713  0.0468  0.1419 -0.2630
 6838SOL     OW31972   0.738   2.029   7.325  0.0455  0.1334 -0.5420
 6838SOL    HW131973   0.718   1.958   7.386 -0.7826  0.3085 -0.6069
 6838SOL    HW231974   0.653   2.070   7.341 -1.3638 -2.5903 -1.0872
 6839SOL     OW31975   3.977   1.828   6.457  0.8104 -0.0841  0.4549
 6839SOL    HW131976   3.908   1.773   6.420  1.2143 -0.3847  0.1496
 6839SOL    HW231977   3.950   1.835   6.548  1.0824  0.4901  0.4902
 6840SOL     OW31978   2.084   2.764   7.973  0.3181  0.2727 -0.0020
 6840SOL    HW131979   2.035   2.705   8.030 -0.6937  1.3772  0.2908
 6840SOL    HW231980   2.017   2.833   7.968 -0.8701 -0.9573 -1.0873
 6841SOL     OW31981   1.299   0.159  13.565 -0.1856  0.5117  0.2995
 6841SOL    HW131982   1.287   0.067  13.590 -0.1084  0.0321 -1.4142
 6841SOL    HW231983   1.239   0.210  13.618 -0.6687 -1.0986  1.3049
 6842SOL     OW31984   0.065   3.752   7.705  1.0545  0.4065  0.0582
 6842SOL    HW131985   4.704   3.792   7.684  0.8212 -1.1292 -1.9433
 6842SOL    HW231986   0.056   3.660   7.682 -0.9945  1.1618 -2.1214
 6843SOL     OW31987   4.148   1.887  13.169  0.1500  0.1050  0.3768
 6843SOL    HW131988   4.153   1.794  13.190  1.7822  1.1822  4.7785
 6843SOL    HW231989   4.067   1.897  13.120  0.2124 -0.5655  0.1269
 6844SOL     OW31990   3.396   2.630   5.510 -0.1038 -0.1127 -0.0563
 6844SOL    HW131991   3.467   2.688   5.537  0.7127 -0.9375 -0.4494
 6844SOL    HW231992   3.321   2.690   5.505 -0.8319 -1.1024 -1.0784
 6845SOL     OW31993   1.894   0.133   8.370 -0.4228 -0.8087 -0.0916
 6845SOL    HW131994   1.802   0.145   8.346 -0.1704  0.1193 -0.6283
 6845SOL    HW231995   1.895   0.156   8.463 -1.3970  0.6666 -0.4414
 6846SOL     OW31996   4.130   4.680   5.665  0.8299  0.9740  0.0553
 6846SOL    HW131997   4.118   4.660   5.758 -0.2388 -0.8594 -0.4747
 6846SOL    HW231998   4.047   4.656   5.623  0.1149  2.5695  0.5540
 6847SOL     OW31999   1.644   3.242   1.673  0.2472 -0.1663 -0.0640
 6847SOL    HW132000   1.590   3.206   1.743  0.2640 -1.2140 -0.5865
 6847SOL    HW232001   1.724   3.266   1.720  0.6723 -0.0891 -0.8279
 6848SOL     OW32002   2.380   2.169   4.288  0.2128  0.2727 -0.0521
 6848SOL    HW132003   2.294   2.145   4.321  0.8276 -0.4157  1.0169
 6848SOL    HW232004   2.400   2.093   4.233  0.5955  1.3094 -1.3745
 6849SOL     OW32005   0.559   1.492   8.420 -0.1074  0.5628 -0.5281
 6849SOL    HW132006   0.537   1.413   8.469  1.2938  0.8276  0.5314
 6849SOL    HW232007   0.642   1.517   8.460 -0.1581  0.4504 -0.3538
 6850SOL     OW32008   1.108   3.217   9.415  0.0197 -0.6374  0.0695
 6850SOL    HW132009   1.051   3.246   9.486  0.0703  1.9985 -0.9831
 6850SOL    HW232010   1.062   3.137   9.390 -0.4647 -0.2772 -0.1935
 6851SOL     OW32011   3.573   2.575   4.199 -0.0071 -0.2472 -0.4377
 6851SOL    HW132012   3.625   2.526   4.135 -2.5091 -2.0232 -1.1287
 6851SOL    HW232013   3.527   2.640   4.146  0.3905 -0.0914 -0.5911
 6852SOL     OW32014   0.740   1.794   7.901 -0.2063 -0.0545 -0.1272
 6852SOL    HW132015   0.729   1.707   7.863 -2.1168 -0.8501  2.2315
 6852SOL    HW232016   0.665   1.786   7.960 -0.1690 -2.3458 -0.3825
 6853SOL     OW32017   0.202   3.813  16.450 -0.1009  0.3820  0.8742
 6853SOL    HW132018   0.267   3.860  16.502  1.0324  2.4302 -2.4293
 6853SOL    HW232019   0.140   3.796  16.521 -1.5735  0.3241 -0.4519
 6854SOL     OW32020   0.470   1.283   6.036 -0.0481 -0.2052  0.6379
 6854SOL    HW132021   0.399   1.270   6.100  1.8926  0.2683  2.8929
 6854SOL    HW232022   0.463   1.376   6.016  0.4143 -0.7691 -2.0190
 6855SOL     OW32023   2.821   0.202   2.094 -0.2494  0.2341  0.0050
 6855SOL    HW132024   2.850   0.275   2.148 -2.1274  1.7954 -1.0572
 6855SOL    HW232025   2.838   0.126   2.149  0.3927  0.4286  0.0679
 6856SOL     OW32026   2.200   0.645  14.810  0.0504 -0.3837 -0.3236
 6856SOL    HW132027   2.126   0.621  14.865 -2.3856 -0.8684 -3.7722
 6856SOL    HW232028   2.187   0.597  14.728 -0.3438  1.3299 -1.2461
 6857SOL     OW32029   3.821   2.416  14.603 -0.3192 -0.0839  0.5149
 6857SOL    HW132030   3.729   2.434  14.584 -0.3464  0.0060  0.7309
 6857SOL    HW232031   3.866   2.453  14.527 -1.6330  0.9423  0.2439
 6858SOL     OW32032   1.990   1.466   7.262  0.2101  0.2493 -0.0812
 6858SOL    HW132033   1.945   1.537   7.217  0.8505  0.5899 -0.1800
 6858SOL    HW232034   2.065   1.435   7.210 -0.6712  0.0267 -1.2276
 6859SOL     OW32035   4.043   1.193   3.803  0.8338  0.7404  0.1389
 6859SOL    HW132036   4.061   1.201   3.897  0.0298 -0.2696  0.3822
 6859SOL    HW232037   4.127   1.218   3.765  1.3670 -0.8059  0.2798
 6860SOL     OW32038   4.432   2.499  11.863 -0.1907 -0.7329 -0.1890
 6860SOL    HW132039   4.401   2.444  11.936  0.1166  0.9438  1.2077
 6860SOL    HW232040   4.427   2.442  11.787 -0.9872  1.5908 -1.8713
 6861SOL     OW32041   2.075   0.134   4.140  0.0073 -0.0924 -0.3762
 6861SOL    HW132042   2.164   0.104   4.157 -0.2225  0.5171  1.8031
 6861SOL    HW232043   2.060   0.092   4.055 -0.2471  0.9603 -0.8481
 6862SOL     OW32044   2.202   0.382   2.548 -0.1174  0.1723 -0.2722
 6862SOL    HW132045   2.129   0.326   2.573  0.4250  0.9514  3.0643
 6862SOL    HW232046   2.153   0.457   2.513 -0.3994  0.8678  1.6179
 6863SOL     OW32047   0.703   4.371   8.311  0.4423 -0.0699 -1.0043
 6863SOL    HW132048   0.665   4.302   8.366 -0.1308 -0.2041 -1.5620
 6863SOL    HW232049   0.753   4.400   8.387  0.1447  0.8682 -1.1615
 6864SOL     OW32050   3.956   2.294   3.057 -0.1533  0.3757  0.8909
 6864SOL    HW132051   3.974   2.385   3.079 -0.9110  0.4785  1.0814
 6864SOL    HW232052   4.035   2.284   3.005  0.4596 -1.9494  2.2313
 6865SOL     OW32053   3.280   3.191   2.268  0.3727 -0.3800 -0.6162
 6865SOL    HW132054   3.329   3.252   2.214  1.0483  1.8368  2.5063
 6865SOL    HW232055   3.341   3.118   2.275 -1.0678 -1.5464 -0.2570
 6866SOL     OW32056   4.650   4.216  10.792  0.0532  0.3125 -0.2640
 6866SOL    HW132057   4.678   4.200  10.882  0.8045  0.0691 -0.5377
 6866SOL    HW232058   4.574   4.159  10.788  1.1247 -1.0877 -0.5710
 6867SOL     OW32059   3.746   1.375   2.490 -0.1009 -0.9296  0.2668
 6867SOL    HW132060   3.701   1.357   2.573 -3.1824 -3.2326 -1.9049
 6867SOL    HW232061   3.830   1.332   2.505 -1.8886 -4.3787  0.3603
 6868SOL     OW32062   0.663   3.890   5.231  0.3821  0.5170  0.0685
 6868SOL    HW132063   0.719   3.826   5.186 -0.3783 -0.4076  0.4400
 6868SOL    HW232064   0.613   3.921   5.155  2.0218 -1.1434 -1.7051
 6869SOL     OW32065   3.159   3.909   5.097 -0.6260  0.3142 -0.1056
 6869SOL    HW132066   3.071   3.943   5.085 -0.7238  0.7167  1.8653
 6869SOL    HW232067   3.207   3.968   5.038  0.7411 -0.8797 -0.1810
 6870SOL     OW32068   2.131   3.206   4.289 -0.9775  0.1195  0.0903
 6870SOL    HW132069   2.075   3.163   4.354 -0.8364  0.4960  0.4614
 6870SOL    HW232070   2.192   3.135   4.270  0.1309  0.7480  1.3456
 6871SOL     OW32071   3.501   1.888   2.987  0.0410  0.0116 -0.1763
 6871SOL    HW132072   3.568   1.862   3.051  0.9351 -0.0657 -1.1291
 6871SOL    HW232073   3.436   1.924   3.046  1.0582 -1.0302  1.5867
 6872SOL     OW32074   2.392   0.668   3.080  0.6590  0.2793 -0.1290
 6872SOL    HW132075   2.369   0.686   2.989 -2.2916 -0.7420  0.4086
 6872SOL    HW232076   2.327   0.599   3.093 -0.3543  0.9693 -1.4873
 6873SOL     OW32077   0.822   4.387   0.943 -0.5701 -0.0263 -0.3289
 6873SOL    HW132078   0.817   4.411   1.035  1.4959 -0.3123 -0.1389
 6873SOL    HW232079   0.745   4.430   0.907 -1.1044 -1.1368 -0.5209
 6874SOL     OW32080   0.485   3.101   2.802 -0.4609 -0.0514  0.1294
 6874SOL    HW132081   0.395   3.127   2.780 -0.1420  0.4863 -0.5468
 6874SOL    HW232082   0.528   3.184   2.824  1.3830  0.4251 -5.1348
 6875SOL     OW32083   3.498   0.198  11.294 -0.0409 -0.1836  0.3878
 6875SOL    HW132084   3.587   0.165  11.281 -0.7371 -0.9884 -2.4018
 6875SOL    HW232085   3.512   0.225  11.385  0.8980  1.8059 -0.3346
 6876SOL     OW32086   2.930   0.993   4.349  0.9798 -1.0517 -0.8046
 6876SOL    HW132087   3.021   0.967   4.368  0.9336 -1.6364 -1.3967
 6876SOL    HW232088   2.917   1.069   4.405  1.5469 -0.9767 -0.7740
 6877SOL     OW32089   2.565   2.507   0.477 -0.1071  0.0809  0.0990
 6877SOL    HW132090   2.565   2.603   0.471  1.1054  0.1326  0.9051
 6877SOL    HW232091   2.534   2.489   0.388 -0.9205  1.7839  0.0219
 6878SOL     OW32092   0.203   2.880   4.397 -0.2075  0.4791 -0.0338
 6878SOL    HW132093   0.253   2.961   4.384  1.6827 -0.8105 -0.7636
 6878SOL    HW232094   0.235   2.830   4.322 -1.5283  1.0388 -0.9739
 6879SOL     OW32095   3.373   4.445   7.458  0.4699 -0.1120 -0.2957
 6879SOL    HW132096   3.391   4.532   7.422 -2.0555  0.4203 -0.3048
 6879SOL    HW232097   3.423   4.459   7.538  0.9649 -1.3335 -0.3974
 6880SOL     OW32098   3.613   2.123   9.346 -0.1472  0.2948  0.1385
 6880SOL    HW132099   3.659   2.078   9.417  0.8062  1.0040 -0.0313
 6880SOL    HW232100   3.526   2.082   9.346 -0.0033 -0.0032 -0.5932
 6881SOL     OW32101   4.388   3.642   9.141 -0.0231  0.6384 -0.0617
 6881SOL    HW132102   4.372   3.736   9.141 -0.2291  0.6058  0.9959
 6881SOL    HW232103   4.333   3.620   9.066 -0.0886 -1.3077  0.5380
 6882SOL     OW32104   2.008   1.055   2.348 -0.6404  0.3629 -0.0944
 6882SOL    HW132105   1.977   1.081   2.261 -2.4714  1.0333  0.7547
 6882SOL    HW232106   1.929   1.067   2.400  0.4287  0.6053  1.4876
 6883SOL     OW32107   3.912   1.466   7.552 -0.4209  0.3058  0.3763
 6883SOL    HW132108   3.819   1.447   7.545 -0.6611  0.6515  2.4357
 6883SOL    HW232109   3.945   1.379   7.575 -1.7131 -0.8358 -2.1329
 6884SOL     OW32110   0.762   4.383   7.064 -0.4384  0.3207  0.0838
 6884SOL    HW132111   0.764   4.385   7.160  1.3327  0.4257  0.0474
 6884SOL    HW232112   0.820   4.457   7.047  0.5765 -0.3717  0.5285
 6885SOL     OW32113   2.639   0.766   6.596  0.8913 -0.1644 -0.0683
 6885SOL    HW132114   2.714   0.727   6.641 -0.1238  1.4083  3.0325
 6885SOL    HW232115   2.650   0.857   6.623 -0.6262  0.0338 -0.0716
 6886SOL     OW32116   1.104   3.013   3.924 -0.3019  0.1948  0.0801
 6886SOL    HW132117   1.130   2.979   4.009 -0.9913  0.6620  0.4744
 6886SOL    HW232118   1.084   2.932   3.879 -0.1094  1.3167 -2.0277
 6887SOL     OW32119   1.265   0.103   5.945 -0.3414  0.1305 -0.2644
 6887SOL    HW132120   1.239   0.178   5.891  1.0058 -0.0934 -1.2327
 6887SOL    HW232121   1.351   0.076   5.913  1.4327  0.1218  4.5926
 6888SOL     OW32122   1.712   0.576   4.880 -0.2944  0.2658  0.6385
 6888SOL    HW132123   1.680   0.617   4.799  0.4961 -0.8004 -0.2099
 6888SOL    HW232124   1.804   0.555   4.861 -0.0127  0.9725  1.2194
 6889SOL     OW32125   1.053   3.471   2.892 -0.0064 -0.1164 -0.4537
 6889SOL    HW132126   1.131   3.518   2.923 -0.5674  0.5811 -0.0862
 6889SOL    HW232127   1.073   3.458   2.800 -0.6851 -0.6705 -0.5213
 6890SOL     OW32128   2.506   0.248  17.012  0.0984 -0.1052  0.0813
 6890SOL    HW132129   2.474   0.163  16.982 -2.9598  1.9657 -2.5129
 6890SOL    HW232130   2.565   0.270  16.940 -0.1126  1.5379  0.4210
 6891SOL     OW32131   4.512   0.503  16.710 -0.5959  0.1488 -0.1995
 6891SOL    HW132132   4.436   0.455  16.678  0.6441 -0.6968 -1.8273
 6891SOL    HW232133   4.480   0.532  16.796  1.2564 -1.3177  0.9993
 6892SOL     OW32134   3.431   4.617   3.073  0.0134 -0.5068 -0.3852
 6892SOL    HW132135   3.452   4.703   3.109  0.6064 -0.6934 -0.2925
 6892SOL    HW232136   3.515   4.576   3.093 -1.7968 -3.4553  1.1862
 6893SOL     OW32137   4.573   0.668  16.495 -0.1095 -0.7898 -0.3179
 6893SOL    HW132138   4.540   0.631  16.577  0.0947 -0.0932  0.0776
 6893SOL    HW232139   4.666   0.647  16.488 -0.4625 -2.5603  0.2537
 6894SOL     OW32140   0.758   3.337   1.856  0.5581  0.1710  0.0919
 6894SOL    HW132141   0.694   3.311   1.790  1.9025 -0.4421 -0.9552
 6894SOL    HW232142   0.815   3.384   1.794  0.2100  0.6716  0.1483
 6895SOL     OW32143   2.839   1.252  15.151 -0.4294 -0.3323 -0.2912
 6895SOL    HW132144   2.887   1.307  15.213 -0.9735 -1.5371  1.1865
 6895SOL    HW232145   2.867   1.293  15.069 -1.5352  1.3893  0.2005
 6896SOL     OW32146   1.357   1.832  12.024  0.4742  0.6924  0.4097
 6896SOL    HW132147   1.435   1.797  11.982  0.6087  1.4337  0.0403
 6896SOL    HW232148   1.302   1.866  11.954  1.3026  0.1931 -0.4780
 6897SOL     OW32149   0.380   2.709   6.342  0.1193 -0.8057 -0.0641
 6897SOL    HW132150   0.295   2.688   6.304 -1.4697  3.8521  0.9203
 6897SOL    HW232151   0.433   2.693   6.264 -0.3386  0.5798 -0.6544
 6898SOL     OW32152   3.234   1.742  12.342  0.6258  0.5891 -0.1442
 6898SOL    HW132153   3.144   1.766  12.318  0.9030  1.0825 -0.6887
 6898SOL    HW232154   3.277   1.720  12.259 -0.9039  1.0172 -1.0450
 6899SOL     OW32155   1.548   1.354   6.343  0.4950  0.0976  0.5427
 6899SOL    HW132156   1.608   1.402   6.287  0.7570 -0.5650  0.2486
 6899SOL    HW232157   1.491   1.313   6.278  0.0929 -2.3947  2.4657
 6900SOL     OW32158   0.547   0.202   4.275 -0.5765 -0.5035 -0.6305
 6900SOL    HW132159   0.586   0.289   4.264  2.7876 -1.5828  2.5424
 6900SOL    HW232160   0.541   0.165   4.187 -2.7362 -0.6925 -0.3864
 6901SOL     OW32161   3.252   1.990   3.366  0.0523 -0.4665 -0.1631
 6901SOL    HW132162   3.199   1.980   3.445 -0.9391  0.3598 -0.7181
 6901SOL    HW232163   3.222   1.913   3.319 -1.5149  0.6653 -1.0260
 6902SOL     OW32164   0.505   3.663  15.226  0.9647  0.7539  0.3285
 6902SOL    HW132165   0.567   3.655  15.298  0.1033  0.7604  1.0714
 6902SOL    HW232166   0.559   3.643  15.150  1.4345 -0.3993  0.9668
 6903SOL     OW32167   2.164   0.303   5.929  0.1913  0.1137 -0.1152
 6903SOL    HW132168   2.177   0.307   5.834  1.7604 -2.2419 -0.0120
 6903SOL    HW232169   2.091   0.241   5.932 -0.1059  0.4125 -1.3927
 6904SOL     OW32170   1.370   3.263   2.967 -0.6793  0.4222 -0.2914
 6904SOL    HW132171   1.451   3.240   2.922 -0.6390  0.8339 -0.4268
 6904SOL    HW232172   1.307   3.227   2.904  0.8446 -0.4524 -1.3215
 6905SOL     OW32173   3.723   2.698  14.053  0.7006  0.4916  0.5557
 6905SOL    HW132174   3.689   2.727  13.968 -2.8332 -0.1829  1.7371
 6905SOL    HW232175   3.644   2.662  14.092  0.6216  1.1787  1.0167
 6906SOL     OW32176   1.401   4.275  17.172  0.1386 -0.0296  0.2532
 6906SOL    HW132177   1.383   4.284  17.078  0.4544 -1.9923  0.0122
 6906SOL    HW232178   1.466   4.205  17.170 -0.2148 -0.3328 -0.5521
 6907SOL     OW32179   0.663   0.141   7.836 -0.5451 -1.1218 -0.0569
 6907SOL    HW132180   0.660   0.048   7.859 -0.1238 -1.2481 -0.5216
 6907SOL    HW232181   0.608   0.179   7.904  0.5562 -0.8719  0.6780
 6908SOL     OW32182   1.187   0.312   3.922 -0.4725  0.2745 -0.4885
 6908SOL    HW132183   1.116   0.376   3.934 -1.2180 -0.5241 -0.6797
 6908SOL    HW232184   1.260   0.367   3.893  1.0033 -0.9048  1.0161
 6909SOL     OW32185   1.077   2.226  11.701  0.3318  0.2150 -0.5583
 6909SOL    HW132186   1.064   2.243  11.608  1.5520 -1.3421 -1.0047
 6909SOL    HW232187   1.165   2.263  11.711  0.7491 -0.7239 -0.7479
 6910SOL     OW32188   3.304   1.478   2.200  0.5707 -0.1575  0.3561
 6910SOL    HW132189   3.255   1.396   2.212  0.8471 -0.8749 -3.4924
 6910SOL    HW232190   3.233   1.542   2.208  0.1505 -0.6182  0.2857
 6911SOL     OW32191   0.048   4.200  16.379  0.5514  0.4668 -0.4019
 6911SOL    HW132192   0.139   4.187  16.353 -0.0110 -3.5603 -0.3210
 6911SOL    HW232193   0.037   4.291  16.351  0.5455  0.6662  0.2285
 6912SOL     OW32194   3.552   3.183  10.730 -0.0592 -0.0648  0.1092
 6912SOL    HW132195   3.638   3.181  10.687 -1.2722  1.2236 -2.3818
 6912SOL    HW232196   3.494   3.183  10.654 -0.0983  0.3209  0.1368
 6913SOL     OW32197   3.910   2.242  15.919 -0.3306 -0.0942 -0.2927
 6913SOL    HW132198   3.915   2.192  16.000  0.6898 -0.7251 -0.7457
 6913SOL    HW232199   3.815   2.248  15.906 -0.7831  0.4933  3.3160
 6914SOL     OW32200   1.230   0.158   2.750  0.1805  0.1507 -0.3504
 6914SOL    HW132201   1.312   0.192   2.713  0.1229  1.6613  0.9297
 6914SOL    HW232202   1.263   0.068   2.756  0.7678  0.6116  3.3648
 6915SOL     OW32203   0.498   2.435   3.917  0.8512  0.7881 -0.3189
 6915SOL    HW132204   0.529   2.349   3.946 -0.4349  0.2458 -0.5603
 6915SOL    HW232205   0.411   2.407   3.889  0.3786  2.5445 -0.5730
 6916SOL     OW32206   2.609   3.617   4.034  0.2301  0.2450  0.9039
 6916SOL    HW132207   2.600   3.630   4.129  0.8808  1.8300  0.7485
 6916SOL    HW232208   2.532   3.561   4.023  0.5919 -0.1895  0.5679
 6917SOL     OW32209   3.979   1.732  12.698  0.2660  0.4104 -0.4535
 6917SOL    HW132210   3.941   1.721  12.785  2.1277 -0.0281  0.3126
 6917SOL    HW232211   3.906   1.768  12.649 -0.3041  2.3801  1.8405
 6918SOL     OW32212   0.615   4.433   7.328 -0.1208 -0.6033  0.1995
 6918SOL    HW132213   0.657   4.407   7.410 -1.3425  0.3672  1.1348
 6918SOL    HW232214   0.526   4.410   7.354 -0.2211  0.3651  0.7370
 6919SOL     OW32215   1.889   4.106  11.954 -0.5826  0.3834  0.3832
 6919SOL    HW132216   1.837   4.027  11.971  2.5120 -1.1338  2.8495
 6919SOL    HW232217   1.976   4.086  11.991 -0.5656  1.3057  0.8457
 6920SOL     OW32218   0.710   2.938   1.216  0.1624  0.1956  0.4166
 6920SOL    HW132219   0.790   2.895   1.187  0.8688  2.5515 -1.0613
 6920SOL    HW232220   0.735   3.027   1.242  1.9727 -0.6310  1.5244
 6921SOL     OW32221   4.705   0.091   0.282 -0.4421 -0.2054 -0.1213
 6921SOL    HW132222   4.708   0.013   0.226 -1.1165 -0.6030  0.3961
 6921SOL    HW232223   4.631   0.149   0.266 -1.0338 -0.9924 -0.2814
 6922SOL     OW32224   0.781   1.583  12.001 -0.5049  0.2099  0.1011
 6922SOL    HW132225   0.781   1.536  11.917 -0.2946 -0.6850  0.5996
 6922SOL    HW232226   0.866   1.559  12.038 -0.3871 -3.0429 -2.2541
 6923SOL     OW32227   3.559   1.705   4.045 -0.5560  0.6695 -0.2230
 6923SOL    HW132228   3.620   1.763   3.999 -1.3644  1.3111 -0.4864
 6923SOL    HW232229   3.565   1.752   4.128 -2.2865  0.5229 -0.0210
 6924SOL     OW32230   1.445   3.110  12.861  0.0435 -0.0645  0.1480
 6924SOL    HW132231   1.529   3.155  12.852 -0.3265  0.9535  1.8986
 6924SOL    HW232232   1.423   3.098  12.768  0.8057  2.1369 -0.3322
 6925SOL     OW32233   4.230   4.174  12.505 -0.1970 -0.0458  0.0466
 6925SOL    HW132234   4.271   4.199  12.422 -0.2965  1.8592  0.5800
 6925SOL    HW232235   4.214   4.080  12.493 -3.2786  0.4767  0.0598
 6926SOL     OW32236   2.335   0.491   3.457  0.3268 -0.5908  0.2597
 6926SOL    HW132237   2.247   0.487   3.494 -0.7945 -3.1472 -2.5829
 6926SOL    HW232238   2.392   0.464   3.529 -0.7872 -0.6431  1.1116
 6927SOL     OW32239   1.336   4.077   5.448 -0.5989  0.3065  0.1617
 6927SOL    HW132240   1.383   3.994   5.460  0.7973  0.8786 -1.2963
 6927SOL    HW232241   1.286   4.043   5.374 -1.4105  2.2910 -0.2021
 6928SOL     OW32242   2.318   3.110  17.245  0.1643  0.0032 -0.0748
 6928SOL    HW132243   2.398   3.061  17.264 -0.3767 -0.0435  2.0769
 6928SOL    HW232244   2.303   3.084  17.154 -0.2393  0.4640 -0.1403
 6929SOL     OW32245   2.438   0.308   1.511 -0.5162 -0.9167 -0.4218
 6929SOL    HW132246   2.476   0.234   1.557 -0.7157 -0.5311  0.3725
 6929SOL    HW232247   2.429   0.366   1.587  0.0844 -0.0251 -1.0324
 6930SOL     OW32248   0.689   0.083   9.543 -0.1728 -0.1299  0.3298
 6930SOL    HW132249   0.751   0.049   9.478 -1.3120  0.8774 -1.3151
 6930SOL    HW232250   0.737   0.049   9.617 -0.2841  2.3620  1.5534
 6931SOL     OW32251   2.580   2.906  12.038 -0.6698  0.1177  0.3104
 6931SOL    HW132252   2.650   2.969  12.057 -0.4400  0.2290 -0.9602
 6931SOL    HW232253   2.573   2.870  12.127  1.7436  0.7052  0.7472
 6932SOL     OW32254   3.772   0.462   5.917 -0.1071 -0.0758 -0.6289
 6932SOL    HW132255   3.773   0.508   6.001 -1.3668  1.8559 -1.6703
 6932SOL    HW232256   3.698   0.401   5.921  1.8636 -2.6144 -2.8176
 6933SOL     OW32257   3.326   2.796  17.442 -0.5890  0.2346 -0.6473
 6933SOL    HW132258   3.296   2.847  17.366  2.4835  0.3853 -1.7764
 6933SOL    HW232259   3.394   2.855  17.475 -1.4318  1.2558 -0.7222
 6934SOL     OW32260   1.228   4.431   0.131 -0.3338 -0.3331  0.3223
 6934SOL    HW132261   1.215   4.508   0.186  1.2591 -1.4295  2.2164
 6934SOL    HW232262   1.200   4.463   0.045 -0.4946 -1.1518  0.0732
 6935SOL     OW32263   3.156   1.518  17.133 -0.0911 -0.0923  0.3067
 6935SOL    HW132264   3.196   1.433  17.152  0.3779 -0.1618 -1.0072
 6935SOL    HW232265   3.218   1.545  17.065 -1.9994 -1.3012 -1.9003
 6936SOL     OW32266   2.790   1.696   3.060 -0.2437 -0.1741 -0.0382
 6936SOL    HW132267   2.728   1.628   3.034 -0.2358  0.3382 -1.3931
 6936SOL    HW232268   2.738   1.752   3.117  1.9469  0.6508  1.1719
 6937SOL     OW32269   4.279   2.984   6.470 -0.1855 -0.1223 -0.0167
 6937SOL    HW132270   4.256   2.903   6.517  2.0697 -0.3238  0.7413
 6937SOL    HW232271   4.374   2.993   6.469 -0.3122  1.2200 -0.1016
 6938SOL     OW32272   0.920   3.817   1.788 -0.3391 -0.2532 -0.7798
 6938SOL    HW132273   0.934   3.912   1.794  0.4328 -0.5353  1.8854
 6938SOL    HW232274   0.890   3.807   1.697  1.4611 -0.2589 -1.3786
 6939SOL     OW32275   3.124   3.245   8.571  0.0975  0.2426 -0.1755
 6939SOL    HW132276   3.064   3.180   8.608  0.7878  0.0640  0.6488
 6939SOL    HW232277   3.156   3.290   8.649  2.7305 -0.0438 -1.0809
 6940SOL     OW32278   1.814   0.107   4.199  0.1080  0.3228 -0.2073
 6940SOL    HW132279   1.824   0.062   4.283 -0.9969 -1.1506 -0.8857
 6940SOL    HW232280   1.905   0.120   4.173  0.1964  0.4821  0.1813
 6941SOL     OW32281   3.601   0.315   4.738 -0.5498  0.1871 -0.3932
 6941SOL    HW132282   3.639   0.255   4.674 -0.0490 -0.5280  0.5722
 6941SOL    HW232283   3.517   0.271   4.750 -1.5125  1.3421 -2.9755
 6942SOL     OW32284   2.332   0.827   6.567  0.1207  0.5703 -0.0383
 6942SOL    HW132285   2.426   0.809   6.556  0.1697 -0.8739  2.7796
 6942SOL    HW232286   2.330   0.921   6.550 -1.6215  0.1610 -2.0529
 6943SOL     OW32287   0.679   1.730   1.191  0.6276  0.6827  0.6451
 6943SOL    HW132288   0.701   1.823   1.185 -2.7265  1.4601  0.5370
 6943SOL    HW232289   0.763   1.696   1.222  1.5553  0.1745 -2.3888
 6944SOL     OW32290   2.259   3.723   8.600 -0.4242  0.3201  0.1895
 6944SOL    HW132291   2.177   3.693   8.562 -0.7046 -0.3102  1.3046
 6944SOL    HW232292   2.229   3.797   8.653 -1.1266  1.6280 -2.0603
 6945SOL     OW32293   2.131   0.552   7.039  0.4706  0.4814  0.5694
 6945SOL    HW132294   2.088   0.636   7.026 -2.2315 -0.8549  0.9416
 6945SOL    HW232295   2.066   0.504   7.090  1.6598 -1.1657  0.5309
 6946SOL     OW32296   0.285   2.673   8.140  0.2363  0.1853  0.2095
 6946SOL    HW132297   0.299   2.767   8.133 -0.4160  0.2843  0.2454
 6946SOL    HW232298   0.191   2.660   8.156 -0.0051  2.5145  0.5451
 6947SOL     OW32299   2.908   2.607  13.333 -0.7712 -0.4621  0.2008
 6947SOL    HW132300   2.823   2.568  13.318 -0.2821 -0.7396 -1.8425
 6947SOL    HW232301   2.957   2.538  13.378  1.7898  0.3884 -1.2470
 6948SOL     OW32302   1.911   0.563   9.590 -0.7510 -0.1904 -0.0785
 6948SOL    HW132303   1.878   0.486   9.636  0.2506  0.0842  1.1001
 6948SOL    HW232304   2.005   0.566   9.610 -0.5752 -0.0327 -0.9563
 6949SOL     OW32305   0.989   3.165   6.548  0.3479  0.3754 -0.1341
 6949SOL    HW132306   1.029   3.200   6.627  0.2462 -0.9100  0.4816
 6949SOL    HW232307   0.914   3.116   6.581  0.4435  0.7635  0.6605
 6950SOL     OW32308   0.202   3.562   4.216  0.0627 -0.0179  0.6626
 6950SOL    HW132309   0.256   3.484   4.218 -0.5887 -0.4824  0.2376
 6950SOL    HW232310   0.181   3.561   4.122  0.3095  1.8973  0.5870
 6951SOL     OW32311   4.316   1.767   8.489  0.4026 -0.2022  0.3226
 6951SOL    HW132312   4.375   1.811   8.428  1.2807 -0.8117  0.7367
 6951SOL    HW232313   4.242   1.741   8.432  0.7807 -0.4085 -0.0780
 6952SOL     OW32314   1.598   3.970   5.505  0.3745 -0.0151 -0.0080
 6952SOL    HW132315   1.622   3.973   5.598  1.3175  2.3035 -0.3306
 6952SOL    HW232316   1.610   4.060   5.476 -0.5614  0.9741  2.6345
 6953SOL     OW32317   4.101   3.420  10.227  0.4462 -0.1392  0.0654
 6953SOL    HW132318   4.145   3.338  10.208  2.0606  1.3182 -2.6041
 6953SOL    HW232319   4.157   3.458  10.295  0.7608  2.3988 -1.5903
 6954SOL     OW32320   1.612   4.303   4.883 -0.0260  0.2070 -0.3411
 6954SOL    HW132321   1.691   4.315   4.936 -0.9076 -4.3582  2.0615
 6954SOL    HW232322   1.555   4.360   4.935  0.8728  0.4293  0.3933
 6955SOL     OW32323   3.804   3.309   5.045 -0.3660  0.4978 -0.2611
 6955SOL    HW132324   3.737   3.353   5.097 -0.7837 -0.2974 -0.1249
 6955SOL    HW232325   3.857   3.270   5.114 -0.9335  1.2757  0.6195
 6956SOL     OW32326   0.937   3.286  14.501  0.4028  0.4519 -0.3022
 6956SOL    HW132327   1.001   3.322  14.563 -1.7431  2.1718  0.8881
 6956SOL    HW232328   0.867   3.351  14.505 -1.4184 -1.5199 -0.0309
 6957SOL     OW32329   4.309   4.023   0.196 -0.4466  0.5031  0.0561
 6957SOL    HW132330   4.271   4.097   0.244  1.3080  0.4756  1.4917
 6957SOL    HW232331   4.278   3.953   0.254  0.6590  0.1075  0.1798
 6958SOL     OW32332   0.428   3.577   6.186  0.1902  0.5302  0.7849
 6958SOL    HW132333   0.438   3.550   6.095  0.3518 -0.6171  1.1444
 6958SOL    HW232334   0.333   3.592   6.192  0.3717  2.6433 -1.8621
 6959SOL     OW32335   0.438   2.743  11.492  0.4207  0.0913 -0.3921
 6959SOL    HW132336   0.419   2.698  11.574  1.1866 -0.9393 -0.7681
 6959SOL    HW232337   0.377   2.695  11.435  1.4090 -0.0006 -1.3833
 6960SOL     OW32338   1.117   0.884   6.781 -0.4145  0.4490  0.0872
 6960SOL    HW132339   1.073   0.942   6.719 -0.4919 -1.0676 -1.2794
 6960SOL    HW232340   1.154   0.939   6.850 -1.2203 -0.5050  1.2846
 6961SOL     OW32341   1.664   4.530   6.715 -0.1026  0.0361 -0.4103
 6961SOL    HW132342   1.591   4.490   6.762 -1.2961  0.4574 -1.9386
 6961SOL    HW232343   1.693   4.456   6.662 -1.8747 -1.4600  0.6798
 6962SOL     OW32344   3.909   0.798  10.528 -0.7017 -0.1106  0.1256
 6962SOL    HW132345   3.817   0.806  10.503 -0.0719  1.1278 -1.7815
 6962SOL    HW232346   3.902   0.716  10.578  0.2236 -0.0759  0.3130
 6963SOL     OW32347   0.356   4.137   9.656 -0.0204 -0.2500  0.0740
 6963SOL    HW132348   0.353   4.048   9.621  1.5759 -1.2903  2.5674
 6963SOL    HW232349   0.369   4.188   9.576  1.0151  0.6598  0.8196
 6964SOL     OW32350   1.613   0.913   3.998  0.0981 -0.2143 -0.1849
 6964SOL    HW132351   1.517   0.919   4.006  0.1950  0.0083  0.8167
 6964SOL    HW232352   1.645   0.980   4.059  0.3233 -1.3295  0.9045
 6965SOL     OW32353   0.087   4.690   9.004 -0.7338  0.1621 -0.1087
 6965SOL    HW132354   0.156   0.034   9.000 -0.4673 -0.0934  0.3189
 6965SOL    HW232355   0.070   4.668   9.095  2.0916 -2.9956 -0.3390
 6966SOL     OW32356   4.683   3.463   5.809  0.1767 -0.1258 -0.0404
 6966SOL    HW132357   4.679   3.441   5.902  1.4769  0.5169  0.1697
 6966SOL    HW232358   0.016   3.539   5.821  1.0514 -1.3190  3.4764
 6967SOL     OW32359   4.554   0.480   7.265  0.4997 -0.0275 -0.4190
 6967SOL    HW132360   4.647   0.489   7.285  0.0632  0.1992  1.5984
 6967SOL    HW232361   4.524   0.571   7.270  0.8361  0.0190  0.8447
 6968SOL     OW32362   1.164   2.328  12.792  0.1704  0.4745 -0.4727
 6968SOL    HW132363   1.087   2.271  12.799  0.8916 -0.5861 -1.1022
 6968SOL    HW232364   1.177   2.296  12.702  1.2820  1.5772 -0.7002
 6969SOL     OW32365   0.653   0.476  17.419  0.4585  0.8756 -0.2125
 6969SOL    HW132366   0.648   0.560  17.466 -3.4813  0.5284 -0.0682
 6969SOL    HW232367   0.724   0.439  17.471  3.1888  0.3404 -4.3317
 6970SOL     OW32368   2.677   0.624  11.117 -0.1015 -0.2722 -0.2505
 6970SOL    HW132369   2.593   0.669  11.123  1.0121  2.1262 -2.6154
 6970SOL    HW232370   2.708   0.637  11.207 -1.0648  1.3699 -0.1558
 6971SOL     OW32371   2.970   3.628   6.639 -0.3477 -0.1764  0.3446
 6971SOL    HW132372   2.920   3.572   6.579  0.9628 -0.0814 -0.8593
 6971SOL    HW232373   3.015   3.558   6.687  1.4447  0.5483 -0.2457
 6972SOL     OW32374   3.300   0.016   3.823  0.0937  0.9221  0.0175
 6972SOL    HW132375   3.326   4.647   3.821 -2.8718  0.1290 -1.3733
 6972SOL    HW232376   3.251   0.017   3.741  2.2246 -0.8482 -1.3041
 6973SOL     OW32377   4.635   4.024   0.863  0.1204  0.2730 -0.2446
 6973SOL    HW132378   4.646   3.997   0.954  1.2901  0.9588 -0.1713
 6973SOL    HW232379   4.545   4.055   0.858 -0.7188 -2.3105 -0.5834
 6974SOL     OW32380   3.076   2.454   3.345  0.3933  0.4444 -0.2106
 6974SOL    HW132381   3.100   2.528   3.400  1.1142 -0.7124  1.0108
 6974SOL    HW232382   3.149   2.460   3.283  0.4137  1.4937 -0.0771
 6975SOL     OW32383   1.640   4.158  11.624  0.5917  0.7426 -0.6723
 6975SOL    HW132384   1.645   4.113  11.540  1.1552  0.0877 -0.2914
 6975SOL    HW232385   1.731   4.177  11.648  0.2850  0.9961  0.2703
 6976SOL     OW32386   2.101   0.707   0.789  0.6543  0.4134  0.2769
 6976SOL    HW132387   2.086   0.795   0.823  0.7088  1.3903 -2.2306
 6976SOL    HW232388   2.021   0.659   0.811 -0.1213  2.1486  1.2810
 6977SOL     OW32389   0.167   2.545   2.759  0.2029 -0.4208  0.0628
 6977SOL    HW132390   0.130   2.524   2.844  0.7908  0.4289  0.5252
 6977SOL    HW232391   0.248   2.495   2.764  1.2085  1.3911  1.7715
 6978SOL     OW32392   3.610   3.855   7.775  0.6433  0.3248  0.1142
 6978SOL    HW132393   3.684   3.871   7.832  1.1070 -2.0105  0.1492
 6978SOL    HW232394   3.652   3.882   7.693  2.1286  2.4681  1.5855
 6979SOL     OW32395   2.341   0.812   5.470  0.4276  0.0076 -0.4235
 6979SOL    HW132396   2.386   0.875   5.527  2.0301 -1.7505  0.2790
 6979SOL    HW232397   2.268   0.866   5.441 -0.8320 -1.3557  0.2444
 6980SOL     OW32398   1.913   2.110   7.501 -0.1963  1.5000 -0.4275
 6980SOL    HW132399   1.922   2.041   7.434 -0.7621  0.7903  0.2250
 6980SOL    HW232400   1.817   2.117   7.497 -0.2748 -0.5383 -2.5096
 6981SOL     OW32401   0.475   3.254   1.699  0.1170  0.2177 -0.1080
 6981SOL    HW132402   0.537   3.272   1.629  0.4687 -2.1900 -0.4158
 6981SOL    HW232403   0.398   3.279   1.648  0.8099 -0.4815 -1.4801
 6982SOL     OW32404   4.359   4.564   1.912 -0.6953 -0.5851  0.2886
 6982SOL    HW132405   4.301   4.631   1.949  0.3212 -0.1403  1.0933
 6982SOL    HW232406   4.380   4.609   1.830 -0.4274  1.6853  1.5891
 6983SOL     OW32407   3.937   4.002   6.407 -0.3609 -0.3985  0.1166
 6983SOL    HW132408   3.978   3.922   6.441  0.7903  0.4707  0.7971
 6983SOL    HW232409   3.942   3.972   6.316  0.3467 -2.3477  0.7793
 6984SOL     OW32410   0.077   1.793   3.067 -0.3965  0.2210  0.6217
 6984SOL    HW132411   0.027   1.809   2.987 -1.7566 -0.3933  1.3608
 6984SOL    HW232412   0.017   1.806   3.140 -1.5815 -1.8009  0.0021
 6985SOL     OW32413   3.010   0.755  15.216  0.0482 -0.4775 -0.6486
 6985SOL    HW132414   3.014   0.848  15.195 -0.8491 -0.1010  0.8249
 6985SOL    HW232415   3.064   0.751  15.295  1.2629  1.6976 -1.3756
 6986SOL     OW32416   4.568   1.637   5.500  0.0753 -0.0448 -0.4881
 6986SOL    HW132417   4.570   1.571   5.569  0.5669  2.3357  1.7539
 6986SOL    HW232418   4.650   1.622   5.453  0.2873 -2.1770  0.5716
 6987SOL     OW32419   0.950   3.543  12.897 -0.0783  0.4704  0.0124
 6987SOL    HW132420   0.976   3.622  12.944  0.5619 -0.4849  1.2882
 6987SOL    HW232421   1.035   3.533  12.854 -0.9867 -0.7285 -1.4764
 6988SOL     OW32422   1.583   2.555   3.051  0.0084  0.6138 -0.1666
 6988SOL    HW132423   1.611   2.464   3.058  0.3339  0.8821  1.8484
 6988SOL    HW232424   1.631   2.584   3.128  0.2787 -0.2536 -0.0111
 6989SOL     OW32425   3.067   2.719  15.035 -0.2619  0.1315  0.4745
 6989SOL    HW132426   3.040   2.799  15.081  2.3494 -0.0327  2.2902
 6989SOL    HW232427   3.115   2.679  15.107  0.5448  1.3410  0.6246
 6990SOL     OW32428   1.607   4.546   0.241  0.6301 -0.0858  0.2334
 6990SOL    HW132429   1.634   4.585   0.157 -2.2108  1.7096  0.1486
 6990SOL    HW232430   1.652   4.596   0.309 -0.6198  0.2724  0.7968
 6991SOL     OW32431   2.392   1.452  10.859  0.7657  0.5978  0.5398
 6991SOL    HW132432   2.483   1.428  10.838  0.5343  0.1937 -0.0152
 6991SOL    HW232433   2.385   1.528  10.802 -1.1883 -0.8549 -1.1474
 6992SOL     OW32434   1.681   1.427   5.780  0.1693 -0.3083  0.1016
 6992SOL    HW132435   1.715   1.443   5.692 -1.0348 -1.1483 -0.5025
 6992SOL    HW232436   1.617   1.498   5.771 -1.8556 -2.4766 -2.4996
 6993SOL     OW32437   1.690   0.526   6.514  0.0296  0.0617  0.1106
 6993SOL    HW132438   1.660   0.438   6.539  0.6869 -0.3023 -0.3816
 6993SOL    HW232439   1.785   0.527   6.523 -0.1078  2.6159  1.3556
 6994SOL     OW32440   2.852   3.107   8.258  0.1881 -0.6821 -0.1140
 6994SOL    HW132441   2.803   3.159   8.194 -0.7546 -0.1411  1.0363
 6994SOL    HW232442   2.805   3.025   8.273 -1.5819  0.5881  1.3024
 6995SOL     OW32443   3.848   4.285   3.203  0.1174  0.0500 -0.9831
 6995SOL    HW132444   3.925   4.259   3.254 -0.5203 -1.6615 -0.9178
 6995SOL    HW232445   3.886   4.366   3.168  0.5834  0.6885  0.9883
 6996SOL     OW32446   2.748   4.501  17.253 -0.7469 -0.0028 -0.3170
 6996SOL    HW132447   2.797   4.490  17.334  0.6020 -0.2883 -1.1790
 6996SOL    HW232448   2.820   4.538  17.202  0.5996 -0.4312  1.2701
 6997SOL     OW32449   0.234   3.352   4.451 -0.0521 -0.0929  0.1609
 6997SOL    HW132450   0.145   3.321   4.468 -0.1010  0.4457  0.9134
 6997SOL    HW232451   0.254   3.329   4.360 -0.2873  0.9773 -0.1653
 6998SOL     OW32452   4.706   1.099   8.567 -0.8287 -0.1981  0.3916
 6998SOL    HW132453   0.002   1.175   8.510 -1.7753 -0.1632  0.1280
 6998SOL    HW232454   4.612   1.102   8.581 -0.8613 -0.9325  0.3275
 6999SOL     OW32455   4.225   4.545   0.562  0.0843  0.1882 -0.0168
 6999SOL    HW132456   4.142   4.557   0.608 -1.2293 -0.6932 -2.1520
 6999SOL    HW232457   4.189   4.545   0.473 -0.0442 -1.1784  0.0399
 7000SOL     OW32458   1.213   2.072   5.340  0.2202 -0.3163  0.2233
 7000SOL    HW132459   1.304   2.057   5.363  0.8228  3.2152  0.1535
 7000SOL    HW232460   1.216   2.022   5.259 -1.7846  3.0139 -1.9035
 7001SOL     OW32461   4.056   4.429   2.437  0.3071 -0.0001 -0.0284
 7001SOL    HW132462   4.144   4.424   2.473  0.5552 -2.5980 -0.9456
 7001SOL    HW232463   4.077   4.460   2.349 -0.3257  0.1591 -0.1278
 7002SOL     OW32464   2.376   4.195  16.750  0.2691  0.5084 -0.4552
 7002SOL    HW132465   2.308   4.233  16.694 -1.6212  0.3642  1.7533
 7002SOL    HW232466   2.323   4.181  16.828  0.5966  3.2690  0.2828
 7003SOL     OW32467   1.734   0.960   4.932 -0.5650  0.9810  0.0902
 7003SOL    HW132468   1.806   0.954   4.994  1.5282 -0.6084 -2.5252
 7003SOL    HW232469   1.781   0.938   4.852  0.8151  0.7519  0.9792
 7004SOL     OW32470   4.652   2.674   6.391 -0.3909 -0.2670  0.2959
 7004SOL    HW132471   4.603   2.614   6.446 -1.3129  0.1162 -0.1021
 7004SOL    HW232472   4.719   2.714   6.446  0.1720 -1.6468  0.5978
 7005SOL     OW32473   1.181   0.237   7.765 -0.1152 -0.3443 -0.6268
 7005SOL    HW132474   1.244   0.223   7.836  0.3252  2.1745 -0.5301
 7005SOL    HW232475   1.100   0.207   7.807 -0.1256 -0.9101 -1.0495
 7006SOL     OW32476   2.284   1.970   8.830  0.3523  0.5310  0.1682
 7006SOL    HW132477   2.265   2.061   8.808  0.5622  0.2743 -1.0792
 7006SOL    HW232478   2.352   1.951   8.765 -1.1698 -0.0874 -1.2456
 7007SOL     OW32479   3.672   1.376  14.773 -0.1384  0.4276 -0.6091
 7007SOL    HW132480   3.688   1.429  14.695  0.7085 -0.5132 -1.0706
 7007SOL    HW232481   3.576   1.373  14.776 -0.0606 -1.0899  1.0574
 7008SOL     OW32482   0.763   3.228  11.229 -0.0007  0.2124 -0.1381
 7008SOL    HW132483   0.719   3.282  11.163 -0.7252  0.8424  0.8720
 7008SOL    HW232484   0.843   3.205  11.181  0.8997 -0.4055  1.6951
 7009SOL     OW32485   2.954   1.078   0.531  0.1279 -0.3285 -0.1673
 7009SOL    HW132486   2.891   1.006   0.532  0.1104 -0.4001 -4.6247
 7009SOL    HW232487   2.906   1.137   0.473 -1.0580 -0.9888  0.1614
 7010SOL     OW32488   2.553   2.154   5.727 -0.0618  0.2316 -0.3403
 7010SOL    HW132489   2.485   2.088   5.716  0.9633 -1.1746  1.9438
 7010SOL    HW232490   2.515   2.233   5.687 -0.3089  0.2253 -0.1163
 7011SOL     OW32491   0.755   1.436   6.836  0.5071 -0.3748 -0.0349
 7011SOL    HW132492   0.835   1.483   6.811  1.3393 -2.1950 -0.7226
 7011SOL    HW232493   0.791   1.353   6.867 -2.8214 -1.0559  2.0601
 7012SOL     OW32494   2.611   2.712   6.141 -0.3160  0.3602  0.6811
 7012SOL    HW132495   2.699   2.718   6.104  0.0444 -1.7552  1.2066
 7012SOL    HW232496   2.553   2.707   6.065 -0.1813 -0.3914  0.6310
 7013SOL     OW32497   4.140   1.144   1.088 -0.0772 -0.0468 -0.4083
 7013SOL    HW132498   4.219   1.092   1.072  0.2120 -0.1120  1.2475
 7013SOL    HW232499   4.089   1.117   1.012  1.1360  1.3820 -1.7389
 7014SOL     OW32500   2.921   0.453  17.444  0.0497 -0.3201 -0.3238
 7014SOL    HW132501   2.835   0.492  17.452 -0.4908 -1.6943  0.6537
 7014SOL    HW232502   2.905   0.380  17.504 -1.1618  1.5330  1.5983
 7015SOL     OW32503   1.744   3.977  16.074 -0.4014 -0.2766  0.6290
 7015SOL    HW132504   1.791   3.907  16.121  1.2991  0.8362  0.5747
 7015SOL    HW232505   1.657   3.939  16.082 -1.3640  2.0243  1.0038
 7016SOL     OW32506   0.470   4.088   8.309 -0.0227 -0.1283  0.0121
 7016SOL    HW132507   0.503   4.111   8.396 -2.7749  1.7967  0.5542
 7016SOL    HW232508   0.405   4.152   8.281  1.3166  1.4460  0.5055
 7017SOL     OW32509   3.688   0.480   3.783 -0.3162  0.1820 -0.4116
 7017SOL    HW132510   3.647   0.397   3.809  1.7169 -0.5099  0.5876
 7017SOL    HW232511   3.767   0.486   3.838  0.6180 -0.6063 -1.6604
 7018SOL     OW32512   2.493   3.552  16.207  0.0103 -0.0190  0.2787
 7018SOL    HW132513   2.429   3.513  16.148 -1.6889  1.5871  1.0635
 7018SOL    HW232514   2.580   3.549  16.168 -0.7364 -1.0262 -1.2854
 7019SOL     OW32515   4.666   4.104   7.422  0.2961  0.2142  0.3788
 7019SOL    HW132516   0.032   4.085   7.451 -0.4900  0.3236  2.8343
 7019SOL    HW232517   4.678   4.197   7.406  1.3990  0.8877  5.1287
 7020SOL     OW32518   2.238   1.472   3.108  0.4209 -0.1385  0.1968
 7020SOL    HW132519   2.250   1.420   3.029  1.0009  0.2940  0.0102
 7020SOL    HW232520   2.176   1.418   3.158  0.9283  1.2025  2.2600
 7021SOL     OW32521   1.637   3.448   9.532  0.1228  0.0705 -0.1025
 7021SOL    HW132522   1.618   3.471   9.623  1.0949 -0.8416  0.3330
 7021SOL    HW232523   1.609   3.522   9.478  1.6710  1.2869  0.7103
 7022SOL     OW32524   3.213   1.939   9.165 -0.0903 -0.5021 -0.1798
 7022SOL    HW132525   3.236   2.011   9.225  0.0605  0.6919 -1.6747
 7022SOL    HW232526   3.117   1.935   9.158 -0.1209 -0.7404  0.3946
 7023SOL     OW32527   0.977   2.054  12.124 -0.2152 -0.4855 -0.6984
 7023SOL    HW132528   0.965   1.966  12.161  4.2173 -0.0162  1.8425
 7023SOL    HW232529   0.957   2.043  12.031 -1.9957 -1.5321 -0.1802
 7024SOL     OW32530   1.980   4.471  15.764  0.3165  0.0325  0.0633
 7024SOL    HW132531   2.024   4.483  15.848 -0.5225  2.1514  0.1917
 7024SOL    HW232532   1.928   4.549  15.744  0.9487  1.5398  4.2429
 7025SOL     OW32533   1.293   3.910   7.556  0.1173 -0.5352 -0.1935
 7025SOL    HW132534   1.368   3.925   7.614 -0.4996 -1.6939  0.9170
 7025SOL    HW232535   1.341   3.856   7.494  2.0528  1.1915 -0.2018
 7026SOL     OW32536   4.572   3.985   8.915 -0.1158  0.4011  0.7577
 7026SOL    HW132537   4.624   3.919   8.961  1.0272 -0.5511 -1.8946
 7026SOL    HW232538   4.637   4.050   8.887  2.0307 -0.9494  2.6216
 7027SOL     OW32539   4.626   4.593   9.268 -0.7450 -0.6020 -0.3211
 7027SOL    HW132540   4.634   4.548   9.352  0.1691 -0.0033 -0.0836
 7027SOL    HW232541   4.545   4.549   9.242 -0.7600 -1.0725  0.5193
 7028SOL     OW32542   2.625   0.231  14.089 -0.3267 -0.0960 -0.2453
 7028SOL    HW132543   2.616   0.204  14.181 -1.3718 -0.0523 -0.3329
 7028SOL    HW232544   2.679   0.160  14.055  0.7150  0.7809 -0.4164
 7029SOL     OW32545   2.091   2.354   6.024  1.5462 -0.3333 -0.1645
 7029SOL    HW132546   2.073   2.263   6.046 -1.3732 -0.2324 -2.2024
 7029SOL    HW232547   2.122   2.359   5.934  1.4377  0.2319 -0.1717
 7030SOL     OW32548   1.357   4.468   4.787 -0.3583 -0.0729  0.0897
 7030SOL    HW132549   1.377   4.537   4.851 -0.4033  0.1729 -0.1653
 7030SOL    HW232550   1.268   4.491   4.761 -0.9409 -0.7008  1.4983
 7031SOL     OW32551   3.453   4.625  14.350 -0.1998 -0.1907 -0.0501
 7031SOL    HW132552   3.500   4.588  14.275 -1.0372  0.0650 -0.6910
 7031SOL    HW232553   3.506   4.604  14.427 -2.1474 -1.1700  1.0144
 7032SOL     OW32554   1.812   2.483  13.501  0.2246 -0.2680 -0.4098
 7032SOL    HW132555   1.756   2.450  13.572  2.4062 -1.1610  0.8890
 7032SOL    HW232556   1.899   2.475  13.540  0.6304  1.2320 -1.0187
 7033SOL     OW32557   3.700   3.826   4.341 -0.3360  0.1969 -0.3777
 7033SOL    HW132558   3.658   3.912   4.343 -1.3863 -0.3255 -0.2600
 7033SOL    HW232559   3.693   3.801   4.249 -0.4104 -0.9669 -0.0614
 7034SOL     OW32560   3.915   1.434   3.930  0.5990 -0.5206 -0.1315
 7034SOL    HW132561   3.933   1.519   3.890  0.4583 -0.0111  0.8925
 7034SOL    HW232562   3.925   1.373   3.856  2.8269  1.3476 -1.3867
 7035SOL     OW32563   2.552   0.503   8.015  0.5040 -0.0487  0.2509
 7035SOL    HW132564   2.490   0.544   7.955  0.1037  0.0609  0.7363
 7035SOL    HW232565   2.486   0.462   8.072  0.9192 -2.1054 -0.7458
 7036SOL     OW32566   1.943   3.349   9.997  0.4097  0.6512 -0.1348
 7036SOL    HW132567   1.883   3.327   9.926  1.5116 -1.8833 -0.2870
 7036SOL    HW232568   1.957   3.261  10.031  1.3522  1.3267  1.2466
 7037SOL     OW32569   3.029   1.620   2.812  0.5514 -0.0424  0.1664
 7037SOL    HW132570   2.964   1.550   2.818  0.7116 -0.1806  0.3298
 7037SOL    HW232571   3.104   1.563   2.792  1.2650  0.2773  1.9719
 7038SOL     OW32572   4.251   1.365   5.512  0.5027 -0.0074  0.4485
 7038SOL    HW132573   4.233   1.417   5.590  2.1009 -0.2072  0.9532
 7038SOL    HW232574   4.195   1.292   5.539 -1.4853  0.9842 -1.0715
 7039SOL     OW32575   2.806   3.434   4.010  0.3228 -0.6019  0.6603
 7039SOL    HW132576   2.731   3.491   4.025  0.5041 -0.6343  1.7299
 7039SOL    HW232577   2.851   3.493   3.950 -0.1892  0.4964  1.3547
 7040SOL     OW32578   4.204   3.915   0.445  0.3427  0.0639 -0.5565
 7040SOL    HW132579   4.112   3.893   0.461  1.1265 -1.4516  1.9646
 7040SOL    HW232580   4.214   4.010   0.453 -0.1435 -0.0640  1.7305
 7041SOL     OW32581   2.634   0.539   7.477 -0.8358  0.2050 -0.0746
 7041SOL    HW132582   2.651   0.520   7.569 -1.3785 -1.1334 -0.2543
 7041SOL    HW232583   2.715   0.504   7.442 -0.6735  0.2681  0.2404
 7042SOL     OW32584   1.866   0.349  17.636 -0.3220  0.6157  0.7339
 7042SOL    HW132585   1.942   0.383  17.682  0.7635  1.3482 -1.6386
 7042SOL    HW232586   1.900   0.293  17.566 -4.0995 -1.3510  0.4775
 7043SOL     OW32587   1.998   0.494  16.913 -0.5195 -0.2526  0.3569
 7043SOL    HW132588   1.968   0.531  16.830  1.4017 -0.6459 -0.4978
 7043SOL    HW232589   2.058   0.566  16.933  1.8448 -2.1218 -0.1587
 7044SOL     OW32590   3.051   3.929  14.232  0.2421 -0.6072 -0.4989
 7044SOL    HW132591   2.961   3.902  14.250  0.3215  0.1776  1.0472
 7044SOL    HW232592   3.076   3.967  14.316 -1.8890  0.0527 -0.1553
 7045SOL     OW32593   2.848   3.836   2.075 -0.1009 -0.3594  0.1565
 7045SOL    HW132594   2.810   3.839   1.987  1.6889  2.6873 -0.5179
 7045SOL    HW232595   2.894   3.920   2.080  0.9733 -0.9803  0.6977
 7046SOL     OW32596   1.008   1.872  17.622  0.0257  0.0755 -0.2492
 7046SOL    HW132597   1.092   1.894  17.660  0.0593  1.3329 -1.0615
 7046SOL    HW232598   0.990   1.779  17.636 -0.9081  0.4336  0.9003
 7047SOL     OW32599   2.559   3.787  15.447  0.1360 -0.0086  0.2170
 7047SOL    HW132600   2.628   3.850  15.469  1.1710 -1.6684  1.7561
 7047SOL    HW232601   2.577   3.781  15.353  0.0266  0.5794  0.1562
 7048SOL     OW32602   2.819   3.064  14.522 -0.8414 -0.5381 -0.0216
 7048SOL    HW132603   2.780   2.990  14.476  0.0332 -1.0708  0.0940
 7048SOL    HW232604   2.850   3.108  14.443  1.8208 -1.0316  0.7437
 7049SOL     OW32605   1.299   3.842  10.800 -0.2523 -0.2817 -0.0287
 7049SOL    HW132606   1.231   3.799  10.748 -0.0714 -2.5426  1.5836
 7049SOL    HW232607   1.377   3.792  10.776  0.0800  1.7680 -3.2348
 7050SOL     OW32608   1.288   1.913   5.126 -0.0040  0.3343 -0.3284
 7050SOL    HW132609   1.319   1.822   5.128 -0.9107  0.0477  0.8505
 7050SOL    HW232610   1.355   1.959   5.075  0.6674 -2.4058 -1.9686
 7051SOL     OW32611   3.150   2.634   3.782  0.4861 -0.1496  0.0722
 7051SOL    HW132612   3.176   2.544   3.761 -0.0266 -0.9550  2.8869
 7051SOL    HW232613   3.217   2.683   3.735  1.8804 -0.3071  1.9431
 7052SOL     OW32614   2.958   2.772  17.340 -0.4627  0.4141  0.1840
 7052SOL    HW132615   2.877   2.794  17.293 -0.6697 -0.2288  0.2395
 7052SOL    HW232616   2.978   2.854  17.386  1.7116 -0.3348  0.5656
 7053SOL     OW32617   3.062   3.923   6.869  0.2159 -0.3230 -0.0025
 7053SOL    HW132618   3.093   3.983   6.802 -0.8551  0.2402 -0.0003
 7053SOL    HW232619   2.971   3.907   6.843  0.4089  0.5590 -1.1934
 7054SOL     OW32620   2.328   4.455   1.855  0.4157  0.2024  0.1385
 7054SOL    HW132621   2.388   4.520   1.818 -0.6555  1.4520  0.6254
 7054SOL    HW232622   2.292   4.501   1.931  0.3448 -0.4598  0.5063
 7055SOL     OW32623   0.352   4.271   5.311  0.2118 -0.1062  0.1299
 7055SOL    HW132624   0.368   4.178   5.291 -2.0793 -0.2422 -1.0567
 7055SOL    HW232625   0.438   4.310   5.293  0.3979 -1.2093 -1.4052
 7056SOL     OW32626   3.543   1.062   7.793 -0.1884 -0.1387 -0.1863
 7056SOL    HW132627   3.488   1.050   7.715 -1.0494  1.3046  0.1957
 7056SOL    HW232628   3.581   0.975   7.795 -0.7239 -0.3713 -0.0672
 7057SOL     OW32629   0.578   1.281   3.200  0.7108  0.4443  0.0920
 7057SOL    HW132630   0.550   1.331   3.123 -0.5246 -0.4972 -0.0713
 7057SOL    HW232631   0.638   1.217   3.161 -0.5737  0.3853 -1.7776
 7058SOL     OW32632   3.425   3.195   8.518  0.0338 -0.0383  0.2253
 7058SOL    HW132633   3.335   3.228   8.526  0.8869  2.6413 -1.3999
 7058SOL    HW232634   3.463   3.281   8.502  0.2620 -0.3148 -0.6874
 7059SOL     OW32635   2.295   0.872  13.084  0.3298  0.6403  0.4238
 7059SOL    HW132636   2.260   0.880  13.173 -1.2441  0.7342 -0.2109
 7059SOL    HW232637   2.372   0.818  13.100 -0.9051 -0.5641  2.3910
 7060SOL     OW32638   0.652   3.908   4.248  0.1553  0.1335 -0.1635
 7060SOL    HW132639   0.606   3.831   4.214  0.2147  0.4124 -0.8647
 7060SOL    HW232640   0.742   3.888   4.226 -0.3451 -2.7770  0.3927
 7061SOL     OW32641   0.996   1.925   4.113  0.1043 -0.2726 -0.0304
 7061SOL    HW132642   0.947   1.970   4.045 -2.2881 -1.2594  1.0594
 7061SOL    HW232643   0.950   1.841   4.110 -0.6366  0.1679 -1.1116
 7062SOL     OW32644   3.178   2.575  15.255  0.3412 -0.0465  0.2984
 7062SOL    HW132645   3.156   2.492  15.213 -2.7497  0.5083  0.8528
 7062SOL    HW232646   3.270   2.558  15.278  1.5171  4.2017 -1.1689
 7063SOL     OW32647   4.220   0.517   2.608 -0.8932  0.3171  0.0630
 7063SOL    HW132648   4.315   0.524   2.596 -0.6103 -1.3374  1.2847
 7063SOL    HW232649   4.213   0.540   2.700  0.7555  3.3736 -0.5714
 7064SOL     OW32650   0.819   0.569   0.117 -0.3548 -0.3100  0.1205
 7064SOL    HW132651   0.771   0.602   0.041 -2.1575  0.4731  1.5839
 7064SOL    HW232652   0.756   0.507   0.153  0.9572 -0.5460  2.0059
 7065SOL     OW32653   0.344   0.505   6.454  0.3185  0.4432  0.1923
 7065SOL    HW132654   0.411   0.573   6.460  0.1444  0.9206 -3.0642
 7065SOL    HW232655   0.268   0.530   6.401 -1.6118 -0.6845  2.4296
 7066SOL     OW32656   0.738   4.040   2.659 -0.3682  0.1406  0.6174
 7066SOL    HW132657   0.820   4.076   2.692 -0.4289  0.4064  0.4769
 7066SOL    HW232658   0.729   3.955   2.703 -2.5822 -0.4639 -0.9939
 7067SOL     OW32659   4.307   1.565   2.227 -0.7101  0.0911 -0.0386
 7067SOL    HW132660   4.319   1.658   2.244  0.2552 -0.1189  0.4457
 7067SOL    HW232661   4.212   1.556   2.224 -0.8530  0.3605  3.1839
 7068SOL     OW32662   2.699   2.438   2.221 -0.4710 -0.2040  0.3101
 7068SOL    HW132663   2.637   2.505   2.251 -1.7010 -2.0694  1.9381
 7068SOL    HW232664   2.646   2.402   2.151  0.5910 -0.9887 -0.0852
 7069SOL     OW32665   1.866   4.114   8.246  0.4654  0.1266  0.2432
 7069SOL    HW132666   1.820   4.098   8.163  1.4549  1.1912 -0.5077
 7069SOL    HW232667   1.811   4.163   8.306 -1.7158 -0.7082 -1.0766
 7070SOL     OW32668   0.821   1.547   8.881 -0.2068  0.0856 -0.4274
 7070SOL    HW132669   0.783   1.459   8.876 -0.6097  0.1580  1.2269
 7070SOL    HW232670   0.880   1.539   8.956 -1.9905 -1.5878  0.7953
 7071SOL     OW32671   4.110   0.727   6.489 -0.3302 -0.7073 -0.5408
 7071SOL    HW132672   4.142   0.770   6.410 -0.5087 -1.0343 -0.7938
 7071SOL    HW232673   4.022   0.766   6.493 -0.5715 -1.4643  1.7726
 7072SOL     OW32674   4.299   0.201   6.963 -0.1136 -0.6811  0.3349
 7072SOL    HW132675   4.263   0.249   6.888 -0.2740 -3.2292 -1.2576
 7072SOL    HW232676   4.374   0.257   6.982  0.9779 -2.3304  0.8672
 7073SOL     OW32677   1.809   2.465   6.001  0.1359 -0.7746 -0.4619
 7073SOL    HW132678   1.809   2.428   5.913 -2.9423 -1.6850 -0.0794
 7073SOL    HW232679   1.850   2.390   6.044 -0.2188 -1.6911 -1.7388
 7074SOL     OW32680   4.050   1.655  10.493  0.0738  0.1889  0.5902
 7074SOL    HW132681   4.077   1.568  10.465  1.1607  1.0271 -0.9715
 7074SOL    HW232682   4.110   1.670  10.566  1.0071  0.8301 -0.3072
 7075SOL     OW32683   0.319   3.851   6.847  0.3288  0.3743 -0.0433
 7075SOL    HW132684   0.323   3.814   6.935  3.0133 -1.1749 -0.8011
 7075SOL    HW232685   0.412   3.866   6.831  0.3465 -0.4377 -0.7162
 7076SOL     OW32686   2.864   4.620   6.141 -0.0018 -0.4238  0.4765
 7076SOL    HW132687   2.826   4.582   6.062  0.8060 -2.2478  0.9453
 7076SOL    HW232688   2.956   4.598   6.126 -0.2385  0.6690 -2.5757
 7077SOL     OW32689   1.137   3.702  10.624 -0.2456 -0.2474  1.1605
 7077SOL    HW132690   1.047   3.707  10.593 -0.4613  1.9011  2.1169
 7077SOL    HW232691   1.132   3.611  10.652 -0.2415 -0.5505  0.1830
 7078SOL     OW32692   3.647   4.279  13.557  0.5154  1.1370 -0.3189
 7078SOL    HW132693   3.674   4.359  13.603 -3.2516  0.7148  2.6214
 7078SOL    HW232694   3.565   4.256  13.600 -0.7175  0.9374 -2.7995
 7079SOL     OW32695   4.010   3.095   0.024 -0.5404  0.1052  0.4014
 7079SOL    HW132696   4.098   3.131   0.013  0.5435 -2.6982 -0.1341
 7079SOL    HW232697   3.992   3.131   0.111 -1.9449  1.6677 -0.5328
 7080SOL     OW32698   3.592   1.965   5.474  0.2195  0.2353  0.1413
 7080SOL    HW132699   3.681   1.953   5.510  0.7027 -0.2837 -1.2380
 7080SOL    HW232700   3.556   1.994   5.558 -1.2368  0.8969 -0.7162
 7081SOL     OW32701   0.623   0.669   2.719  0.6289 -0.7611  0.6256
 7081SOL    HW132702   0.649   0.675   2.627 -0.6615 -0.0716  0.2958
 7081SOL    HW232703   0.701   0.621   2.744 -0.8162 -2.9013  1.0397
 7082SOL     OW32704   4.684   0.338   8.355 -0.6120 -0.5665  0.1141
 7082SOL    HW132705   4.610   0.377   8.402 -1.4266 -1.9536 -0.0070
 7082SOL    HW232706   4.684   0.253   8.400  1.3750  0.2613  1.6616
 7083SOL     OW32707   2.384   3.672   2.962  0.2330  0.5274 -0.3308
 7083SOL    HW132708   2.398   3.583   2.994 -2.4581  0.6736  1.2660
 7083SOL    HW232709   2.319   3.655   2.894  1.0968  2.1918 -1.5813
 7084SOL     OW32710   2.138   2.775   3.008  0.3222  0.0019 -0.4746
 7084SOL    HW132711   2.231   2.795   3.013 -0.0553  1.8268 -0.6652
 7084SOL    HW232712   2.115   2.780   3.101  0.0758 -0.9120 -0.4909
 7085SOL     OW32713   3.785   1.075   5.159  0.5365  0.0210 -0.3717
 7085SOL    HW132714   3.758   1.125   5.082  3.0690  0.4929 -0.9652
 7085SOL    HW232715   3.834   1.144   5.205 -1.5706  1.4966 -0.3254
 7086SOL     OW32716   1.552   1.108   6.711  0.7179 -0.9819 -0.2248
 7086SOL    HW132717   1.583   1.184   6.761  3.1437 -2.4287  0.4394
 7086SOL    HW232718   1.486   1.157   6.662  1.4954 -0.0950 -0.3875
 7087SOL     OW32719   3.223   0.950   6.126  0.0654 -1.2430 -0.0663
 7087SOL    HW132720   3.298   0.942   6.185  0.1105  1.7823  0.3028
 7087SOL    HW232721   3.222   1.045   6.120 -0.0397 -1.2266  0.1968
 7088SOL     OW32722   1.176   3.947   4.272  0.4844  0.0509  0.0247
 7088SOL    HW132723   1.129   3.965   4.190  1.2406 -1.1405 -0.6767
 7088SOL    HW232724   1.147   4.017   4.331  0.1219  0.2810 -0.4243
 7089SOL     OW32725   2.510   1.573  14.541 -0.0335  0.7573  0.4137
 7089SOL    HW132726   2.600   1.556  14.566 -0.3328  0.1927  1.1347
 7089SOL    HW232727   2.495   1.528  14.458  2.0221 -0.5574  0.7614
 7090SOL     OW32728   3.203   3.639   9.042  0.0287 -0.3877  0.4882
 7090SOL    HW132729   3.271   3.642   8.975 -0.2432  1.3139  0.2885
 7090SOL    HW232730   3.173   3.728   9.024  0.0012 -0.2003  1.4683
 7091SOL     OW32731   4.195   3.585   8.938  0.0251  0.1855  0.6365
 7091SOL    HW132732   4.122   3.637   8.904  0.9796  1.9803  1.3630
 7091SOL    HW232733   4.176   3.507   8.885  2.9101  0.6106 -0.9978
 7092SOL     OW32734   2.812   2.413   3.873 -0.0783  0.6917  0.1693
 7092SOL    HW132735   2.864   2.480   3.917  1.4566 -1.6730  1.8871
 7092SOL    HW232736   2.757   2.383   3.945 -0.3093  1.1606  0.1888
 7093SOL     OW32737   1.770   1.768  16.096  0.1995  0.1991  0.4492
 7093SOL    HW132738   1.780   1.674  16.110 -0.0291 -0.0090 -0.7191
 7093SOL    HW232739   1.715   1.770  16.017  0.0220  1.0703  0.5939
 7094SOL     OW32740   2.288   3.913   2.646 -0.1674 -0.9959  0.0008
 7094SOL    HW132741   2.265   3.990   2.698 -1.8384 -1.8477  0.5281
 7094SOL    HW232742   2.223   3.931   2.578 -0.5192 -1.0538  0.3222
 7095SOL     OW32743   0.228   1.609   2.816  0.2437  0.0984  0.7887
 7095SOL    HW132744   0.295   1.671   2.787 -0.1262  0.3933  0.5573
 7095SOL    HW232745   0.253   1.581   2.904  2.1106 -1.3922 -0.2403
 7096SOL     OW32746   0.844   2.512   7.095 -0.4411 -0.5709 -0.2149
 7096SOL    HW132747   0.769   2.569   7.078 -0.7828 -1.6056 -2.0736
 7096SOL    HW232748   0.813   2.478   7.179  2.8139  0.5019  1.4061
 7097SOL     OW32749   2.915   2.587   2.232 -0.7064  0.3813  0.3703
 7097SOL    HW132750   2.872   2.668   2.203  0.9111  0.9474 -0.4892
 7097SOL    HW232751   2.848   2.521   2.217 -1.2353  0.8883  0.4712
 7098SOL     OW32752   0.739   3.997  12.903  0.2193 -0.3301  0.2974
 7098SOL    HW132753   0.743   3.925  12.839  1.3442 -0.8404  0.9293
 7098SOL    HW232754   0.827   4.036  12.899 -0.2457  0.6019 -0.6524
 7099SOL     OW32755   3.199   2.542  12.633 -0.8096  0.3687  0.0324
 7099SOL    HW132756   3.274   2.575  12.584 -0.7872  0.9564  0.4679
 7099SOL    HW232757   3.178   2.613  12.692 -3.3540 -0.4907  0.1771
 7100SOL     OW32758   2.617   3.389   8.457  0.0027 -0.0571 -0.2844
 7100SOL    HW132759   2.550   3.356   8.397  0.8186 -1.0695 -0.6414
 7100SOL    HW232760   2.585   3.477   8.478 -0.7647 -0.8771  2.0447
 7101SOL     OW32761   2.126   2.038   8.519  0.0022  0.0753 -0.4501
 7101SOL    HW132762   2.080   1.960   8.551  0.6864  0.3863  1.2610
 7101SOL    HW232763   2.120   2.028   8.424  1.2695 -3.0417 -0.2129
 7102SOL     OW32764   1.763   4.584  11.540 -0.6917  0.6683  0.1674
 7102SOL    HW132765   1.808   4.610  11.620  2.7817  0.6669 -1.7970
 7102SOL    HW232766   1.689   4.541  11.584 -1.2381 -0.6712 -2.0388
 7103SOL     OW32767   0.648   2.520  16.094  0.6844  0.0798  0.0393
 7103SOL    HW132768   0.556   2.525  16.067 -0.1290  1.2450  3.0823
 7103SOL    HW232769   0.688   2.537  16.009  2.5146  0.3141  0.9596
 7104SOL     OW32770   0.859   1.744  16.764 -0.2332 -1.1736 -0.3783
 7104SOL    HW132771   0.848   1.835  16.791  1.6554 -1.3241  0.9306
 7104SOL    HW232772   0.955   1.749  16.761 -0.2775 -0.0948 -0.0561
 7105SOL     OW32773   2.661   3.535   8.168  0.1594 -0.0072 -0.0719
 7105SOL    HW132774   2.613   3.502   8.243 -1.8897  0.7943 -1.0387
 7105SOL    HW232775   2.656   3.628   8.190 -0.9879 -0.5698  2.0085
 7106SOL     OW32776   0.620   2.708   7.154 -0.5534  0.0587 -0.0948
 7106SOL    HW132777   0.640   2.676   7.242  0.6027 -0.2972 -0.4934
 7106SOL    HW232778   0.622   2.803   7.165 -1.5960  0.1182 -0.4006
 7107SOL     OW32779   3.582   4.478  15.082  0.0643 -0.0844  0.3087
 7107SOL    HW132780   3.529   4.525  15.018 -2.2103  0.9990  3.0160
 7107SOL    HW232781   3.666   4.483  15.037  1.2164 -3.4463  2.0301
 7108SOL     OW32782   1.932   0.037   8.982 -0.2035 -0.0173  0.0986
 7108SOL    HW132783   1.973   0.012   9.065  0.9886 -2.7659 -1.3307
 7108SOL    HW232784   1.849   4.712   8.979  2.0870 -3.9529  0.3784
 7109SOL     OW32785   1.143   1.608   8.792 -0.1117  0.4172  0.6209
 7109SOL    HW132786   1.171   1.570   8.708 -1.4860  0.0892  0.3197
 7109SOL    HW232787   1.049   1.594   8.795 -0.4110  2.2203 -0.0514
 7110SOL     OW32788   4.544   0.198   0.676 -0.3894 -0.0958 -0.5776
 7110SOL    HW132789   4.489   0.143   0.620  0.0016 -0.1374 -0.9221
 7110SOL    HW232790   4.563   0.268   0.613  0.2988 -0.1254 -0.4091
 7111SOL     OW32791   4.489   3.633   7.449  0.1997 -0.7820  0.0545
 7111SOL    HW132792   4.411   3.604   7.497 -0.5676  0.1752 -0.6216
 7111SOL    HW232793   4.491   3.729   7.453 -1.2088 -0.7230 -0.6375
 7112SOL     OW32794   2.599   2.230   6.761  0.3860  0.2946 -0.3670
 7112SOL    HW132795   2.531   2.285   6.723 -0.7427  0.2880  1.6946
 7112SOL    HW232796   2.642   2.284   6.827  0.4681  0.0443 -0.2152
 7113SOL     OW32797   4.574   4.675   8.311 -0.6449 -0.0251  0.1145
 7113SOL    HW132798   4.623   4.594   8.306  1.8570  1.6330 -2.1740
 7113SOL    HW232799   4.601   4.708   8.397 -0.2435 -1.4511  0.5299
 7114SOL     OW32800   0.832   1.398  14.856  0.1262  0.4542 -0.5746
 7114SOL    HW132801   0.918   1.440  14.851  1.5311 -2.2671  0.9477
 7114SOL    HW232802   0.858   1.306  14.860 -1.4066  0.1424  2.3728
 7115SOL     OW32803   2.519   0.844  15.645 -0.4298  0.4477  0.1714
 7115SOL    HW132804   2.497   0.812  15.558 -1.3797  1.5009  0.0300
 7115SOL    HW232805   2.468   0.925  15.656 -0.8473  0.6761 -3.5109
 7116SOL     OW32806   4.084   2.878   0.326  0.7071  0.3017  0.2788
 7116SOL    HW132807   4.051   2.814   0.390  1.7002  0.0773  0.5680
 7116SOL    HW232808   4.165   2.830   0.311 -0.4891 -1.0555 -1.7711
 7117SOL     OW32809   0.739   1.035   6.560 -0.0765 -0.1050  0.4657
 7117SOL    HW132810   0.724   1.071   6.473  2.2255 -1.1289 -0.3381
 7117SOL    HW232811   0.737   0.943   6.534  1.1307  0.1942 -0.6707
 7118SOL     OW32812   1.930   0.494  16.403  0.2272  0.1852 -0.1576
 7118SOL    HW132813   1.873   0.512  16.328  0.1165  2.2107  0.4277
 7118SOL    HW232814   1.892   0.409  16.427  0.4707  0.2422  0.4264
 7119SOL     OW32815   0.756   3.433   6.504  0.4204  0.3087  0.0274
 7119SOL    HW132816   0.796   3.516   6.479 -1.9504  1.3090 -0.4702
 7119SOL    HW232817   0.708   3.411   6.424 -1.7778 -0.3486  1.5258
 7120SOL     OW32818   4.141   1.694   0.024  0.0586  0.1362  0.2529
 7120SOL    HW132819   4.106   1.761  17.659 -0.5221 -0.6101 -0.2551
 7120SOL    HW232820   4.095   1.724   0.102 -1.2019  1.3459 -0.9625
 7121SOL     OW32821   1.519   3.618  15.878  0.0380 -0.1633  0.6128
 7121SOL    HW132822   1.562   3.701  15.896 -0.2897 -0.0537  0.9024
 7121SOL    HW232823   1.485   3.624  15.789 -1.7229 -1.4285  1.1938
 7122SOL     OW32824   4.666   4.420  17.395 -0.0627  0.5937  0.8288
 7122SOL    HW132825   4.671   4.503  17.347  2.7708 -0.3135 -0.4364
 7122SOL    HW232826   0.034   4.412  17.423  0.0101  1.3635  0.7984
 7123SOL     OW32827   0.204   0.832   1.046 -0.4560 -0.1306  0.0619
 7123SOL    HW132828   0.192   0.745   1.084 -1.3123  0.2674  0.6709
 7123SOL    HW232829   0.137   0.832   0.978  0.2883  0.6447 -0.6737
 7124SOL     OW32830   0.134   1.801   8.325  0.1511  0.7712  0.4349
 7124SOL    HW132831   0.137   1.803   8.229  1.8075  1.3065  0.4917
 7124SOL    HW232832   0.209   1.742   8.334 -0.3219  0.0691 -0.2053
 7125SOL     OW32833   1.999   3.414  15.990  0.1430 -0.3259  0.4291
 7125SOL    HW132834   1.912   3.443  15.964 -0.1964  0.7818  2.8513
 7125SOL    HW232835   2.023   3.358  15.916 -1.0320 -0.3480  0.0613
 7126SOL     OW32836   0.350   3.179   5.716  0.0538  0.2432  0.6248
 7126SOL    HW132837   0.374   3.265   5.680 -0.8196  0.4999  0.6519
 7126SOL    HW232838   0.436   3.158   5.753  1.0139  1.2614 -1.0604
 7127SOL     OW32839   3.910   2.819   5.213 -0.8380 -0.4821  0.6927
 7127SOL    HW132840   3.831   2.823   5.159  0.7904  0.9380 -1.6194
 7127SOL    HW232841   3.978   2.800   5.148 -2.1177  0.4592 -0.9081
 7128SOL     OW32842   2.455   4.656   7.068  0.3840 -0.7160  0.3011
 7128SOL    HW132843   2.528   4.705   7.106  1.4299 -1.5871 -0.5714
 7128SOL    HW232844   2.405   0.008   7.035  0.6482  0.4159  2.5006
 7129SOL     OW32845   2.833   0.031   6.794 -0.3044  0.2059  0.3631
 7129SOL    HW132846   2.892   0.007   6.865 -1.2596  0.9444  1.4144
 7129SOL    HW232847   2.825   4.667   6.755  0.5618  1.1120 -1.8234
 7130SOL     OW32848   0.681   3.841   4.819  0.2553 -0.0902  0.1608
 7130SOL    HW132849   0.637   3.813   4.739  0.1224 -0.5677  0.4018
 7130SOL    HW232850   0.742   3.907   4.785  2.6056 -1.9002  0.8454
 7131SOL     OW32851   4.515   4.663   3.400 -0.4816 -0.1216  0.4119
 7131SOL    HW132852   4.429   4.680   3.437  0.0159  2.6342  0.2734
 7131SOL    HW232853   4.576   4.684   3.471 -0.2121 -0.3814  0.2590
 7132SOL     OW32854   4.327   3.744   7.811  0.0195 -0.1095 -0.1475
 7132SOL    HW132855   4.320   3.690   7.732 -0.0323  0.0549 -0.2555
 7132SOL    HW232856   4.323   3.829   7.768 -0.9500 -1.0862 -2.0242
 7133SOL     OW32857   0.479   2.584   7.938 -0.0620  0.1913  0.1744
 7133SOL    HW132858   0.465   2.491   7.924 -1.5496  0.7996 -2.2808
 7133SOL    HW232859   0.425   2.604   8.015  0.7077 -1.3189  1.1022
 7134SOL     OW32860   0.895   3.662  10.503 -0.8100 -0.4572 -0.1188
 7134SOL    HW132861   0.803   3.639  10.518 -0.8887 -1.0628 -1.5808
 7134SOL    HW232862   0.921   3.585  10.454 -0.6672  0.0276 -0.8100
 7135SOL     OW32863   0.959   2.352   5.135 -0.2115 -0.2599  0.4444
 7135SOL    HW132864   0.884   2.305   5.169 -0.8834  2.1110  2.2303
 7135SOL    HW232865   0.939   2.442   5.159 -2.3555 -0.3774 -0.9838
 7136SOL     OW32866   4.233   2.590   5.256 -0.2516  0.0647 -0.0755
 7136SOL    HW132867   4.201   2.516   5.205 -1.9651 -0.0920  1.2236
 7136SOL    HW232868   4.205   2.668   5.208  1.5430  0.4634 -0.4906
 7137SOL     OW32869   0.671   2.245   4.731  0.6862  0.4893 -0.4142
 7137SOL    HW132870   0.693   2.168   4.678  0.6031  0.2253 -0.0627
 7137SOL    HW232871   0.674   2.305   4.656  1.5603  1.5199  0.4565
 7138SOL     OW32872   2.860   3.114  15.853  0.4862 -0.3988  0.3087
 7138SOL    HW132873   2.799   3.092  15.783  1.0948  2.0168 -0.9639
 7138SOL    HW232874   2.818   3.192  15.890  3.0829  1.0393  0.2231
 7139SOL     OW32875   4.649   0.544   4.892  0.1443 -0.1674 -0.0977
 7139SOL    HW132876   4.656   0.468   4.835  0.9584  0.6648 -1.0957
 7139SOL    HW232877   4.636   0.499   4.976 -0.3371  0.7029  0.2906
 7140SOL     OW32878   1.856   2.489   2.030 -0.6818 -0.1161 -0.4636
 7140SOL    HW132879   1.852   2.583   2.011 -0.2424 -0.0823 -0.3892
 7140SOL    HW232880   1.897   2.461   1.948 -0.8485  0.4617 -0.7468
 7141SOL     OW32881   2.489   0.878  14.325  0.5357  0.6055 -0.3264
 7141SOL    HW132882   2.414   0.908  14.274  1.3700  1.0602 -1.2881
 7141SOL    HW232883   2.540   0.851  14.248 -0.1614  0.1306 -0.6186
 7142SOL     OW32884   1.164   1.529   8.541  0.3010 -0.1690 -0.3112
 7142SOL    HW132885   1.172   1.434   8.525 -0.8389 -0.5980  1.7394
 7142SOL    HW232886   1.251   1.555   8.510  0.0876  0.9647  0.0441
 7143SOL     OW32887   0.788   1.682   2.658  0.2200  0.4806  0.2208
 7143SOL    HW132888   0.779   1.634   2.576 -0.4390 -0.9463  1.1110
 7143SOL    HW232889   0.748   1.764   2.630  1.6448  1.6573  1.6493
 7144SOL     OW32890   4.285   2.714   6.617 -0.0440 -0.6218  0.3483
 7144SOL    HW132891   4.245   2.688   6.534  0.4600 -1.0201  0.2275
 7144SOL    HW232892   4.236   2.646   6.665  0.0085 -1.0774 -0.2452
 7145SOL     OW32893   3.450   1.144   8.507  0.0434  0.4632 -0.2639
 7145SOL    HW132894   3.535   1.114   8.540 -0.1514  1.3005  0.9904
 7145SOL    HW232895   3.458   1.153   8.412  0.5466  2.8386  0.0091
 7146SOL     OW32896   2.368   2.079   7.352 -0.3125 -0.1293  0.2185
 7146SOL    HW132897   2.376   2.028   7.433 -1.3270  0.3359  0.6115
 7146SOL    HW232898   2.448   2.129   7.362  0.3196 -1.6847  3.0530
 7147SOL     OW32899   0.212   2.869   8.553 -0.4106 -0.4000  0.6940
 7147SOL    HW132900   0.175   2.952   8.582  2.1950  1.8480 -2.5849
 7147SOL    HW232901   0.131   2.820   8.536 -1.6371  2.5047 -1.7053
 7148SOL     OW32902   1.153   3.016  10.367 -0.3485  0.1291  0.2495
 7148SOL    HW132903   1.093   2.953  10.328  0.6981 -0.0935 -1.0056
 7148SOL    HW232904   1.166   2.992  10.459 -1.7543  1.3972  0.7926
 7149SOL     OW32905   0.276   4.104  11.603 -0.1778  0.4552 -0.1019
 7149SOL    HW132906   0.270   4.160  11.680 -1.3882  0.0994  0.0706
 7149SOL    HW232907   0.351   4.150  11.566 -0.0134 -0.2143 -0.6157
 7150SOL     OW32908   4.616   3.572  10.585  0.2018 -0.3950  0.2881
 7150SOL    HW132909   4.525   3.597  10.602 -0.7486 -3.3056 -0.4208
 7150SOL    HW232910   4.613   3.481  10.556 -0.6150  0.2239 -1.5230
 7151SOL     OW32911   3.616   2.288   6.072  0.7130 -0.1503  0.4582
 7151SOL    HW132912   3.631   2.367   6.021 -1.8770  0.7728  1.1537
 7151SOL    HW232913   3.521   2.291   6.070  0.7415  0.5475  0.3035
 7152SOL     OW32914   4.474   0.746   5.864 -0.0007 -0.1725  0.0393
 7152SOL    HW132915   4.429   0.819   5.822 -0.7683 -0.8951 -0.3815
 7152SOL    HW232916   4.533   0.726   5.791  0.9479 -1.1057  1.0640
 7153SOL     OW32917   1.380   4.683   4.969  0.2538  0.3559 -0.0005
 7153SOL    HW132918   1.470   4.656   4.988  0.2589  0.4788  0.1503
 7153SOL    HW232919   1.337   4.666   5.053 -0.3143 -3.3419 -1.0531
 7154SOL     OW32920   1.861   2.155   6.034 -0.3031 -0.7261 -0.1117
 7154SOL    HW132921   1.780   2.141   6.083 -0.0446  0.0280  0.5156
 7154SOL    HW232922   1.931   2.097   6.064  0.3089  0.9780  1.7999
 7155SOL     OW32923   2.787   3.605   8.416  1.0574 -0.3248  0.6138
 7155SOL    HW132924   2.839   3.621   8.337 -1.1654 -0.6801 -0.9144
 7155SOL    HW232925   2.770   3.511   8.414  1.2443 -0.3501  0.2842
 7156SOL     OW32926   1.000   4.122   0.570 -0.2084 -0.0657 -0.4831
 7156SOL    HW132927   1.011   4.216   0.551 -0.2202 -0.1148 -0.7306
 7156SOL    HW232928   0.905   4.115   0.559 -0.3534 -0.0388  0.7041
 7157SOL     OW32929   0.815   0.395   4.038  0.1487 -0.3240 -0.3052
 7157SOL    HW132930   0.871   0.317   4.035  1.8395  0.9278 -1.0844
 7157SOL    HW232931   0.869   0.452   3.983  0.3667  0.7327  1.0162
 7158SOL     OW32932   4.407   3.151   6.727 -0.6065 -0.7657 -0.1545
 7158SOL    HW132933   4.406   3.060   6.757 -1.9053 -1.2972 -1.8342
 7158SOL    HW232934   4.419   3.140   6.633  0.8457  1.9593 -0.2844
 7159SOL     OW32935   1.117   0.958  14.950 -0.1517 -0.5138  0.3116
 7159SOL    HW132936   1.041   1.014  14.934 -0.5867 -2.0164 -2.7668
 7159SOL    HW232937   1.151   0.992  15.033  0.5007  0.3654 -0.3311
 7160SOL     OW32938   1.986   3.680  15.795 -0.0437  0.6101 -0.2028
 7160SOL    HW132939   1.957   3.769  15.775 -0.8763  0.8330  2.0226
 7160SOL    HW232940   2.054   3.682  15.862 -1.2732  0.3691  1.0504
 7161SOL     OW32941   0.014   0.086   7.818  0.5674  0.0144 -0.3185
 7161SOL    HW132942   4.709   0.174   7.794  0.5199 -0.2719 -1.3026
 7161SOL    HW232943   0.098   0.112   7.856  0.1773  0.4767  0.2346
 7162SOL     OW32944   2.524   1.893  13.145  0.1445  0.2157  0.3326
 7162SOL    HW132945   2.608   1.932  13.121 -0.1433  0.1033 -0.8570
 7162SOL    HW232946   2.508   1.835  13.070  0.5906  1.0404 -0.3895
 7163SOL     OW32947   0.921   3.032   0.848  0.5367  0.1655  0.6581
 7163SOL    HW132948   0.951   2.964   0.787  2.4417  2.0890 -0.5342
 7163SOL    HW232949   0.902   3.109   0.794  1.4914 -0.3703 -0.4670
 7164SOL     OW32950   1.661   1.046  10.464  0.3281  0.2763 -0.5373
 7164SOL    HW132951   1.720   0.977  10.495  0.5411 -0.6452 -2.9970
 7164SOL    HW232952   1.643   1.091  10.547  0.3492 -0.2864 -0.2310
 7165SOL     OW32953   1.798   0.360   2.979  0.0407 -0.3723 -0.2661
 7165SOL    HW132954   1.737   0.433   2.972  1.5689  1.1208  2.0862
 7165SOL    HW232955   1.789   0.331   3.069  0.5241 -0.6356 -0.2984
 7166SOL     OW32956   3.655   0.540   9.609 -0.0835  0.1737  0.5007
 7166SOL    HW132957   3.598   0.614   9.628 -1.8874 -1.0483 -0.1188
 7166SOL    HW232958   3.644   0.534   9.514  1.1830  1.4528  0.2815
 7167SOL     OW32959   2.529   2.260   3.749 -0.3223 -0.6252  0.0200
 7167SOL    HW132960   2.494   2.272   3.838  0.3051  1.1867  0.0204
 7167SOL    HW232961   2.513   2.348   3.715 -1.8438 -0.4666  1.1080
 7168SOL     OW32962   1.753   3.437   1.955 -0.3777 -0.0872 -0.0683
 7168SOL    HW132963   1.837   3.442   1.999  0.1938 -0.6439 -1.0826
 7168SOL    HW232964   1.780   3.399   1.871  1.5228 -1.7038  1.3109
 7169SOL     OW32965   2.376   2.063  10.510  0.2828  0.0396  0.2703
 7169SOL    HW132966   2.461   2.095  10.479 -0.5805  1.2569 -0.8547
 7169SOL    HW232967   2.372   1.974  10.475  0.1007 -0.0770  0.5910
 7170SOL     OW32968   4.238   1.651  16.379  0.1049  0.0207 -0.1664
 7170SOL    HW132969   4.313   1.595  16.397 -0.0149 -0.1150 -0.0958
 7170SOL    HW232970   4.270   1.725  16.327 -0.3664 -0.0959 -0.6271
 7171SOL     OW32971   4.189   3.682  17.404  0.3229 -0.1123 -0.2775
 7171SOL    HW132972   4.259   3.721  17.457  1.2935  0.0149 -1.6548
 7171SOL    HW232973   4.193   3.749  17.337  0.5473 -1.4994 -1.6606
 7172SOL     OW32974   3.131   2.235  13.976  0.0916 -0.6981  0.3794
 7172SOL    HW132975   3.081   2.158  14.002 -2.2870  0.5377 -0.5245
 7172SOL    HW232976   3.052   2.288  13.966  1.5868  1.4671 -0.1177
 7173SOL     OW32977   2.027   2.426  10.356 -0.2939  0.5162 -0.2427
 7173SOL    HW132978   2.119   2.438  10.333  0.5240 -3.7917  0.7287
 7173SOL    HW232979   2.000   2.345  10.313  2.8673 -0.0319 -1.1741
 7174SOL     OW32980   1.914   3.427   7.666 -0.2577 -0.0105 -0.3176
 7174SOL    HW132981   1.865   3.347   7.649 -1.1827  0.9994 -2.3800
 7174SOL    HW232982   1.991   3.409   7.611  1.3353 -1.2854  2.3261
 7175SOL     OW32983   1.128   4.181   4.002 -0.1889  0.1590  0.0591
 7175SOL    HW132984   1.202   4.168   4.061  1.2282  0.8216 -1.6118
 7175SOL    HW232985   1.182   4.193   3.924 -1.1705 -2.3900 -1.0204
 7176SOL     OW32986   4.620   4.128  13.195  0.1856 -0.2789 -0.2091
 7176SOL    HW132987   4.564   4.146  13.271  0.0523  2.4688 -0.9713
 7176SOL    HW232988   4.704   4.148  13.237 -1.1193  1.0421  1.7611
 7177SOL     OW32989   4.634   4.204  11.303 -0.3326  0.0312  0.3169
 7177SOL    HW132990   4.646   4.292  11.268 -3.0633  0.5673  0.7277
 7177SOL    HW232991   4.722   4.186  11.334  0.5554  1.6188 -1.2567
 7178SOL     OW32992   0.034   4.164   4.893  0.4816 -0.1179 -0.2082
 7178SOL    HW132993   4.663   4.150   4.889  0.5597 -0.7646  0.1824
 7178SOL    HW232994   0.056   4.170   4.800 -1.1089 -1.8765 -0.6847
 7179SOL     OW32995   2.224   1.369   7.184 -0.1011 -0.2880  0.0333
 7179SOL    HW132996   2.241   1.275   7.174  0.5951 -0.1785  0.1897
 7179SOL    HW232997   2.229   1.395   7.092  1.8761  0.2390  0.2860
 7180SOL     OW32998   3.708   3.134  15.845 -0.3388 -0.3535 -0.7077
 7180SOL    HW132999   3.651   3.068  15.805 -0.6468 -0.9251  0.7043
 7180SOL    HW233000   3.657   3.215  15.843 -0.5361 -0.4238  3.3731
 7181SOL     OW33001   2.978   3.822   4.186 -0.3583 -0.3845  0.5219
 7181SOL    HW133002   3.007   3.731   4.177  2.0357  0.6749 -2.6236
 7181SOL    HW233003   2.895   3.802   4.230 -1.6950  0.2681 -1.7152
 7182SOL     OW33004   3.793   3.900  11.737 -0.3966 -0.0850  0.2521
 7182SOL    HW133005   3.841   3.830  11.693 -2.3094 -0.7951 -0.7104
 7182SOL    HW233006   3.706   3.863  11.752 -0.3647 -0.8239 -1.3727
 7183SOL     OW33007   1.378   2.974  10.166 -0.4632 -0.3382  0.2564
 7183SOL    HW133008   1.431   2.947  10.241 -0.1276 -1.1723 -0.2807
 7183SOL    HW233009   1.290   2.972  10.204 -0.8873  0.6194 -0.6540
 7184SOL     OW33010   2.507   0.742   1.323 -0.4578 -0.9406  0.0447
 7184SOL    HW133011   2.539   0.659   1.287 -1.2776 -2.1747  2.1597
 7184SOL    HW233012   2.492   0.714   1.414 -1.3170  0.3049  0.2822
 7185SOL     OW33013   2.874   4.560  11.420  0.2504  0.4872 -0.1054
 7185SOL    HW133014   2.813   4.598  11.356  2.1954  1.2496 -1.5240
 7185SOL    HW233015   2.808   4.514  11.472  1.4351  0.8860  1.7498
 7186SOL     OW33016   2.976   2.311   8.434  0.4834  0.2291  0.5175
 7186SOL    HW133017   3.071   2.319   8.425  0.2734  1.6188 -0.4226
 7186SOL    HW233018   2.948   2.381   8.374  1.7549 -0.3373 -0.7265
 7187SOL     OW33019   1.893   4.093   3.118 -0.1650  0.1079  0.2215
 7187SOL    HW133020   1.934   4.008   3.099 -2.2413 -0.5826 -1.1210
 7187SOL    HW233021   1.919   4.110   3.209 -0.4357 -0.8735  0.4876
 7188SOL     OW33022   0.584   4.118   6.190  0.5147  0.1364  0.0213
 7188SOL    HW133023   0.573   4.177   6.264  1.4403 -0.0126  0.2711
 7188SOL    HW233024   0.503   4.069   6.200  0.2493  0.8630  1.4277
 7189SOL     OW33025   3.053   1.515  14.626  0.1424  0.0913  0.1797
 7189SOL    HW133026   3.067   1.591  14.682  1.3795  0.4279 -0.5780
 7189SOL    HW233027   3.046   1.558  14.541  1.0438 -0.0840  0.0195
 7190SOL     OW33028   3.255   3.858   9.458  0.0323  0.5689  0.4025
 7190SOL    HW133029   3.317   3.786   9.468 -0.2315 -0.2572 -3.7896
 7190SOL    HW233030   3.171   3.818   9.481 -0.0854 -0.4250 -1.8031
 7191SOL     OW33031   1.250   0.175  17.522 -0.3467 -0.6253 -0.1494
 7191SOL    HW133032   1.264   0.135  17.608 -0.7799 -0.8013 -0.1628
 7191SOL    HW233033   1.320   0.130  17.475 -0.2848  1.4070 -1.9820
 7192SOL     OW33034   1.384   0.868   9.213  0.0888  0.2371  0.0812
 7192SOL    HW133035   1.401   0.914   9.296  0.9542 -2.2187  1.2859
 7192SOL    HW233036   1.322   0.925   9.169 -2.0517 -1.1234  1.2792
 7193SOL     OW33037   4.661   2.269   6.405 -0.0268  0.5399 -0.3870
 7193SOL    HW133038   4.586   2.211   6.421  1.0545 -0.7064  0.1469
 7193SOL    HW233039   4.623   2.356   6.418  0.3856  0.6217  0.2683
 7194SOL     OW33040   1.870   3.562   7.908 -0.4104 -0.4003  0.5652
 7194SOL    HW133041   1.870   3.502   7.833  0.6785  1.2219 -0.7135
 7194SOL    HW233042   1.777   3.576   7.929 -1.0847 -1.0049 -2.0314
 7195SOL     OW33043   3.967   3.842   4.372 -0.2987  0.3390 -0.0019
 7195SOL    HW133044   3.948   3.800   4.288 -0.2792 -1.2536  0.7785
 7195SOL    HW233045   3.876   3.855   4.400  0.1671  2.0374  0.6770
 7196SOL     OW33046   1.189   4.170  12.279  0.3785 -0.3379 -0.2265
 7196SOL    HW133047   1.111   4.153  12.331 -0.0481 -0.3424 -0.8759
 7196SOL    HW233048   1.158   4.234  12.215  1.6125  1.2610  0.7611
 7197SOL     OW33049   2.904   2.721   3.724 -0.1771  0.4933 -0.1186
 7197SOL    HW133050   2.986   2.675   3.740 -0.3762  0.7647  1.6772
 7197SOL    HW233051   2.929   2.810   3.746  0.3495  0.4340 -0.5035
 7198SOL     OW33052   2.239   2.235   0.795  0.0159  0.3659 -0.5226
 7198SOL    HW133053   2.257   2.300   0.863 -0.0215 -0.2936  0.1238
 7198SOL    HW233054   2.206   2.285   0.720 -1.0641 -0.6745 -0.7429
 7199SOL     OW33055   1.828   0.896   2.859  0.0301 -0.3685  0.0872
 7199SOL    HW133056   1.897   0.960   2.842 -0.8030 -0.0520 -2.1162
 7199SOL    HW233057   1.788   0.892   2.772  0.8305 -1.5267 -0.2276
 7200SOL     OW33058   0.455   4.437   4.312 -0.3019  0.4871  0.3598
 7200SOL    HW133059   0.464   4.366   4.248 -2.1686  0.1673  0.4673
 7200SOL    HW233060   0.369   4.412   4.344 -0.3002 -0.9676 -0.7523
 7201SOL     OW33061   2.409   0.113   1.174 -0.4663  0.8666 -0.0091
 7201SOL    HW133062   2.409   0.104   1.079  0.7931 -0.2579  0.0907
 7201SOL    HW233063   2.502   0.136   1.181 -0.3363  0.2271  0.3744
 7202SOL     OW33064   1.698   2.627   3.281 -0.6208  0.6004  0.2359
 7202SOL    HW133065   1.628   2.617   3.345  0.6575  0.1746  1.5694
 7202SOL    HW233066   1.771   2.598   3.336  0.0698  1.2920 -0.3086
 7203SOL     OW33067   2.848   3.604   6.022  0.7871 -0.2867 -0.0949
 7203SOL    HW133068   2.856   3.510   6.041  0.2699  0.2551  2.8630
 7203SOL    HW233069   2.906   3.626   5.949 -1.0893  0.1062 -1.4347
 7204SOL     OW33070   1.377   1.785   1.390  0.4691 -0.2405  0.2373
 7204SOL    HW133071   1.425   1.714   1.433 -0.2338 -0.7899  0.0916
 7204SOL    HW233072   1.440   1.802   1.320  1.3662 -0.0351  1.0737
 7205SOL     OW33073   1.170   3.059  13.958  0.0397  0.5162 -0.3060
 7205SOL    HW133074   1.194   3.118  14.029  0.9481  0.6613 -0.7342
 7205SOL    HW233075   1.235   2.989  13.951 -0.8156 -0.2034 -1.0884
 7206SOL     OW33076   4.614   1.509  12.475  0.2002  0.4038 -0.1635
 7206SOL    HW133077   4.591   1.601  12.463 -0.5603  0.1857 -0.3395
 7206SOL    HW233078   4.591   1.494  12.567 -1.2775  1.6174 -0.3435
 7207SOL     OW33079   0.167   0.492  14.944  0.6226 -0.1937  0.5475
 7207SOL    HW133080   0.172   0.578  14.986 -2.5671  0.4992 -0.5031
 7207SOL    HW233081   0.257   0.458  14.952  1.9314  3.8492  3.1670
 7208SOL     OW33082   2.149   0.467  17.610 -0.3593 -0.0682 -0.2347
 7208SOL    HW133083   2.187   0.413  17.540  1.8960 -0.8183  1.5981
 7208SOL    HW233084   2.225   0.482  17.665  0.6794  0.5752 -1.8451
 7209SOL     OW33085   2.450   0.086   0.879  0.3420 -0.5881 -0.0799
 7209SOL    HW133086   2.367   0.132   0.864  1.3342  1.5265  0.8581
 7209SOL    HW233087   2.511   0.160   0.884  1.6502 -1.8048  2.0180
 7210SOL     OW33088   3.844   3.161  14.862  0.8208 -0.7782 -0.3407
 7210SOL    HW133089   3.800   3.085  14.900 -0.5744  0.0244 -0.3698
 7210SOL    HW233090   3.837   3.215  14.941  1.1984 -2.6734  0.9818
 7211SOL     OW33091   4.277   0.360   4.593  0.8182 -0.5136 -0.0596
 7211SOL    HW133092   4.266   0.405   4.509  1.1945 -1.3623 -0.5668
 7211SOL    HW233093   4.307   0.434   4.645  0.3649  0.0414 -0.5862
 7212SOL     OW33094   3.217   0.211   2.303 -0.3950 -0.3743  0.2900
 7212SOL    HW133095   3.216   0.204   2.208 -0.5184 -0.7539  0.3194
 7212SOL    HW233096   3.251   0.300   2.317  0.8491 -0.7792 -0.1258
 7213SOL     OW33097   0.002   1.622   6.027 -0.5639  0.0063 -0.4483
 7213SOL    HW133098   4.673   1.691   5.987  2.5948  1.9761 -1.1997
 7213SOL    HW233099   4.699   1.620   6.118 -1.4885 -1.6856 -0.7470
 7214SOL     OW33100   4.089   2.007   6.825 -0.3086  0.0617 -0.7622
 7214SOL    HW133101   4.071   1.928   6.876  0.6096  0.2149 -0.1881
 7214SOL    HW233102   4.052   2.067   6.891 -0.4929  0.9033 -1.6357
 7215SOL     OW33103   3.595   3.276  12.532 -0.3288  0.9699  0.0276
 7215SOL    HW133104   3.619   3.302  12.443  0.9089  0.8084  0.3183
 7215SOL    HW233105   3.672   3.223  12.552 -1.1730 -0.5546 -0.7683
 7216SOL     OW33106   1.670   3.495   7.227 -0.2308 -0.3015  0.0235
 7216SOL    HW133107   1.712   3.518   7.310  1.7858 -1.0761 -0.7830
 7216SOL    HW233108   1.578   3.517   7.243 -0.3634 -1.3705  0.8211
 7217SOL     OW33109   2.748   4.616  15.710  0.3373 -0.0634 -0.1223
 7217SOL    HW133110   2.800   4.590  15.786 -1.0316 -0.4355  0.6776
 7217SOL    HW233111   2.721   4.531  15.675  0.6103 -0.6424  1.0831
 7218SOL     OW33112   2.828   4.456   6.518 -0.6093 -0.2016 -0.0646
 7218SOL    HW133113   2.733   4.455   6.508 -0.5663 -1.7205 -0.3018
 7218SOL    HW233114   2.844   4.367   6.550 -2.4400  0.3311  2.2472
 7219SOL     OW33115   2.957   2.184   5.919  0.5392 -0.3617 -0.0991
 7219SOL    HW133116   2.873   2.150   5.950  2.6685 -1.9597  3.9565
 7219SOL    HW233117   2.924   2.233   5.844 -1.3282 -0.9481  0.3361
 7220SOL     OW33118   0.423   3.333   7.952 -0.2833  0.4588  0.3321
 7220SOL    HW133119   0.511   3.370   7.958 -0.4853  1.2107 -1.3830
 7220SOL    HW233120   0.412   3.311   8.044  1.3427 -0.4293  0.3204
 7221SOL     OW33121   2.894   2.155   4.969  0.2437  0.0552  0.5849
 7221SOL    HW133122   2.828   2.086   4.958  0.8070 -0.0307 -2.2019
 7221SOL    HW233123   2.933   2.135   5.054 -0.7343  1.2331  1.3230
 7222SOL     OW33124   1.896   4.684   3.442  0.4510 -0.0900  0.9006
 7222SOL    HW133125   1.887   4.588   3.437 -0.5711  0.1333 -1.4876
 7222SOL    HW233126   1.959   4.700   3.371 -0.6886  1.4075  0.2389
 7223SOL     OW33127   3.146   2.257   6.830 -0.6298  0.0213 -0.4441
 7223SOL    HW133128   3.076   2.308   6.788  0.3909  3.7585  2.3513
 7223SOL    HW233129   3.227   2.306   6.815 -0.6489  0.2262  0.1147
 7224SOL     OW33130   1.920   3.765   4.506 -0.3561  0.2097  0.7214
 7224SOL    HW133131   1.994   3.704   4.506  0.5621  1.3369  0.1348
 7224SOL    HW233132   1.869   3.736   4.430  1.6177 -0.7817 -0.2321
 7225SOL     OW33133   0.631   3.326  11.456 -0.4724  0.1927  0.7258
 7225SOL    HW133134   0.706   3.298  11.404 -0.3402 -0.1658  1.1103
 7225SOL    HW233135   0.616   3.412  11.416  2.2750  0.2296 -0.2455
 7226SOL     OW33136   4.410   3.481   2.526 -0.2573 -0.3940 -0.4093
 7226SOL    HW133137   4.386   3.433   2.605 -1.6781 -1.0608 -1.2454
 7226SOL    HW233138   4.452   3.410   2.478 -0.4338 -0.1967 -0.8554
 7227SOL     OW33139   0.926   2.234  10.551 -0.4239  0.1901 -0.1550
 7227SOL    HW133140   0.860   2.286  10.504  1.8242  2.7694 -0.4119
 7227SOL    HW233141   0.994   2.258  10.489  0.1148 -2.5940 -0.6523
 7228SOL     OW33142   2.454   4.104  16.132  1.1692 -0.1405 -0.5443
 7228SOL    HW133143   2.379   4.114  16.073 -0.2186 -2.2852  0.8798
 7228SOL    HW233144   2.501   4.033  16.088 -1.3120 -2.2996  0.2994
 7229SOL     OW33145   1.565   0.943  10.245  0.4074  0.2920 -0.6489
 7229SOL    HW133146   1.585   0.996  10.322  0.2029  0.1380 -0.4902
 7229SOL    HW233147   1.639   0.882  10.235 -0.5741 -0.7287 -1.5927
 7230SOL     OW33148   3.064   0.838   7.195 -0.1210 -0.3011  0.6656
 7230SOL    HW133149   3.132   0.894   7.232 -0.3944  0.9478 -0.7157
 7230SOL    HW233150   3.101   0.754   7.220  0.3935 -0.6046 -1.0864
 7231SOL     OW33151   2.486   2.197   2.688 -0.8803 -0.0504 -0.3872
 7231SOL    HW133152   2.567   2.145   2.690 -2.2584 -2.2419 -1.7493
 7231SOL    HW233153   2.491   2.254   2.612  0.0081 -0.1506 -0.4125
 7232SOL     OW33154   2.435   0.538  15.481 -0.6058  0.3764 -0.5555
 7232SOL    HW133155   2.496   0.539  15.407  3.1455  1.1336  2.5598
 7232SOL    HW233156   2.381   0.459  15.474 -3.0072  1.9027  0.6762
 7233SOL     OW33157   2.910   0.943  15.478  0.3363 -0.1751  0.5373
 7233SOL    HW133158   2.831   0.957  15.426 -0.4321  1.4077  2.1157
 7233SOL    HW233159   2.866   0.955  15.562  2.0272 -2.2861  1.7305
 7234SOL     OW33160   4.287   3.716   4.524  0.3219  0.1994  0.5107
 7234SOL    HW133161   4.369   3.683   4.560 -0.1287  0.9092  2.1964
 7234SOL    HW233162   4.316   3.752   4.440 -1.3456  0.3031 -0.0244
 7235SOL     OW33163   2.805   0.022  16.827  0.7091  0.1754  0.3175
 7235SOL    HW133164   2.721   4.708  16.856  0.7475  0.2526  0.5329
 7235SOL    HW233165   2.832   4.678  16.764  1.9927  1.5462 -0.5685
 7236SOL     OW33166   0.743   2.763   5.507  0.2121  0.3417  0.3628
 7236SOL    HW133167   0.741   2.750   5.412  0.1492  0.5680  0.3318
 7236SOL    HW233168   0.787   2.679   5.517  0.8247  0.4291 -1.5734
 7237SOL     OW33169   2.960   0.158  11.408  0.1145 -0.0110  0.3520
 7237SOL    HW133170   3.043   0.113  11.425 -0.6291 -0.7444  2.1200
 7237SOL    HW233171   2.928   0.173  11.497  0.0814 -2.5717  0.7828
 7238SOL     OW33172   3.197   2.578  13.522  0.3033  0.6505 -0.2274
 7238SOL    HW133173   3.182   2.593  13.615  1.5782  0.7022 -0.0261
 7238SOL    HW233174   3.144   2.501  13.505  0.5437  0.4927 -0.2551
 7239SOL     OW33175   4.369   0.574   5.059  0.2395  0.2515  0.1922
 7239SOL    HW133176   4.289   0.522   5.068  1.4629 -1.6877 -0.1768
 7239SOL    HW233177   4.333   0.661   5.043  0.9298  0.9812  2.5979
 7240SOL     OW33178   1.624   3.268   8.198  0.0375  0.0329  0.3527
 7240SOL    HW133179   1.622   3.256   8.104  2.1286  2.0802  0.0485
 7240SOL    HW233180   1.530   3.279   8.213 -0.4170 -0.9749 -1.8616
 7241SOL     OW33181   4.575   3.880   2.406  0.0407 -0.0396  0.0598
 7241SOL    HW133182   4.558   3.812   2.471 -0.2398 -3.0834 -3.1687
 7241SOL    HW233183   4.643   3.827   2.364  0.5531  1.7154 -1.2937
 7242SOL     OW33184   1.395   4.383   5.765  0.1438  0.2369 -0.3271
 7242SOL    HW133185   1.470   4.439   5.788  0.1647  0.2264 -0.3687
 7242SOL    HW233186   1.427   4.358   5.678  0.6583  0.6453 -0.2591
 7243SOL     OW33187   0.353   0.695   2.760 -0.0823 -0.0257  0.0251
 7243SOL    HW133188   0.388   0.660   2.679 -1.2112  0.1558 -0.5399
 7243SOL    HW233189   0.439   0.699   2.803 -0.0620 -1.3869  0.0972
 7244SOL     OW33190   2.302   1.919   2.595 -0.0386  0.0972 -0.3882
 7244SOL    HW133191   2.294   1.995   2.538 -1.7295  1.0523  1.1241
 7244SOL    HW233192   2.273   1.963   2.675  2.7406  1.1124  0.0664
 7245SOL     OW33193   1.377   3.509   2.445 -0.0048 -0.2132 -0.2639
 7245SOL    HW133194   1.380   3.414   2.461 -0.9961 -0.4636 -1.5217
 7245SOL    HW233195   1.411   3.518   2.356  0.7244  3.8606  0.4592
 7246SOL     OW33196   2.166   1.667   3.892  0.4045 -0.8034  0.0432
 7246SOL    HW133197   2.070   1.661   3.896  0.3350 -0.5833 -1.2136
 7246SOL    HW233198   2.170   1.729   3.819 -0.7418 -1.3931 -0.5367
 7247SOL     OW33199   0.131   4.038   8.078 -0.1591 -0.3776 -0.3765
 7247SOL    HW133200   0.110   3.945   8.074  3.1045 -1.1618  0.3109
 7247SOL    HW233201   0.199   4.039   8.011 -0.1991  0.5159 -0.4106
 7248SOL     OW33202   3.585   0.919   2.632  0.3096 -0.5845 -0.5492
 7248SOL    HW133203   3.638   0.874   2.566  0.2846 -0.3839 -0.7082
 7248SOL    HW233204   3.584   0.866   2.711 -0.5332  0.7261  0.3220
 7249SOL     OW33205   3.137   0.519   7.631 -0.3241  0.0240 -0.1843
 7249SOL    HW133206   3.152   0.604   7.673  0.4111 -2.2573  4.1434
 7249SOL    HW233207   3.087   0.481   7.703  3.5681 -0.4667  2.2035
 7250SOL     OW33208   0.832   3.513  14.307  0.1298  0.1219  0.1369
 7250SOL    HW133209   0.889   3.437  14.294  0.9211  0.7164  0.1462
 7250SOL    HW233210   0.788   3.489  14.388 -1.8937  2.5856 -0.2268
 7251SOL     OW33211   2.022   1.316   1.600 -0.5253 -0.3132  0.2658
 7251SOL    HW133212   2.085   1.379   1.566 -2.0246  0.8013 -0.4882
 7251SOL    HW233213   1.986   1.267   1.526 -0.2794 -0.0781 -0.0086
 7252SOL     OW33214   3.772   3.664  15.011  0.5544  0.1833 -0.1842
 7252SOL    HW133215   3.826   3.725  14.960  1.8841 -2.3208 -1.7581
 7252SOL    HW233216   3.742   3.726  15.077  2.4257  0.7051  0.1760
 7253SOL     OW33217   0.015   1.163   4.405 -0.2963  0.1698  0.0745
 7253SOL    HW133218   0.099   1.143   4.445  0.4007  0.4889 -1.2447
 7253SOL    HW233219   4.685   1.087   4.431 -0.2311  0.0035 -0.2907
 7254SOL     OW33220   3.147   4.139   2.266 -0.4031  0.7203 -0.2088
 7254SOL    HW133221   3.193   4.055   2.263 -0.3121  0.6830  1.9083
 7254SOL    HW233222   3.163   4.151   2.360 -1.3577 -0.2772  0.0802
 7255SOL     OW33223   4.160   4.451   9.794 -0.4927  0.4815  0.1156
 7255SOL    HW133224   4.114   4.530   9.823 -0.8967  0.9634 -1.8228
 7255SOL    HW233225   4.092   4.386   9.776  1.9276 -2.0824  0.1112
 7256SOL     OW33226   0.189   3.163   7.894  0.7710 -0.1792 -0.2843
 7256SOL    HW133227   0.238   3.245   7.898 -0.2745  0.3779  1.2752
 7256SOL    HW233228   0.130   3.160   7.970 -0.1196  0.9169 -0.9276
 7257SOL     OW33229   4.058   4.448  11.357 -0.0662 -0.2598 -0.3437
 7257SOL    HW133230   4.093   4.483  11.275 -1.6472 -1.0987 -1.3790
 7257SOL    HW233231   4.108   4.366  11.356 -2.7953 -1.9355 -0.8483
 7258SOL     OW33232   2.553   3.280   9.206  0.0921 -0.0695 -0.1892
 7258SOL    HW133233   2.641   3.251   9.231 -0.0793  1.6533  2.5044
 7258SOL    HW233234   2.507   3.286   9.289  1.5205 -0.0846  0.6056
 7259SOL     OW33235   3.586   1.982  13.092 -0.0801  0.1439 -0.3088
 7259SOL    HW133236   3.566   1.924  13.165  1.1699  0.5799  0.3692
 7259SOL    HW233237   3.557   2.067  13.126  0.7972 -0.0526  0.9026
 7260SOL     OW33238   3.359   3.433  10.880 -0.6090 -0.1583  0.3192
 7260SOL    HW133239   3.356   3.351  10.831 -3.6431  0.6196 -0.8199
 7260SOL    HW233240   3.450   3.440  10.910 -0.0472  0.5683 -1.5587
 7261SOL     OW33241   4.553   2.646   4.291  0.5189 -0.6040  0.7132
 7261SOL    HW133242   4.617   2.597   4.239 -0.4716 -1.0947 -0.0489
 7261SOL    HW233243   4.485   2.581   4.305  0.7309 -1.2844 -1.3986
 7262SOL     OW33244   1.883   3.412   9.342  0.4117  0.4277  0.2913
 7262SOL    HW133245   1.962   3.465   9.349 -0.7109  2.2686 -0.8743
 7262SOL    HW233246   1.810   3.462   9.376  1.6816  2.9495 -0.6603
 7263SOL     OW33247   3.160   1.582  12.769 -0.1455 -0.6013 -0.1474
 7263SOL    HW133248   3.241   1.535  12.791  0.1187  0.8217  1.9420
 7263SOL    HW233249   3.163   1.571  12.674  3.0375 -0.4889 -0.0606
 7264SOL     OW33250   3.121   1.626  16.647 -0.3766  0.2126 -0.0173
 7264SOL    HW133251   3.173   1.617  16.727 -2.3954  3.3127  1.6307
 7264SOL    HW233252   3.036   1.606  16.687 -0.6523  2.2081  0.3865
 7265SOL     OW33253   1.496   2.847   7.202  0.4470 -0.2219  0.4220
 7265SOL    HW133254   1.413   2.847   7.155  0.3338 -0.5070  0.6195
 7265SOL    HW233255   1.532   2.772   7.154  3.0476  1.9931 -1.0464
 7266SOL     OW33256   2.196   3.914   7.725  0.2872 -0.1499  1.0845
 7266SOL    HW133257   2.289   3.930   7.742  0.0468  1.6098  0.7279
 7266SOL    HW233258   2.165   3.867   7.802 -0.0865 -1.8224 -0.0913
 7267SOL     OW33259   3.103   3.301   7.933  0.4651  0.3616  0.2984
 7267SOL    HW133260   3.172   3.341   7.985 -0.0849  0.2382  1.1276
 7267SOL    HW233261   3.031   3.348   7.975  0.0488 -0.3143  0.3437
 7268SOL     OW33262   1.400   1.101   7.260  0.1778  0.4462  0.4088
 7268SOL    HW133263   1.394   1.132   7.169 -1.2023 -0.3954  0.2239
 7268SOL    HW233264   1.307   1.101   7.283 -0.1820  1.5451 -1.0046
 7269SOL     OW33265   2.132   3.785   8.166 -0.0033  0.6439 -0.0796
 7269SOL    HW133266   2.082   3.812   8.089 -1.9163 -1.1351  0.5595
 7269SOL    HW233267   2.202   3.851   8.169  0.9312 -0.4835  3.4108
 7270SOL     OW33268   0.553   0.184   7.119 -0.1553 -0.2577  0.2472
 7270SOL    HW133269   0.527   0.092   7.118  0.8245 -0.5364  0.6013
 7270SOL    HW233270   0.595   0.182   7.205  0.9967 -0.4008 -0.3301
 7271SOL     OW33271   0.440   3.483   9.613 -0.3494  0.1823 -0.4931
 7271SOL    HW133272   0.536   3.479   9.616 -0.4407 -0.4892  1.3580
 7271SOL    HW233273   0.407   3.417   9.674  0.6184 -0.9223 -1.1599
 7272SOL     OW33274   2.482   3.421   3.030 -0.1586 -0.9781 -0.3501
 7272SOL    HW133275   2.508   3.343   2.981 -1.6525 -0.7792 -1.4400
 7272SOL    HW233276   2.562   3.471   3.046 -0.2784 -0.3669 -1.6556
 7273SOL     OW33277   1.824   4.418   8.704 -0.1149 -0.0889  0.3367
 7273SOL    HW133278   1.903   4.472   8.700 -0.5409  0.4320 -1.1590
 7273SOL    HW233279   1.770   4.495   8.684 -0.8448 -0.5946  0.3643
 7274SOL     OW33280   2.678   2.567  17.145 -0.4245  0.6335  0.5275
 7274SOL    HW133281   2.732   2.533  17.073 -0.8159  2.0645 -0.4487
 7274SOL    HW233282   2.594   2.539  17.109  0.0319  1.1237 -0.9278
 7275SOL     OW33283   0.488   1.343   7.155 -0.3515 -0.1241  0.9375
 7275SOL    HW133284   0.459   1.368   7.067 -2.1606  0.4014  1.6891
 7275SOL    HW233285   0.403   1.330   7.196 -1.1507 -0.6377 -0.8784
 7276SOL     OW33286   4.028   3.219  11.448 -0.0143  0.3049  0.0370
 7276SOL    HW133287   4.057   3.220  11.357  0.3315 -1.6668  0.1270
 7276SOL    HW233288   4.011   3.311  11.466 -0.6278  0.1748  0.1282
 7277SOL     OW33289   4.100   3.073  15.676 -0.5303 -0.3828 -0.1031
 7277SOL    HW133290   4.035   3.137  15.647  1.5167  0.3239 -3.1028
 7277SOL    HW233291   4.178   3.124  15.656  0.3825 -1.3745  0.9414
 7278SOL     OW33292   3.836   4.680   3.016 -0.1843 -0.1039 -0.6205
 7278SOL    HW133293   3.795   0.021   2.957 -0.3825 -0.9041 -1.3516
 7278SOL    HW233294   3.763   4.617   3.013  0.8664 -1.3511  0.1768
 7279SOL     OW33295   3.828   2.632  15.475  0.9442  0.3085 -0.0682
 7279SOL    HW133296   3.783   2.585  15.546  1.5260  0.3982  0.3588
 7279SOL    HW233297   3.776   2.712  15.478 -1.5780 -1.3936  1.8097
 7280SOL     OW33298   1.081   3.536   4.072 -0.4458 -0.1975 -0.0614
 7280SOL    HW133299   1.111   3.447   4.091 -2.3322 -0.4822  1.6477
 7280SOL    HW233300   1.114   3.570   4.155 -1.7379 -1.9103  1.1557
 7281SOL     OW33301   3.605   3.145   6.684 -0.2307 -0.4374  0.0946
 7281SOL    HW133302   3.674   3.103   6.633  2.2352  0.5616  2.5723
 7281SOL    HW233303   3.528   3.122   6.631  0.5801 -0.3877 -1.0982
 7282SOL     OW33304   1.497   4.154   8.027 -0.5269  0.0701 -0.4050
 7282SOL    HW133305   1.532   4.067   8.047 -1.3495  0.0752  1.1083
 7282SOL    HW233306   1.573   4.211   8.015 -1.6002  1.9626  1.7445
 7283SOL     OW33307   0.763   3.680   3.473 -0.0504 -0.6651 -0.0732
 7283SOL    HW133308   0.674   3.659   3.446 -0.0293 -1.1721  0.2677
 7283SOL    HW233309   0.798   3.601   3.514  1.7352  0.6868  1.0208
 7284SOL     OW33310   1.441   0.195   6.391 -0.5225 -0.1204  0.4737
 7284SOL    HW133311   1.490   0.158   6.317 -1.3946 -1.0492  0.3702
 7284SOL    HW233312   1.411   0.278   6.353 -0.4234 -1.0134 -1.5475
 7285SOL     OW33313   2.752   2.819   5.292  0.0161  0.1663  0.3516
 7285SOL    HW133314   2.782   2.737   5.253  2.2137  0.3852  1.5665
 7285SOL    HW233315   2.834   2.868   5.285  1.5099 -2.4084 -0.2203
 7286SOL     OW33316   0.761   1.970   3.946 -0.1553 -0.1834 -0.2483
 7286SOL    HW133317   0.811   1.897   3.910 -0.5215 -0.7191  0.3219
 7286SOL    HW233318   0.696   1.937   4.008  0.3179  1.8798  1.3474
 7287SOL     OW33319   0.516   4.316   6.370  0.1170 -0.4352  0.0006
 7287SOL    HW133320   0.551   4.350   6.452  0.3748 -1.0466  0.1489
 7287SOL    HW233321   0.491   4.400   6.333 -1.1041  0.1011  2.0190
 7288SOL     OW33322   1.028   0.052   6.414  0.5217 -0.0733 -0.7277
 7288SOL    HW133323   0.991   0.019   6.332 -0.1571  0.5409 -0.6720
 7288SOL    HW233324   1.078   0.123   6.373  0.5354 -0.2950 -1.0874
 7289SOL     OW33325   4.574   4.606   8.636  0.3901 -0.3216  0.0038
 7289SOL    HW133326   4.616   4.573   8.715  0.1376  0.7546  0.5765
 7289SOL    HW233327   4.506   4.540   8.621 -1.0248  0.9357  0.9160
 7290SOL     OW33328   2.050   3.588   1.160 -0.0646  0.1832  0.2519
 7290SOL    HW133329   2.086   3.595   1.248 -0.1866  1.6497  0.1765
 7290SOL    HW233330   2.078   3.499   1.137  0.2225  0.0512  1.0936
 7291SOL     OW33331   4.260   2.628  16.224 -0.3986 -0.0709 -0.5798
 7291SOL    HW133332   4.254   2.543  16.268 -0.1387  0.2166  0.0165
 7291SOL    HW233333   4.354   2.638  16.213 -0.0893  1.1864  3.4278
 7292SOL     OW33334   0.498   3.274  11.708  0.1502 -0.1826  0.4515
 7292SOL    HW133335   0.435   3.213  11.670 -0.0266  0.3441 -0.1002
 7292SOL    HW233336   0.541   3.307  11.630 -0.5199 -0.7637 -0.1578
 7293SOL     OW33337   1.003   0.609  12.033  0.0485  0.0756  0.0865
 7293SOL    HW133338   0.989   0.691  11.984 -1.7237 -0.1008  0.3245
 7293SOL    HW233339   1.062   0.643  12.101 -0.9629  0.0170  0.9869
 7294SOL     OW33340   2.684   0.791   3.926 -0.3302  0.3733 -0.0030
 7294SOL    HW133341   2.596   0.777   3.963 -1.8917  3.0358 -2.7114
 7294SOL    HW233342   2.735   0.816   4.002 -1.3377  1.3845  0.3381
 7295SOL     OW33343   2.996   3.962   4.568 -0.3045 -0.3391  0.2954
 7295SOL    HW133344   2.911   4.007   4.570 -0.1596 -0.1241  2.0630
 7295SOL    HW233345   2.960   3.874   4.572 -0.1974 -0.4217 -0.7764
 7296SOL     OW33346   1.306   2.792   5.559 -0.2817 -0.2275  0.0254
 7296SOL    HW133347   1.300   2.885   5.579 -2.5080 -0.5611  0.8342
 7296SOL    HW233348   1.392   2.783   5.518  0.3108 -1.5641  1.5501
 7297SOL     OW33349   3.299   1.068   8.737  0.6728 -0.1273 -0.0956
 7297SOL    HW133350   3.348   1.093   8.658  0.0063  1.8456  0.1192
 7297SOL    HW233351   3.261   0.987   8.702 -0.1027 -0.4492  1.5213
 7298SOL     OW33352   4.108   1.775   2.091 -0.7833 -0.0490 -0.1754
 7298SOL    HW133353   4.046   1.710   2.123  0.8757 -1.5728 -0.0874
 7298SOL    HW233354   4.160   1.793   2.170  1.8749  1.7235 -2.3149
 7299SOL     OW33355   4.311   3.229   5.214  0.4093  0.6959  0.4259
 7299SOL    HW133356   4.322   3.254   5.122  0.0402  1.5254  0.6065
 7299SOL    HW233357   4.252   3.295   5.250 -0.8601  0.8097 -1.8902
 7300SOL     OW33358   0.598   3.351  12.756  0.1396 -0.3659  0.1472
 7300SOL    HW133359   0.564   3.302  12.682 -0.5880 -2.3171  1.7798
 7300SOL    HW233360   0.521   3.391  12.797 -1.0390 -1.8839 -0.5964
 7301SOL     OW33361   0.558   1.918   4.132  0.4795  0.0628 -0.3359
 7301SOL    HW133362   0.474   1.900   4.088 -0.1942  0.8239  0.6424
 7301SOL    HW233363   0.542   1.989   4.194  5.8036  1.0482 -0.0951
 7302SOL     OW33364   1.193   3.157   7.987 -0.4223 -0.0931  0.0163
 7302SOL    HW133365   1.238   3.077   7.960  0.4039  1.2998 -2.7164
 7302SOL    HW233366   1.110   3.114   8.007 -0.0925 -0.5111  0.4879
 7303SOL     OW33367   3.463   3.470  11.547  0.3698 -0.1415  0.0621
 7303SOL    HW133368   3.410   3.432  11.476 -1.0821  1.2277  0.4130
 7303SOL    HW233369   3.424   3.556  11.555 -3.1761 -1.4730 -2.7469
 7304SOL     OW33370   0.096   3.723  12.619 -0.3138  0.1759 -0.3914
 7304SOL    HW133371   0.050   3.639  12.625 -2.0904  1.2553  1.2123
 7304SOL    HW233372   0.082   3.748  12.528  0.7565  0.7619 -0.3898
 7305SOL     OW33373   3.533   2.928   4.334  0.1282 -0.6927  0.1367
 7305SOL    HW133374   3.450   2.889   4.362 -1.2465  1.3138 -1.1710
 7305SOL    HW233375   3.541   3.001   4.395  0.0424 -1.2230  0.7833
 7306SOL     OW33376   0.128   4.060  11.353  0.0488 -0.0673  0.1074
 7306SOL    HW133377   0.147   4.076  11.445 -0.7954 -1.3257  0.5031
 7306SOL    HW233378   0.185   3.983  11.343  1.5542  1.0051  0.4442
 7307SOL     OW33379   4.693   1.424   3.155  0.1849  0.2222  0.3106
 7307SOL    HW133380   0.021   1.389   3.228 -1.0262 -0.3946  0.8734
 7307SOL    HW233381   0.002   1.373   3.081 -0.1632  1.5779 -0.7766
 7308SOL     OW33382   2.473   2.745   5.916  0.4130 -0.8639  0.4768
 7308SOL    HW133383   2.488   2.724   5.824  0.2469 -2.3102  0.7824
 7308SOL    HW233384   2.478   2.840   5.923  3.1407 -0.8384 -1.7467
 7309SOL     OW33385   0.307   3.569   4.592 -0.1323  0.2376  0.4724
 7309SOL    HW133386   0.295   3.500   4.527  0.0695  0.2634  0.4069
 7309SOL    HW233387   0.260   3.536   4.669  0.3356  0.4548  0.8483
 7310SOL     OW33388   2.206   1.765   0.414 -0.2666  0.6503  0.0428
 7310SOL    HW133389   2.150   1.782   0.490  0.6959  0.9741  0.6722
 7310SOL    HW233390   2.279   1.715   0.451  0.0049  0.8649 -0.2046
 7311SOL     OW33391   1.406   3.661  16.520 -0.0617  0.4629 -0.1761
 7311SOL    HW133392   1.426   3.654  16.614 -0.5305  1.4982  0.0016
 7311SOL    HW233393   1.318   3.698  16.526  0.5657  1.8975  0.3196
 7312SOL     OW33394   4.364   3.485   3.829  0.0621  0.2211  0.6499
 7312SOL    HW133395   4.408   3.558   3.872  0.5750  0.3026 -0.0026
 7312SOL    HW233396   4.349   3.424   3.901 -1.6525 -0.8469 -0.5983
 7313SOL     OW33397   4.633   2.127  14.051  0.0198  0.2397 -0.2086
 7313SOL    HW133398   4.642   2.053  14.112 -0.8467 -1.0670 -1.6440
 7313SOL    HW233399   4.604   2.197  14.110 -0.1132  0.4390 -0.5150
 7314SOL     OW33400   4.009   4.117  11.561  0.9266  0.3717  0.6471
 7314SOL    HW133401   4.060   4.037  11.566 -3.7406 -2.8029 -3.0878
 7314SOL    HW233402   4.082   4.179  11.568  0.2105  1.4593 -1.4181
 7315SOL     OW33403   1.818   4.191   4.249 -0.3310  0.0623 -0.1856
 7315SOL    HW133404   1.750   4.176   4.184  0.3310  1.0651 -1.1071
 7315SOL    HW233405   1.860   4.106   4.243 -0.1066  0.1632 -0.0291
 7316SOL     OW33406   1.260   1.503   6.897 -0.1937 -0.0670 -0.0256
 7316SOL    HW133407   1.175   1.485   6.936 -0.0219  2.1170  1.3646
 7316SOL    HW233408   1.244   1.574   6.835 -0.6546 -1.4261 -1.4272
 7317SOL     OW33409   2.159   4.465   6.338  0.2046 -0.4469 -0.4261
 7317SOL    HW133410   2.203   4.546   6.365 -0.3797 -0.3669  0.3147
 7317SOL    HW233411   2.073   4.498   6.363 -0.4745 -1.5244 -1.3450
 7318SOL     OW33412   3.305   1.381   1.599 -0.0907 -0.1448 -0.1310
 7318SOL    HW133413   3.252   1.417   1.670  2.8519  0.4244  1.7815
 7318SOL    HW233414   3.388   1.419   1.630 -0.2197 -0.0754  0.1289
 7319SOL     OW33415   2.986   0.969   7.773  0.0705  0.2518  0.0918
 7319SOL    HW133416   2.942   1.045   7.735  0.8629 -0.4506 -2.2178
 7319SOL    HW233417   2.918   0.917   7.816  0.2405  1.8742  2.3042
 7320SOL     OW33418   4.004   3.700   8.185 -0.5525 -0.3157  0.5113
 7320SOL    HW133419   4.085   3.671   8.142 -1.8261 -3.1590  0.0490
 7320SOL    HW233420   4.029   3.654   8.265  3.6084 -0.9690 -1.1124
 7321SOL     OW33421   0.705   0.947   5.129  0.3170 -0.5309 -0.4191
 7321SOL    HW133422   0.766   0.878   5.103  1.0576 -0.2973  0.7124
 7321SOL    HW233423   0.743   1.015   5.074 -0.0253  0.9691  1.1818
 7322SOL     OW33424   2.232   4.441   4.165 -0.2283  0.3949 -0.3060
 7322SOL    HW133425   2.311   4.424   4.114 -1.3863 -0.7916 -1.7159
 7322SOL    HW233426   2.247   4.400   4.250  1.3243  3.5353  0.9183
 7323SOL     OW33427   4.005   1.517   6.894 -0.4739  0.0253  0.2984
 7323SOL    HW133428   4.089   1.472   6.886 -0.2653  0.8135 -1.9148
 7323SOL    HW233429   3.964   1.455   6.954 -1.9097  1.0951  0.4322
 7324SOL     OW33430   2.200   4.144  14.640  0.3233 -0.2027  0.6052
 7324SOL    HW133431   2.105   4.156  14.640  0.6955  2.8426  0.1394
 7324SOL    HW233432   2.224   4.225  14.685 -0.1804  0.8587 -1.0577
 7325SOL     OW33433   3.025   1.055  15.218 -0.1772  0.4307  0.3603
 7325SOL    HW133434   2.936   1.088  15.217  0.0275  1.0387  3.1065
 7325SOL    HW233435   3.044   1.062  15.312  0.4054  2.5740  0.0774
 7326SOL     OW33436   2.774   1.548  10.205 -0.2246  0.9200  0.3593
 7326SOL    HW133437   2.750   1.457  10.219 -0.3547  1.0350  0.8850
 7326SOL    HW233438   2.861   1.537  10.166 -1.6670  1.1070 -2.9372
 7327SOL     OW33439   4.438   2.396   4.113  0.0212  0.1159  0.5196
 7327SOL    HW133440   4.512   2.336   4.110 -1.1378 -1.1100 -2.7738
 7327SOL    HW233441   4.376   2.363   4.048  0.9349  0.5246 -0.5492
 7328SOL     OW33442   2.648   2.286   4.066 -0.2469  0.1023 -0.3929
 7328SOL    HW133443   2.622   2.237   4.144 -0.1279 -0.6866 -0.8515
 7328SOL    HW233444   2.562   2.322   4.043 -0.0305  0.9978  0.2045
 7329SOL     OW33445   3.324   3.659   5.430 -1.0623 -0.4740  0.5000
 7329SOL    HW133446   3.398   3.719   5.445  0.5083 -1.3991 -3.7374
 7329SOL    HW233447   3.364   3.576   5.407  0.5770  1.1651 -2.5614
 7330SOL     OW33448   2.887   2.524   8.698  0.2789 -0.1889 -0.1607
 7330SOL    HW133449   2.936   2.548   8.777  0.9626 -2.3529  0.0528
 7330SOL    HW233450   2.814   2.478   8.738  0.0085  0.4331  0.0666
 7331SOL     OW33451   2.487   1.651   2.299  0.1820 -0.0535 -0.2031
 7331SOL    HW133452   2.424   1.586   2.267  0.6299  0.2271 -1.6226
 7331SOL    HW233453   2.477   1.637   2.393  2.0357  1.2422  0.1807
 7332SOL     OW33454   2.739   2.993  12.311  0.3339  0.4234 -0.2675
 7332SOL    HW133455   2.817   3.024  12.357  0.7694 -2.3894  0.8972
 7332SOL    HW233456   2.715   2.909  12.350  0.8046  0.3336 -0.1688
 7333SOL     OW33457   4.064   4.619   8.455 -0.0768 -0.8390  0.1419
 7333SOL    HW133458   4.134   4.560   8.482  0.1773 -0.0865  1.1489
 7333SOL    HW233459   4.008   4.628   8.533  0.1547  2.0142 -0.0087
 7334SOL     OW33460   2.776   4.632   1.175  0.4826  0.1164  0.0913
 7334SOL    HW133461   2.790   4.538   1.161  0.5068 -0.0545  1.1951
 7334SOL    HW233462   2.861   4.646   1.217 -0.3445  0.1430  1.7698
 7335SOL     OW33463   0.207   1.805   8.062 -0.0569 -0.3890 -0.3422
 7335SOL    HW133464   0.271   1.840   8.000 -1.3462  2.0604 -0.2959
 7335SOL    HW233465   0.153   1.749   8.005 -0.7447  0.0018 -0.0813
 7336SOL     OW33466   4.178   2.204   7.868  0.0972 -0.2578  0.1364
 7336SOL    HW133467   4.203   2.259   7.794  0.6563 -1.7254 -0.7579
 7336SOL    HW233468   4.215   2.256   7.940  0.8296  1.5220 -1.5239
 7337SOL     OW33469   2.818   4.586   5.034 -0.6540 -0.2067  0.5368
 7337SOL    HW133470   2.891   4.601   4.975 -1.8106 -0.9385 -1.0866
 7337SOL    HW233471   2.766   4.663   5.012 -1.8117  0.0512  4.2213
 7338SOL     OW33472   3.286   3.559   5.994  0.1873 -0.7682  0.0565
 7338SOL    HW133473   3.256   3.577   5.905 -0.4253  0.6897  0.5711
 7338SOL    HW233474   3.381   3.574   5.990  0.1957 -0.4244  1.5912
 7339SOL     OW33475   1.810   0.205   1.392  0.1651 -0.2841  0.3386
 7339SOL    HW133476   1.810   0.170   1.303 -1.5832 -2.6988  1.3030
 7339SOL    HW233477   1.788   0.129   1.446 -2.2701 -0.2939 -0.6654
 7340SOL     OW33478   4.086   0.173   1.012  0.2017  0.6997  0.0425
 7340SOL    HW133479   4.060   0.228   1.086  1.4032  0.5414  0.5830
 7340SOL    HW233480   4.024   0.103   1.034  0.8754  0.0129 -0.2444
 7341SOL     OW33481   3.725   2.608  16.082 -0.1812 -0.8925  0.1104
 7341SOL    HW133482   3.639   2.651  16.079  1.2147  1.7696 -1.5790
 7341SOL    HW233483   3.704   2.515  16.088 -1.6522 -0.6959 -1.8823
 7342SOL     OW33484   2.175   0.861   0.578  0.5367 -0.5615  0.5303
 7342SOL    HW133485   2.158   0.806   0.654 -1.0628  2.0162  2.0371
 7342SOL    HW233486   2.152   0.797   0.510  0.1336  0.5342 -0.3592
 7343SOL     OW33487   0.579   4.496   4.544 -0.3353  0.3500  0.4489
 7343SOL    HW133488   0.541   4.476   4.458  2.4085 -1.2224 -0.4380
 7343SOL    HW233489   0.603   4.589   4.541  2.4901 -0.3732  0.7809
 7344SOL     OW33490   0.583   0.304   6.360  0.6572 -0.1109 -0.0249
 7344SOL    HW133491   0.579   0.374   6.424 -0.6395  0.0394 -0.2657
 7344SOL    HW233492   0.671   0.270   6.376  0.3078 -0.6635  0.7170
 7345SOL     OW33493   0.329   0.496   6.733 -0.2008  0.4527 -0.0057
 7345SOL    HW133494   0.332   0.499   6.637 -0.0573 -3.6086 -0.1304
 7345SOL    HW233495   0.356   0.408   6.758 -1.6262  0.4894  1.6327
 7346SOL     OW33496   0.804   3.389   5.811  0.4978 -0.4763 -0.4300
 7346SOL    HW133497   0.786   3.356   5.723  0.2669 -2.9246  0.5131
 7346SOL    HW233498   0.722   3.358   5.850  0.7808  1.4615  1.6680
 7347SOL     OW33499   0.769   3.372   9.944  0.1062 -0.7679  0.5393
 7347SOL    HW133500   0.767   3.442   9.879  1.0483 -1.6455 -0.4459
 7347SOL    HW233501   0.675   3.359   9.950  0.0072 -1.3346 -2.2700
 7348SOL     OW33502   2.361   0.086   2.523  0.4033  0.4813 -0.6048
 7348SOL    HW133503   2.277   0.080   2.477 -0.0978 -1.7937  0.5803
 7348SOL    HW233504   2.353   0.017   2.589 -0.5473  2.2920  1.1640
 7349SOL     OW33505   2.800   0.008   6.405 -0.3066  0.3973 -0.0416
 7349SOL    HW133506   2.822   4.648   6.447  0.6886 -0.7896 -2.9037
 7349SOL    HW233507   2.816   4.707   6.314 -2.3757  0.6792 -0.4755
 7350SOL     OW33508   2.478   1.600   3.207 -0.4658 -0.0909  0.7276
 7350SOL    HW133509   2.396   1.550   3.207 -0.2653 -0.4126 -1.8460
 7350SOL    HW233510   2.457   1.674   3.263  1.9232  2.8785 -2.3530
 7351SOL     OW33511   1.835   1.183   7.084  0.0427  0.1282 -0.5940
 7351SOL    HW133512   1.812   1.272   7.056 -0.0539 -0.1267 -1.3071
 7351SOL    HW233513   1.763   1.160   7.142  2.3286 -0.8556  1.8603
 7352SOL     OW33514   3.641   3.582   6.583 -0.3725  0.0652 -0.5979
 7352SOL    HW133515   3.643   3.512   6.649 -0.6464  0.1217 -0.5312
 7352SOL    HW233516   3.604   3.539   6.506 -2.1426  1.1325 -0.3509
 7353SOL     OW33517   4.453   2.781   7.149 -0.4640  1.1456  0.1678
 7353SOL    HW133518   4.476   2.748   7.236 -1.5362  1.3134  0.5145
 7353SOL    HW233519   4.539   2.766   7.110 -0.4466 -1.7256  1.3467
 7354SOL     OW33520   3.305   2.940   1.817 -0.3341  0.4918 -0.4878
 7354SOL    HW133521   3.288   2.890   1.737  0.9388  4.8647 -3.4211
 7354SOL    HW233522   3.243   2.899   1.878 -0.4613 -0.9955 -1.6190
 7355SOL     OW33523   2.709   2.909   9.054 -0.4053 -0.0341  0.0521
 7355SOL    HW133524   2.614   2.902   9.059 -0.6492  3.9231  1.3336
 7355SOL    HW233525   2.724   2.983   9.113 -0.6925 -0.8342  1.1239
 7356SOL     OW33526   1.396   3.602   7.526  0.2709  0.2284 -0.2437
 7356SOL    HW133527   1.306   3.620   7.553  1.0077  0.9268  1.8025
 7356SOL    HW233528   1.401   3.595   7.431 -1.2527  0.9155 -0.3648
 7357SOL     OW33529   1.527   4.354   5.500  0.4593  0.4944 -0.1450
 7357SOL    HW133530   1.566   4.437   5.474  0.1464  0.8908  0.6682
 7357SOL    HW233531   1.606   4.304   5.479  0.7204  0.8470  0.0131
 7358SOL     OW33532   4.370   3.461   6.292  0.6996  0.1000  0.0815
 7358SOL    HW133533   4.387   3.413   6.373 -1.6433 -1.2323 -0.2372
 7358SOL    HW233534   4.306   3.523   6.326 -0.6494 -1.2895  0.0380
 7359SOL     OW33535   0.081   2.263  13.062  0.4523 -0.2449 -0.5657
 7359SOL    HW133536   0.154   2.312  13.101 -1.6086  0.5344  2.2934
 7359SOL    HW233537   0.136   2.192  13.027  0.9240  1.3197 -2.9939
 7360SOL     OW33538   3.317   1.659   4.820 -0.6658 -0.0460  0.9161
 7360SOL    HW133539   3.272   1.742   4.803 -2.0837 -1.0091 -0.0497
 7360SOL    HW233540   3.276   1.639   4.904 -2.1879 -1.6102 -0.2201
 7361SOL     OW33541   1.438   0.327   2.944 -0.2628  0.2167 -0.6628
 7361SOL    HW133542   1.374   0.387   2.906 -0.2341  0.9353  0.4310
 7361SOL    HW233543   1.475   0.293   2.863 -0.0109  0.3813 -0.6165
 7362SOL     OW33544   1.960   0.965   6.575 -0.4009 -0.8607  0.4293
 7362SOL    HW133545   1.922   1.016   6.647  0.1854  0.7427 -0.4031
 7362SOL    HW233546   1.956   0.878   6.614 -0.0574 -0.9473  0.2686
 7363SOL     OW33547   2.809   1.547  11.674 -0.4373 -0.3007 -0.2909
 7363SOL    HW133548   2.864   1.487  11.725 -1.6666 -1.1068  0.0934
 7363SOL    HW233549   2.757   1.489  11.618  0.0935 -0.7756 -0.2974
 7364SOL     OW33550   2.829   1.547   1.411 -0.2729 -0.1626  0.0112
 7364SOL    HW133551   2.847   1.460   1.446 -0.7507 -0.2126  0.1348
 7364SOL    HW233552   2.862   1.534   1.322  1.2641 -1.6978  0.8083
 7365SOL     OW33553   1.069   3.246   5.608  0.0321 -0.0629 -0.2827
 7365SOL    HW133554   1.007   3.314   5.582  1.5957  0.9280 -1.4122
 7365SOL    HW233555   1.021   3.166   5.588 -0.4601 -0.3449  1.9779
 7366SOL     OW33556   2.621   0.987   7.024 -0.2267 -0.0088 -0.6696
 7366SOL    HW133557   2.572   0.917   7.068 -1.0955 -0.2538 -2.0302
 7366SOL    HW233558   2.712   0.958   7.024  0.3913  1.9275  1.8584
 7367SOL     OW33559   1.621   3.694  12.935  0.1135 -0.2065 -0.2371
 7367SOL    HW133560   1.683   3.651  12.994  0.2348  1.2121  0.6654
 7367SOL    HW233561   1.555   3.625  12.931  1.9003 -2.1125  2.6763
 7368SOL     OW33562   0.873   2.774  17.248  0.2691 -0.1660  0.1090
 7368SOL    HW133563   0.875   2.707  17.317 -2.6831 -1.6632 -1.2549
 7368SOL    HW233564   0.781   2.769  17.221  0.5060 -0.8000 -0.5933
 7369SOL     OW33565   1.246   1.155   4.980 -0.6420 -0.1297  0.1050
 7369SOL    HW133566   1.328   1.105   4.973 -0.0242  1.1641 -1.8428
 7369SOL    HW233567   1.235   1.168   5.074  1.3482  0.9539  0.1980
 7370SOL     OW33568   4.170   2.504   6.178  0.0452 -0.1575 -0.1476
 7370SOL    HW133569   4.220   2.561   6.118  0.6553 -0.9885 -0.4269
 7370SOL    HW233570   4.162   2.424   6.127 -1.0257  1.3880 -2.4292
 7371SOL     OW33571   3.969   2.417  12.799 -0.2141  0.1054 -0.4439
 7371SOL    HW133572   4.058   2.386  12.813 -0.1265  1.0383  1.0353
 7371SOL    HW233573   3.971   2.427  12.704 -0.0436 -0.5912 -0.5150
 7372SOL     OW33574   3.974   4.178  15.453 -0.0617 -0.0684  0.3300
 7372SOL    HW133575   3.899   4.212  15.502  0.8696  0.3258  1.4724
 7372SOL    HW233576   3.945   4.210  15.367  0.5832  1.6327  0.7472
 7373SOL     OW33577   0.023   1.048   4.761  0.1783 -0.7170  0.1840
 7373SOL    HW133578   4.669   0.991   4.755 -0.6377  0.6270 -2.2739
 7373SOL    HW233579   0.049   1.042   4.853 -2.0018 -1.2801  0.7602
 7374SOL     OW33580   3.614   3.922  15.912  0.4225 -0.0054  0.5578
 7374SOL    HW133581   3.604   3.833  15.946 -0.9163 -0.1412 -0.1635
 7374SOL    HW233582   3.707   3.940  15.901 -0.2177  1.2924 -2.9135
 7375SOL     OW33583   3.427   4.514   4.382 -0.7349  0.4523  0.5881
 7375SOL    HW133584   3.338   4.534   4.413 -1.3580  0.1814 -1.0324
 7375SOL    HW233585   3.412   4.524   4.288  1.4156 -0.4723  0.1578
 7376SOL     OW33586   3.117   0.577   7.192  0.3492 -0.0900  0.0282
 7376SOL    HW133587   3.187   0.545   7.134  2.0396  3.7398 -0.0901
 7376SOL    HW233588   3.048   0.544   7.135 -2.0590  1.7810  1.8768
 7377SOL     OW33589   1.339   0.662   5.997 -0.4781  0.0952  0.1630
 7377SOL    HW133590   1.303   0.681   6.084 -1.3839  0.3177 -0.2622
 7377SOL    HW233591   1.391   0.740   5.979  0.2665 -0.4575 -0.0763
 7378SOL     OW33592   4.129   1.630   4.129 -0.0795 -0.5977  0.2418
 7378SOL    HW133593   4.149   1.617   4.222 -0.5297  0.2032  0.4531
 7378SOL    HW233594   4.201   1.581   4.089 -1.4397 -1.7694 -0.7639
 7379SOL     OW33595   0.598   0.751   6.604  0.0665 -0.0275  0.0753
 7379SOL    HW133596   0.655   0.684   6.641  1.5104  0.6741 -0.8931
 7379SOL    HW233597   0.595   0.723   6.513 -1.2704  0.6579 -0.0936
 7380SOL     OW33598   4.336   1.343   1.910 -0.1232 -0.4808  0.1610
 7380SOL    HW133599   4.354   1.405   1.839  0.2782 -2.7035 -1.7059
 7380SOL    HW233600   4.350   1.263   1.859 -1.1530  0.5550 -1.7132
 7381SOL     OW33601   4.161   0.841   1.159 -0.5583 -0.4284 -0.4073
 7381SOL    HW133602   4.143   0.813   1.248  1.0342 -0.3086 -0.0458
 7381SOL    HW233603   4.073   0.838   1.122 -1.2448  0.0221  1.2214
 7382SOL     OW33604   3.410   3.851   3.303  0.0888 -0.2425 -0.8657
 7382SOL    HW133605   3.433   3.760   3.324 -0.5871 -0.5818 -1.5940
 7382SOL    HW233606   3.448   3.905   3.372 -0.9271 -0.2977 -0.2600
 7383SOL     OW33607   2.550   2.023   8.701 -0.0762  0.0076 -0.1941
 7383SOL    HW133608   2.519   1.966   8.631  0.4297  0.7241 -0.9912
 7383SOL    HW233609   2.623   2.072   8.661  3.6022 -2.5588  3.3645
 7384SOL     OW33610   0.747   3.756   3.075  0.1138  0.7690  0.7922
 7384SOL    HW133611   0.670   3.778   3.023  1.1522  3.1572  0.2962
 7384SOL    HW233612   0.702   3.733   3.156 -1.8274  1.7836 -0.0054
 7385SOL     OW33613   2.740   3.872   3.990  0.0438  0.3500  0.7196
 7385SOL    HW133614   2.700   3.787   4.010  0.7055 -0.5281 -1.5866
 7385SOL    HW233615   2.822   3.853   4.036  0.2560  1.7504  0.8956
 7386SOL     OW33616   0.307   3.828   7.614 -0.8364  0.2466 -0.3386
 7386SOL    HW133617   0.347   3.820   7.701 -0.0620  0.7219 -0.6485
 7386SOL    HW233618   0.225   3.785   7.638 -0.6642  0.7735  1.2189
 7387SOL     OW33619   1.374   1.533   2.556  0.0637  0.0924 -0.1925
 7387SOL    HW133620   1.427   1.606   2.525 -1.3016  1.0433 -0.3094
 7387SOL    HW233621   1.417   1.462   2.508 -1.4008  0.5201 -2.1550
 7388SOL     OW33622   1.495   4.065   4.387 -0.5483  0.6898  0.3814
 7388SOL    HW133623   1.574   4.067   4.441 -1.0634 -0.1572  1.1689
 7388SOL    HW233624   1.470   3.973   4.380 -0.7252  0.7814 -0.2018
 7389SOL     OW33625   1.507   0.032  10.519 -0.6949  0.2608 -0.7497
 7389SOL    HW133626   1.452   0.058  10.593  0.3379 -1.0310  0.4973
 7389SOL    HW233627   1.440   0.061  10.458 -2.0460  0.0491  0.6321
 7390SOL     OW33628   0.185   4.655   8.684  0.1043  0.3698 -0.3678
 7390SOL    HW133629   0.150   4.577   8.641  1.3359 -0.7825  0.6972
 7390SOL    HW233630   0.118   4.657   8.753  0.9083 -1.8668  0.4815
 7391SOL     OW33631   3.022   1.750  17.185 -0.0409 -0.0784 -0.0091
 7391SOL    HW133632   3.029   1.752  17.280 -0.4640 -1.1578  0.0558
 7391SOL    HW233633   3.079   1.675  17.166  1.6415  1.8427 -2.4589
 7392SOL     OW33634   0.781   2.533   2.372 -0.0859  0.3878  0.4865
 7392SOL    HW133635   0.828   2.611   2.343  0.2365 -0.0901 -0.2545
 7392SOL    HW233636   0.694   2.572   2.384 -0.7622 -1.3782  1.3455
 7393SOL     OW33637   3.686   1.526  15.995 -0.2564  0.4212 -0.1141
 7393SOL    HW133638   3.662   1.544  15.904  1.8157  1.2313 -0.4984
 7393SOL    HW233639   3.720   1.609  16.029  1.1667  0.9380 -2.7615
 7394SOL     OW33640   3.074   3.369   1.028  0.3046  0.8550 -0.6139
 7394SOL    HW133641   3.126   3.370   0.947  1.0418 -0.7413 -0.1585
 7394SOL    HW233642   3.137   3.397   1.094  0.4910 -0.1866 -0.3484
 7395SOL     OW33643   4.279   2.980   7.091 -0.0650 -0.0951 -0.2483
 7395SOL    HW133644   4.353   3.019   7.139 -0.0594  1.6006 -1.6506
 7395SOL    HW233645   4.303   2.888   7.099 -0.7642  0.0251  3.3988
 7396SOL     OW33646   3.150   1.056   2.889 -0.9146  0.0130 -0.5699
 7396SOL    HW133647   3.238   1.090   2.870 -1.3869  2.2427  1.3320
 7396SOL    HW233648   3.156   0.978   2.833 -2.1100  0.6804 -1.6169
 7397SOL     OW33649   4.255   0.183   4.373  0.1415 -0.1289 -0.4088
 7397SOL    HW133650   4.167   0.208   4.348  1.1833  2.8810 -1.0160
 7397SOL    HW233651   4.265   0.239   4.449  0.8747  0.5360 -0.9965
 7398SOL     OW33652   0.238   2.302  16.769  0.1257 -0.3354 -0.0820
 7398SOL    HW133653   0.143   2.288  16.777 -0.0005  1.0823  0.9258
 7398SOL    HW233654   0.267   2.281  16.857 -0.4740 -0.0459  0.1884
 7399SOL     OW33655   3.998   1.347   9.160  0.9488 -0.2058 -0.8415
 7399SOL    HW133656   4.081   1.383   9.127  0.4699  0.2452 -1.5485
 7399SOL    HW233657   4.022   1.255   9.167  1.3992  0.0044  0.4008
 7400SOL     OW33658   2.473   1.544   8.557 -0.7138  0.0449 -0.1609
 7400SOL    HW133659   2.495   1.453   8.576  0.9293  0.0532 -2.0649
 7400SOL    HW233660   2.535   1.599   8.604 -0.2956  0.4491 -1.1879
 7401SOL     OW33661   0.570   3.749  12.095 -0.8870  0.2216  0.4051
 7401SOL    HW133662   0.585   3.665  12.051 -1.1514  0.2277  0.3037
 7401SOL    HW233663   0.515   3.723  12.169 -0.1801 -1.2118  0.4427
 7402SOL     OW33664   0.398   3.534  11.244  0.1551 -0.5248  0.0779
 7402SOL    HW133665   0.317   3.568  11.206  0.6745  1.9301  1.2075
 7402SOL    HW233666   0.382   3.523  11.338  0.0992  3.5176  0.5192
 7403SOL     OW33667   0.144   2.756   7.202 -0.0129  0.0536  0.2134
 7403SOL    HW133668   0.204   2.696   7.247 -0.0419  1.5107  2.1928
 7403SOL    HW233669   0.103   2.802   7.275  0.0629 -0.0187  0.3011
 7404SOL     OW33670   1.347   3.877   4.036 -0.0607  0.4014  0.0691
 7404SOL    HW133671   1.308   3.943   4.093 -1.5779  0.0562 -0.5628
 7404SOL    HW233672   1.280   3.872   3.967 -1.0658  2.3607  0.8880
 7405SOL     OW33673   3.626   2.773   5.569  0.4879 -0.6386 -0.2283
 7405SOL    HW133674   3.706   2.754   5.520  0.8707  0.7959 -0.1462
 7405SOL    HW233675   3.659   2.849   5.616 -0.1319  0.7710 -2.0419
 7406SOL     OW33676   0.068   0.804  10.625  0.3134  0.1305 -0.3155
 7406SOL    HW133677   0.048   0.897  10.635 -0.2283 -0.1888  1.5356
 7406SOL    HW233678   0.142   0.792  10.686  1.5362  1.4601 -1.5466
 7407SOL     OW33679   0.540   2.801   7.781 -0.1153 -0.4091  0.4548
 7407SOL    HW133680   0.517   2.714   7.816  2.0357 -2.3773 -3.0491
 7407SOL    HW233681   0.461   2.852   7.798  0.2538  0.4946 -0.5955
 7408SOL     OW33682   0.815   1.844   3.427 -0.3228 -0.0199  0.1304
 7408SOL    HW133683   0.795   1.818   3.337  1.0421  0.5058 -0.3179
 7408SOL    HW233684   0.734   1.891   3.450 -1.7393 -2.1765 -0.4705
 7409SOL     OW33685   2.582   4.403   9.550  0.0610  0.0767 -0.1518
 7409SOL    HW133686   2.540   4.374   9.631 -0.4218 -0.1061 -0.4639
 7409SOL    HW233687   2.676   4.393   9.567 -0.1345 -0.5340  0.5767
 7410SOL     OW33688   0.484   0.151   6.043 -0.5498  0.0436  0.2069
 7410SOL    HW133689   0.418   0.093   6.082 -1.7787  1.1072 -0.2882
 7410SOL    HW233690   0.562   0.097   6.032 -0.5168  0.1127  0.1062
 7411SOL     OW33691   1.912   1.346   5.599 -0.4710  0.2075  0.0783
 7411SOL    HW133692   1.908   1.434   5.561  2.5024 -0.2748 -1.3537
 7411SOL    HW233693   1.835   1.299   5.566 -0.8902  0.7313  0.3058
 7412SOL     OW33694   4.290   0.459  16.224  0.5854  0.6270 -0.6423
 7412SOL    HW133695   4.313   0.385  16.167  0.8811 -1.2245  1.8739
 7412SOL    HW233696   4.196   0.459  16.212  0.5381  1.6955 -0.2805
 7413SOL     OW33697   3.284   3.213  12.555  0.1725 -1.2580  0.0284
 7413SOL    HW133698   3.308   3.251  12.470  1.8076 -1.9023  0.2125
 7413SOL    HW233699   3.336   3.133  12.550  3.4147  0.8053  1.1357
 7414SOL     OW33700   2.690   1.792   8.513  0.4700 -0.1763 -0.2199
 7414SOL    HW133701   2.666   1.725   8.450  0.2544 -1.4279  1.2015
 7414SOL    HW233702   2.703   1.866   8.453 -2.3352  2.2070  2.1009
 7415SOL     OW33703   0.448   3.893   8.078  0.0361  0.2062  0.0083
 7415SOL    HW133704   0.460   3.968   8.137 -1.1825 -0.6363  1.3175
 7415SOL    HW233705   0.539   3.894   8.047 -0.3363  1.0952 -1.0644
 7416SOL     OW33706   0.963   3.273   9.640  0.3486  0.4569  0.0180
 7416SOL    HW133707   1.026   3.325   9.689 -0.0889  0.6490  0.3803
 7416SOL    HW233708   0.975   3.185   9.677 -0.1425 -0.4694 -2.0114
 7417SOL     OW33709   0.385   0.935  17.135 -0.0115  0.1956  0.0931
 7417SOL    HW133710   0.372   0.851  17.091 -0.5062 -0.6099  1.7610
 7417SOL    HW233711   0.480   0.927  17.139  0.1708  0.6182 -3.3486
 7418SOL     OW33712   4.117   0.171   4.749  0.1848 -0.2665 -0.7418
 7418SOL    HW133713   4.121   0.094   4.693  0.9393 -1.8253  1.4592
 7418SOL    HW233714   4.172   0.234   4.702 -0.0337  1.2947  1.0490
 7419SOL     OW33715   1.494   0.817   1.802  0.1906  0.2648  0.1487
 7419SOL    HW133716   1.416   0.801   1.749 -0.0679  1.1770  0.2455
 7419SOL    HW233717   1.568   0.813   1.741  0.0665 -1.6256  0.1492
 7420SOL     OW33718   1.852   3.458   6.517  0.1029 -0.0604  0.0198
 7420SOL    HW133719   1.796   3.405   6.460 -1.8100 -0.9291  2.7293
 7420SOL    HW233720   1.805   3.447   6.600  2.4994 -0.4680  1.3181
 7421SOL     OW33721   2.842   2.759   5.954 -0.0686 -0.1816  0.0804
 7421SOL    HW133722   2.894   2.787   6.029  1.3817 -0.1979 -0.9324
 7421SOL    HW233723   2.802   2.835   5.912  1.3613 -0.2661 -1.4533
 7422SOL     OW33724   2.085   4.612   4.606 -0.0199  0.3990  0.8831
 7422SOL    HW133725   2.068   4.555   4.682 -1.3993  0.6878  0.7893
 7422SOL    HW233726   2.013   4.593   4.546 -2.1648  1.9798  2.9164
 7423SOL     OW33727   0.660   1.998   5.604 -0.1956  0.3320  0.1001
 7423SOL    HW133728   0.641   1.908   5.577  0.1048  0.8494 -1.8366
 7423SOL    HW233729   0.641   1.985   5.697  0.4137 -1.7348 -0.0687
 7424SOL     OW33730   3.298   4.481  12.773 -0.0273  0.9369  0.3228
 7424SOL    HW133731   3.382   4.520  12.799  0.0885  0.2480  0.9731
 7424SOL    HW233732   3.225   4.518  12.821  0.8947 -1.9539  3.9609
 7425SOL     OW33733   1.853   0.138   1.830  0.4025 -0.2260 -0.3335
 7425SOL    HW133734   1.897   0.221   1.848 -0.1438  0.4954 -2.3103
 7425SOL    HW233735   1.846   0.140   1.734  2.2959 -1.3995 -0.4907
 7426SOL     OW33736   2.540   3.594   4.315 -0.6590 -0.2727 -0.3879
 7426SOL    HW133737   2.502   3.649   4.383 -0.2978  1.8284 -1.8532
 7426SOL    HW233738   2.489   3.515   4.327  0.4890 -1.0134 -0.4159
 7427SOL     OW33739   2.270   4.693   9.358  0.4685  0.1711  0.1274
 7427SOL    HW133740   2.178   4.714   9.341  0.6625  0.2942 -0.8147
 7427SOL    HW233741   2.301   4.645   9.281  0.8358 -1.3840  1.2365
 7428SOL     OW33742   3.350   0.498   4.796 -0.0727  0.2436  0.3069
 7428SOL    HW133743   3.428   0.488   4.741  0.1199  1.0526  0.4255
 7428SOL    HW233744   3.371   0.567   4.859 -3.6855  2.2289 -0.6657
 7429SOL     OW33745   0.640   3.355   6.214  0.2205  0.4623  0.1028
 7429SOL    HW133746   0.552   3.386   6.197 -1.0808 -3.0541  0.4230
 7429SOL    HW233747   0.626   3.277   6.268 -1.7118  0.0171 -1.0555
 7430SOL     OW33748   3.784   0.325  15.998  0.1084  0.2491 -0.3400
 7430SOL    HW133749   3.797   0.416  15.972 -2.5437  0.6667 -0.2278
 7430SOL    HW233750   3.753   0.293  15.914  0.3989 -0.5921 -0.1286
 7431SOL     OW33751   0.116   1.004   7.893  0.1099  0.4026  0.1219
 7431SOL    HW133752   0.047   0.938   7.887  0.1545  0.2908  0.8308
 7431SOL    HW233753   0.157   0.998   7.806  0.9678  0.9226  0.4882
 7432SOL     OW33754   2.159   1.270   2.515  0.2917  0.3223  0.9912
 7432SOL    HW133755   2.128   1.309   2.433 -0.8738 -4.1968 -0.6856
 7432SOL    HW233756   2.092   1.216   2.557 -1.1643  2.5276  1.5681
 7433SOL     OW33757   2.659   4.066   5.539 -0.5898  0.1233 -0.4865
 7433SOL    HW133758   2.641   3.973   5.553  2.2955 -0.5516 -1.1630
 7433SOL    HW233759   2.613   4.095   5.617  2.3759 -0.1260  1.3550
 7434SOL     OW33760   1.152   3.382  12.530 -0.5082  0.1729 -0.2196
 7434SOL    HW133761   1.180   3.323  12.460 -0.8084 -0.4841  0.2144
 7434SOL    HW233762   1.134   3.456  12.473  0.0455  0.6512  0.2202
 7435SOL     OW33763   4.574   0.411   0.482  0.0127 -0.1763 -0.2455
 7435SOL    HW133764   4.490   0.389   0.442 -0.6784 -2.2931  2.3521
 7435SOL    HW233765   4.596   0.494   0.440 -1.1980 -0.3540 -1.2093
 7436SOL     OW33766   1.468   0.767  12.458 -0.4950  0.1478  0.4049
 7436SOL    HW133767   1.525   0.777  12.381  2.2089  0.8592  2.4927
 7436SOL    HW233768   1.414   0.692  12.436 -0.2781  0.4321 -1.1264
 7437SOL     OW33769   1.348   3.056   5.008  0.1602  0.2560 -0.0865
 7437SOL    HW133770   1.300   3.098   5.079 -1.5426  1.4202 -1.9271
 7437SOL    HW233771   1.418   3.115   4.980 -0.4437  1.0287  0.0235
 7438SOL     OW33772   0.863   1.075  14.704  0.6303 -0.1758 -0.1916
 7438SOL    HW133773   0.832   1.152  14.657 -1.1921 -1.0011 -0.3482
 7438SOL    HW233774   0.807   1.074  14.782 -2.0586 -2.6690 -2.1533
 7439SOL     OW33775   0.040   1.052   3.470 -0.4863 -0.5276  0.3669
 7439SOL    HW133776   4.719   1.133   3.496  0.6452  0.2699 -0.1929
 7439SOL    HW233777   4.715   1.030   3.390  0.7138  0.9076 -0.7283
 7440SOL     OW33778   1.759   0.993   3.137  0.0622  0.2783  0.1603
 7440SOL    HW133779   1.670   0.992   3.102 -0.7739 -0.1558  2.3008
 7440SOL    HW233780   1.810   0.999   3.056 -2.2607  2.9793 -1.1342
 7441SOL     OW33781   1.648   4.448  12.358  0.1093  0.0813 -0.7146
 7441SOL    HW133782   1.558   4.420  12.341 -0.8338  1.2063  2.4523
 7441SOL    HW233783   1.636   4.477  12.448  0.8798 -0.8358 -0.3202
 7442SOL     OW33784   1.395   1.296   6.597 -0.4166 -0.1361 -0.2720
 7442SOL    HW133785   1.456   1.335   6.534  0.6590 -0.5126  0.5456
 7442SOL    HW233786   1.318   1.349   6.577  0.2733  1.3297  0.9564
 7443SOL     OW33787   1.528   4.604   2.651 -0.2664 -1.2237 -0.6228
 7443SOL    HW133788   1.467   4.654   2.597 -0.1468 -0.4169  0.0005
 7443SOL    HW233789   1.568   4.679   2.695  0.0555 -0.5714 -2.0454
 7444SOL     OW33790   1.801   3.800   7.552  0.6990  0.4673  0.3340
 7444SOL    HW133791   1.744   3.876   7.543 -1.1680 -1.0268 -0.4966
 7444SOL    HW233792   1.887   3.835   7.532  1.4410 -1.7693 -0.4461
 7445SOL     OW33793   2.427   0.952   0.513  0.2535  0.4179 -0.3036
 7445SOL    HW133794   2.339   0.942   0.550  1.4484  0.6563  2.5898
 7445SOL    HW233795   2.435   0.876   0.455  4.0315  1.3088 -0.9215
 7446SOL     OW33796   1.034   4.126   2.026 -0.0854 -0.6125  0.6623
 7446SOL    HW133797   1.037   4.115   1.931 -2.6311 -1.2937  0.6688
 7446SOL    HW233798   0.944   4.099   2.046  0.1406 -1.1651  0.9384
 7447SOL     OW33799   3.066   3.737   5.499 -0.2271 -0.1792 -0.0677
 7447SOL    HW133800   3.055   3.827   5.469  1.4596  0.2243  0.5150
 7447SOL    HW233801   3.152   3.712   5.467  0.0335 -0.0241  0.5059
 7448SOL     OW33802   2.060   3.454  16.256  0.3073  0.3017  0.1252
 7448SOL    HW133803   2.042   3.456  16.163 -0.8361 -2.1877  0.2786
 7448SOL    HW233804   1.988   3.505  16.294 -0.8236 -0.8836 -0.4156
 7449SOL     OW33805   1.242   0.587   6.886 -0.7326 -0.0921  0.0918
 7449SOL    HW133806   1.312   0.627   6.834 -0.8180 -0.2893 -0.1749
 7449SOL    HW233807   1.175   0.655   6.894 -1.8632 -1.3941  1.6030
 7450SOL     OW33808   3.576   0.602  13.853 -0.0672 -0.4099 -0.3404
 7450SOL    HW133809   3.571   0.687  13.808 -0.1099  1.0464  2.4552
 7450SOL    HW233810   3.666   0.595  13.884  0.5500 -1.8570 -2.4415
 7451SOL     OW33811   2.575   4.520  16.563  0.1980 -0.2084  0.0340
 7451SOL    HW133812   2.564   4.528  16.468 -0.7029 -1.6146  0.0087
 7451SOL    HW233813   2.508   4.574  16.605  0.4992 -0.3878  0.7407
 7452SOL     OW33814   2.908   4.576   4.534 -0.0709 -0.3542 -0.0260
 7452SOL    HW133815   2.835   4.569   4.596 -0.4005 -2.3979 -0.6773
 7452SOL    HW233816   2.914   4.498   4.481  3.4596 -0.0334 -0.0606
 7453SOL     OW33817   0.260   2.866   9.314 -0.5661 -0.0950  0.0870
 7453SOL    HW133818   0.173   2.905   9.312  0.2965  1.7645 -0.8590
 7453SOL    HW233819   0.252   2.823   9.228 -1.5652  5.0363 -2.3888
 7454SOL     OW33820   3.944   0.764   4.007  0.1412  0.3938 -0.1144
 7454SOL    HW133821   4.006   0.807   3.947  0.0289 -0.8982 -1.1712
 7454SOL    HW233822   3.902   0.842   4.044 -0.9691 -1.3775  2.3369
 7455SOL     OW33823   0.777   3.084   7.621  0.2439 -0.6964 -0.1433
 7455SOL    HW133824   0.706   3.091   7.557  0.6337 -1.7256 -0.6796
 7455SOL    HW233825   0.849   3.129   7.576  1.9903 -1.9146  1.4454
 7456SOL     OW33826   0.833   3.578   9.774  0.3456 -0.2096 -0.0059
 7456SOL    HW133827   0.821   3.668   9.803  0.6824 -0.1153 -0.1633
 7456SOL    HW233828   0.822   3.588   9.679 -2.5193  3.0704  0.7030
 7457SOL     OW33829   2.616   0.351  16.165  0.0155 -0.0010  0.3576
 7457SOL    HW133830   2.646   0.350  16.075  1.9199 -2.5051  1.0267
 7457SOL    HW233831   2.685   0.302  16.209 -0.5255 -2.3471 -1.4592
 7458SOL     OW33832   2.736   4.156   6.482 -0.2542 -0.1289  0.4479
 7458SOL    HW133833   2.762   4.186   6.569  0.8998 -0.2692  0.1577
 7458SOL    HW233834   2.663   4.217   6.471  2.0347  2.0107 -3.0390
 7459SOL     OW33835   1.913   3.744  16.822 -0.3732 -0.1839 -0.3122
 7459SOL    HW133836   1.986   3.801  16.800 -0.9334 -0.0173 -1.7716
 7459SOL    HW233837   1.920   3.738  16.917  0.8802  1.1622 -0.3177
 7460SOL     OW33838   4.199   2.215   5.699  0.1783 -0.4155  0.5227
 7460SOL    HW133839   4.127   2.252   5.647  0.2111  0.4218  1.0699
 7460SOL    HW233840   4.215   2.142   5.640  0.1829  1.0757 -1.3272
 7461SOL     OW33841   4.011   3.977   9.548 -0.6815  0.1973  0.6343
 7461SOL    HW133842   3.990   3.935   9.632  1.2175  0.5170  1.2715
 7461SOL    HW233843   3.942   3.945   9.490 -0.4396 -1.1391  1.0934
 7462SOL     OW33844   1.945   4.357  15.501  0.0745  0.4807 -0.2610
 7462SOL    HW133845   1.859   4.396  15.493 -0.3429  0.2235  2.8072
 7462SOL    HW233846   1.991   4.421  15.555 -0.6129  1.1220 -0.4413
 7463SOL     OW33847   0.335   2.011   7.905 -0.8678  0.1333 -0.0763
 7463SOL    HW133848   0.391   2.063   7.962 -3.0528 -0.3642  2.5005
 7463SOL    HW233849   0.342   2.068   7.828 -1.7735 -0.7906 -0.8440
 7464SOL     OW33850   0.626   0.591   3.764 -0.2791  0.0822  0.0175
 7464SOL    HW133851   0.573   0.622   3.690 -1.1514  0.6219  0.8646
 7464SOL    HW233852   0.571   0.522   3.800 -0.5309  0.1135 -0.3048
 7465SOL     OW33853   1.479   1.793   4.880 -0.1718 -0.1523  0.1576
 7465SOL    HW133854   1.557   1.847   4.867  0.3091 -1.1230 -0.9627
 7465SOL    HW233855   1.524   1.711   4.897  1.0488  0.3894 -0.4450
 7466SOL     OW33856   0.443   2.261   4.956 -0.2925 -0.2613  0.3913
 7466SOL    HW133857   0.451   2.252   4.862 -1.1971  0.5066  0.2347
 7466SOL    HW233858   0.508   2.324   4.985 -0.4295  0.3882 -0.7250
 7467SOL     OW33859   2.626   4.250  17.203 -0.4920 -0.7601 -0.3312
 7467SOL    HW133860   2.664   4.335  17.226 -1.4951 -0.2377 -0.6021
 7467SOL    HW233861   2.644   4.248  17.109  0.3295 -0.3177 -0.1885
 7468SOL     OW33862   1.794   3.173   7.639 -0.2520  0.3936  0.3161
 7468SOL    HW133863   1.815   3.130   7.556  1.1018  2.0639 -0.2062
 7468SOL    HW233864   1.800   3.105   7.706  0.4072 -0.8746 -1.0388
 7469SOL     OW33865   1.236   0.886  11.839 -0.2897 -0.3512  0.0282
 7469SOL    HW133866   1.182   0.868  11.762  0.4563 -1.0316 -0.3425
 7469SOL    HW233867   1.308   0.927  11.792  0.4667 -2.1004 -0.3280
 7470SOL     OW33868   1.019   3.648   8.291 -0.1381  0.2453 -0.6171
 7470SOL    HW133869   1.012   3.601   8.374  1.6637 -0.1233 -0.6815
 7470SOL    HW233870   0.934   3.642   8.247 -0.9165 -0.3462  0.9874
 7471SOL     OW33871   4.701   3.311   4.505 -0.2122 -0.6566 -0.5709
 7471SOL    HW133872   4.608   3.312   4.483 -0.5605  1.7104  1.0332
 7471SOL    HW233873   4.711   3.235   4.563 -0.8968 -1.7088 -1.8277
 7472SOL     OW33874   0.054   3.785  15.897  0.3960 -0.1774 -0.0684
 7472SOL    HW133875   4.718   3.833  15.838  1.3481 -1.2273 -1.8904
 7472SOL    HW233876   4.719   3.756  15.967 -0.0035  0.3710 -0.1709
 7473SOL     OW33877   2.618   1.260   7.170 -0.1261  0.6437 -0.3412
 7473SOL    HW133878   2.678   1.211   7.226 -2.8635  0.3264  2.2684
 7473SOL    HW233879   2.646   1.343   7.207 -2.1408  0.3151  1.8611
 7474SOL     OW33880   3.109   1.262   6.648 -0.0923  0.5448 -0.5595
 7474SOL    HW133881   3.022   1.225   6.630 -0.1490 -0.4693  1.8298
 7474SOL    HW233882   3.090   1.292   6.737  4.1867  0.4357  0.3879
 7475SOL     OW33883   3.193   3.129   5.561 -0.3724 -0.1176 -0.4519
 7475SOL    HW133884   3.241   3.157   5.638  1.4038  0.8236 -1.8911
 7475SOL    HW233885   3.221   3.038   5.556 -2.4985 -0.7182 -1.2769
 7476SOL     OW33886   3.084   3.517   6.173 -0.5208 -0.1221 -0.8184
 7476SOL    HW133887   3.158   3.542   6.118  1.4785  1.5391  2.5814
 7476SOL    HW233888   3.050   3.603   6.198 -1.4129 -0.8644  0.5561
 7477SOL     OW33889   0.010   1.729  11.441 -0.1109 -0.5316 -0.1823
 7477SOL    HW133890   0.063   1.677  11.381 -0.5717  1.1795 -2.0858
 7477SOL    HW233891   0.057   1.813  11.450  1.3758 -1.2344 -1.5119
 7478SOL     OW33892   3.631   4.384   5.410 -0.0576  0.2540  0.3086
 7478SOL    HW133893   3.674   4.300   5.427  0.0737  0.1161 -0.6942
 7478SOL    HW233894   3.543   4.373   5.446  0.1601 -0.9130  0.4769
 7479SOL     OW33895   1.308   3.388   5.514  0.1618  0.2483 -0.3415
 7479SOL    HW133896   1.255   3.455   5.470  0.2364  0.2710 -0.3956
 7479SOL    HW233897   1.241   3.349   5.571  0.2471 -0.6776 -0.8743
 7480SOL     OW33898   3.283   3.683   5.069 -0.5713  0.1133 -0.1433
 7480SOL    HW133899   3.215   3.749   5.075 -1.4550 -0.9686  1.7017
 7480SOL    HW233900   3.301   3.680   4.975 -2.2280 -0.4189 -0.4420
 7481SOL     OW33901   4.364   1.615   9.784  0.3424 -0.0418 -0.0892
 7481SOL    HW133902   4.445   1.610   9.733  0.4637  0.5526  0.0500
 7481SOL    HW233903   4.407   1.648   9.863 -1.9380  0.2135  1.0587
 7482SOL     OW33904   2.466   4.534  17.343 -0.4382  0.5471 -0.0336
 7482SOL    HW133905   2.436   4.457  17.390 -1.9852 -1.2670 -3.9650
 7482SOL    HW233906   2.560   4.524  17.333 -0.3391 -0.4434  2.0360
 7483SOL     OW33907   2.123   3.814   2.345 -1.0301 -0.2579 -0.0064
 7483SOL    HW133908   2.064   3.876   2.302  0.4297  1.1457  0.0245
 7483SOL    HW233909   2.206   3.861   2.342 -1.7164  0.9631  0.5123
 7484SOL     OW33910   4.574   0.545   5.216 -0.0713 -0.1880  0.2053
 7484SOL    HW133911   4.510   0.558   5.146 -0.3813 -1.3599  0.2828
 7484SOL    HW233912   4.529   0.571   5.296 -1.1409  3.1515 -1.4810
 7485SOL     OW33913   3.143   2.129   0.474  0.5229  0.3273  0.0457
 7485SOL    HW133914   3.183   2.133   0.561  1.0126  0.9673 -0.2021
 7485SOL    HW233915   3.082   2.056   0.472  0.2059  0.6033 -0.4376
 7486SOL     OW33916   2.939   0.236   9.384 -0.2768 -0.1116 -0.0399
 7486SOL    HW133917   2.877   0.164   9.397 -2.0068  0.5850 -4.2571
 7486SOL    HW233918   2.966   0.216   9.294 -0.8055  0.3276 -0.2939
 7487SOL     OW33919   1.227   0.898   2.309 -0.8008  0.4385  0.1232
 7487SOL    HW133920   1.239   0.894   2.404  0.5441 -0.9545 -0.1066
 7487SOL    HW233921   1.164   0.970   2.306 -0.2142  1.0412  2.4377
 7488SOL     OW33922   3.428   2.418   7.132  0.2623 -0.0787  0.3580
 7488SOL    HW133923   3.336   2.398   7.146 -0.2506  2.9416  1.2940
 7488SOL    HW233924   3.449   2.386   7.045 -2.2328 -2.1666  0.5303
 7489SOL     OW33925   2.489   0.139   3.097  0.3088 -0.0893  0.2118
 7489SOL    HW133926   2.483   0.222   3.050  1.0384  1.6161  3.1659
 7489SOL    HW233927   2.417   0.082   3.069  0.8325 -0.6507  0.0133
 7490SOL     OW33928   2.067   3.653   4.174 -0.8100  0.2100  0.1371
 7490SOL    HW133929   2.148   3.692   4.208 -0.7788  0.4148 -0.1684
 7490SOL    HW233930   2.094   3.637   4.083 -1.3130  1.4553 -0.2306
 7491SOL     OW33931   0.601   3.878   1.298 -0.3759 -0.2437 -0.0641
 7491SOL    HW133932   0.659   3.812   1.260  0.6171 -0.0772  1.1694
 7491SOL    HW233933   0.574   3.929   1.221 -0.0917 -1.9095 -1.2670
 7492SOL     OW33934   4.001   0.344   8.000 -0.5216  0.5048  0.4862
 7492SOL    HW133935   4.063   0.408   7.964  2.0027 -1.8098  0.7790
 7492SOL    HW233936   3.992   0.381   8.087 -0.0560 -2.1906  1.6747
 7493SOL     OW33937   2.649   2.460   6.527 -0.2305  0.3729  0.1927
 7493SOL    HW133938   2.712   2.516   6.571  0.8576 -2.1408  1.8071
 7493SOL    HW233939   2.573   2.454   6.585 -1.8588  2.5659 -1.6829
 7494SOL     OW33940   1.060   0.401   2.738  0.1052  0.8019  0.2700
 7494SOL    HW133941   1.108   0.320   2.723 -0.2352  0.8550 -1.0690
 7494SOL    HW233942   1.098   0.457   2.670  0.7963  1.8561  1.5289
 7495SOL     OW33943   0.889   2.478   4.041 -0.0877 -0.4149 -0.2121
 7495SOL    HW133944   0.847   2.463   3.957 -1.5906 -1.4001  0.7120
 7495SOL    HW233945   0.817   2.469   4.104  1.8167 -1.5193  1.7985
 7496SOL     OW33946   4.503   2.514   2.153  0.2294  0.1924 -0.5461
 7496SOL    HW133947   4.555   2.496   2.074 -1.3129  2.8407 -2.1348
 7496SOL    HW233948   4.578   2.533   2.209 -0.9498  1.2043  0.6835
 7497SOL     OW33949   0.391   4.599   9.588  0.2461  0.3170  0.2293
 7497SOL    HW133950   0.472   4.616   9.539 -0.3360 -2.4594 -1.7268
 7497SOL    HW233951   0.375   4.517   9.541 -0.0927  0.3093  0.3605
 7498SOL     OW33952   4.656   0.048   6.547 -0.3684  0.1799 -0.1571
 7498SOL    HW133953   4.622   4.720   6.473  0.2084 -0.7322  0.2023
 7498SOL    HW233954   0.027   0.036   6.534 -0.3586 -1.8352  1.8736
 7499SOL     OW33955   1.828   0.911  14.605  0.1406 -0.4375 -0.0188
 7499SOL    HW133956   1.915   0.880  14.580  0.2431 -0.4313  0.3396
 7499SOL    HW233957   1.845   0.970  14.679  1.2694  0.5087 -1.0260
 7500SOL     OW33958   3.972   2.198   4.955 -0.2378  0.3906  0.1636
 7500SOL    HW133959   3.936   2.276   4.997  1.2115  0.5783  1.0655
 7500SOL    HW233960   3.901   2.168   4.899 -0.5337  0.2471  0.6119
 7501SOL     OW33961   3.351   2.758  14.521  0.3858  0.0690 -0.2746
 7501SOL    HW133962   3.438   2.740  14.557  1.0331  1.4068 -1.1318
 7501SOL    HW233963   3.357   2.795  14.433  0.4719  1.1098  0.1742
 7502SOL     OW33964   4.506   1.641   6.854  0.0892  1.2407 -0.5995
 7502SOL    HW133965   4.425   1.654   6.805 -1.2710  2.1161  1.8639
 7502SOL    HW233966   4.503   1.721   6.906 -2.3999 -0.3739  1.7380
 7503SOL     OW33967   4.350   1.346   2.627 -0.3197 -0.0674  0.4062
 7503SOL    HW133968   4.431   1.310   2.663  0.3496  0.3806 -0.6543
 7503SOL    HW233969   4.375   1.435   2.603  2.4080 -1.0284 -0.3255
 7504SOL     OW33970   2.737   2.630   9.336  0.2326  0.0412  0.2102
 7504SOL    HW133971   2.807   2.672   9.287  1.3141  0.3667  2.0221
 7504SOL    HW233972   2.784   2.550   9.361 -0.1232 -0.2094  0.0838
 7505SOL     OW33973   3.279   2.234  12.437  0.0687  0.0525  0.2401
 7505SOL    HW133974   3.324   2.202  12.516  0.1405 -1.2718 -0.3392
 7505SOL    HW233975   3.230   2.307  12.474 -0.6714 -0.3138 -0.0171
 7506SOL     OW33976   0.891   2.104  11.267  0.2709  0.6260  0.2936
 7506SOL    HW133977   0.798   2.121  11.274 -0.4163 -2.9874  0.3016
 7506SOL    HW233978   0.908   2.121  11.174 -0.0201  3.4762  0.7708
 7507SOL     OW33979   0.365   0.906   9.813  0.0903 -0.0198 -0.5202
 7507SOL    HW133980   0.449   0.915   9.767  1.3966 -0.3956  1.7868
 7507SOL    HW233981   0.362   0.810   9.811 -0.0180  0.0015 -1.5350
 7508SOL     OW33982   4.590   1.338   0.355 -0.4232  0.1529 -0.3031
 7508SOL    HW133983   4.579   1.432   0.348  0.0958  0.2120 -0.3047
 7508SOL    HW233984   4.501   1.322   0.324  0.9769 -2.4074 -3.0170
 7509SOL     OW33985   0.874   1.557  10.105 -0.1995 -0.4359 -0.3043
 7509SOL    HW133986   0.909   1.576  10.018 -3.0021 -1.0446 -1.5490
 7509SOL    HW233987   0.916   1.630  10.150 -2.1201  1.1218 -1.0253
 7510SOL     OW33988   2.251   2.214   4.650 -0.3184  0.0974 -0.0485
 7510SOL    HW133989   2.258   2.267   4.571  2.4782  1.3764  1.0405
 7510SOL    HW233990   2.315   2.146   4.627  0.7198  0.8308  0.6988
 7511SOL     OW33991   4.642   3.005   2.204 -0.7537 -0.5576 -0.0276
 7511SOL    HW133992   4.562   3.054   2.185  0.5420  0.7391 -2.1952
 7511SOL    HW233993   4.606   2.917   2.216  0.0941 -0.9636 -0.4136
 7512SOL     OW33994   4.303   3.899   9.161 -0.3250 -0.7067 -0.4863
 7512SOL    HW133995   4.258   3.968   9.112  1.9361  0.5687 -0.7481
 7512SOL    HW233996   4.381   3.953   9.170 -0.3495 -0.8892  0.9347
 7513SOL     OW33997   2.198   2.956   3.971 -0.5055  0.5640 -0.1306
 7513SOL    HW133998   2.155   2.910   4.042  0.6746  0.2119  0.3535
 7513SOL    HW233999   2.289   2.957   3.998 -1.0298 -1.7174  1.6409
 7514SOL     OW34000   2.113   2.703   9.065  0.1864 -0.0110  0.8097
 7514SOL    HW134001   2.095   2.797   9.074 -1.1004 -0.0909 -1.1083
 7514SOL    HW234002   2.138   2.678   9.154 -1.2054 -0.8377  0.9705
 7515SOL     OW34003   1.781   2.878   6.234  0.1637 -0.0979  0.0248
 7515SOL    HW134004   1.698   2.892   6.188 -0.1922  0.5760  0.8780
 7515SOL    HW234005   1.813   2.811   6.172  0.8612 -0.7071  1.0460
 7516SOL     OW34006   3.969   3.192   7.550 -0.2584 -0.0931 -0.4950
 7516SOL    HW134007   3.919   3.230   7.622  0.2654  1.4931 -0.9552
 7516SOL    HW234008   3.900   3.167   7.489 -1.1537 -0.6058  0.7579
 7517SOL     OW34009   3.688   2.664   6.910 -0.0892 -0.1529 -0.9274
 7517SOL    HW134010   3.684   2.579   6.866  0.9288  0.4274 -2.1326
 7517SOL    HW234011   3.687   2.723   6.834 -0.9144  1.2067  0.1444
 7518SOL     OW34012   1.539   1.736   2.528 -0.0229 -0.4285 -0.0086
 7518SOL    HW134013   1.492   1.818   2.518  1.8817  0.5992 -0.4923
 7518SOL    HW234014   1.610   1.765   2.586  1.1765 -2.3410 -0.4874
 7519SOL     OW34015   2.389   2.661   5.473  0.2079 -0.3858  0.8974
 7519SOL    HW134016   2.327   2.732   5.493 -0.8390 -1.0832  0.1137
 7519SOL    HW234017   2.408   2.679   5.381  2.9473 -3.5889  0.8664
 7520SOL     OW34018   3.567   4.601   5.945  0.6502 -0.2844  0.1898
 7520SOL    HW134019   3.479   4.618   5.979  0.3963  0.4988 -0.8571
 7520SOL    HW234020   3.612   4.600   6.029  0.0687 -1.6901  0.4838
 7521SOL     OW34021   4.141   2.953   7.948  0.3247  0.1838 -0.1978
 7521SOL    HW134022   4.184   2.934   7.864  1.4306 -1.5032  0.7611
 7521SOL    HW234023   4.200   3.023   7.977  0.8376 -1.3746  2.4566
 7522SOL     OW34024   4.672   4.482   9.521 -0.0095  0.6326 -0.4372
 7522SOL    HW134025   4.717   4.417   9.575  0.1425 -0.8478 -2.3243
 7522SOL    HW234026   0.003   4.558   9.542 -2.6248  2.1522  0.8928
 7523SOL     OW34027   3.564   3.539   6.234 -0.5929  0.2771  0.2704
 7523SOL    HW134028   3.571   3.459   6.285 -2.4801 -0.0282  0.0469
 7523SOL    HW234029   3.483   3.570   6.274  0.3529  1.0120  1.5982
 7524SOL     OW34030   2.692   2.682   3.540 -0.2952  0.1440 -0.0172
 7524SOL    HW134031   2.758   2.709   3.603  0.4871 -2.0292  0.1127
 7524SOL    HW234032   2.744   2.689   3.460 -0.7392 -1.8874 -0.4894
 7525SOL     OW34033   3.253   4.707  14.736  0.0354  0.0888  0.1254
 7525SOL    HW134034   3.231   4.691  14.644 -0.2766  0.4983  0.1285
 7525SOL    HW234035   3.179   4.667  14.782  0.9380 -0.1288  1.3812
 7526SOL     OW34036   1.731   3.807   9.624 -0.3787  0.1276 -0.7093
 7526SOL    HW134037   1.720   3.898   9.650 -0.5588 -0.7358  2.2449
 7526SOL    HW234038   1.663   3.761   9.673  0.3774  1.1982  1.3658
 7527SOL     OW34039   1.866   4.707  11.762  0.0666  0.1417  0.4463
 7527SOL    HW134040   1.796   0.041  11.793  1.2414  0.8488  1.7652
 7527SOL    HW234041   1.850   4.649  11.836  0.2222  0.3872  0.6693
 7528SOL     OW34042   1.283   0.060   0.702  0.0165 -0.7841  0.0062
 7528SOL    HW134043   1.307   0.092   0.615 -1.1727 -0.2365 -0.1141
 7528SOL    HW234044   1.353   0.001   0.731  0.0335 -0.1689  1.2378
 7529SOL     OW34045   1.552   2.871  15.720 -0.4333  0.5559 -0.1654
 7529SOL    HW134046   1.580   2.800  15.661  1.4080  0.8554  0.3416
 7529SOL    HW234047   1.585   2.838  15.804 -1.5068  0.1074  0.0761
 7530SOL     OW34048   1.189   1.489  15.616 -0.1791  0.0434 -0.1696
 7530SOL    HW134049   1.265   1.546  15.612  1.1761 -1.7368  0.2731
 7530SOL    HW234050   1.143   1.531  15.689  0.1084  2.5040 -1.4055
 7531SOL     OW34051   1.200   0.590   1.204  0.6215  0.0184  0.0067
 7531SOL    HW134052   1.157   0.674   1.218  0.5987  0.1247 -0.6967
 7531SOL    HW234053   1.223   0.607   1.113 -1.1967 -0.4639 -0.5322
 7532SOL     OW34054   0.539   0.303   4.679 -0.2846 -0.0055  0.3641
 7532SOL    HW134055   0.510   0.386   4.641 -0.0320  0.3335  0.9205
 7532SOL    HW234056   0.474   0.295   4.749 -1.4621 -0.0758 -0.7364
 7533SOL     OW34057   2.789   1.522  14.633  0.3043 -0.1376  0.5980
 7533SOL    HW134058   2.871   1.473  14.646  0.6693 -0.1546 -1.6229
 7533SOL    HW234059   2.804   1.557  14.545 -1.9503 -1.0224 -0.1137
 7534SOL     OW34060   3.640   1.256   4.447 -0.0421  0.4662  0.0916
 7534SOL    HW134061   3.606   1.176   4.487 -0.6393  0.1658 -1.0179
 7534SOL    HW234062   3.636   1.232   4.355 -2.7415  2.3487 -0.2736
 7535SOL     OW34063   1.136   3.227   6.993 -0.1209  0.7118  0.2727
 7535SOL    HW134064   1.224   3.201   7.021  1.1149  2.3312 -2.1925
 7535SOL    HW234065   1.124   3.160   6.925 -3.9237 -0.6181  2.2544
 7536SOL     OW34066   3.048   1.602   7.328 -0.1214 -0.2560  0.0316
 7536SOL    HW134067   2.983   1.666   7.357  1.5717  0.5716  2.0769
 7536SOL    HW234068   3.076   1.582   7.417  0.0040  1.6854  0.4482
 7537SOL     OW34069   0.573   3.941   6.827  0.0551 -0.0351 -0.2000
 7537SOL    HW134070   0.593   4.016   6.883 -0.0856 -0.4889  0.4524
 7537SOL    HW234071   0.617   3.958   6.744  1.2527  3.4953  1.1525
 7538SOL     OW34072   4.058   2.727  14.874  0.0655  0.4320  0.1780
 7538SOL    HW134073   4.097   2.766  14.952 -0.2329  1.0280  0.0323
 7538SOL    HW234074   4.051   2.805  14.818  1.4196 -0.5595 -1.4014
 7539SOL     OW34075   2.798   0.696   5.139  0.4296 -0.6279 -0.1328
 7539SOL    HW134076   2.792   0.773   5.081 -0.4576  0.0688  0.8806
 7539SOL    HW234077   2.838   0.626   5.088  1.7292 -0.6053  0.8488
 7540SOL     OW34078   2.623   0.723   2.883  0.1515  0.5634 -0.3102
 7540SOL    HW134079   2.568   0.769   2.946 -1.0189 -0.4270 -0.6241
 7540SOL    HW234080   2.652   0.648   2.934  1.2130 -0.7509 -2.8829
 7541SOL     OW34081   3.686   1.864   4.298 -0.1116 -0.0425 -0.3742
 7541SOL    HW134082   3.755   1.800   4.316 -0.7987 -0.6903 -0.0663
 7541SOL    HW234083   3.710   1.934   4.360  0.5563  1.0689 -1.8653
 7542SOL     OW34084   2.587   0.563  15.255 -0.2705  0.2177 -0.2889
 7542SOL    HW134085   2.679   0.583  15.235 -0.3222  1.1144  0.3938
 7542SOL    HW234086   2.572   0.498  15.187 -1.7204 -0.1046  0.3365
 7543SOL     OW34087   2.653   4.404   3.696 -0.1682 -0.3301 -0.4748
 7543SOL    HW134088   2.672   4.324   3.648  1.4211  0.0594 -0.4776
 7543SOL    HW234089   2.562   4.417   3.667  0.2631  2.0925 -0.7713
 7544SOL     OW34090   1.501   0.251   2.665 -0.9629  0.1901  0.4259
 7544SOL    HW134091   1.597   0.248   2.667 -0.9555 -0.2373 -0.6394
 7544SOL    HW234092   1.498   0.290   2.578  0.3535  1.5616  0.9714
 7545SOL     OW34093   3.055   0.468  12.950 -0.0613 -0.0792  0.0589
 7545SOL    HW134094   3.005   0.510  13.020  2.8273  2.8142  0.4068
 7545SOL    HW234095   3.075   0.540  12.889  1.8771  0.2826  1.1428
 7546SOL     OW34096   3.925   4.177   2.761 -0.0983 -0.2100  0.2934
 7546SOL    HW134097   3.946   4.269   2.772 -1.2301  0.0333  0.4397
 7546SOL    HW234098   3.927   4.166   2.666  3.3544  0.0114  0.3455
 7547SOL     OW34099   2.899   0.489  15.267  0.0192  0.3461 -0.0486
 7547SOL    HW134100   2.851   0.461  15.189 -1.9122 -1.4845  1.7823
 7547SOL    HW234101   2.914   0.579  15.237  1.2343 -0.9885 -3.4125
 7548SOL     OW34102   2.265   3.115   5.244 -0.1345  0.9608  0.0635
 7548SOL    HW134103   2.235   3.205   5.258 -2.3435  0.4041 -1.0271
 7548SOL    HW234104   2.359   3.121   5.262  0.3380 -0.9167 -1.8375
 7549SOL     OW34105   0.821   4.526   2.889  0.2214  0.5450  0.4650
 7549SOL    HW134106   0.737   4.527   2.844  1.3795  1.6284 -1.6399
 7549SOL    HW234107   0.835   4.618   2.908 -2.3683  0.7768  1.2602
 7550SOL     OW34108   2.483   4.453  15.998  0.1449 -0.7543 -0.0390
 7550SOL    HW134109   2.492   4.548  16.002  2.2524 -0.9146 -1.3337
 7550SOL    HW234110   2.414   4.433  16.061  0.8886  0.2861  1.1003
 7551SOL     OW34111   0.976   1.115   3.542 -0.3601 -0.1107  0.0739
 7551SOL    HW134112   1.042   1.182   3.556 -0.9577  0.3214  0.8023
 7551SOL    HW234113   1.028   1.036   3.555 -0.5623 -0.7527 -2.9922
 7552SOL     OW34114   3.681   2.749  13.525 -0.2572 -0.3304 -0.1022
 7552SOL    HW134115   3.649   2.731  13.613 -1.1099 -0.6581 -0.4814
 7552SOL    HW234116   3.754   2.687  13.524  1.7344  1.9803 -0.8660
 7553SOL     OW34117   0.311   2.934   7.841 -0.4519  0.1635  0.3435
 7553SOL    HW134118   0.268   3.014   7.870 -1.4481  0.4178 -1.8925
 7553SOL    HW234119   0.233   2.882   7.824 -1.7288  1.5010  2.1949
 7554SOL     OW34120   1.211   3.667   3.223 -0.0409  0.4534 -0.0297
 7554SOL    HW134121   1.144   3.731   3.198 -0.1361  0.5813  0.5452
 7554SOL    HW234122   1.253   3.705   3.300  0.3017  2.5556 -1.2655
 7555SOL     OW34123   1.016   2.212   5.456  0.3373  0.5616  0.4199
 7555SOL    HW134124   0.950   2.209   5.387  1.1578  0.7657 -0.3765
 7555SOL    HW234125   1.088   2.164   5.415 -1.1427 -0.0203 -1.4312
 7556SOL     OW34126   3.142   0.075  17.385 -0.0979 -0.4248 -0.2806
 7556SOL    HW134127   3.150   0.169  17.402  0.9409 -0.8427  1.4609
 7556SOL    HW234128   3.059   0.062  17.338  1.0984 -2.0015 -1.9249
 7557SOL     OW34129   0.122   0.020   4.259 -0.3486  0.0481  0.3728
 7557SOL    HW134130   0.167   0.093   4.302 -1.3952 -0.1279  1.7687
 7557SOL    HW234131   0.192   4.705   4.206 -1.1688  1.3904 -1.6911
 7558SOL     OW34132   3.120   4.534   6.069 -0.1467  0.2072 -0.6436
 7558SOL    HW134133   3.095   4.442   6.080 -0.8405  0.3523 -0.9963
 7558SOL    HW234134   3.124   4.533   5.974  2.2019 -0.8007 -0.5431
 7559SOL     OW34135   2.506   4.625   8.114  0.4586  1.0014  0.2006
 7559SOL    HW134136   2.599   4.611   8.129  0.5730  1.1818 -0.3545
 7559SOL    HW234137   2.477   4.540   8.147 -0.5240  0.9491 -0.7889
 7560SOL     OW34138   2.295   0.649   1.796  0.3205  0.0832 -0.1687
 7560SOL    HW134139   2.354   0.601   1.738  0.2763  1.8264 -1.6252
 7560SOL    HW234140   2.306   0.601   1.878  0.6500  0.0404 -0.2398
 7561SOL     OW34141   1.592   3.699   8.926 -0.0441 -0.4012  0.0271
 7561SOL    HW134142   1.636   3.698   9.011 -0.7914 -0.3748  0.4192
 7561SOL    HW234143   1.508   3.671   8.963 -1.0350  1.7441 -0.5951
 7562SOL     OW34144   1.493   0.781   5.018 -0.3720 -0.0481  0.3694
 7562SOL    HW134145   1.572   0.835   5.025 -0.4553  0.2623 -1.1982
 7562SOL    HW234146   1.436   0.841   4.971  1.2722  0.6605 -0.7150
 7563SOL     OW34147   0.292   2.292  17.318 -0.4365 -0.7968 -0.3556
 7563SOL    HW134148   0.212   2.281  17.370  0.6855  1.3164  1.8381
 7563SOL    HW234149   0.347   2.328  17.388  0.5746  0.2871 -1.7143
 7564SOL     OW34150   4.650   3.115  12.973 -0.5250  0.1778  0.4057
 7564SOL    HW134151   0.013   3.131  13.012  0.2733 -2.6534 -0.2022
 7564SOL    HW234152   4.621   3.030  13.005  0.1881 -0.2317 -0.0286
 7565SOL     OW34153   2.764   0.351  15.932  0.1629  0.1977  0.2551
 7565SOL    HW134154   2.739   0.369  15.842  0.6612  0.5949  0.1966
 7565SOL    HW234155   2.859   0.336  15.928 -0.0945 -0.8248 -1.7603
 7566SOL     OW34156   2.573   3.435   9.966 -0.5706  0.0177  0.0858
 7566SOL    HW134157   2.509   3.372   9.930  0.4332 -1.1269  0.3118
 7566SOL    HW234158   2.511   3.507   9.981  1.4652  2.1997 -2.0485
 7567SOL     OW34159   1.058   2.494   8.709 -0.1935  0.9126 -0.4598
 7567SOL    HW134160   0.984   2.469   8.653  0.0539 -2.0958  0.5528
 7567SOL    HW234161   1.023   2.467   8.794  1.9718 -2.4523 -0.6534
 7568SOL     OW34162   2.514   0.037  14.807  0.4528  0.0440 -0.6792
 7568SOL    HW134163   2.443   4.700  14.784  0.1183  1.1028 -2.4120
 7568SOL    HW234164   2.469   0.121  14.816  2.2485  1.0499 -1.0908
 7569SOL     OW34165   0.595   0.503   3.164  0.3468 -0.2567 -0.2885
 7569SOL    HW134166   0.659   0.487   3.233  0.7237 -0.9569 -0.7963
 7569SOL    HW234167   0.586   0.420   3.116 -0.5666 -0.6450  0.5616
 7570SOL     OW34168   1.630   0.180   0.403 -0.0917 -0.3581  0.0426
 7570SOL    HW134169   1.701   0.155   0.463 -0.5720 -2.5293 -0.3118
 7570SOL    HW234170   1.644   0.275   0.397 -1.1738 -0.2084 -0.1244
 7571SOL     OW34171   2.508   1.415  13.435  0.4857  0.0609  0.3312
 7571SOL    HW134172   2.586   1.453  13.476 -1.4398  0.9449  3.1681
 7571SOL    HW234173   2.548   1.346  13.383 -1.3223 -0.2976 -0.5921
 7572SOL     OW34174   0.768   1.287   7.424  0.2280 -0.2638 -0.4909
 7572SOL    HW134175   0.791   1.378   7.441  1.8065 -0.8344  0.4500
 7572SOL    HW234176   0.823   1.230   7.479 -2.1490 -1.5890  0.5316
 7573SOL     OW34177   3.260   3.715  15.366  0.5495 -0.4971  0.4119
 7573SOL    HW134178   3.175   3.679  15.339 -0.1548  2.6019 -1.4940
 7573SOL    HW234179   3.257   3.706  15.461  1.4751  1.1638  0.5984
 7574SOL     OW34180   3.733   2.563   6.392 -0.5801  0.1039 -0.1659
 7574SOL    HW134181   3.790   2.629   6.430  1.3398 -1.0482 -1.0665
 7574SOL    HW234182   3.791   2.524   6.327  1.7281  1.4570  1.0909
 7575SOL     OW34183   1.605   0.646   9.316 -0.5075 -0.2059  0.2011
 7575SOL    HW134184   1.636   0.695   9.240  0.3386  1.2785  1.5233
 7575SOL    HW234185   1.649   0.691   9.388 -0.2454 -2.7220  1.6246
 7576SOL     OW34186   2.882   4.263   8.304  0.0503 -0.1554 -0.2015
 7576SOL    HW134187   2.977   4.274   8.301 -0.0480  0.9486  0.7196
 7576SOL    HW234188   2.880   4.219   8.389  1.0237 -0.4442 -0.3344
 7577SOL     OW34189   0.287   2.403   0.461 -0.4979 -0.2145  0.0567
 7577SOL    HW134190   0.197   2.433   0.471 -0.0151  1.1968  0.3089
 7577SOL    HW234191   0.294   2.382   0.368  0.8235 -0.0424  0.1083
 7578SOL     OW34192   0.619   0.062   4.509 -0.3691 -0.1829 -0.3826
 7578SOL    HW134193   0.599   0.130   4.574 -1.3900  0.4943 -1.3963
 7578SOL    HW234194   0.587   0.109   4.431 -3.0751 -0.0640  0.7864
 7579SOL     OW34195   4.514   4.358   2.463  0.0265  0.7621 -0.6958
 7579SOL    HW134196   4.429   4.390   2.495 -0.0011  1.3398 -1.3434
 7579SOL    HW234197   4.537   4.307   2.541  0.6478  0.2967 -1.1873
 7580SOL     OW34198   2.332   4.323   1.114 -0.4946  0.3241 -0.1733
 7580SOL    HW134199   2.241   4.320   1.084 -0.7472  0.7020  0.5346
 7580SOL    HW234200   2.378   4.358   1.037  0.1054  2.6558  1.2458
 7581SOL     OW34201   1.733   0.782   6.996  0.1257 -0.2474 -0.6517
 7581SOL    HW134202   1.775   0.767   6.911  1.4936  0.9192 -0.1791
 7581SOL    HW234203   1.657   0.836   6.973  1.9804  2.6958  0.1338
 7582SOL     OW34204   0.049   4.114   1.282  0.0801 -0.2797  0.4264
 7582SOL    HW134205   0.069   4.206   1.266  0.1837 -0.4218 -0.2378
 7582SOL    HW234206   4.707   4.105   1.213  0.4762  0.7550 -0.0777
 7583SOL     OW34207   0.953   0.003   3.763  0.4598 -0.2543 -0.5730
 7583SOL    HW134208   1.002   4.644   3.771  1.6774  0.5238  0.0736
 7583SOL    HW234209   0.896   4.709   3.688 -0.9778 -1.5379  0.8102
 7584SOL     OW34210   2.932   3.615   5.003 -0.2108  0.3006  0.0223
 7584SOL    HW134211   2.903   3.663   5.081 -0.6229 -0.3935  0.2950
 7584SOL    HW234212   2.921   3.690   4.944 -1.1044 -1.4851 -2.0859
 7585SOL     OW34213   1.381   1.088   3.335 -0.4527  0.4896  0.1002
 7585SOL    HW134214   1.327   1.139   3.275 -2.5935 -1.5139  0.3378
 7585SOL    HW234215   1.464   1.132   3.317  0.4486 -1.3255 -0.1678
 7586SOL     OW34216   1.561   1.206   9.307  0.1606 -0.4018  0.4959
 7586SOL    HW134217   1.553   1.123   9.354  3.4859 -2.2533 -2.2334
 7586SOL    HW234218   1.655   1.215   9.320  0.3748 -0.2779 -1.1554
 7587SOL     OW34219   2.991   1.593   6.646 -0.3732  0.0738  0.1478
 7587SOL    HW134220   3.086   1.601   6.636 -0.3336  1.2720  1.5401
 7587SOL    HW234221   2.970   1.577   6.553 -0.1250  1.4340 -0.1368
 7588SOL     OW34222   1.718   0.022  12.522 -0.0208 -0.2808 -0.0924
 7588SOL    HW134223   1.776   4.671  12.500  0.5971  0.7913 -2.0282
 7588SOL    HW234224   1.746   0.074  12.447  1.5324 -1.3263 -0.2452
 7589SOL     OW34225   2.689   2.118   5.949 -0.1792 -0.3823 -0.3546
 7589SOL    HW134226   2.655   2.128   5.860 -1.2948  0.6665  0.1899
 7589SOL    HW234227   2.652   2.192   5.999 -0.0832 -0.5463 -0.0404
 7590SOL     OW34228   0.484   3.873  14.975  0.3137  0.2401 -0.4691
 7590SOL    HW134229   0.543   3.799  14.991  1.1088  0.0615 -4.2423
 7590SOL    HW234230   0.396   3.838  14.990 -0.2656  1.6886 -0.5787
 7591SOL     OW34231   2.860   2.331   5.736  0.0354 -0.0262  0.2257
 7591SOL    HW134232   2.871   2.426   5.738 -0.7416  0.0009  3.6110
 7591SOL    HW234233   2.775   2.309   5.696  0.3832 -1.6833  0.3816
 7592SOL     OW34234   3.463   0.254   0.777  0.0981 -0.5301  0.1297
 7592SOL    HW134235   3.391   0.312   0.754  0.3890 -0.5230 -0.7898
 7592SOL    HW234236   3.431   0.223   0.862 -2.9751  2.3361 -0.0137
 7593SOL     OW34237   4.319   1.467   3.987  0.7856  0.4819 -0.3041
 7593SOL    HW134238   4.318   1.506   3.900 -0.9910 -0.0056 -0.4943
 7593SOL    HW234239   4.361   1.381   3.976 -1.6183 -0.7555  0.0421
 7594SOL     OW34240   4.249   3.248  12.843  0.3173 -0.0622 -0.1191
 7594SOL    HW134241   4.154   3.238  12.832 -0.0668  2.2175  1.1004
 7594SOL    HW234242   4.258   3.240  12.938 -0.6529 -1.2785 -0.1335
 7595SOL     OW34243   2.221   1.457   3.551 -0.3982 -0.2524 -0.4539
 7595SOL    HW134244   2.216   1.362   3.549 -0.5405 -0.2091 -2.1257
 7595SOL    HW234245   2.316   1.451   3.559 -0.4083 -2.5617 -2.1636
 7596SOL     OW34246   3.803   1.661  10.347 -0.1726 -0.2610 -0.2361
 7596SOL    HW134247   3.821   1.595  10.413  2.2023  0.7563  0.1162
 7596SOL    HW234248   3.862   1.729  10.379  1.1776 -0.2473 -2.7734
 7597SOL     OW34249   4.067   0.295   9.534 -0.2932  0.6478 -0.3138
 7597SOL    HW134250   4.125   0.227   9.566 -0.4813  1.4699  1.7548
 7597SOL    HW234251   4.085   0.363   9.599  0.6442 -0.2020  0.3134
 7598SOL     OW34252   2.012   3.187   4.690  0.3783 -0.0043  0.3196
 7598SOL    HW134253   2.058   3.267   4.717 -0.8327  0.4867  0.9004
 7598SOL    HW234254   1.956   3.168   4.764 -0.2089  2.4102  0.5128
 7599SOL     OW34255   4.256   1.934   7.680 -0.0155 -0.0789  0.6988
 7599SOL    HW134256   4.171   1.930   7.637 -0.0896  1.2960  0.6983
 7599SOL    HW234257   4.305   1.961   7.601 -0.3154  0.3161  0.6480
 7600SOL     OW34258   2.568   3.201   2.885 -0.1545 -0.2416  0.0633
 7600SOL    HW134259   2.568   3.172   2.794  1.6474  1.3457 -0.4412
 7600SOL    HW234260   2.661   3.193   2.904 -0.1084 -0.0617 -0.0898
 7601SOL     OW34261   4.508   2.485   0.512  0.0822  0.0054  0.2241
 7601SOL    HW134262   4.592   2.500   0.467  0.7101  1.2885  1.8346
 7601SOL    HW234263   4.466   2.434   0.442  1.1306  1.8533 -1.7659
 7602SOL     OW34264   4.477   0.697   2.442 -0.8840  0.3646 -0.3335
 7602SOL    HW134265   4.478   0.773   2.383  0.3318  1.2497  0.8361
 7602SOL    HW234266   4.457   0.734   2.528 -2.3218  0.9259 -0.9004
 7603SOL     OW34267   2.291   2.395   4.413 -0.1275  0.4663 -0.2462
 7603SOL    HW134268   2.360   2.461   4.411 -2.1266  2.6758  3.3552
 7603SOL    HW234269   2.315   2.323   4.354  1.2239 -0.6455  1.6526
 7604SOL     OW34270   3.253   3.671  16.953  0.2304  0.1882 -0.0766
 7604SOL    HW134271   3.223   3.584  16.928  2.8387 -0.3105 -1.4952
 7604SOL    HW234272   3.188   3.718  16.901  0.5116 -0.9737 -1.4983
 7605SOL     OW34273   2.655   1.302   8.883  0.0864 -0.0058  0.1549
 7605SOL    HW134274   2.664   1.214   8.921 -0.6748 -0.8070 -1.5278
 7605SOL    HW234275   2.615   1.283   8.798 -0.0035  0.3980  0.1082
 7606SOL     OW34276   2.215   1.946  15.440  0.3970 -0.2100 -0.2297
 7606SOL    HW134277   2.143   1.883  15.431 -0.1328  0.8613 -3.3339
 7606SOL    HW234278   2.187   1.990  15.521  0.8980  1.0758 -0.7580
 7607SOL     OW34279   0.754   0.018   9.166 -0.9786  0.2512  0.3177
 7607SOL    HW134280   0.823   4.697   9.117 -1.2313  2.0063 -1.6328
 7607SOL    HW234281   0.807   0.055   9.236  0.2343 -0.5296 -0.1897
 7608SOL     OW34282   3.640   0.123   4.498 -0.4018 -0.0307 -0.3315
 7608SOL    HW134283   3.621   0.107   4.406  1.1854 -1.0256 -0.4786
 7608SOL    HW234284   3.584   0.054   4.534 -0.3679  0.1110 -0.0044
 7609SOL     OW34285   3.817   1.823  13.266 -0.0510  0.0647  0.0856
 7609SOL    HW134286   3.771   1.893  13.311  1.2892 -0.8278  2.8208
 7609SOL    HW234287   3.834   1.875  13.187 -0.4307  0.4018  0.2258
 7610SOL     OW34288   2.310   3.131   3.020 -0.2405 -0.2599 -0.1087
 7610SOL    HW134289   2.387   3.110   2.968 -0.9956  1.5907 -1.9817
 7610SOL    HW234290   2.240   3.122   2.955 -0.9396 -2.1667  0.9031
 7611SOL     OW34291   2.447   0.353  17.493 -0.9401  0.8171  0.4626
 7611SOL    HW134292   2.477   0.444  17.480  1.3768 -0.0159 -0.0680
 7611SOL    HW234293   2.520   0.311  17.539 -1.4112  0.8711  1.2489
 7612SOL     OW34294   2.405   0.444   6.446  0.4647 -0.2950 -0.0170
 7612SOL    HW134295   2.467   0.511   6.417 -0.8204  0.2539 -1.5102
 7612SOL    HW234296   2.330   0.492   6.412  0.6874  0.0863  0.0363
 7613SOL     OW34297   2.449   4.092   5.253 -0.0414  0.3071  0.1704
 7613SOL    HW134298   2.406   4.143   5.321 -1.5514 -0.0518 -0.5092
 7613SOL    HW234299   2.426   4.002   5.275  1.7785  0.1694  1.5031
 7614SOL     OW34300   1.417   1.420   4.721  0.1147  0.4286  0.5724
 7614SOL    HW134301   1.404   1.325   4.711  0.4975  0.6351 -1.9099
 7614SOL    HW234302   1.451   1.440   4.634 -3.1692 -0.4874 -0.9257
 7615SOL     OW34303   4.381   0.936   2.324  0.0240 -0.3860 -0.1968
 7615SOL    HW134304   4.300   0.975   2.357  0.0574 -0.3254 -0.1861
 7615SOL    HW234305   4.444   1.003   2.349  1.0204 -0.5678 -2.1920
 7616SOL     OW34306   3.180   2.270  12.721 -0.1388  0.2881  0.2261
 7616SOL    HW134307   3.201   2.361  12.698 -0.3726  0.1857 -0.3762
 7616SOL    HW234308   3.095   2.287  12.761  0.1969 -0.1764  1.1334
 7617SOL     OW34309   2.646   3.775  15.177  0.1326  0.3872 -0.0734
 7617SOL    HW134310   2.613   3.824  15.102  0.2631  0.6149  0.0201
 7617SOL    HW234311   2.699   3.706  15.136  1.5097  1.4758 -0.1117
 7618SOL     OW34312   3.168   4.171   8.389 -0.4613  0.5802 -0.4393
 7618SOL    HW134313   3.163   4.181   8.484  3.5398  0.3720 -0.2177
 7618SOL    HW234314   3.222   4.092   8.381 -1.1227 -0.0035  0.7561
 7619SOL     OW34315   0.274   3.393  12.570 -0.1366 -0.0182  0.5520
 7619SOL    HW134316   0.188   3.354  12.554  0.0885 -0.6444  0.9182
 7619SOL    HW234317   0.266   3.470  12.513 -2.4588 -1.7496 -1.4512
 7620SOL     OW34318   3.917   3.346  14.668 -0.1618 -0.8141  0.3045
 7620SOL    HW134319   4.002   3.314  14.640 -0.0939 -0.0194 -0.3801
 7620SOL    HW234320   3.877   3.276  14.720  0.5749  0.8123  3.0883
 7621SOL     OW34321   3.782   1.093  15.010  0.3784 -0.0398  0.0882
 7621SOL    HW134322   3.825   1.010  14.991  1.7095  0.9693 -1.3322
 7621SOL    HW234323   3.733   1.081  15.091 -1.0117 -0.3435 -0.7890
 7622SOL     OW34324   4.000   2.367   5.546  0.0247 -0.4941 -0.1200
 7622SOL    HW134325   4.065   2.436   5.558 -0.2708 -0.2797  0.2342
 7622SOL    HW234326   3.925   2.412   5.585  1.9544  2.5304  0.1102
 7623SOL     OW34327   2.378   3.169   9.609  0.1835  0.3602 -0.1979
 7623SOL    HW134328   2.308   3.233   9.603  1.4797  1.3123 -4.8817
 7623SOL    HW234329   2.450   3.220   9.572  0.8351 -0.4654 -0.0886
 7624SOL     OW34330   4.710   4.667  15.782  0.4632 -0.2705 -1.0297
 7624SOL    HW134331   0.006   4.574  15.797  0.7722  0.0151  0.2955
 7624SOL    HW234332   0.072   4.703  15.758  0.0706 -0.1304 -2.2146
 7625SOL     OW34333   3.842   0.220   2.508 -0.2285 -0.4893 -0.6137
 7625SOL    HW134334   3.932   0.243   2.485 -0.1602 -0.1079  0.0275
 7625SOL    HW234335   3.810   0.306   2.533 -0.1063 -0.6643  0.1440
 7626SOL     OW34336   2.163   0.785  17.268  0.5892 -0.3118 -0.2222
 7626SOL    HW134337   2.127   0.750  17.186 -0.0396  1.7319 -0.8071
 7626SOL    HW234338   2.180   0.877  17.249  0.8296 -0.0265  1.3553
 7627SOL     OW34339   3.815   0.129   6.153 -0.1177  0.0487  0.4683
 7627SOL    HW134340   3.790   0.038   6.165 -0.8524 -0.0269 -1.6755
 7627SOL    HW234341   3.731   0.168   6.129  0.8062  1.9490  0.2857
 7628SOL     OW34342   2.771   4.597   9.909  0.0320 -0.4328 -0.5006
 7628SOL    HW134343   2.747   4.649   9.833 -1.0325 -1.0739 -0.5841
 7628SOL    HW234344   2.714   4.524   9.888 -0.2794 -0.1623 -0.6015
 7629SOL     OW34345   3.772   4.017   0.686 -0.0416  0.1633 -0.1514
 7629SOL    HW134346   3.700   3.957   0.706  1.1218 -1.4859 -0.9292
 7629SOL    HW234347   3.790   4.053   0.772  0.4890  0.0109 -0.2017
 7630SOL     OW34348   2.751   0.578   0.650 -0.0238 -0.2069  0.1547
 7630SOL    HW134349   2.662   0.542   0.646  1.1588 -3.4134  3.6208
 7630SOL    HW234350   2.734   0.671   0.668 -2.0253 -0.4492 -0.4917
 7631SOL     OW34351   3.177   0.339   4.000 -0.6687  0.3292  0.5715
 7631SOL    HW134352   3.241   0.270   3.980 -0.5625  0.4339  0.5508
 7631SOL    HW234353   3.239   0.411   4.014  0.3558 -0.5639  0.6623
 7632SOL     OW34354   1.151   2.599  10.527 -0.2507 -0.1955  0.0841
 7632SOL    HW134355   1.057   2.598  10.545 -0.0228  0.2042  1.2383
 7632SOL    HW234356   1.196   2.628  10.606 -0.3590 -0.9824  0.4351
 7633SOL     OW34357   2.772   2.091   5.398  0.4066 -0.0080  0.0707
 7633SOL    HW134358   2.687   2.129   5.374  0.5898  1.8971  2.3977
 7633SOL    HW234359   2.821   2.173   5.400  0.1549  0.1575 -0.5762
 7634SOL     OW34360   0.571   1.703   3.372 -0.1396  0.1023  0.0068
 7634SOL    HW134361   0.498   1.746   3.416  0.1958  1.5125 -0.8036
 7634SOL    HW234362   0.567   1.619   3.417 -1.0232  0.6173  0.8866
 7635SOL     OW34363   0.255   1.021   2.720 -0.2193 -0.5277  0.1154
 7635SOL    HW134364   0.278   1.114   2.716  0.5285 -0.6189  2.2771
 7635SOL    HW234365   0.336   0.972   2.708  1.1029  1.4415  0.8868
 7636SOL     OW34366   1.812   2.499   3.770 -0.5736  0.0610  0.2625
 7636SOL    HW134367   1.848   2.496   3.859  0.8456 -2.2444 -0.3979
 7636SOL    HW234368   1.776   2.587   3.783  1.8637  1.1207 -0.0709
 7637SOL     OW34369   0.248   0.955   7.392 -0.2563  0.6908  0.0075
 7637SOL    HW134370   0.234   1.011   7.316  0.3342 -0.7493 -1.1591
 7637SOL    HW234371   0.230   0.870   7.351  0.7658 -0.4384  1.8987
 7638SOL     OW34372   3.979   3.347   8.504  0.2173 -0.3837  0.6595
 7638SOL    HW134373   3.941   3.325   8.419 -1.4875  0.8688  1.0805
 7638SOL    HW234374   4.029   3.271   8.532  0.3296 -0.4596  0.2601
 7639SOL     OW34375   0.581   1.165  13.293 -0.5624 -0.1115 -0.8618
 7639SOL    HW134376   0.606   1.237  13.235  0.2660 -1.5173 -2.2421
 7639SOL    HW234377   0.509   1.119  13.250 -0.7360 -1.6597  1.1098
 7640SOL     OW34378   2.317   4.098   5.940  0.1771 -0.6438  0.3633
 7640SOL    HW134379   2.354   4.111   6.027  0.5177 -1.1403  0.2905
 7640SOL    HW234380   2.232   4.055   5.950  1.5805 -3.0631  1.5787
 7641SOL     OW34381   4.691   1.093   0.797  0.3353  0.0632  0.9135
 7641SOL    HW134382   4.618   1.120   0.741  0.9401  1.2237  0.6783
 7641SOL    HW234383   0.023   1.066   0.723 -0.9189 -3.6321  1.3273
 7642SOL     OW34384   1.858   4.707   1.020 -0.7058  0.3497 -0.6094
 7642SOL    HW134385   1.842   4.689   1.112  0.8931 -0.5420 -0.5124
 7642SOL    HW234386   1.937   0.037   1.016 -1.0482  0.9583  0.7119
 7643SOL     OW34387   0.584   3.920  16.520  0.5293  0.2840  0.0119
 7643SOL    HW134388   0.558   3.847  16.464 -1.1386 -0.0127  1.1651
 7643SOL    HW234389   0.509   3.922  16.580  0.0588  1.3470 -0.6035
 7644SOL     OW34390   2.075   4.175   4.764  0.6044 -0.1861  0.7675
 7644SOL    HW134391   2.005   4.162   4.829 -0.5024  1.3014 -0.1247
 7644SOL    HW234392   2.133   4.123   4.820 -1.0578 -0.7113  2.0115
 7645SOL     OW34393   3.780   4.702   5.332  0.2764  0.3600  0.4084
 7645SOL    HW134394   3.780   4.620   5.383 -0.4940 -0.6553 -1.2189
 7645SOL    HW234395   3.703   0.025   5.367  2.1765  2.5922  1.6854
 7646SOL     OW34396   2.992   3.584   3.863  0.5713  0.2550  0.6189
 7646SOL    HW134397   3.002   3.545   3.776 -0.7438  0.6951  0.2590
 7646SOL    HW234398   2.955   3.666   3.830 -0.7057 -1.2441 -1.7178
 7647SOL     OW34399   4.200   2.098  12.443  0.0831  0.8128 -0.0822
 7647SOL    HW134400   4.115   2.055  12.442  0.4913  0.0465 -1.0503
 7647SOL    HW234401   4.176   2.188  12.465  0.2307  0.7569  0.3198
 7648SOL     OW34402   2.335   3.143  17.509 -0.1007 -0.4196  0.1110
 7648SOL    HW134403   2.427   3.165  17.500  0.1532 -1.5871 -0.1158
 7648SOL    HW234404   2.314   3.142  17.415 -0.1902 -1.2396  0.1414
 7649SOL     OW34405   1.758   3.906   7.198 -0.5912 -0.0727  0.3241
 7649SOL    HW134406   1.825   3.970   7.221  0.5660 -0.7070 -1.3059
 7649SOL    HW234407   1.696   3.907   7.272 -0.1353 -0.1745  0.7066
 7650SOL     OW34408   0.944   2.897   1.115  0.1846 -0.4669  0.5165
 7650SOL    HW134409   0.944   2.811   1.074  0.3950 -0.3672  0.3094
 7650SOL    HW234410   0.941   2.956   1.040 -0.8601 -1.4249 -0.1952
 7651SOL     OW34411   4.483   2.349  12.928  0.6141 -0.3439  0.1986
 7651SOL    HW134412   4.541   2.317  12.858  1.3505  1.3260  0.0392
 7651SOL    HW234413   4.468   2.269  12.977 -0.0461  0.1737  0.8420
 7652SOL     OW34414   3.680   2.406   6.830  0.3537 -0.2374 -0.6553
 7652SOL    HW134415   3.759   2.396   6.777 -0.1123 -0.4939 -1.3027
 7652SOL    HW234416   3.676   2.323   6.878  1.9933  1.0492  1.6853
 7653SOL     OW34417   2.269   1.462   5.733  0.3273  0.3272  0.5508
 7653SOL    HW134418   2.343   1.523   5.733 -0.8078  1.7131 -0.7277
 7653SOL    HW234419   2.300   1.413   5.809  2.1064 -0.9239 -0.9960
 7654SOL     OW34420   1.689   1.030   1.952 -0.0411 -0.6214  0.4198
 7654SOL    HW134421   1.735   1.058   1.872  2.5971 -4.7466  0.5287
 7654SOL    HW234422   1.613   0.982   1.919  1.3618 -1.3426 -1.7186
 7655SOL     OW34423   1.397   0.798   2.040 -0.4233 -0.1436  0.3645
 7655SOL    HW134424   1.358   0.711   2.044  0.3341 -0.4941  0.0052
 7655SOL    HW234425   1.448   0.794   1.959 -0.4856  2.3814  0.2069
 7656SOL     OW34426   1.648   1.944  16.248  0.1913 -0.3053 -0.2915
 7656SOL    HW134427   1.618   1.995  16.173 -1.4149  0.1319  0.6679
 7656SOL    HW234428   1.722   1.900  16.206  0.2326 -0.1244 -0.4119
 7657SOL     OW34429   1.779   2.097   2.940 -0.2871  0.8484  0.0884
 7657SOL    HW134430   1.792   2.183   2.981 -1.8849  0.2586  1.7982
 7657SOL    HW234431   1.850   2.041   2.972 -1.7061 -1.8902 -1.5551
 7658SOL     OW34432   0.534   0.268  14.397  0.2367 -0.3402 -0.5231
 7658SOL    HW134433   0.549   0.181  14.434 -0.2629 -0.4858 -0.6647
 7658SOL    HW234434   0.623   0.275  14.362 -0.2509  1.2274 -1.4406
 7659SOL     OW34435   2.491   2.440  17.013 -0.4188 -0.3734  0.2930
 7659SOL    HW134436   2.399   2.414  17.011 -0.8643  1.3394 -2.5095
 7659SOL    HW234437   2.536   2.358  17.033 -0.1642 -0.5736 -1.1004
 7660SOL     OW34438   3.998   3.081   7.120  0.7922  0.6986  0.1386
 7660SOL    HW134439   3.952   3.012   7.072  1.1099  0.6420 -0.0841
 7660SOL    HW234440   4.079   3.091   7.070  1.4153  1.6574  1.3397
 7661SOL     OW34441   0.349   2.865   3.533 -0.1354 -0.3312  0.0522
 7661SOL    HW134442   0.391   2.898   3.454  1.0094  1.5100  1.4349
 7661SOL    HW234443   0.416   2.883   3.599 -1.9320  1.5072  1.3684
 7662SOL     OW34444   0.578   0.232   3.996 -0.5657 -0.2249 -0.0858
 7662SOL    HW134445   0.657   0.278   3.967 -0.1387 -0.6059  0.4765
 7662SOL    HW234446   0.577   0.153   3.942  2.4175  1.6926 -2.9550
 7663SOL     OW34447   4.347   2.680  17.661 -0.1352 -0.4955  0.1005
 7663SOL    HW134448   4.414   2.748  17.658 -0.3875 -0.3348 -1.5649
 7663SOL    HW234449   4.361   2.657   0.059 -1.5339  0.3947  0.5507
 7664SOL     OW34450   1.633   2.125   1.509  0.2240  0.6260  0.2780
 7664SOL    HW134451   1.667   2.045   1.467  0.8724  1.3285 -0.5305
 7664SOL    HW234452   1.581   2.160   1.437 -0.0613  0.7463  0.5444
 7665SOL     OW34453   2.551   1.315   6.478  0.0752 -0.2277 -0.3728
 7665SOL    HW134454   2.543   1.231   6.434  0.1595  0.7886 -2.3254
 7665SOL    HW234455   2.472   1.355   6.440  0.1181 -1.8910 -2.2175
 7666SOL     OW34456   3.027   1.017   2.161 -0.4658 -0.6570 -0.2747
 7666SOL    HW134457   3.034   1.006   2.255 -1.8835 -0.0112 -0.0952
 7666SOL    HW234458   3.038   0.931   2.120  1.4822  0.0527 -1.2368
 7667SOL     OW34459   0.427   0.352   7.779 -0.4963 -0.4652  0.2596
 7667SOL    HW134460   0.497   0.415   7.758  0.1336 -0.5016  2.2181
 7667SOL    HW234461   0.427   0.359   7.875  1.4876 -0.0982  0.2445
 7668SOL     OW34462   3.569   1.949  12.262 -0.2759 -0.2934  0.3215
 7668SOL    HW134463   3.591   1.859  12.284 -0.6880 -0.2915  0.7456
 7668SOL    HW234464   3.651   1.988  12.292 -1.3881 -0.5298  3.7119
 7669SOL     OW34465   0.441   0.967   5.469  0.5046 -0.4840 -0.1082
 7669SOL    HW134466   0.459   0.874   5.452  0.0817 -0.4378 -0.8294
 7669SOL    HW234467   0.433   0.998   5.379  0.6322 -1.5373 -0.4906
 7670SOL     OW34468   0.480   0.760   6.145 -0.1183  0.7098 -0.0647
 7670SOL    HW134469   0.405   0.727   6.095 -0.6533  0.3317  0.9741
 7670SOL    HW234470   0.505   0.834   6.091  0.8771  0.2896 -0.1681
 7671SOL     OW34471   1.478   4.673   2.372  0.0602  0.2968  0.4381
 7671SOL    HW134472   1.403   4.614   2.364  1.2629 -1.0154 -1.1405
 7671SOL    HW234473   1.544   4.605   2.356 -1.5419 -0.9072 -1.0071
 7672SOL     OW34474   4.190   3.644   6.922  0.1323  0.6360 -0.2588
 7672SOL    HW134475   4.215   3.715   6.981 -1.9374  0.4143  0.8797
 7672SOL    HW234476   4.115   3.679   6.873 -0.4406  0.3397  0.4123
 7673SOL     OW34477   4.115   0.234  16.248 -0.2474  0.2579  0.4736
 7673SOL    HW134478   4.031   0.196  16.275 -0.7837  0.2383 -1.2693
 7673SOL    HW234479   4.078   0.302  16.192  2.3738  0.5824 -0.8681
 7674SOL     OW34480   3.047   0.812   3.021  0.6351 -0.2658 -0.5380
 7674SOL    HW134481   3.129   0.860   3.031  0.7832 -1.1389  2.7368
 7674SOL    HW234482   3.042   0.773   3.109 -0.1737  2.1172  0.4965
 7675SOL     OW34483   1.337   3.184   2.247  0.6317 -0.4165  0.2313
 7675SOL    HW134484   1.261   3.186   2.189  0.2771  0.2351  0.7321
 7675SOL    HW234485   1.404   3.202   2.180  1.3743  0.1727  1.1371
 7676SOL     OW34486   2.555   1.840   3.428  0.4765 -0.5981 -0.0896
 7676SOL    HW134487   2.468   1.800   3.432  0.1378  0.1781  0.2370
 7676SOL    HW234488   2.589   1.810   3.512  1.7394  1.1479  0.0158
 7677SOL     OW34489   4.554   3.412   2.960 -0.4593 -0.5477  0.2280
 7677SOL    HW134490   4.588   3.412   2.870  2.4266 -0.0602  1.3238
 7677SOL    HW234491   4.461   3.397   2.941 -0.1948  1.1313 -2.3675
 7678SOL     OW34492   4.344   4.499   9.281 -0.0425 -0.1253  0.0352
 7678SOL    HW134493   4.308   4.490   9.192 -0.6408  1.2768  0.1369
 7678SOL    HW234494   4.315   4.585   9.310 -0.9884 -0.0287 -1.1618
 7679SOL     OW34495   3.083   4.614  16.939  0.1857 -0.1449 -0.2667
 7679SOL    HW134496   3.011   4.551  16.937 -0.2878  0.3801  0.0707
 7679SOL    HW234497   3.092   4.644  16.849  0.9476 -0.0695 -0.1695
 7680SOL     OW34498   1.763   1.103  10.757  0.2451 -0.2536 -0.0893
 7680SOL    HW134499   1.725   1.169  10.699 -2.1672 -0.3252  1.4083
 7680SOL    HW234500   1.750   1.144  10.842  0.5881 -1.2275  0.4420
 7681SOL     OW34501   1.290   2.058  10.354  0.3867  0.0066 -0.3153
 7681SOL    HW134502   1.295   2.142  10.401 -1.9193 -0.4619  0.8218
 7681SOL    HW234503   1.374   2.047  10.311 -0.1762 -3.2202 -0.5677
 7682SOL     OW34504   3.603   2.855  10.693 -0.1532 -0.0091  0.1190
 7682SOL    HW134505   3.532   2.835  10.755 -1.4055 -2.2520 -2.0615
 7682SOL    HW234506   3.574   2.938  10.654  1.8382  0.4916 -0.2838
 7683SOL     OW34507   1.390   0.073   0.384  0.2267 -0.3113  0.0965
 7683SOL    HW134508   1.442   0.025   0.449  0.9067 -0.1936 -0.3662
 7683SOL    HW234509   1.452   0.136   0.348 -1.7190  0.8616 -1.1509
 7684SOL     OW34510   3.451   0.085   5.750  0.1351  0.2651  0.2485
 7684SOL    HW134511   3.361   0.053   5.738  0.9046 -1.6344 -0.4375
 7684SOL    HW234512   3.488   0.033   5.821  0.3660  2.1885  1.5248
 7685SOL     OW34513   2.085   1.702   6.815 -0.1820  0.1660 -0.5553
 7685SOL    HW134514   2.159   1.748   6.775  1.0476 -2.2995 -1.0836
 7685SOL    HW234515   2.041   1.771   6.866 -2.4943 -2.4827  0.9945
 7686SOL     OW34516   4.589   3.309  13.244 -0.3307 -0.0669 -0.1567
 7686SOL    HW134517   4.511   3.284  13.194  0.5434 -0.6212 -1.2153
 7686SOL    HW234518   4.584   3.253  13.321  3.5628 -0.8215 -0.4552
 7687SOL     OW34519   0.099   4.424   8.590 -0.1360 -0.4218  0.2503
 7687SOL    HW134520   0.045   4.444   8.514 -2.2234 -0.9692  1.5955
 7687SOL    HW234521   0.048   4.358   8.636 -0.6285  0.1189  0.4853
 7688SOL     OW34522   0.577   0.219   9.050  0.4294 -0.5489 -0.0064
 7688SOL    HW134523   0.639   0.148   9.069  2.6712  1.0163 -1.4792
 7688SOL    HW234524   0.538   0.216   9.137  0.5711  0.5097  0.0844
 7689SOL     OW34525   0.560   2.128   6.435 -0.0868  0.2330 -0.7500
 7689SOL    HW134526   0.606   2.212   6.430 -0.4102  0.4006 -0.9254
 7689SOL    HW234527   0.566   2.105   6.527  2.2379 -0.6723 -1.1249
 7690SOL     OW34528   0.937   0.520   6.941 -0.6140 -0.0239 -0.6025
 7690SOL    HW134529   0.852   0.496   6.978 -1.1981 -0.8386 -2.4838
 7690SOL    HW234530   0.986   0.445   6.908  0.4780  1.4159 -2.2806
 7691SOL     OW34531   1.237   0.205   1.141  0.3634  0.4449  0.2632
 7691SOL    HW134532   1.275   0.263   1.075  0.3400  0.4163  0.2247
 7691SOL    HW234533   1.149   0.189   1.107  0.0934  0.1591  1.0897
 7692SOL     OW34534   0.742   2.206   3.500  0.0800  0.1682 -0.4648
 7692SOL    HW134535   0.831   2.184   3.472  0.7163  1.4540  0.5514
 7692SOL    HW234536   0.740   2.298   3.476  1.3053  0.2874 -0.0954
 7693SOL     OW34537   2.304   1.122   7.992 -0.3018  0.3865 -0.4712
 7693SOL    HW134538   2.367   1.060   7.955 -0.9726 -0.6983  0.2245
 7693SOL    HW234539   2.325   1.115   8.085  1.8306 -0.1957 -0.9871
 7694SOL     OW34540   4.488   0.098   4.965  0.0370  0.0223 -0.2666
 7694SOL    HW134541   4.465   0.126   4.877 -1.3225 -0.8256 -0.1705
 7694SOL    HW234542   4.433   0.021   4.971  0.3286 -0.3293 -2.2328
 7695SOL     OW34543   4.146   2.496  14.813  0.3218 -0.4112 -0.1682
 7695SOL    HW134544   4.223   2.512  14.867  0.0237  3.4340 -0.8480
 7695SOL    HW234545   4.106   2.583  14.815 -0.3287 -0.7355  1.1974
 7696SOL     OW34546   1.268   0.643   9.330  0.4145 -0.0817  0.1581
 7696SOL    HW134547   1.305   0.726   9.298  1.3601 -0.7961 -0.6233
 7696SOL    HW234548   1.336   0.578   9.314 -0.5818 -0.7553 -1.3799
 7697SOL     OW34549   4.349   3.263   7.441  0.0344 -0.2562  0.4747
 7697SOL    HW134550   4.301   3.181   7.453 -2.5013  0.6445 -3.5781
 7697SOL    HW234551   4.371   3.288   7.531  2.2094 -1.0058  0.1754
 7698SOL     OW34552   4.398   4.328   4.535  0.5856  0.1895 -0.0138
 7698SOL    HW134553   4.392   4.385   4.459  1.9396  1.6483  0.9823
 7698SOL    HW234554   4.409   4.397   4.600 -0.9979  0.2069  0.2418
 7699SOL     OW34555   1.357   4.158   1.945  0.3300 -0.2939 -0.1310
 7699SOL    HW134556   1.308   4.114   2.014  0.6250  1.5589  1.2451
 7699SOL    HW234557   1.415   4.085   1.921  2.4464  0.9286  1.2649
 7700SOL     OW34558   4.279   0.991   7.767 -0.0137 -0.7138  0.5995
 7700SOL    HW134559   4.301   0.940   7.846 -0.3042 -1.8532 -0.0476
 7700SOL    HW234560   4.357   0.977   7.713 -0.9955 -1.2539 -0.6934
 7701SOL     OW34561   1.846   0.843  10.518  0.4375 -0.2742  0.2566
 7701SOL    HW134562   1.895   0.801  10.589  0.9187  2.1223  1.3581
 7701SOL    HW234563   1.879   0.807  10.436 -1.2142  1.4499 -1.1828
 7702SOL     OW34564   0.246   2.425   5.524  0.0315 -0.6665 -0.5938
 7702SOL    HW134565   0.233   2.438   5.618  0.6309  0.8297 -0.7164
 7702SOL    HW234566   0.198   2.344   5.506 -0.5242 -0.0278 -2.0237
 7703SOL     OW34567   0.759   3.635  15.417  0.6392 -0.1171 -0.0841
 7703SOL    HW134568   0.794   3.698  15.354  2.1132 -1.6093 -0.7465
 7703SOL    HW234569   0.795   3.551  15.388  0.3542  0.7013 -2.8670
 7704SOL     OW34570   1.545   4.253   2.270 -0.2590  0.2380 -0.2532
 7704SOL    HW134571   1.517   4.268   2.361  0.1672  0.7605 -0.2148
 7704SOL    HW234572   1.471   4.195   2.252  0.6432 -1.5062  1.6392
 7705SOL     OW34573   0.019   0.321   4.469 -0.7556 -0.0384 -0.4463
 7705SOL    HW134574   0.106   0.309   4.430  0.4515  0.5959  2.0659
 7705SOL    HW234575   4.683   0.281   4.405 -1.5345 -1.4753  1.1785
 7706SOL     OW34576   1.257   3.034  17.161 -0.6163  0.1197  0.1830
 7706SOL    HW134577   1.343   3.009  17.194  0.1906  2.0450 -0.4993
 7706SOL    HW234578   1.260   3.001  17.071  1.7383 -0.9671  0.6588
 7707SOL     OW34579   1.059   3.227   9.065 -0.1698  0.1605 -0.1563
 7707SOL    HW134580   1.132   3.167   9.076  0.8366  1.4026 -0.0058
 7707SOL    HW234581   0.988   3.170   9.096 -0.8667  2.4980  2.5942
 7708SOL     OW34582   0.138   1.385   3.365 -0.5963  0.4987  0.0182
 7708SOL    HW134583   0.154   1.302   3.410 -0.0860  0.6660  0.1369
 7708SOL    HW234584   0.188   1.445   3.419 -0.6480  0.1999  0.3993
 7709SOL     OW34585   0.985   2.836  14.069  0.1002  0.0715  0.2630
 7709SOL    HW134586   1.041   2.894  14.018  1.5043 -1.5927 -0.0773
 7709SOL    HW234587   1.017   2.748  14.050  0.5308  1.1191 -3.7686
 7710SOL     OW34588   4.089   2.650   1.541  0.1758 -0.1979  0.2229
 7710SOL    HW134589   4.052   2.716   1.599  0.1975  0.1591 -0.1687
 7710SOL    HW234590   4.184   2.649   1.554 -0.1921 -0.4901  2.7488
 7711SOL     OW34591   3.132   2.427  11.958  0.1157  0.4521  0.3548
 7711SOL    HW134592   3.165   2.476  12.033 -0.8674  1.3616  0.1992
 7711SOL    HW234593   3.064   2.485  11.923  0.1341 -0.5427 -1.3405
 7712SOL     OW34594   3.032   1.765   2.501  0.0557  0.2633 -0.0988
 7712SOL    HW134595   2.970   1.694   2.488 -0.3246  0.0522  2.7744
 7712SOL    HW234596   2.978   1.828   2.548 -0.6878 -0.3047 -0.1899
 7713SOL     OW34597   2.825   1.808   7.684 -0.2929  0.0667 -0.0875
 7713SOL    HW134598   2.828   1.781   7.592 -0.8512  2.9644 -0.9658
 7713SOL    HW234599   2.747   1.861   7.698 -0.3475 -0.2941  1.0069
 7714SOL     OW34600   2.410   1.135   7.298 -0.1221  0.0431 -0.0818
 7714SOL    HW134601   2.469   1.158   7.227  0.1990 -2.0899 -0.5042
 7714SOL    HW234602   2.431   1.043   7.312  2.1538  0.7799  1.3222
 7715SOL     OW34603   4.626   0.016   3.173  0.0577 -0.1293 -0.1647
 7715SOL    HW134604   4.542   0.038   3.134 -0.2520 -2.6599 -0.9246
 7715SOL    HW234605   4.593   4.698   3.253 -0.5594 -0.7847 -0.7562
 7716SOL     OW34606   2.403   1.348   4.697 -0.3034  0.5073 -0.0398
 7716SOL    HW134607   2.357   1.399   4.631 -0.9018  1.6698  1.2864
 7716SOL    HW234608   2.346   1.271   4.704  1.1017 -0.4642  0.6921
 7717SOL     OW34609   2.811   1.317   9.945 -0.4080 -0.1747 -0.8695
 7717SOL    HW134610   2.856   1.367   9.876 -1.7348  0.2909 -1.4038
 7717SOL    HW234611   2.726   1.358   9.932  0.5297  1.9284 -0.4361
 7718SOL     OW34612   1.341   2.840  14.001  0.2023 -0.0576 -0.1672
 7718SOL    HW134613   1.351   2.808  14.090 -0.1407 -0.4795 -0.2826
 7718SOL    HW234614   1.395   2.785  13.944  0.6105 -1.1522  1.2894
 7719SOL     OW34615   0.772   1.769   5.809 -0.2334 -0.7949 -0.2541
 7719SOL    HW134616   0.698   1.827   5.827  0.9307  0.3849  0.6749
 7719SOL    HW234617   0.743   1.747   5.720 -1.0515 -2.5934  0.4430
 7720SOL     OW34618   0.946   2.167   3.321  0.2312 -0.5398 -0.3706
 7720SOL    HW134619   0.999   2.225   3.266  0.3937 -0.2559  0.0834
 7720SOL    HW234620   0.939   2.094   3.259  1.3079 -2.0285  1.2171
 7721SOL     OW34621   0.132   3.578   6.765 -0.0238 -0.3317  0.6500
 7721SOL    HW134622   0.193   3.589   6.691  1.7878 -2.5461  1.8004
 7721SOL    HW234623   0.050   3.622   6.745 -0.5108 -1.7753 -0.5431
 7722SOL     OW34624   4.451   4.175   8.312  0.0169  0.2935 -0.1253
 7722SOL    HW134625   4.454   4.079   8.307  0.5383  0.3845 -1.5015
 7722SOL    HW234626   4.488   4.204   8.229  0.2091 -0.2908 -0.2441
 7723SOL     OW34627   2.054   2.413   7.294 -0.4898  0.5138 -0.8228
 7723SOL    HW134628   2.001   2.491   7.274  1.4980  1.4895 -2.3013
 7723SOL    HW234629   2.027   2.392   7.383 -2.8279  0.5182 -1.5218
 7724SOL     OW34630   2.382   0.006  17.139  0.0346 -0.3634 -0.0788
 7724SOL    HW134631   2.336   0.070  17.193  0.7117  0.0651 -0.0204
 7724SOL    HW234632   2.418   4.666  17.201 -0.0050  0.7954  1.1168
 7725SOL     OW34633   0.351   3.624   8.086  0.1595  0.1540  0.4092
 7725SOL    HW134634   0.409   3.700   8.085  1.5476 -0.8847 -0.1803
 7725SOL    HW234635   0.403   3.553   8.125 -0.7756 -0.8499 -0.1664
 7726SOL     OW34636   2.493   0.658   7.746  0.5767  0.3167 -0.2436
 7726SOL    HW134637   2.555   0.700   7.687  1.2491 -1.8140 -1.0638
 7726SOL    HW234638   2.445   0.733   7.781 -0.9472 -0.2410 -1.1117
 7727SOL     OW34639   2.532   4.264   1.296  0.2025 -0.1890 -0.2583
 7727SOL    HW134640   2.561   4.176   1.273  0.0567 -0.0333 -1.0360
 7727SOL    HW234641   2.456   4.281   1.240  0.3427  1.1547 -0.0501
 7728SOL     OW34642   2.424   2.646   6.419  0.0403  0.0581  0.0468
 7728SOL    HW134643   2.509   2.603   6.412 -0.6075 -1.0963 -0.6412
 7728SOL    HW234644   2.407   2.651   6.325  0.3374  0.3710  0.0077
 7729SOL     OW34645   0.990   0.990   5.243 -0.0566 -0.1334  0.5802
 7729SOL    HW134646   1.005   1.081   5.216  0.8025 -0.6280 -0.6431
 7729SOL    HW234647   0.916   0.995   5.302 -0.5202  2.4668 -0.2137
 7730SOL     OW34648   1.757   4.694   1.268  0.3399 -0.3402 -0.6013
 7730SOL    HW134649   1.665   4.713   1.285  0.4607 -0.9210  0.7467
 7730SOL    HW234650   1.772   4.612   1.316  0.4981 -0.6557 -1.1911
 7731SOL     OW34651   1.131   2.367   3.372 -0.1217 -0.2023  1.1108
 7731SOL    HW134652   1.162   2.457   3.364  0.6206 -0.3802  1.9422
 7731SOL    HW234653   1.177   2.331   3.296 -0.3232  0.3036  0.7528
 7732SOL     OW34654   3.813   4.439  11.739  0.1799  0.2107  0.2192
 7732SOL    HW134655   3.865   4.425  11.818 -1.4397  0.0627  1.2590
 7732SOL    HW234656   3.805   4.347  11.711  1.6153 -1.1029  4.1134
 7733SOL     OW34657   3.587   3.096   9.059  0.2259  0.6626 -0.2327
 7733SOL    HW134658   3.673   3.137   9.046  0.9770 -0.3663  1.5449
 7733SOL    HW234659   3.522   3.154   9.020 -0.2096 -0.3922 -1.0933
 7734SOL     OW34660   3.860   3.760   4.076  0.0872  0.2145 -0.4942
 7734SOL    HW134661   3.808   3.742   3.998 -0.5467 -1.3828  0.3111
 7734SOL    HW234662   3.872   3.852   4.051  3.3349  0.1377  0.7949
 7735SOL     OW34663   2.025   3.410   0.541 -0.0890 -0.7962 -0.2332
 7735SOL    HW134664   1.965   3.360   0.595  1.4090 -1.9285  0.3983
 7735SOL    HW234665   2.014   3.502   0.566  0.9870 -0.2615 -1.6782
 7736SOL     OW34666   0.858   1.686   4.104 -0.6033  0.1379 -0.1245
 7736SOL    HW134667   0.792   1.692   4.173 -1.3218 -1.0593 -0.7013
 7736SOL    HW234668   0.907   1.614   4.142 -0.1841  1.5652  2.0554
 7737SOL     OW34669   0.277   3.964   7.860  0.0588  0.5429  0.3634
 7737SOL    HW134670   0.359   4.011   7.878 -0.6010  1.9457 -0.2901
 7737SOL    HW234671   0.299   3.881   7.902  0.4989  1.1151  1.2763
 7738SOL     OW34672   1.444   1.752   6.265  0.4735  0.2103 -0.1196
 7738SOL    HW134673   1.443   1.784   6.356 -0.5144  0.4984 -0.2322
 7738SOL    HW234674   1.524   1.785   6.225  2.7429 -0.6079  3.6842
 7739SOL     OW34675   2.737   0.057   9.339  0.4047 -0.3779  0.2101
 7739SOL    HW134676   2.677   0.078   9.268  0.0646 -0.0301  0.5971
 7739SOL    HW234677   2.669   0.029   9.401  0.9557  2.7939  2.2462
 7740SOL     OW34678   1.874   3.926   1.950  0.5680 -0.3874 -0.1098
 7740SOL    HW134679   1.947   3.887   1.903  0.8783  1.3585 -1.1090
 7740SOL    HW234680   1.808   3.858   1.937  0.5806 -0.4805  0.3104
 7741SOL     OW34681   3.735   0.380  15.035  0.1710 -0.1232  0.2696
 7741SOL    HW134682   3.704   0.471  15.030 -1.5617 -0.8519 -2.2496
 7741SOL    HW234683   3.815   0.390  15.087  1.1954  0.9177 -1.5085
 7742SOL     OW34684   3.440   4.004  13.507  0.2281  0.5912  0.4793
 7742SOL    HW134685   3.379   3.933  13.486 -0.4354  1.5227 -0.6804
 7742SOL    HW234686   3.424   4.020  13.600 -1.6440  0.7047  0.1369
 7743SOL     OW34687   0.335   0.004   2.880  0.6425  0.0724  0.3498
 7743SOL    HW134688   0.245   4.693   2.888  0.2217  0.9322 -0.8280
 7743SOL    HW234689   0.333   0.084   2.934  1.4208 -1.1590  2.2234
 7744SOL     OW34690   3.398   0.744   6.267 -0.1127 -0.1189 -0.1176
 7744SOL    HW134691   3.373   0.686   6.194 -0.0993  0.2705 -0.4341
 7744SOL    HW234692   3.485   0.705   6.276 -0.7821 -1.4251  0.6686
 7745SOL     OW34693   1.228   2.177  12.554  0.0120  0.7055  0.0862
 7745SOL    HW134694   1.271   2.093  12.535  1.4352  1.3460  0.4804
 7745SOL    HW234695   1.227   2.215  12.467 -1.7535 -0.0894 -0.2457
 7746SOL     OW34696   3.421   3.431   4.781  0.2875  0.0579 -1.0153
 7746SOL    HW134697   3.503   3.389   4.751  1.5741  0.1617  2.3306
 7746SOL    HW234698   3.397   3.376   4.856  0.9487 -0.7474 -1.3830
 7747SOL     OW34699   3.637   0.255   6.787  0.1051 -0.0543  0.0484
 7747SOL    HW134700   3.714   0.304   6.759 -0.4497 -0.1108 -1.6044
 7747SOL    HW234701   3.594   0.325   6.836  0.3323  0.1318 -0.0216
 7748SOL     OW34702   0.602   3.201   6.658  0.3839 -0.2166 -0.1740
 7748SOL    HW134703   0.648   3.279   6.689  0.8987  0.0746 -1.6923
 7748SOL    HW234704   0.676   3.144   6.678  0.0577 -0.6660 -0.2472
 7749SOL     OW34705   1.962   3.887   6.945  0.2828 -0.1677  0.1397
 7749SOL    HW134706   2.043   3.860   6.988  1.0531  1.1266 -0.4903
 7749SOL    HW234707   1.916   3.926   7.019 -0.7187 -0.5702 -0.2719
 7750SOL     OW34708   2.468   3.815   9.579  0.2312 -0.4033 -0.0723
 7750SOL    HW134709   2.510   3.815   9.665  0.6155  0.7584 -0.2692
 7750SOL    HW234710   2.420   3.898   9.578 -1.5447 -1.4409 -2.1070
 7751SOL     OW34711   1.842   2.616   5.184  0.4364  0.3321 -0.2794
 7751SOL    HW134712   1.881   2.650   5.103  2.2960  1.5973  1.1263
 7751SOL    HW234713   1.893   2.535   5.191 -1.4351 -0.6422  1.8042
 7752SOL     OW34714   0.510   0.045   6.632  0.0953  0.3615 -0.2272
 7752SOL    HW134715   0.491   0.033   6.539  2.3322 -0.0012 -0.6428
 7752SOL    HW234716   0.598   0.009   6.621 -0.3976 -0.7395 -0.6124
 7753SOL     OW34717   3.269   3.137  14.433 -0.7512  0.0391 -0.0586
 7753SOL    HW134718   3.222   3.103  14.357  1.6485 -1.9204 -0.6554
 7753SOL    HW234719   3.241   3.070  14.495  0.7086 -0.3803  0.1409
 7754SOL     OW34720   0.608   4.539  12.221 -0.1877 -0.2368 -0.1475
 7754SOL    HW134721   0.612   4.450  12.187 -0.8165 -0.8636  1.4298
 7754SOL    HW234722   0.560   4.573  12.145  1.2193 -1.7036 -1.7210
 7755SOL     OW34723   0.045   4.191   4.624 -0.2828  0.4030  0.0013
 7755SOL    HW134724   0.137   4.166   4.618  0.1529  1.6945  1.5885
 7755SOL    HW234725   0.045   4.286   4.630  1.1024  0.4622 -0.9886
 7756SOL     OW34726   1.531   2.483  15.757 -0.0760 -0.1354 -0.7827
 7756SOL    HW134727   1.444   2.448  15.740 -0.5013  0.1971  0.7200
 7756SOL    HW234728   1.530   2.560  15.700 -1.5657 -0.6585 -1.4560
 7757SOL     OW34729   0.171   0.728   7.247 -0.3127 -0.2467 -0.0243
 7757SOL    HW134730   0.193   0.679   7.168 -1.2376  0.1421 -0.5172
 7757SOL    HW234731   0.141   0.655   7.301 -0.8038 -0.4335 -0.5485
 7758SOL     OW34732   2.512   2.775   9.461 -0.1769 -0.2300  0.1359
 7758SOL    HW134733   2.536   2.867   9.445  2.4914 -0.5884  2.0272
 7758SOL    HW234734   2.591   2.729   9.432 -0.1374 -1.0695  1.5990
 7759SOL     OW34735   0.852   0.178   0.811 -0.0064  0.2945 -0.5715
 7759SOL    HW134736   0.796   0.133   0.875 -0.7950  1.2787 -0.5797
 7759SOL    HW234737   0.909   0.102   0.798  1.0080  1.0584 -0.5118
 7760SOL     OW34738   1.695   2.220   8.866 -0.1332  0.1443  0.0044
 7760SOL    HW134739   1.600   2.214   8.860 -0.0911 -0.4001 -0.1043
 7760SOL    HW234740   1.718   2.310   8.840 -1.4915  0.2564 -0.8245
 7761SOL     OW34741   1.598   1.633   3.366 -0.3505  0.0737 -0.4859
 7761SOL    HW134742   1.661   1.579   3.318  1.1893  1.4453  0.0413
 7761SOL    HW234743   1.517   1.627   3.315  0.3631  2.1850 -1.8726
 7762SOL     OW34744   3.393   3.254   8.950  0.0233 -0.1654  0.1133
 7762SOL    HW134745   3.402   3.292   9.037  1.2521 -3.1730  1.2843
 7762SOL    HW234746   3.413   3.327   8.891  0.4439 -0.2488  0.1560
 7763SOL     OW34747   0.716   0.040   5.901  0.0038 -0.2555 -0.5886
 7763SOL    HW134748   0.768   4.686   5.923 -0.0287 -0.1831 -0.2663
 7763SOL    HW234749   0.753   0.107   5.957  0.3177 -2.3647  1.7108
 7764SOL     OW34750   4.074   0.029   2.314 -0.0363  0.1769 -0.3405
 7764SOL    HW134751   4.093   4.673   2.263  0.3337  0.6090 -0.8772
 7764SOL    HW234752   3.979   0.021   2.314  0.0623 -1.0032 -0.4852
 7765SOL     OW34753   3.972   0.180   5.386 -0.2346 -0.0214  0.3629
 7765SOL    HW134754   3.927   0.107   5.343 -0.1514  0.3737 -0.3972
 7765SOL    HW234755   3.939   0.172   5.476  0.8390 -2.5589  0.5400
 7766SOL     OW34756   2.954   3.574   8.657  0.2874  0.0158  0.0483
 7766SOL    HW134757   2.963   3.643   8.722 -2.5728 -0.8105  1.3587
 7766SOL    HW234758   2.876   3.612   8.616 -0.5199  0.5263  2.0549
 7767SOL     OW34759   0.647   0.498   7.710  0.4776  0.6404  0.6430
 7767SOL    HW134760   0.712   0.445   7.664 -0.8905  0.3706 -0.9680
 7767SOL    HW234761   0.700   0.567   7.752  0.5182  0.8181  0.2997
 7768SOL     OW34762   2.472   3.448   7.043  0.2223  0.5765  0.1413
 7768SOL    HW134763   2.443   3.489   6.961 -1.6937  0.7967  0.9167
 7768SOL    HW234764   2.500   3.525   7.092 -0.8592  0.6399  0.6583
 7769SOL     OW34765   2.434   4.650  17.609 -0.4182 -0.7283  0.3077
 7769SOL    HW134766   2.472   4.563  17.594  1.0938 -0.1060  0.4863
 7769SOL    HW234767   2.404   4.638   0.006  1.2473  1.0265  1.0871
 7770SOL     OW34768   4.135   3.520   7.321  0.6745  0.3024  0.4108
 7770SOL    HW134769   4.184   3.449   7.278 -1.0252 -0.6648  0.0503
 7770SOL    HW234770   4.047   3.503   7.288  1.4408  0.8990 -1.9580
 7771SOL     OW34771   2.916   4.318  14.889  0.0148  0.5599 -0.1711
 7771SOL    HW134772   2.970   4.256  14.936  0.0179 -0.5691 -1.6865
 7771SOL    HW234773   2.896   4.269  14.810 -2.6981  1.0653  0.1780
 7772SOL     OW34774   3.662   3.758   4.866  0.0598  0.1824  0.1164
 7772SOL    HW134775   3.716   3.680   4.880  1.3703  1.5900  2.9129
 7772SOL    HW234776   3.626   3.731   4.782  2.5998 -2.8685 -0.0080
 7773SOL     OW34777   1.728   4.340  13.098 -0.1347  0.5295 -0.0091
 7773SOL    HW134778   1.806   4.396  13.110  0.9833 -0.3786 -3.1030
 7773SOL    HW234779   1.674   4.364  13.023  0.0704 -1.5467 -0.8030
 7774SOL     OW34780   2.151   1.772   4.224 -0.6301  0.3646 -0.0046
 7774SOL    HW134781   2.128   1.713   4.153  1.5550 -2.5046  1.6735
 7774SOL    HW234782   2.067   1.815   4.240 -1.1051 -0.7477  0.4312
 7775SOL     OW34783   2.410   3.641   9.995 -0.2262 -0.3227  0.3588
 7775SOL    HW134784   2.378   3.730   9.978 -0.5867 -0.8476 -1.7642
 7775SOL    HW234785   2.326   3.605  10.024 -0.1971  0.8495  1.9064
 7776SOL     OW34786   0.496   3.357  14.126  0.1568 -0.1511 -0.4395
 7776SOL    HW134787   0.437   3.311  14.066  0.3080 -3.2743  1.7814
 7776SOL    HW234788   0.446   3.344  14.207 -0.2863  0.8423 -0.5577
 7777SOL     OW34789   2.197   4.094  16.957 -0.1386  0.5415  0.0526
 7777SOL    HW134790   2.177   4.037  16.883 -0.1300  0.1234  0.3751
 7777SOL    HW234791   2.258   4.045  17.011 -0.7129 -0.6868 -0.4029
 7778SOL     OW34792   0.094   2.391   9.777  0.3479 -0.4571 -0.5097
 7778SOL    HW134793   0.025   2.340   9.819  0.2818  0.2683  0.2720
 7778SOL    HW234794   0.170   2.399   9.835 -1.7705  0.1416  2.2050
 7779SOL     OW34795   4.047   4.117   4.499 -0.2548 -0.3187 -0.0246
 7779SOL    HW134796   4.132   4.106   4.542 -1.4824 -0.9825  2.1985
 7779SOL    HW234797   4.041   4.036   4.448  0.8149 -1.6568  1.9955
 7780SOL     OW34798   4.396   1.275   7.395  0.0596  0.8387 -0.3759
 7780SOL    HW134799   4.369   1.243   7.481  2.3356 -0.3615 -0.1126
 7780SOL    HW234800   4.370   1.366   7.411  0.5444  1.1550 -1.3910
 7781SOL     OW34801   3.452   1.498   1.960 -0.2031  0.0757 -0.0765
 7781SOL    HW134802   3.370   1.478   2.004 -0.4856  0.1146 -0.5757
 7781SOL    HW234803   3.485   1.412   1.936 -2.0544 -0.8602  0.6849
 7782SOL     OW34804   0.387   0.007  14.286  0.3163 -0.5546  0.0219
 7782SOL    HW134805   0.338   4.672  14.228  0.4299 -0.0217 -0.6056
 7782SOL    HW234806   0.471   4.684  14.281  1.0053  1.2674 -5.1290
 7783SOL     OW34807   2.050   3.219   9.533 -0.3991  0.1156  0.2729
 7783SOL    HW134808   2.034   3.292   9.593 -2.2694  0.2141 -0.3427
 7783SOL    HW234809   1.995   3.248   9.461  2.6868  0.8800 -1.7908
 7784SOL     OW34810   0.080   3.011   2.618  0.0840  0.1293 -0.2776
 7784SOL    HW134811   0.144   2.951   2.657  0.2319  0.9392  0.7328
 7784SOL    HW234812   0.041   3.052   2.695  1.5473  1.4965 -0.2651
 7785SOL     OW34813   1.478   3.987  13.235  0.1326 -0.5592 -0.4793
 7785SOL    HW134814   1.500   3.902  13.272 -1.5954 -1.4682 -1.5078
 7785SOL    HW234815   1.563   4.027  13.251  0.5861 -1.4458 -0.6859
 7786SOL     OW34816   2.534   3.151   5.278  0.7306 -0.1098 -0.0824
 7786SOL    HW134817   2.574   3.133   5.193  1.7383 -0.0237  0.3865
 7786SOL    HW234818   2.588   3.205   5.335  1.4886 -0.2322 -0.6805
 7787SOL     OW34819   3.743   1.878   3.880  0.1173 -0.4752  0.2964
 7787SOL    HW134820   3.744   1.864   3.786 -0.9065 -0.5102  0.2909
 7787SOL    HW234821   3.828   1.837   3.897  0.4479  0.2160  0.3006
 7788SOL     OW34822   3.536   1.531   1.679  0.4352 -0.0005  0.0757
 7788SOL    HW134823   3.472   1.598   1.653 -0.1630 -0.6973 -0.2435
 7788SOL    HW234824   3.537   1.548   1.774 -0.6199  1.8079 -0.2264
 7789SOL     OW34825   2.952   2.679   5.497  0.1573 -0.4839 -0.2744
 7789SOL    HW134826   2.902   2.663   5.578  0.6349 -1.2569 -0.1304
 7789SOL    HW234827   2.939   2.772   5.480  0.7599 -0.4645 -0.6207
 7790SOL     OW34828   2.676   4.337   9.297 -0.5744 -0.0239  0.2178
 7790SOL    HW134829   2.670   4.307   9.388 -0.5703  1.2545  0.6355
 7790SOL    HW234830   2.765   4.370   9.298  0.1019 -1.8387  1.4478
 7791SOL     OW34831   2.786   2.176   7.833  0.0210 -0.3006 -0.0007
 7791SOL    HW134832   2.774   2.211   7.921 -1.4792 -0.5946 -0.0826
 7791SOL    HW234833   2.872   2.211   7.810 -1.7149  2.6551 -1.9798
 7792SOL     OW34834   2.509   2.821  13.993 -0.1385  0.0103 -0.0561
 7792SOL    HW134835   2.449   2.880  13.946 -0.5640  1.5606  2.4146
 7792SOL    HW234836   2.583   2.874  14.025 -1.5852  1.1888  1.3412
 7793SOL     OW34837   4.568   0.609   8.042 -0.5996 -0.4397 -0.5870
 7793SOL    HW134838   4.610   0.530   8.008  0.1885 -0.4543  0.3897
 7793SOL    HW234839   4.495   0.574   8.094  2.3658 -2.0995  2.5088
 7794SOL     OW34840   2.213   0.262   7.454  0.3357  0.2155 -0.1505
 7794SOL    HW134841   2.308   0.261   7.442  0.4630 -2.3337  1.0306
 7794SOL    HW234842   2.185   0.353   7.444  3.1432  1.1597  0.5605
 7795SOL     OW34843   4.665   0.385  14.840  0.5866  0.4963  0.5829
 7795SOL    HW134844   4.629   0.452  14.781 -0.8595  0.2158  1.1450
 7795SOL    HW234845   0.027   0.417  14.869  0.8853  0.6934 -0.4810
 7796SOL     OW34846   0.854   1.713   1.960 -0.4497 -0.2324  0.0254
 7796SOL    HW134847   0.907   1.788   1.986  0.5227 -0.8279 -0.2281
 7796SOL    HW234848   0.774   1.748   1.919 -1.2016 -1.2047  0.6652
 7797SOL     OW34849   1.114   0.330   7.215  0.6073 -0.3042 -0.0213
 7797SOL    HW134850   1.132   0.236   7.220 -0.1978 -0.5987 -2.4261
 7797SOL    HW234851   1.131   0.350   7.307 -0.1435 -1.4480  0.3653
 7798SOL     OW34852   2.271   3.749   6.274  0.1062 -0.1055 -0.5376
 7798SOL    HW134853   2.331   3.813   6.313  0.9984 -0.9403 -0.5366
 7798SOL    HW234854   2.187   3.788   6.298  0.0442  0.2157 -1.2903
 7799SOL     OW34855   2.769   4.123   5.931 -0.2177 -0.4014 -0.2261
 7799SOL    HW134856   2.689   4.094   5.887 -0.2270 -0.5386 -0.1215
 7799SOL    HW234857   2.829   4.067   5.881  2.2188  1.7898  0.2752
 7800SOL     OW34858   4.210   4.692  11.953 -0.2189 -0.3001 -0.1035
 7800SOL    HW134859   4.117   4.714  11.954 -0.7424 -2.5843  1.4436
 7800SOL    HW234860   4.254   0.042  11.910  0.4141 -0.5294  0.1585
 7801SOL     OW34861   1.273   1.924   4.062  0.0642 -0.0970  0.2362
 7801SOL    HW134862   1.185   1.913   4.098  0.3456  1.5266  1.3890
 7801SOL    HW234863   1.278   1.839   4.017  0.3390 -1.5516  3.0544
 7802SOL     OW34864   2.958   0.891   6.162 -0.9791 -0.1600 -0.1846
 7802SOL    HW134865   3.046   0.919   6.139 -0.9973  1.2636  1.4066
 7802SOL    HW234866   2.918   0.858   6.082 -0.5774  1.5292 -1.0880
 7803SOL     OW34867   1.292   0.532   2.871 -0.0350  1.0509 -0.0009
 7803SOL    HW134868   1.320   0.596   2.936 -0.3787  1.9191 -0.7111
 7803SOL    HW234869   1.207   0.571   2.850 -1.1093 -1.0095  0.4444
 7804SOL     OW34870   4.296   2.675   6.019 -0.6361 -0.1056  0.6920
 7804SOL    HW134871   4.278   2.667   5.925  0.8981  0.1961  0.3768
 7804SOL    HW234872   4.292   2.769   6.039 -0.7796  0.0769 -0.1715
 7805SOL     OW34873   1.667   0.589   7.511  0.4054 -0.4605  0.2029
 7805SOL    HW134874   1.636   0.678   7.527 -0.4688 -0.6716 -0.3093
 7805SOL    HW234875   1.604   0.557   7.446 -1.0747  0.2703  1.3037
 7806SOL     OW34876   0.082   3.502  11.405  0.5004  0.2153 -0.3287
 7806SOL    HW134877   0.173   3.497  11.435 -0.1086 -1.6039  1.1636
 7806SOL    HW234878   0.037   3.424  11.436  0.5760  1.1043  2.0411
 7807SOL     OW34879   0.217   4.672   7.259  0.3673 -0.7065 -0.0181
 7807SOL    HW134880   0.194   4.582   7.237  2.8969 -1.4676  0.4274
 7807SOL    HW234881   0.136   4.717   7.236  0.7992  1.0629  1.8348
 7808SOL     OW34882   3.198   2.022   2.421  0.1643 -0.1934  0.3845
 7808SOL    HW134883   3.220   2.016   2.514 -1.5766  0.3119  0.8413
 7808SOL    HW234884   3.252   2.097   2.396 -2.7020  1.5705 -0.5059
 7809SOL     OW34885   3.258   1.381  14.528  0.3104 -0.6989  0.0490
 7809SOL    HW134886   3.213   1.323  14.467  1.6141 -2.1753  0.4842
 7809SOL    HW234887   3.186   1.430  14.568  0.0167 -0.5943 -0.6059
 7810SOL     OW34888   1.268   1.423   7.273  0.1791 -0.0647 -0.2267
 7810SOL    HW134889   1.219   1.342   7.261  1.9484 -1.2691  0.7819
 7810SOL    HW234890   1.216   1.476   7.333 -0.6861 -1.7989  0.5411
 7811SOL     OW34891   0.739   1.839   7.575 -0.2602  0.2242  0.1929
 7811SOL    HW134892   0.674   1.799   7.518 -1.5763 -0.1480  1.9467
 7811SOL    HW234893   0.679   1.859   7.647 -0.7349  1.6084 -0.5845
 7812SOL     OW34894   1.496   1.611   5.723 -0.8705 -1.3075 -0.6153
 7812SOL    HW134895   1.436   1.678   5.757 -0.0452 -1.3711  0.9674
 7812SOL    HW234896   1.436   1.560   5.668  1.6802 -1.3025 -3.4160
 7813SOL     OW34897   4.211   3.811   3.925  0.0679  0.5655  0.6095
 7813SOL    HW134898   4.298   3.770   3.925 -0.1319  0.1698 -2.3559
 7813SOL    HW234899   4.189   3.826   4.017  0.1543 -2.1614  1.0967
 7814SOL     OW34900   3.544   1.454  12.471 -0.2028 -0.1832  0.4716
 7814SOL    HW134901   3.576   1.394  12.403 -0.4000 -0.2163  0.4104
 7814SOL    HW234902   3.456   1.420  12.485 -1.3857  2.3642 -0.8594
 7815SOL     OW34903   2.127   3.373   3.055  0.1792 -0.1283 -0.2465
 7815SOL    HW134904   2.220   3.361   3.036 -0.0654 -1.2288 -0.7714
 7815SOL    HW234905   2.098   3.430   2.984  1.0958  2.6638  1.6574
 7816SOL     OW34906   1.807   1.915   3.207 -0.5255  0.3201 -0.0278
 7816SOL    HW134907   1.752   1.938   3.132 -0.2545 -0.1988 -0.3836
 7816SOL    HW234908   1.858   1.994   3.221 -2.6966  1.8789 -0.9260
 7817SOL     OW34909   4.044   2.314   7.348  0.1843  0.7661 -0.4462
 7817SOL    HW134910   3.968   2.255   7.350 -0.0323  1.0572 -0.1374
 7817SOL    HW234911   4.112   2.260   7.386 -0.9767 -2.3890 -2.8758
 7818SOL     OW34912   4.405   4.549   4.729  0.0979  0.4884  0.0752
 7818SOL    HW134913   4.494   4.555   4.763 -0.3084 -0.2953  1.2585
 7818SOL    HW234914   4.364   4.565   4.814  1.2698  1.0784  0.5295
 7819SOL     OW34915   0.871   3.418  12.592 -0.1254  0.1198 -0.0368
 7819SOL    HW134916   0.965   3.431  12.595  0.2214 -2.4527 -0.5975
 7819SOL    HW234917   0.858   3.331  12.554  0.1618 -0.6176  1.5648
 7820SOL     OW34918   3.075   0.997   4.959 -0.3625  0.3943  0.3516
 7820SOL    HW134919   3.134   1.041   5.021 -1.1622  0.6968  0.8986
 7820SOL    HW234920   3.062   0.908   4.990 -0.8720  0.4574  0.3177
 7821SOL     OW34921   1.358   4.041   2.229  0.4489 -0.7454 -0.4501
 7821SOL    HW134922   1.347   4.010   2.319 -2.2302  0.1546 -0.4466
 7821SOL    HW234923   1.315   3.964   2.192 -0.3496 -0.6778  0.3381
 7822SOL     OW34924   4.631   1.815   4.896 -0.0223  0.0685 -0.7618
 7822SOL    HW134925   4.586   1.851   4.973  2.8712  2.2824 -0.1022
 7822SOL    HW234926   4.630   1.723   4.925 -0.3752  0.1891 -0.3869
 7823SOL     OW34927   4.311   2.256   3.908 -0.1048  0.4872  0.2098
 7823SOL    HW134928   4.240   2.233   3.967  0.3663 -0.7729  0.2838
 7823SOL    HW234929   4.276   2.329   3.856 -0.8144 -0.4092 -0.5669
 7824SOL     OW34930   1.332   4.289  15.000 -0.1047 -0.1894 -0.0214
 7824SOL    HW134931   1.350   4.321  15.089 -0.4656 -1.0328  0.3524
 7824SOL    HW234932   1.414   4.318  14.962 -1.4176  2.7419 -0.6194
 7825SOL     OW34933   0.487   3.164  13.439 -0.2809  0.1529  0.2059
 7825SOL    HW134934   0.511   3.125  13.355  1.1867  0.8443  0.3022
 7825SOL    HW234935   0.563   3.150  13.497  0.1197  0.3639 -0.2635
 7826SOL     OW34936   0.887   0.089   7.231 -0.1015 -0.1792 -0.7246
 7826SOL    HW134937   0.977   0.059   7.222  0.0279  0.1701 -0.5822
 7826SOL    HW234938   0.852   0.039   7.158 -0.5076  0.0669 -0.7003
 7827SOL     OW34939   4.386   2.401   2.369  0.2042 -0.2117  0.4975
 7827SOL    HW134940   4.422   2.417   2.282 -3.3056 -1.7272 -1.2636
 7827SOL    HW234941   4.292   2.421   2.368 -0.0317 -1.3266  0.3405
 7828SOL     OW34942   1.987   2.962   2.806  0.5406 -0.3888  0.0658
 7828SOL    HW134943   2.031   2.894   2.858  1.5014  1.6515  1.8958
 7828SOL    HW234944   2.053   2.966   2.737  0.6383 -0.5434  0.1506
 7829SOL     OW34945   2.195   0.978   1.379  0.0532  0.6837 -0.7112
 7829SOL    HW134946   2.134   1.050   1.394  1.9914  1.9959  1.0270
 7829SOL    HW234947   2.201   0.954   1.472 -0.9932 -0.4290 -0.9407
 7830SOL     OW34948   4.377   1.409  14.519 -0.3081  0.6025  0.6512
 7830SOL    HW134949   4.420   1.324  14.507 -4.3883 -1.3158 -0.5737
 7830SOL    HW234950   4.373   1.434  14.427 -1.1938  0.2302  0.5900
 7831SOL     OW34951   3.472   0.888  10.972 -0.0681 -0.3669 -0.3148
 7831SOL    HW134952   3.454   0.821  11.038 -2.4764 -0.3600 -0.9651
 7831SOL    HW234953   3.565   0.874  10.953  0.6114  0.8373  2.0842
 7832SOL     OW34954   0.469   2.508   7.088 -0.5334 -0.4338  0.0258
 7832SOL    HW134955   0.503   2.597   7.091 -0.6987 -0.4205  1.2630
 7832SOL    HW234956   0.440   2.502   7.179  0.1051  1.8894  0.3810
 7833SOL     OW34957   2.019   3.423  12.426  0.0167  0.6881 -0.0290
 7833SOL    HW134958   2.108   3.391  12.419 -0.3679 -0.4568  0.2806
 7833SOL    HW234959   2.017   3.463  12.512  0.4622  0.6294  0.0075
 7834SOL     OW34960   1.631   2.402  17.315  0.0983 -0.0121 -0.1382
 7834SOL    HW134961   1.631   2.436  17.225  0.1954  1.6775  0.5040
 7834SOL    HW234962   1.704   2.340  17.308 -2.7720 -3.3451 -0.3994
 7835SOL     OW34963   3.148   4.390   0.529  1.1952 -0.0485  0.3030
 7835SOL    HW134964   3.214   4.400   0.460 -0.4979  0.6318 -1.2077
 7835SOL    HW234965   3.179   4.464   0.582 -1.9372 -0.0204  2.0922
 7836SOL     OW34966   0.158   0.981   3.793  0.4664 -0.0229 -0.0154
 7836SOL    HW134967   0.235   0.997   3.739 -2.5655  2.6695 -3.4759
 7836SOL    HW234968   0.108   1.057   3.765 -0.2863  0.2275  1.9850
 7837SOL     OW34969   2.001   2.895   5.805 -0.1995 -0.2997 -0.5740
 7837SOL    HW134970   1.962   2.963   5.860 -0.5506  0.9905 -2.4041
 7837SOL    HW234971   1.925   2.837   5.796 -1.8568  1.9002 -0.7772
 7838SOL     OW34972   0.236   3.428   3.689 -0.1789  0.1945 -0.1151
 7838SOL    HW134973   0.165   3.379   3.729 -1.5787  1.0618 -1.4939
 7838SOL    HW234974   0.209   3.520   3.693 -0.7450 -0.0048  0.5978
 7839SOL     OW34975   0.835   3.657   2.003 -0.0668  0.0515 -0.2332
 7839SOL    HW134976   0.876   3.703   1.930 -1.9156  0.6012 -0.8999
 7839SOL    HW234977   0.839   3.567   1.972  2.0173  0.3327 -0.8181
 7840SOL     OW34978   1.676   1.030   7.278 -0.3464 -0.0235  0.8235
 7840SOL    HW134979   1.585   1.055   7.265 -0.1152  1.2623  1.5586
 7840SOL    HW234980   1.678   0.937   7.259 -1.7080  0.1990 -0.3360
 7841SOL     OW34981   0.311   0.554   9.141  0.0708  0.0094 -0.2820
 7841SOL    HW134982   0.226   0.547   9.185  0.2306  0.3751  0.0812
 7841SOL    HW234983   0.337   0.640   9.174  1.0397 -0.2935 -0.2429
 7842SOL     OW34984   4.616   0.492  15.102  0.3189  0.1021  0.6134
 7842SOL    HW134985   4.653   0.441  15.175  0.9750 -0.3714 -0.0454
 7842SOL    HW234986   4.612   0.422  15.036  2.9517  1.4506 -0.9701
 7843SOL     OW34987   1.693   0.046  13.003  0.0305 -0.1877 -0.6320
 7843SOL    HW134988   1.768   0.093  12.966 -0.7980  0.2647 -1.7266
 7843SOL    HW234989   1.735   4.684  12.993 -3.1261 -1.9777  1.3638
 7844SOL     OW34990   2.453   3.146   1.585 -0.0739 -0.3214 -0.0962
 7844SOL    HW134991   2.401   3.163   1.663 -0.8665 -0.5323 -0.5866
 7844SOL    HW234992   2.383   3.124   1.524  0.1815  0.0759 -0.5366
 7845SOL     OW34993   3.646   0.733   2.910  1.2279 -0.5208  0.0011
 7845SOL    HW134994   3.575   0.691   2.861  2.5664 -2.3295 -0.3839
 7845SOL    HW234995   3.637   0.688   2.994 -1.5837 -1.0337 -0.5774
 7846SOL     OW34996   1.356   3.131   9.963  0.2382 -0.6139 -0.8029
 7846SOL    HW134997   1.393   3.075  10.032  0.3046 -0.3408 -0.6157
 7846SOL    HW234998   1.387   3.220   9.978 -3.2487  0.4551 -0.0758
 7847SOL     OW34999   2.555   2.426  10.284 -0.4711  0.0909  0.3642
 7847SOL    HW135000   2.471   2.463  10.259 -1.4941 -1.3988  1.5589
 7847SOL    HW235001   2.540   2.389  10.371  2.2901  0.1557  0.8731
 7848SOL     OW35002   2.733   1.788   6.654 -0.0136  0.4706  0.0384
 7848SOL    HW135003   2.758   1.711   6.706 -1.3209  0.9716  1.4269
 7848SOL    HW235004   2.685   1.836   6.722 -0.6731 -0.7794  0.4663
 7849SOL     OW35005   0.565   2.014   3.359  0.2103  0.2660 -0.1862
 7849SOL    HW135006   0.613   2.096   3.374 -3.1875  1.9526  1.4054
 7849SOL    HW235007   0.525   2.020   3.272 -0.6101  1.2623  0.2648
 7850SOL     OW35008   3.261   3.673  11.511  0.4101 -0.3365 -0.3020
 7850SOL    HW135009   3.242   3.765  11.529 -1.5379 -0.9031  0.5794
 7850SOL    HW235010   3.290   3.675  11.419 -0.9844 -0.0923 -0.7338
 7851SOL     OW35011   3.770   2.566   5.020 -0.0535  0.4745 -0.3238
 7851SOL    HW135012   3.699   2.574   4.956 -0.7282 -1.0075  0.2357
 7851SOL    HW235013   3.838   2.585   4.955  0.2537 -2.8233 -0.9810
 7852SOL     OW35014   4.269   0.335   9.300  0.4647 -0.2585  0.0948
 7852SOL    HW135015   4.196   0.325   9.360  0.9732 -4.0982  0.1130
 7852SOL    HW235016   4.340   0.291   9.347  0.4341  0.5443  0.8897
 7853SOL     OW35017   4.334   1.544   7.369 -0.3056  0.3398 -0.1399
 7853SOL    HW135018   4.243   1.570   7.352  0.3166  1.8763 -1.0656
 7853SOL    HW235019   4.358   1.600   7.443  0.4670 -0.3013  0.0836
 7854SOL     OW35020   1.472   1.274  15.521 -0.0636  0.5911 -0.2758
 7854SOL    HW135021   1.432   1.187  15.516  0.3721  0.2760  1.6465
 7854SOL    HW235022   1.397   1.320  15.483 -0.5858  1.2924  1.6067
 7855SOL     OW35023   2.248   0.761   4.676 -0.0839  0.3362 -0.3275
 7855SOL    HW135024   2.298   0.697   4.727  1.0098  1.3831 -0.0643
 7855SOL    HW235025   2.161   0.736   4.707  0.0852 -0.1936 -0.2762
 7856SOL     OW35026   4.321   1.791   8.150  0.0102  0.0971 -0.2143
 7856SOL    HW135027   4.237   1.807   8.193  1.9427  1.0906  3.1907
 7856SOL    HW235028   4.342   1.884   8.138  1.0817 -0.4014 -2.2081
 7857SOL     OW35029   1.849   3.030   9.722 -0.1569  0.3094  0.2194
 7857SOL    HW135030   1.822   3.067   9.807  0.4872 -0.6897  0.8570
 7857SOL    HW235031   1.780   3.060   9.663 -0.1599 -2.5340 -1.2035
 7858SOL     OW35032   3.615   3.322  13.273  0.7098 -0.0691  0.1404
 7858SOL    HW135033   3.577   3.277  13.349 -0.3303 -1.5875 -1.2885
 7858SOL    HW235034   3.703   3.289  13.286  0.5109 -0.7899 -0.3815
 7859SOL     OW35035   0.706   2.420  10.498 -0.6921  0.2505  0.2363
 7859SOL    HW135036   0.641   2.363  10.539 -1.9944  0.0823 -2.0851
 7859SOL    HW235037   0.686   2.418  10.405 -2.4211 -0.2433  0.6292
 7860SOL     OW35038   1.233   3.774  11.069  0.1529 -0.1643  0.4160
 7860SOL    HW135039   1.138   3.778  11.055  0.1298 -0.0086  0.6150
 7860SOL    HW235040   1.275   3.807  10.990 -1.0064  1.0170  0.3029
 7861SOL     OW35041   3.973   2.596   8.686  0.1753 -0.4243 -0.3310
 7861SOL    HW135042   3.881   2.598   8.710  0.2108 -1.7788 -0.1147
 7861SOL    HW235043   4.010   2.525   8.738 -2.3399  0.0935  2.1696
 7862SOL     OW35044   3.305   1.484   3.187 -0.5175 -0.1318 -0.0073
 7862SOL    HW135045   3.343   1.402   3.156 -1.3560 -1.6939  3.0219
 7862SOL    HW235046   3.266   1.512   3.104 -0.7967 -1.4364 -0.3195
 7863SOL     OW35047   0.731   4.341   7.576  0.1134  0.1214 -0.1277
 7863SOL    HW135048   0.688   4.266   7.618  2.1030 -1.3673 -0.7317
 7863SOL    HW235049   0.794   4.370   7.643 -0.2960 -0.8304  0.6774
 7864SOL     OW35050   4.017   2.139  14.557 -0.4301  0.2769  0.3133
 7864SOL    HW135051   4.088   2.168  14.614 -3.2782  1.8062  3.0551
 7864SOL    HW235052   4.008   2.223  14.511 -1.2731 -0.2364 -0.4597
 7865SOL     OW35053   1.218   4.288   1.089  0.2203 -0.3126 -0.3509
 7865SOL    HW135054   1.272   4.210   1.076  1.3746  0.3355  0.5230
 7865SOL    HW235055   1.142   4.264   1.036  0.4359 -3.3565  0.7070
 7866SOL     OW35056   4.354   3.569  12.922  0.3838  0.2972  0.4001
 7866SOL    HW135057   4.441   3.556  12.959  1.8116 -0.5687 -3.3296
 7866SOL    HW235058   4.305   3.553  13.003  1.1717 -0.8409  0.6462
 7867SOL     OW35059   2.888   2.188   4.522  0.2297  0.3020  0.0369
 7867SOL    HW135060   2.923   2.148   4.443  1.1586  0.8256  0.1876
 7867SOL    HW235061   2.802   2.191   4.480  0.4382  0.2889 -0.3960
 7868SOL     OW35062   3.260   4.506  15.072 -0.0701  0.4472  0.2872
 7868SOL    HW135063   3.205   4.514  14.994  0.7699  2.3422 -0.1125
 7868SOL    HW235064   3.267   4.596  15.103 -1.0363  1.1271 -1.4590
 7869SOL     OW35065   3.739   2.436   7.685  0.0738  0.1603 -0.2878
 7869SOL    HW135066   3.754   2.341   7.689  2.3152  0.6251  1.9019
 7869SOL    HW235067   3.790   2.460   7.608 -0.7368 -0.1869 -0.9382
 7870SOL     OW35068   0.800   3.003   6.679  0.0498 -0.3887  0.0785
 7870SOL    HW135069   0.776   2.945   6.608  1.2183 -1.1182  0.2732
 7870SOL    HW235070   0.823   2.946   6.753  2.6151  0.5424  0.0286
 7871SOL     OW35071   0.068   0.364  16.547  0.0595 -0.2960  0.2531
 7871SOL    HW135072   0.093   0.346  16.638 -1.0183 -1.9293  0.2083
 7871SOL    HW235073   4.698   0.342  16.543  0.3498 -1.1896 -1.2775
 7872SOL     OW35074   1.504   3.546  12.035  0.0576 -0.1928  0.1220
 7872SOL    HW135075   1.542   3.561  12.122  0.6543 -0.6553 -0.0617
 7872SOL    HW235076   1.484   3.629  11.993 -1.2090 -0.6385 -0.1631
 7873SOL     OW35077   2.403   4.032   7.478  0.0890  0.3659 -0.0529
 7873SOL    HW135078   2.470   4.088   7.516 -0.3217  1.6203 -1.1629
 7873SOL    HW235079   2.332   4.087   7.445  1.0911  0.9053 -1.3042
 7874SOL     OW35080   3.873   4.625   4.315  0.3400  0.1574  0.1647
 7874SOL    HW135081   3.869   4.721   4.309 -1.6712 -0.1355 -3.1868
 7874SOL    HW235082   3.781   4.606   4.296 -0.1863  2.7533  0.1508
 7875SOL     OW35083   3.121   1.054   5.669 -0.6129  0.4143 -0.0206
 7875SOL    HW135084   3.183   1.116   5.631 -0.3967 -1.1081 -2.1570
 7875SOL    HW235085   3.166   0.976   5.699 -1.6638  0.3418  1.3692
 7876SOL     OW35086   2.249   1.961   7.968 -0.1250 -0.1790 -0.2988
 7876SOL    HW135087   2.175   1.972   7.908 -1.9265  0.7391  2.0608
 7876SOL    HW235088   2.303   2.031   7.933  1.3024 -1.1975 -0.1148
 7877SOL     OW35089   3.515   1.660   6.657 -0.2993  0.4780  0.8619
 7877SOL    HW135090   3.434   1.624   6.620  0.2517  2.2493 -2.1431
 7877SOL    HW235091   3.571   1.607   6.600  0.2255  1.8588  0.0856
 7878SOL     OW35092   2.531   1.590   5.780 -0.2816 -0.2920  0.3006
 7878SOL    HW135093   2.567   1.519   5.833 -0.8197  0.5513  1.8064
 7878SOL    HW235094   2.599   1.608   5.715 -1.3429 -1.5012 -1.1402
 7879SOL     OW35095   2.581   2.437   9.849 -0.2079 -0.0806 -0.2264
 7879SOL    HW135096   2.612   2.347   9.848  0.1727  0.0453  0.6501
 7879SOL    HW235097   2.535   2.421   9.767 -0.6393  1.2846 -0.2628
 7880SOL     OW35098   3.442   1.210   1.861 -0.6902 -0.1732  0.6888
 7880SOL    HW135099   3.470   1.209   1.770 -2.5289  1.2701  0.1228
 7880SOL    HW235100   3.349   1.228   1.855 -0.4613  0.4659 -0.7584
 7881SOL     OW35101   3.346   1.636   7.430  0.1282 -0.2796  0.2060
 7881SOL    HW135102   3.312   1.722   7.406  0.9114  0.1473  0.6429
 7881SOL    HW235103   3.293   1.622   7.508 -0.9196 -1.8919 -0.7769
 7882SOL     OW35104   1.377   2.239   4.239 -0.3081 -0.4123 -0.0378
 7882SOL    HW135105   1.370   2.310   4.303 -1.9352  0.7669 -1.5162
 7882SOL    HW235106   1.292   2.230   4.196 -0.7066  1.3205  0.3785
 7883SOL     OW35107   3.189   3.580   0.074  0.4509 -0.3594  0.2452
 7883SOL    HW135108   3.112   3.523   0.072 -0.0829  0.3226  1.2551
 7883SOL    HW235109   3.203   3.587  17.673 -0.0965 -1.5503  0.0785
 7884SOL     OW35110   3.280   1.160  13.652 -0.0358 -0.2605  0.0027
 7884SOL    HW135111   3.276   1.110  13.734 -0.1597 -0.4321 -0.1066
 7884SOL    HW235112   3.325   1.240  13.679  0.2742 -0.5038  0.2180
 7885SOL     OW35113   3.501   0.844  17.618  0.1703 -0.0896  0.1860
 7885SOL    HW135114   3.496   0.872   0.016  1.0579 -0.9219  0.4933
 7885SOL    HW235115   3.596   0.850  17.608  0.2843 -1.0064  0.6414
 7886SOL     OW35116   3.161   2.067  11.029 -0.1456  0.1117  0.4444
 7886SOL    HW135117   3.115   2.125  11.089 -0.7350 -0.7220  0.7972
 7886SOL    HW235118   3.233   2.127  11.010 -0.0169 -0.1843  0.0094
 7887SOL     OW35119   2.239   1.587   7.486 -0.1431 -0.2470  0.3936
 7887SOL    HW135120   2.253   1.496   7.511 -1.9588 -0.2444  1.4299
 7887SOL    HW235121   2.148   1.565   7.468  0.3246 -1.7609 -0.0942
 7888SOL     OW35122   0.611   3.402  10.340  0.2052  0.0258  0.2221
 7888SOL    HW135123   0.569   3.327  10.382 -1.2388  0.1354 -1.0078
 7888SOL    HW235124   0.621   3.452  10.420  1.8307  0.1922 -0.0830
 7889SOL     OW35125   0.760   4.607  12.967 -0.0786  0.5266  0.0004
 7889SOL    HW135126   0.834   4.607  13.028  0.5322  0.9430 -0.7263
 7889SOL    HW235127   0.788   4.529  12.918  0.2894  0.9805 -0.5138
 7890SOL     OW35128   3.056   4.300   6.924 -0.1133 -0.1671 -0.1306
 7890SOL    HW135129   3.094   4.227   6.875  0.1737 -1.4206  1.9563
 7890SOL    HW235130   3.006   4.250   6.989  0.4739  0.6101  0.9049
 7891SOL     OW35131   1.065   1.443  12.668 -0.1112 -0.2379 -0.4762
 7891SOL    HW135132   0.973   1.435  12.695  0.6542 -0.6820  2.0756
 7891SOL    HW235133   1.089   1.512  12.731  1.0451 -0.1371 -1.0223
 7892SOL     OW35134   4.460   2.611   3.912  0.3243 -0.3834 -0.6427
 7892SOL    HW135135   4.534   2.672   3.922 -0.6271  0.3381  1.8756
 7892SOL    HW235136   4.464   2.558   3.991 -1.4817  0.9645  0.3414
 7893SOL     OW35137   2.286   3.115   3.289  0.0598 -0.5732 -0.6477
 7893SOL    HW135138   2.311   3.146   3.202  1.0733  1.0201  0.2267
 7893SOL    HW235139   2.308   3.182   3.353 -3.1002 -0.6869  0.5461
 7894SOL     OW35140   1.315   2.512   8.789  0.5899 -0.5896 -0.9767
 7894SOL    HW135141   1.322   2.577   8.858 -1.3280  0.2369 -1.5674
 7894SOL    HW235142   1.222   2.514   8.766  0.6362 -0.9223 -1.2046
 7895SOL     OW35143   3.285   2.420   3.166 -0.0049  0.1441 -0.7698
 7895SOL    HW135144   3.373   2.418   3.128 -0.4231  0.4170 -1.7631
 7895SOL    HW235145   3.259   2.497   3.114 -1.5533 -0.1236 -0.3991
 7896SOL     OW35146   3.185   0.910   3.611  0.0606  0.5329 -0.0496
 7896SOL    HW135147   3.130   0.983   3.638 -0.1708  1.0236 -1.8696
 7896SOL    HW235148   3.180   0.852   3.686 -1.5344  1.2135  0.3624
 7897SOL     OW35149   1.186   2.219   5.037 -0.7233 -0.7206 -0.4920
 7897SOL    HW135150   1.231   2.225   5.121  2.1168 -0.0632 -2.0681
 7897SOL    HW235151   1.116   2.284   5.046 -1.0916 -1.2383  0.3476
 7898SOL     OW35152   3.621   1.331   8.282  0.1195 -0.8007 -0.3394
 7898SOL    HW135153   3.700   1.294   8.320  1.3048  0.4716 -1.5484
 7898SOL    HW235154   3.605   1.284   8.200  3.0526 -0.1372 -1.2790
 7899SOL     OW35155   4.241   1.634   9.206  0.0117  0.3970 -0.7032
 7899SOL    HW135156   4.182   1.585   9.263  2.1003  0.8813  1.8878
 7899SOL    HW235157   4.244   1.581   9.126 -2.8200 -1.6282  0.5664
 7900SOL     OW35158   4.378   0.622   0.788 -0.0827  0.1901 -0.0681
 7900SOL    HW135159   4.369   0.714   0.764  1.0014  0.5058  0.7497
 7900SOL    HW235160   4.309   0.586   0.731  0.7174 -2.8483  0.8852
 7901SOL     OW35161   2.639   3.193   8.114 -0.4006  0.1763 -0.0560
 7901SOL    HW135162   2.576   3.257   8.146  1.2526  1.0368  1.5341
 7901SOL    HW235163   2.590   3.180   8.033 -0.3804  1.2824 -0.2436
 7902SOL     OW35164   2.030   4.653   5.109  0.1684  0.2121  0.0087
 7902SOL    HW135165   2.069   0.015   5.090  2.6702 -1.0996 -0.7508
 7902SOL    HW235166   1.962   4.652   5.042  0.4983  1.3389 -0.3309
 7903SOL     OW35167   3.362   2.171   1.974  0.1932 -0.0726 -0.1412
 7903SOL    HW135168   3.361   2.140   1.883  0.1240  0.4341 -0.3101
 7903SOL    HW235169   3.271   2.148   1.996  0.2103  0.0160  0.0243
 7904SOL     OW35170   0.129   1.371   8.471 -1.2071 -0.3387 -0.5231
 7904SOL    HW135171   0.191   1.444   8.479 -0.6597 -0.7741 -0.8193
 7904SOL    HW235172   0.065   1.385   8.541 -0.7869 -2.6035  0.3226
 7905SOL     OW35173   1.380   3.895   9.776 -0.2690  0.0617 -0.0832
 7905SOL    HW135174   1.454   3.935   9.730  0.3957 -0.5791  0.4264
 7905SOL    HW235175   1.417   3.807   9.771  1.3610  0.7384  0.2251
 7906SOL     OW35176   2.615   2.733  16.001  0.2038  0.7856 -0.3334
 7906SOL    HW135177   2.562   2.722  15.922  0.6177  1.8972 -0.7728
 7906SOL    HW235178   2.545   2.728  16.066  0.8523 -1.1298  0.2327
 7907SOL     OW35179   2.813   2.038   3.555 -0.5670  0.0786  0.5785
 7907SOL    HW135180   2.822   2.028   3.460  0.0099  3.3929  0.2794
 7907SOL    HW235181   2.813   2.134   3.562  5.1925  0.2098 -1.3591
 7908SOL     OW35182   3.043   0.576   1.336 -0.3764 -0.1673  1.2334
 7908SOL    HW135183   2.968   0.622   1.374  0.1173  0.4892  1.4246
 7908SOL    HW235184   3.113   0.609   1.393  0.4130  1.5525 -0.6873
 7909SOL     OW35185   4.607   0.419   3.736 -0.4484 -0.1307 -0.3261
 7909SOL    HW135186   4.586   0.352   3.800  1.6562 -1.9006 -1.4948
 7909SOL    HW235187   4.549   0.489   3.769  0.4889  0.3198  0.3454
 7910SOL     OW35188   4.613   2.994  13.798 -0.1551 -0.4038  0.2393
 7910SOL    HW135189   4.660   3.059  13.747 -0.2701 -0.3646  0.1827
 7910SOL    HW235190   4.523   3.015  13.774 -0.1451 -1.6360 -0.9254
 7911SOL     OW35191   1.721   0.908   3.625  0.2308  0.0793  0.1563
 7911SOL    HW135192   1.797   0.878   3.574 -1.8128 -1.5557 -1.9282
 7911SOL    HW235193   1.744   0.865   3.707  0.9546  2.3079  1.1242
 7912SOL     OW35194   2.882   1.861   1.965  0.4187  0.7264  0.2517
 7912SOL    HW135195   2.818   1.898   1.904  1.4458  0.1035 -1.2072
 7912SOL    HW235196   2.828   1.790   2.001  0.6373  0.1242 -0.6145
 7913SOL     OW35197   1.473   1.884   8.224  0.1924 -0.1039  0.0758
 7913SOL    HW135198   1.445   1.936   8.300  0.1586  0.1956 -0.1399
 7913SOL    HW235199   1.546   1.836   8.263  1.3261  1.8092  0.3674
 7914SOL     OW35200   1.981   2.010   6.411 -0.0018  0.4003 -0.0811
 7914SOL    HW135201   1.896   1.989   6.449  0.4087 -1.0181  0.0525
 7914SOL    HW235202   1.977   1.980   6.320 -0.0224 -0.2871  0.1449
 7915SOL     OW35203   3.919   2.430  16.291 -0.1158  0.0733  0.4264
 7915SOL    HW135204   4.006   2.426  16.331  0.0413  0.7417  0.1505
 7915SOL    HW235205   3.894   2.518  16.320  0.0626  0.7256 -1.3645
 7916SOL     OW35206   3.441   3.046   2.611  0.1414  0.1451  0.4008
 7916SOL    HW135207   3.399   2.960   2.606  1.2193 -0.2709 -1.3981
 7916SOL    HW235208   3.501   3.027   2.682  1.8291  0.1642 -1.0288
 7917SOL     OW35209   3.179   1.286   2.596 -0.2205  0.0286 -0.3295
 7917SOL    HW135210   3.232   1.318   2.669  0.5660  2.1280 -1.8271
 7917SOL    HW235211   3.087   1.283   2.624 -0.4409 -1.1621 -1.1945
 7918SOL     OW35212   1.707   4.535   1.889 -0.4102  0.1267  0.3367
 7918SOL    HW135213   1.673   4.615   1.850 -1.4577  0.2137  1.4031
 7918SOL    HW235214   1.641   4.510   1.954 -2.4075  3.0420 -0.5752
 7919SOL     OW35215   1.982   1.507   7.603 -0.9090 -0.3325 -0.2246
 7919SOL    HW135216   1.987   1.594   7.642  0.3426 -0.5065 -0.0234
 7919SOL    HW235217   2.020   1.443   7.663 -1.7981 -0.8926 -0.2436
 7920SOL     OW35218   2.682   4.515   5.935  0.4965 -0.4124 -0.0627
 7920SOL    HW135219   2.702   4.464   5.856  1.9897  3.3307 -2.1089
 7920SOL    HW235220   2.598   4.554   5.914  0.2852 -0.5626  0.5084
 7921SOL     OW35221   2.642   4.172   2.553 -0.4532 -0.0669 -0.1088
 7921SOL    HW135222   2.658   4.175   2.647 -0.5809  1.6711 -0.1450
 7921SOL    HW235223   2.732   4.177   2.520 -0.0682  0.6020  1.0360
 7922SOL     OW35224   0.348   4.483  14.761  0.1791  0.1693  0.6026
 7922SOL    HW135225   0.356   4.409  14.700 -1.3892 -1.5372  2.4169
 7922SOL    HW235226   0.374   4.550  14.698  0.2476  1.0315  1.5493
 7923SOL     OW35227   3.894   3.693   1.770 -0.2046 -0.9385 -0.1071
 7923SOL    HW135228   3.930   3.680   1.858  0.9354  0.2982 -0.3934
 7923SOL    HW235229   3.802   3.702   1.794 -0.2892 -2.2269  0.0686
 7924SOL     OW35230   2.542   2.394   9.102  0.5376 -0.1975 -0.6577
 7924SOL    HW135231   2.523   2.320   9.043  0.3005  0.5536 -1.5237
 7924SOL    HW235232   2.509   2.469   9.053 -0.0891 -0.1331 -0.1299
 7925SOL     OW35233   1.598   0.447  15.163 -0.5076 -0.2234  0.2659
 7925SOL    HW135234   1.559   0.417  15.080  0.8272 -0.4432 -0.2813
 7925SOL    HW235235   1.537   0.513  15.196 -0.9079 -0.8488  0.7820
 7926SOL     OW35236   1.152   0.658   1.863 -0.1584 -0.2382 -0.2073
 7926SOL    HW135237   1.063   0.622   1.866 -0.4556  0.6252  1.7492
 7926SOL    HW235238   1.154   0.686   1.955  1.8170 -1.4828  0.1425
 7927SOL     OW35239   4.511   0.184   8.690  0.0996 -0.0228  0.2173
 7927SOL    HW135240   4.529   0.090   8.685 -1.4558 -0.3389  0.5425
 7927SOL    HW235241   4.597   0.225   8.680 -1.2796  2.9824  0.6654
 7928SOL     OW35242   1.287   0.235   3.176  0.7159  0.1944  0.1224
 7928SOL    HW135243   1.256   0.325   3.181  0.3825  0.0007  1.4887
 7928SOL    HW235244   1.342   0.238   3.097 -1.8292 -2.3372 -1.7604
 7929SOL     OW35245   3.445   2.737   7.751  0.4897  0.0683 -0.0220
 7929SOL    HW135246   3.427   2.648   7.722  1.5202 -0.1665  0.0506
 7929SOL    HW235247   3.538   2.745   7.728  1.0493  1.3365  2.6422
 7930SOL     OW35248   2.244   1.151   1.693 -0.1900  0.2830  0.2038
 7930SOL    HW135249   2.296   1.170   1.772 -0.2949  1.5659 -0.0428
 7930SOL    HW235250   2.173   1.214   1.697 -0.8746 -0.6928  3.4748
 7931SOL     OW35251   0.333   3.407  10.632 -0.1274 -0.2099  0.0835
 7931SOL    HW135252   0.314   3.392  10.725  1.5062  0.0210  0.4437
 7931SOL    HW235253   0.395   3.337  10.611  0.6229  0.7380 -0.8444
 7932SOL     OW35254   2.757   1.857   2.530  0.5077 -0.0896 -0.0496
 7932SOL    HW135255   2.740   1.854   2.436  0.5960  1.6695 -0.1324
 7932SOL    HW235256   2.681   1.808   2.561 -0.2306  0.6502 -0.6723
 7933SOL     OW35257   3.342   2.221   6.199 -0.2351 -0.3888  0.1188
 7933SOL    HW135258   3.278   2.154   6.223 -0.3652 -0.3329 -0.0734
 7933SOL    HW235259   3.395   2.237   6.277 -0.8144  0.6863  0.2802
 7934SOL     OW35260   0.964   3.488  13.702 -0.1153 -0.5200  0.5373
 7934SOL    HW135261   0.920   3.573  13.693 -0.6823 -0.8906 -0.1472
 7934SOL    HW235262   1.051   3.526  13.713 -0.0009 -0.9180  0.9713
 7935SOL     OW35263   0.251   0.561   7.004  0.5706  0.4493  0.2556
 7935SOL    HW135264   0.320   0.620   7.036  1.8599 -0.5003 -0.7565
 7935SOL    HW235265   0.291   0.544   6.919  2.0869  0.5864  0.9328
 7936SOL     OW35266   0.157   2.713  14.161 -0.4033 -0.6588 -0.2841
 7936SOL    HW135267   0.092   2.784  14.154  1.4707  1.0399 -0.4220
 7936SOL    HW235268   0.239   2.763  14.165 -0.1239 -0.9949 -1.8520
 7937SOL     OW35269   0.203   1.235  10.362  0.2342  0.6401 -0.6533
 7937SOL    HW135270   0.248   1.215  10.280 -2.1117 -0.8268 -1.5742
 7937SOL    HW235271   0.124   1.182  10.353 -0.0169  0.8567  0.2742
 7938SOL     OW35272   2.340   0.611  11.032  0.0634 -0.3108 -0.0710
 7938SOL    HW135273   2.299   0.662  10.963 -1.0529  1.0239  1.5833
 7938SOL    HW235274   2.393   0.678  11.076  1.7994 -2.3193  0.9088
 7939SOL     OW35275   1.913   2.662  10.404 -0.1528 -0.3753  0.1784
 7939SOL    HW135276   2.007   2.679  10.396 -0.4640  0.9928 -0.5904
 7939SOL    HW235277   1.917   2.567  10.414  0.5599 -0.2783  0.8080
 7940SOL     OW35278   4.517   0.929  17.654  0.6280  0.0209  0.3641
 7940SOL    HW135279   4.519   0.852  17.598  0.1182 -0.1055  0.5274
 7940SOL    HW235280   4.584   0.899   0.022  0.5820 -1.4450 -0.2973
 7941SOL     OW35281   3.794   4.625   6.613 -0.2245 -0.1345 -0.5296
 7941SOL    HW135282   3.702   4.645   6.633  0.2205 -0.6872  2.0453
 7941SOL    HW235283   3.791   4.643   6.519  0.3330  3.4048  0.1393
 7942SOL     OW35284   2.202   2.634   7.089  0.2073  0.1324 -0.9594
 7942SOL    HW135285   2.116   2.634   7.131 -0.6622 -2.0556 -2.7065
 7942SOL    HW235286   2.203   2.706   7.026  0.7580  0.2760 -0.7891
 7943SOL     OW35287   3.400   0.960  15.375 -0.0284  0.3428  0.3281
 7943SOL    HW135288   3.308   0.932  15.370 -0.1980  1.0331 -0.3511
 7943SOL    HW235289   3.407   0.981  15.469  1.0205  1.1339  0.0756
 7944SOL     OW35290   2.614   3.973   6.728 -0.4861 -0.4459 -0.8772
 7944SOL    HW135291   2.660   3.995   6.647 -1.7026  0.8742 -1.2099
 7944SOL    HW235292   2.683   3.926   6.776  1.3199  3.1273  0.0289
 7945SOL     OW35293   1.790   0.761   6.382  0.0260 -0.2311  0.3310
 7945SOL    HW135294   1.740   0.797   6.455  0.2557 -0.7450  0.7357
 7945SOL    HW235295   1.811   0.674   6.417 -0.7304  0.0253  1.4317
 7946SOL     OW35296   0.159   3.171   8.888  0.5363 -0.1930  0.4921
 7946SOL    HW135297   0.233   3.115   8.910 -0.0168 -0.5809  1.3620
 7946SOL    HW235298   0.159   3.237   8.958 -1.1577  2.2693 -1.8337
 7947SOL     OW35299   3.277   2.326   4.822 -0.5446 -0.1248 -0.0382
 7947SOL    HW135300   3.257   2.248   4.872 -2.9126  0.2977 -0.3628
 7947SOL    HW235301   3.331   2.284   4.755 -0.4719 -1.0528  0.6114
 7948SOL     OW35302   0.341   1.515   5.673  0.3364  0.1637  0.4379
 7948SOL    HW135303   0.316   1.431   5.712  2.3505  0.0247  1.4356
 7948SOL    HW235304   0.310   1.577   5.739 -0.8092 -0.0123  0.0668
 7949SOL     OW35305   2.643   0.778  12.028  0.1152  0.0584 -0.0402
 7949SOL    HW135306   2.666   0.686  12.040 -1.3071 -0.5528 -1.9916
 7949SOL    HW235307   2.648   0.778  11.933  1.4148 -1.5964  0.0430
 7950SOL     OW35308   1.024   3.694  17.513 -0.8910  0.1392 -0.2554
 7950SOL    HW135309   1.048   3.602  17.527 -3.4219 -0.4301  0.2751
 7950SOL    HW235310   1.030   3.721  17.604 -1.0002  0.2968 -0.2966
 7951SOL     OW35311   4.528   3.197   0.947 -0.0009 -0.2630  0.6274
 7951SOL    HW135312   4.604   3.156   0.987  0.4857 -0.0217 -0.0512
 7951SOL    HW235313   4.466   3.195   1.020  2.6073  0.9402  2.8486
 7952SOL     OW35314   2.368   3.240   1.867  0.1789 -0.3363  0.8369
 7952SOL    HW135315   2.337   3.307   1.806 -0.7920 -2.1694 -0.6863
 7952SOL    HW235316   2.452   3.276   1.895 -1.0488  2.0967  1.4986
 7953SOL     OW35317   1.077   3.318   5.862  0.0433 -0.3288  0.1763
 7953SOL    HW135318   0.981   3.320   5.861  0.0504  0.1370  0.6170
 7953SOL    HW235319   1.092   3.288   5.772 -2.3518  0.9683 -0.6609
 7954SOL     OW35320   3.279   0.684   0.115  0.4514  0.2485  0.6124
 7954SOL    HW135321   3.326   0.719   0.191  0.6443 -2.6134  1.8203
 7954SOL    HW235322   3.269   0.589   0.128  0.7587  0.5351  3.0639
 7955SOL     OW35323   4.195   1.222  14.352 -0.3350  0.1588  0.1889
 7955SOL    HW135324   4.201   1.233  14.447  0.0160 -2.0656  0.4100
 7955SOL    HW235325   4.273   1.166  14.346 -0.3185  0.4756 -2.8228
 7956SOL     OW35326   3.648   4.616  11.577  0.0190 -0.1626  0.5425
 7956SOL    HW135327   3.704   4.550  11.618  2.0061  0.9614 -0.3430
 7956SOL    HW235328   3.695   4.693  11.608  0.7030  0.2301 -1.4353
 7957SOL     OW35329   1.450   0.689   0.742 -0.4547 -0.1605 -0.1422
 7957SOL    HW135330   1.425   0.773   0.779 -1.2851  1.1043 -3.6433
 7957SOL    HW235331   1.429   0.628   0.814 -0.1410 -0.8680 -0.6474
 7958SOL     OW35332   0.782   3.988   3.701  0.7750  0.5316 -0.0683
 7958SOL    HW135333   0.853   3.942   3.657  0.1083 -0.5556 -0.0067
 7958SOL    HW235334   0.837   4.015   3.775  0.8030 -4.1520  1.5994
 7959SOL     OW35335   2.048   1.287   0.030  0.0792  0.5561 -0.6484
 7959SOL    HW135336   1.966   1.298   0.078 -0.0112 -2.6048 -0.0784
 7959SOL    HW235337   2.024   1.326  17.639 -0.6240 -0.4987 -0.9331
 7960SOL     OW35338   2.313   0.864  13.361  0.6729 -0.1649 -0.2657
 7960SOL    HW135339   2.246   0.908  13.414 -0.6697 -1.9403 -0.5114
 7960SOL    HW235340   2.394   0.908  13.387  1.6610 -0.8412 -2.2075
 7961SOL     OW35341   1.046   0.640   4.086  0.0619  0.2203  0.0376
 7961SOL    HW135342   1.090   0.687   4.015 -1.3447  0.7381 -0.4925
 7961SOL    HW235343   1.120   0.625   4.145 -0.1590 -2.4410 -0.3694
 7962SOL     OW35344   2.672   1.753   4.618 -0.1600 -0.0420 -0.1479
 7962SOL    HW135345   2.764   1.725   4.622  0.0169  0.4496 -0.6133
 7962SOL    HW235346   2.662   1.746   4.523  1.0186  2.8583 -0.4929
 7963SOL     OW35347   3.435   1.399   7.256  0.5651 -0.3012  0.0819
 7963SOL    HW135348   3.381   1.436   7.327 -1.3640 -0.6025 -1.2243
 7963SOL    HW235349   3.501   1.468   7.265 -1.3291  1.4305  0.7801
 7964SOL     OW35350   4.610   1.739   9.675 -0.3108 -0.3306  0.2772
 7964SOL    HW135351   4.563   1.730   9.592 -2.9702  0.0790  1.7370
 7964SOL    HW235352   4.693   1.772   9.642 -0.0002  1.3842  2.7339
 7965SOL     OW35353   3.013   4.681   1.336 -0.6276  0.2697 -0.2432
 7965SOL    HW135354   3.061   4.616   1.388  0.0712  1.6330  0.8107
 7965SOL    HW235355   3.090   0.008   1.307 -0.2918 -0.9113 -1.4214
 7966SOL     OW35356   4.152   4.177   8.880  0.4292  0.0001 -0.5627
 7966SOL    HW135357   4.224   4.136   8.928  0.9077 -0.8137 -1.9954
 7966SOL    HW235358   4.202   4.211   8.806 -0.0512  1.1937 -0.3436
 7967SOL     OW35359   3.936   1.621   2.244 -0.1055 -0.3361 -0.1073
 7967SOL    HW135360   3.847   1.611   2.207 -0.6628  0.9159  0.8933
 7967SOL    HW235361   3.968   1.532   2.256 -0.5017 -0.2418  1.6815
 7968SOL     OW35362   1.726   1.054  12.531  0.5015  0.7030  0.2485
 7968SOL    HW135363   1.783   1.082  12.604 -2.5188  4.1647  1.3050
 7968SOL    HW235364   1.730   0.959  12.538 -4.0093  0.4458 -0.5772
 7969SOL     OW35365   1.008   1.036   6.331  0.0473 -0.0100 -0.2977
 7969SOL    HW135366   1.026   1.060   6.421 -0.3952 -0.4669 -0.0851
 7969SOL    HW235367   1.007   1.125   6.297 -2.3386  0.5760  1.3394
 7970SOL     OW35368   0.648   0.011   5.345 -0.3133 -0.5504 -0.1139
 7970SOL    HW135369   0.590   0.078   5.309  1.2332  0.8633 -0.0183
 7970SOL    HW235370   0.586   4.688   5.401 -1.8356  0.8157 -0.6811
 7971SOL     OW35371   2.458   3.024   5.933  0.1575  0.2378 -0.0122
 7971SOL    HW135372   2.394   3.070   5.879 -0.6224 -0.5295  0.2707
 7971SOL    HW235373   2.418   3.020   6.020  0.2109 -0.4870 -0.0200
 7972SOL     OW35374   1.739   2.551   6.383  0.2747 -0.1004 -0.0269
 7972SOL    HW135375   1.729   2.532   6.477 -0.7649  0.2344 -0.0706
 7972SOL    HW235376   1.649   2.537   6.356  0.3721  2.7216 -1.7600
 7973SOL     OW35377   2.309   3.360   6.689  0.6849  0.0941 -0.2166
 7973SOL    HW135378   2.232   3.400   6.647 -0.5428 -0.7218  1.2654
 7973SOL    HW235379   2.305   3.403   6.774 -0.5546  1.7797 -1.1142
 7974SOL     OW35380   1.981   1.420  17.490  0.1726  0.2142 -0.0866
 7974SOL    HW135381   1.887   1.420  17.474  0.3867  2.0761 -1.3146
 7974SOL    HW235382   2.018   1.480  17.425  0.4506 -1.1486 -1.1939
 7975SOL     OW35383   2.969   2.890   7.025  0.1127 -0.0117 -0.7476
 7975SOL    HW135384   2.913   2.962   7.055  1.6905  0.2524  1.5150
 7975SOL    HW235385   2.916   2.813   7.048  1.3246 -1.3105 -2.3250
 7976SOL     OW35386   0.182   1.029   3.042  0.1743  0.4207 -0.5075
 7976SOL    HW135387   0.270   1.036   3.004  0.2564  0.0919 -0.3724
 7976SOL    HW235388   0.151   0.947   3.004 -1.6187  0.4188  1.0151
 7977SOL     OW35389   0.912   2.023   3.110 -0.1456 -0.1758 -0.3516
 7977SOL    HW135390   0.884   2.010   3.019 -1.9317  1.7793 -0.1088
 7977SOL    HW235391   0.904   1.930   3.127 -1.2886  0.6167  3.5306
 7978SOL     OW35392   3.375   0.413  16.177 -0.2632  0.2761  0.4842
 7978SOL    HW135393   3.334   0.488  16.136 -0.6908 -0.9961 -1.4097
 7978SOL    HW235394   3.373   0.455  16.263  0.8739  2.9036 -0.7754
 7979SOL     OW35395   0.649   2.970  10.976  0.0555  0.5510  0.0793
 7979SOL    HW135396   0.608   2.929  11.052  0.0909  3.3823  1.6257
 7979SOL    HW235397   0.740   2.985  11.003 -0.5937  0.4703  2.3331
 7980SOL     OW35398   4.370   3.944   5.820  0.6846  0.4089  0.1698
 7980SOL    HW135399   4.369   3.930   5.725 -4.1074 -1.0102  0.4635
 7980SOL    HW235400   4.352   3.854   5.848  0.8605 -0.3260 -2.0981
 7981SOL     OW35401   2.179   1.983   1.775 -0.1084 -0.5367 -0.3126
 7981SOL    HW135402   2.139   1.946   1.697 -0.8308  0.3016 -0.3493
 7981SOL    HW235403   2.190   1.906   1.831  2.3499 -0.3679 -0.5610
 7982SOL     OW35404   0.875   4.273   8.112 -0.4825  0.2937 -0.0011
 7982SOL    HW135405   0.848   4.345   8.168  1.1520 -0.3127  1.5565
 7982SOL    HW235406   0.960   4.249   8.148 -1.6437 -2.2345  1.0798
 7983SOL     OW35407   4.073   3.834  16.941 -0.3247 -0.2567 -0.3066
 7983SOL    HW135408   3.996   3.800  16.896 -0.5058  0.5137 -0.5856
 7983SOL    HW235409   4.090   3.905  16.878  1.1824 -0.0475  0.3333
 7984SOL     OW35410   2.782   3.109   9.285 -0.4203  0.2804 -0.4109
 7984SOL    HW135411   2.790   3.077   9.374  0.3843  2.1771  0.1971
 7984SOL    HW235412   2.866   3.097   9.241 -0.7236 -2.8439 -0.1106
 7985SOL     OW35413   0.440   1.031   5.199  0.2952  0.2832 -0.1074
 7985SOL    HW135414   0.395   1.038   5.115 -1.4169  1.2715  0.8762
 7985SOL    HW235415   0.527   1.013   5.164  0.7487  3.7092 -0.6660
 7986SOL     OW35416   1.716   1.472   6.076  0.2832 -0.2645 -0.0595
 7986SOL    HW135417   1.808   1.497   6.083 -0.4115  1.4141  2.9877
 7986SOL    HW235418   1.706   1.464   5.981  2.0159 -0.0824 -0.2671
 7987SOL     OW35419   2.465   3.197   5.600 -0.0039  0.3626 -0.0664
 7987SOL    HW135420   2.500   3.286   5.606 -0.7823  0.6144  0.6560
 7987SOL    HW235421   2.395   3.191   5.665  1.1696  0.3557  1.1951
 7988SOL     OW35422   3.494   2.251  12.289 -0.7451 -0.5637  0.3071
 7988SOL    HW135423   3.408   2.245  12.331  0.6115  0.1609  3.1811
 7988SOL    HW235424   3.505   2.160  12.261  2.7831  0.5244 -1.8685
 7989SOL     OW35425   4.085   2.313  13.424  0.2800 -0.2790 -0.2745
 7989SOL    HW135426   4.001   2.275  13.402 -0.0507 -0.2123  0.8806
 7989SOL    HW235427   4.146   2.240  13.427 -0.4839 -0.9174 -0.3965
 7990SOL     OW35428   2.871   3.556  13.072  1.0128  0.0176  0.1824
 7990SOL    HW135429   2.956   3.514  13.058 -0.0548 -1.5392 -1.6652
 7990SOL    HW235430   2.902   3.615  13.140  2.1036 -0.6196  0.2568
 7991SOL     OW35431   4.432   0.343   7.818  0.0914 -0.0228  0.7089
 7991SOL    HW135432   4.443   0.274   7.884 -0.1936  0.3128  1.1131
 7991SOL    HW235433   4.521   0.351   7.786 -0.6729  1.5417 -1.0463
 7992SOL     OW35434   4.279   1.026   4.173  0.1712  0.0002  0.2857
 7992SOL    HW135435   4.238   0.976   4.243 -0.3932  2.0137  1.4091
 7992SOL    HW235436   4.362   0.979   4.180 -0.5567 -1.3607 -0.4001
 7993SOL     OW35437   2.080   0.193   5.111  0.0968  0.6123 -0.2737
 7993SOL    HW135438   2.026   0.205   5.032 -1.4091  1.6447  0.8977
 7993SOL    HW235439   2.017   0.231   5.173  1.2917  0.4208  1.0590
 7994SOL     OW35440   2.931   2.933   7.505 -0.6863 -0.5378 -0.2255
 7994SOL    HW135441   2.858   2.872   7.496 -2.1196  0.9327  1.4730
 7994SOL    HW235442   3.007   2.898   7.458 -1.4378  0.0099 -1.8394
 7995SOL     OW35443   3.103   2.003   3.606 -0.4898  0.1471  0.0367
 7995SOL    HW135444   3.009   1.998   3.589 -0.8149  1.3786  1.4038
 7995SOL    HW235445   3.109   2.099   3.606 -2.2745  0.2596  0.7773
 7996SOL     OW35446   1.962   0.086   7.804  0.2193 -0.5951  0.2510
 7996SOL    HW135447   1.967   0.122   7.892 -1.3293 -0.6036  0.3413
 7996SOL    HW235448   1.872   0.109   7.782 -0.4161 -1.8071  1.6214
 7997SOL     OW35449   1.672   4.435  15.546  0.0551  0.4497 -0.5456
 7997SOL    HW135450   1.625   4.517  15.559 -1.6363 -0.3581 -1.6504
 7997SOL    HW235451   1.605   4.375  15.578 -1.5423  3.5236  1.8874
 7998SOL     OW35452   4.643   4.358   7.281  0.0672  0.2844  0.0411
 7998SOL    HW135453   0.011   4.370   7.254 -0.1020  0.1159 -0.6215
 7998SOL    HW235454   4.597   4.371   7.198  1.8373  3.0064 -0.5396
 7999SOL     OW35455   2.115   1.636  14.384 -0.5183 -0.1796 -0.2326
 7999SOL    HW135456   2.190   1.666  14.331 -0.6957 -0.2135 -0.4988
 7999SOL    HW235457   2.157   1.657  14.467 -2.2554  0.9435  0.3646
 8000SOL     OW35458   1.796   0.555   3.924 -0.0358  0.1097  0.3826
 8000SOL    HW135459   1.865   0.522   3.866  1.5724 -0.7571  2.7905
 8000SOL    HW235460   1.743   0.478   3.946  0.6787 -0.8963 -1.3928
 8001SOL     OW35461   2.751   0.416   0.417 -0.3271 -0.2273 -0.0454
 8001SOL    HW135462   2.712   0.357   0.481  0.0684 -0.4190  0.0221
 8001SOL    HW235463   2.754   0.494   0.473 -2.3495 -0.3992  0.2980
 8002SOL     OW35464   3.305   2.824   4.481 -0.4646 -0.5503  0.2065
 8002SOL    HW135465   3.323   2.735   4.450  1.1389  0.0004 -0.4730
 8002SOL    HW235466   3.259   2.812   4.564 -1.6427 -0.4743 -0.4503
 8003SOL     OW35467   2.055   1.122   0.669 -0.0330  0.3535 -0.2029
 8003SOL    HW135468   2.125   1.072   0.628 -0.7493 -0.6779 -0.1554
 8003SOL    HW235469   2.026   1.062   0.737  0.4546 -1.0164 -1.2040
 8004SOL     OW35470   2.953   3.620   2.530 -0.0260  0.1164  0.2775
 8004SOL    HW135471   2.987   3.670   2.457 -3.0417  1.0579 -0.4955
 8004SOL    HW235472   3.032   3.591   2.576 -0.2644 -1.5838 -0.3716
 8005SOL     OW35473   4.108   0.861   6.995  0.2511  0.1833  0.5906
 8005SOL    HW135474   4.117   0.780   6.946 -2.3014  1.0323 -1.2953
 8005SOL    HW235475   4.084   0.916   6.920  0.4039 -0.5957 -0.0314
 8006SOL     OW35476   3.121   4.614   5.322  0.0148 -0.4071  0.3457
 8006SOL    HW135477   3.145   4.552   5.253 -1.1384 -0.2958 -0.1636
 8006SOL    HW235478   3.177   4.593   5.397 -0.2023  1.2285  0.9518
 8007SOL     OW35479   4.576   1.690   0.080 -0.2389  0.5536  0.2400
 8007SOL    HW135480   4.581   1.595   0.067  0.0304  0.5741  0.2052
 8007SOL    HW235481   4.592   1.731  17.689 -0.8259 -3.4033 -1.8079
 8008SOL     OW35482   0.522   1.755   3.001  1.0396  0.1838  0.1145
 8008SOL    HW135483   0.468   1.787   3.073 -1.2491 -2.0677 -0.6353
 8008SOL    HW235484   0.497   1.824   2.940 -0.0327 -0.6991 -0.4182
 8009SOL     OW35485   1.567   4.529  10.357  0.2976 -0.4922  0.3587
 8009SOL    HW135486   1.578   4.609  10.409 -0.4104 -0.7941  0.9683
 8009SOL    HW235487   1.473   4.514  10.359  0.3583 -0.9078 -0.1546
 8010SOL     OW35488   1.323   4.039   0.252 -0.5391 -0.0375  0.2821
 8010SOL    HW135489   1.376   4.064   0.175  0.9170 -1.9484  0.6771
 8010SOL    HW235490   1.306   4.130   0.277  0.2775  0.4983 -1.0624
 8011SOL     OW35491   1.443   2.096   3.932  0.5059 -0.0777  0.0174
 8011SOL    HW135492   1.520   2.098   3.988  0.9651  1.1227 -0.6571
 8011SOL    HW235493   1.392   2.025   3.971 -0.9409  1.6159  1.2030
 8012SOL     OW35494   2.900   0.219   0.280  0.1053 -0.4504  0.4042
 8012SOL    HW135495   2.954   0.237   0.204  0.1435  0.2300  0.5941
 8012SOL    HW235496   2.864   0.305   0.304  0.2755 -0.3711  0.3723
 8013SOL     OW35497   4.687   3.191   5.414 -0.4527 -0.1319  0.0518
 8013SOL    HW135498   4.716   3.170   5.325  0.9040  1.0051  0.2105
 8013SOL    HW235499   0.010   3.274   5.430  0.3311 -0.7174  0.7922
 8014SOL     OW35500   3.348   0.484   4.294 -0.1051 -0.6539 -0.1855
 8014SOL    HW135501   3.442   0.490   4.311 -0.2225  0.2642  0.1007
 8014SOL    HW235502   3.323   0.395   4.321 -2.0869  0.0269  0.2646
 8015SOL     OW35503   4.716   1.309   7.876  0.7421  0.0373 -0.0732
 8015SOL    HW135504   4.667   1.228   7.888 -0.1661  0.3223 -2.0058
 8015SOL    HW235505   4.663   1.371   7.927 -1.4741 -2.4446  0.6186
 8016SOL     OW35506   0.615   3.381  15.930 -0.4027  0.6102 -0.0151
 8016SOL    HW135507   0.706   3.399  15.905 -0.6507  0.0453 -1.3679
 8016SOL    HW235508   0.599   3.321  15.857  0.0830 -0.7790  1.0313
 8017SOL     OW35509   0.376   4.399   7.422  0.0249  0.2669  0.3162
 8017SOL    HW135510   0.368   4.303   7.426 -1.8523  0.3798 -1.1637
 8017SOL    HW235511   0.287   4.433   7.432 -0.2675 -0.7145  1.0568
 8018SOL     OW35512   0.919   2.575   0.273  0.5958  0.0368  0.3242
 8018SOL    HW135513   0.902   2.578   0.368  0.4255 -2.3090  0.3678
 8018SOL    HW235514   0.949   2.484   0.268  0.3449 -0.1047  1.3381
 8019SOL     OW35515   1.477   3.338  13.557  0.0837 -0.0671 -0.3519
 8019SOL    HW135516   1.547   3.304  13.501 -2.7210  0.4432 -4.1436
 8019SOL    HW235517   1.405   3.275  13.555 -0.2435  0.2827  0.6113
 8020SOL     OW35518   3.358   3.968   8.386 -0.0794  0.3011 -0.2862
 8020SOL    HW135519   3.344   3.898   8.322  0.3609  0.0058 -0.0590
 8020SOL    HW235520   3.453   3.978   8.388 -0.1646  1.2301 -0.6715
 8021SOL     OW35521   0.040   2.234   4.627  0.3346  0.1334 -0.8071
 8021SOL    HW135522   0.061   2.304   4.688 -0.3706 -1.8503  1.7068
 8021SOL    HW235523   4.713   2.169   4.676  2.3548 -1.3487 -0.7103
 8022SOL     OW35524   4.668   0.094  14.286 -0.5012  0.1422 -0.1344
 8022SOL    HW135525   4.694   0.167  14.341  0.3037 -0.6808  0.5816
 8022SOL    HW235526   4.714   0.113  14.205  1.1202 -0.9591  0.5414
 8023SOL     OW35527   1.169   1.412   6.514  0.0554  0.5022 -0.3783
 8023SOL    HW135528   1.180   1.438   6.422 -1.9053  0.1926 -0.6930
 8023SOL    HW235529   1.112   1.480   6.548 -0.4477 -0.7808  1.3104
 8024SOL     OW35530   3.706   1.835   8.354  0.7021  0.1105 -0.1042
 8024SOL    HW135531   3.672   1.764   8.300  0.9018 -0.0694  0.0094
 8024SOL    HW235532   3.666   1.911   8.311  0.1739 -0.2061 -0.1761
 8025SOL     OW35533   4.596   1.890   7.874  0.7197  0.4465  0.4402
 8025SOL    HW135534   4.535   1.916   7.944  1.6250  0.5779  1.1853
 8025SOL    HW235535   4.552   1.925   7.797  0.1371 -1.3206 -0.0277
 8026SOL     OW35536   1.019   4.692   0.718 -0.2660  0.1383 -0.3348
 8026SOL    HW135537   1.029   4.668   0.810  2.3109  0.9386 -0.4329
 8026SOL    HW235538   1.110   4.705   0.690 -0.5069  1.9893 -0.2736
 8027SOL     OW35539   0.360   3.648   9.414  0.0114 -0.1943 -0.4089
 8027SOL    HW135540   0.376   3.586   9.485 -1.9188 -1.1831 -0.8354
 8027SOL    HW235541   0.266   3.635   9.401 -0.0906 -0.6347  0.7644
 8028SOL     OW35542   0.597   4.457   3.617 -0.3819 -0.1208 -0.0899
 8028SOL    HW135543   0.553   4.387   3.568  0.5838  0.0023 -1.1467
 8028SOL    HW235544   0.641   4.401   3.682 -1.3034 -1.2732 -0.4621
 8029SOL     OW35545   2.945   3.713   1.763  0.1236 -0.2951  0.0259
 8029SOL    HW135546   2.970   3.769   1.690  0.1402 -0.2125  0.0956
 8029SOL    HW235547   2.853   3.738   1.777  0.6117  2.5550 -1.8200
 8030SOL     OW35548   4.476   2.396   3.482 -0.6218 -0.0205  0.1944
 8030SOL    HW135549   4.555   2.418   3.432  0.2804 -0.1835  1.5576
 8030SOL    HW235550   4.472   2.464   3.550  2.4426  0.8797 -0.5169
 8031SOL     OW35551   3.029   4.188  11.762  0.5564  0.2054 -0.5628
 8031SOL    HW135552   2.943   4.231  11.763 -0.1182 -1.1138 -1.4745
 8031SOL    HW235553   3.087   4.250  11.806  0.0658  0.3094 -0.0449
 8032SOL     OW35554   4.195   0.916   7.239 -0.1140 -0.5777  0.5815
 8032SOL    HW135555   4.290   0.903   7.233  0.0461  1.0490 -0.6007
 8032SOL    HW235556   4.165   0.884   7.154  0.9743 -0.1415  0.0297
 8033SOL     OW35557   0.541   2.867   7.485 -0.2080  0.1652  0.6042
 8033SOL    HW135558   0.541   2.855   7.580 -0.7163  1.2848  0.7529
 8033SOL    HW235559   0.451   2.898   7.474 -0.7095 -2.3520 -2.4246
 8034SOL     OW35560   0.694   2.533   8.677 -0.2458  0.2024  0.1492
 8034SOL    HW135561   0.615   2.487   8.703  0.0395  0.0858  0.8197
 8034SOL    HW235562   0.760   2.489   8.731  1.0899  1.3888 -0.5207
 8035SOL     OW35563   3.133   2.657  13.804 -0.1141 -0.3061  0.0894
 8035SOL    HW135564   3.164   2.684  13.890  1.8854 -0.8488 -0.4473
 8035SOL    HW235565   3.062   2.600  13.832 -1.3152  0.6256 -1.0029
 8036SOL     OW35566   2.567   3.552   8.860 -0.4601  0.3232 -0.6789
 8036SOL    HW135567   2.525   3.466   8.855 -0.0817  0.0118  1.5326
 8036SOL    HW235568   2.582   3.559   8.954  2.0200  1.6375 -1.1711
 8037SOL     OW35569   4.339   1.922  14.246 -0.0608 -0.2176 -0.1625
 8037SOL    HW135570   4.337   1.979  14.322  2.4931  0.8997 -0.9257
 8037SOL    HW235571   4.433   1.927  14.230 -0.1929  0.6864 -0.6425
 8038SOL     OW35572   1.671   1.437   7.611  0.7183  0.2986 -0.4948
 8038SOL    HW135573   1.592   1.459   7.563  1.3982  1.8122 -0.9195
 8038SOL    HW235574   1.673   1.511   7.672  0.9839 -0.0793 -0.0369
 8039SOL     OW35575   4.584   0.752   6.887  0.4498 -0.3596  0.5037
 8039SOL    HW135576   4.666   0.741   6.839  1.4484  0.2150  2.0922
 8039SOL    HW235577   4.604   0.794   6.970  0.0240 -0.5620  0.7059
 8040SOL     OW35578   4.274   0.075   4.014 -0.0595 -0.0004  0.3133
 8040SOL    HW135579   4.210   0.048   4.080 -0.6802 -0.7118 -0.5740
 8040SOL    HW235580   4.326   4.718   4.009 -2.5610 -1.5441 -1.2124
 8041SOL     OW35581   2.065   2.829   4.198 -0.3452  0.4212  0.4385
 8041SOL    HW135582   2.042   2.760   4.260  0.5777  0.0120  0.3284
 8041SOL    HW235583   2.130   2.891   4.230 -0.4496  2.3718 -3.1734
 8042SOL     OW35584   0.812   1.223   5.967 -0.1337  0.0183  0.2067
 8042SOL    HW135585   0.859   1.224   5.883 -0.6162  0.6525 -0.0529
 8042SOL    HW235586   0.803   1.128   5.977 -0.1553 -0.0097 -0.0849
 8043SOL     OW35587   4.698   1.939   5.235  0.2526  0.4959 -0.1803
 8043SOL    HW135588   4.718   2.030   5.211 -0.0100  0.9638  1.3656
 8043SOL    HW235589   4.634   1.950   5.306 -1.1022  0.2684 -1.3700
 8044SOL     OW35590   3.493   1.622   6.306  0.2196  0.0191  0.6910
 8044SOL    HW135591   3.482   1.527   6.311  0.6073  0.0602  2.4259
 8044SOL    HW235592   3.408   1.661   6.325 -1.0721 -0.7656 -3.3674
 8045SOL     OW35593   0.735   4.293  10.051  0.6998  0.4603 -0.0545
 8045SOL    HW135594   0.734   4.249   9.966 -3.4553  0.0048  0.2165
 8045SOL    HW235595   0.736   4.221  10.115 -1.6947 -0.4371 -1.0425
 8046SOL     OW35596   3.783   1.255   6.808 -0.4745 -0.0741 -0.1230
 8046SOL    HW135597   3.758   1.171   6.845 -0.6181  0.7165  1.5941
 8046SOL    HW235598   3.877   1.256   6.792 -0.9258 -1.1196 -2.9257
 8047SOL     OW35599   1.893   1.262   9.357  0.0255 -0.2110 -0.1381
 8047SOL    HW135600   1.863   1.314   9.432  0.8895  2.5252 -1.6710
 8047SOL    HW235601   1.985   1.286   9.363  0.2381 -1.5632  2.0285
 8048SOL     OW35602   2.740   2.830   8.116 -0.0900  0.3730 -0.2273
 8048SOL    HW135603   2.701   2.869   8.194  0.7083 -0.9036  0.8142
 8048SOL    HW235604   2.669   2.848   8.054 -0.8805 -0.1638  0.5184
 8049SOL     OW35605   3.708   0.338   6.355  0.3492 -0.6105 -0.1201
 8049SOL    HW135606   3.688   0.298   6.270 -1.1624 -0.8983  0.3668
 8049SOL    HW235607   3.788   0.294   6.385  0.5961  0.0567  0.2094
 8050SOL     OW35608   2.051   4.438   3.361 -0.0043 -0.2568  0.1174
 8050SOL    HW135609   2.066   4.425   3.268  1.6959 -0.2711  0.3873
 8050SOL    HW235610   1.980   4.374   3.370 -0.4308  0.1932 -0.0740
 8051SOL     OW35611   0.274   3.898   6.496  0.1995 -0.1632  0.1624
 8051SOL    HW135612   0.257   3.983   6.537 -0.5108 -0.4793  0.5446
 8051SOL    HW235613   0.185   3.861   6.495  1.3113 -2.8567  1.5320
 8052SOL     OW35614   2.404   3.380   8.254  0.1031  0.0372 -0.1825
 8052SOL    HW135615   2.372   3.454   8.305  0.0626  0.3993 -0.7457
 8052SOL    HW235616   2.343   3.384   8.181 -0.3978  0.8133  0.2786
 8053SOL     OW35617   2.180   4.550   8.058 -0.6114 -0.1476  0.0683
 8053SOL    HW135618   2.124   4.477   8.083 -0.3037 -1.3189 -2.7052
 8053SOL    HW235619   2.188   4.596   8.142  0.8253 -0.0284 -0.1313
 8054SOL     OW35620   0.285   1.620   8.438  0.5279  0.4317 -0.5674
 8054SOL    HW135621   0.270   1.648   8.528 -0.6820 -1.4149 -0.1807
 8054SOL    HW235622   0.374   1.584   8.436  0.7397  0.8962  0.7651
 8055SOL     OW35623   1.518   1.292   7.072 -0.0655 -0.6989 -0.2433
 8055SOL    HW135624   1.448   1.261   7.014 -0.2251 -0.0851 -0.3789
 8055SOL    HW235625   1.566   1.328   6.998  1.9662  0.9278  1.8506
 8056SOL     OW35626   1.185   4.680   9.177 -0.4748 -0.3725 -0.2215
 8056SOL    HW135627   1.183   4.709   9.086 -4.6473 -0.1965 -0.0845
 8056SOL    HW235628   1.094   4.697   9.202 -1.2153 -2.1426 -1.7606
 8057SOL     OW35629   0.603   1.227  11.024  0.2785 -0.2273 -0.1969
 8057SOL    HW135630   0.657   1.291  10.977 -0.0722  0.1285 -0.1230
 8057SOL    HW235631   0.638   1.149  10.981 -1.0064  1.3363 -4.0986
 8058SOL     OW35632   1.052   0.493  11.167  0.4161 -0.1672 -0.3184
 8058SOL    HW135633   1.111   0.530  11.101 -2.0405 -1.3008 -3.1356
 8058SOL    HW235634   0.998   0.432  11.117 -0.5296 -0.8587  1.5435
 8059SOL     OW35635   1.255   0.755   0.173 -0.0536 -0.8830 -0.1831
 8059SOL    HW135636   1.298   0.734   0.090 -0.4302 -4.4082  0.5395
 8059SOL    HW235637   1.330   0.788   0.221  0.5845 -2.9285  0.2071
 8060SOL     OW35638   2.433   0.140   4.630 -0.2250  0.1014 -0.2563
 8060SOL    HW135639   2.475   0.192   4.562  1.5213 -0.5456  0.3377
 8060SOL    HW235640   2.394   0.067   4.582  2.3033 -0.1768 -1.8549
 8061SOL     OW35641   2.792   4.245   6.743  0.1823  0.0700 -0.4059
 8061SOL    HW135642   2.841   4.312   6.790 -0.1976 -0.4724  0.7434
 8061SOL    HW235643   2.734   4.225   6.816  2.3914 -2.1489  0.7356
 8062SOL     OW35644   0.903   4.489   3.351 -0.4039 -0.1710 -0.4959
 8062SOL    HW135645   0.960   4.420   3.385 -1.6250 -0.7460  0.3968
 8062SOL    HW235646   0.952   4.531   3.280 -0.1201  0.8783  0.3160
 8063SOL     OW35647   0.501   0.045   5.730 -0.3541  0.0223 -0.4020
 8063SOL    HW135648   0.577   0.037   5.788 -0.4337  0.0275 -0.2960
 8063SOL    HW235649   0.510   4.688   5.678 -1.4290 -0.5783  0.3258
 8064SOL     OW35650   4.574   3.850   0.048  0.0938  0.7413  0.1152
 8064SOL    HW135651   4.502   3.833   0.109  0.6024  0.1299  0.5574
 8064SOL    HW235652   4.540   3.935   0.019 -0.0818  0.3625 -0.7958
 8065SOL     OW35653   0.202   3.233  13.824  0.3518 -0.4238  0.0536
 8065SOL    HW135654   0.197   3.269  13.912 -0.0326 -1.3301  0.3965
 8065SOL    HW235655   0.248   3.149  13.835  0.8493 -0.3208 -1.2640
 8066SOL     OW35656   2.875   0.119  13.843  0.0365  0.0583  0.1334
 8066SOL    HW135657   2.831   0.067  13.910  1.3276 -1.9845 -0.6331
 8066SOL    HW235658   2.814   0.192  13.827  1.8689  1.6355  0.3867
 8067SOL     OW35659   3.743   2.897  15.507  0.2105 -0.1024 -0.2097
 8067SOL    HW135660   3.748   2.957  15.433 -3.2337 -0.5306 -0.8289
 8067SOL    HW235661   3.656   2.923  15.539 -0.3861 -0.7760 -1.3020
 8068SOL     OW35662   1.780   2.270  11.596 -0.3115  0.0563  0.6840
 8068SOL    HW135663   1.788   2.192  11.542 -1.3032 -0.2848  1.0188
 8068SOL    HW235664   1.689   2.298  11.582 -0.2585  0.3615  0.9558
 8069SOL     OW35665   1.642   1.342  10.703  0.2670 -0.2104 -0.2613
 8069SOL    HW135666   1.672   1.429  10.730 -0.4367  0.3218 -1.2241
 8069SOL    HW235667   1.562   1.368  10.658  0.1053 -1.2785 -0.5806
 8070SOL     OW35668   4.219   0.615   2.864 -0.7139 -0.0026 -0.0616
 8070SOL    HW135669   4.266   0.568   2.933  1.1511  2.3583  0.2584
 8070SOL    HW235670   4.208   0.695   2.915 -1.8202 -1.8278  2.5430
 8071SOL     OW35671   0.293   1.304  11.445  0.1660  0.4521  0.4525
 8071SOL    HW135672   0.340   1.289  11.363 -0.0500  0.5025  0.3207
 8071SOL    HW235673   0.241   1.381  11.424  0.2136  0.6150  0.9175
 8072SOL     OW35674   3.602   1.614   8.258 -0.4116  0.2488 -0.3647
 8072SOL    HW135675   3.559   1.603   8.342  0.9637 -0.7068  0.2099
 8072SOL    HW235676   3.623   1.521   8.245  0.0006  0.1115  1.2564
 8073SOL     OW35677   1.161   0.340   5.812  0.1844  0.4137  0.0665
 8073SOL    HW135678   1.154   0.308   5.722  1.5210 -0.9756  0.4475
 8073SOL    HW235679   1.239   0.394   5.803  0.8300 -0.5020  0.0877
 8074SOL     OW35680   3.900   4.039   4.033  0.1717  0.2846  0.6434
 8074SOL    HW135681   3.923   4.111   3.975 -0.0836  0.4485  0.7486
 8074SOL    HW235682   3.807   4.062   4.038 -0.0872 -0.3751 -1.2417
 8075SOL     OW35683   1.077   2.153   3.747 -0.1647 -0.0196  0.5947
 8075SOL    HW135684   1.122   2.081   3.704  0.5006 -0.2786  1.7225
 8075SOL    HW235685   1.141   2.183   3.812  0.9048  1.0837 -0.9840
 8076SOL     OW35686   3.984   2.409  15.712 -0.4543  0.7345 -0.0855
 8076SOL    HW135687   3.978   2.345  15.784 -1.4913  1.5283  0.5307
 8076SOL    HW235688   3.936   2.483  15.749 -1.0589 -0.3042  1.2115
 8077SOL     OW35689   3.252   3.224  14.007 -0.1001 -0.1113 -0.3052
 8077SOL    HW135690   3.316   3.219  14.078  0.8124  1.9440 -0.9841
 8077SOL    HW235691   3.263   3.147  13.951 -1.5074  0.3419 -1.1825
 8078SOL     OW35692   1.411   2.253   8.886 -0.4188 -0.6229  0.2653
 8078SOL    HW135693   1.342   2.205   8.840  1.0057 -1.1374 -1.3707
 8078SOL    HW235694   1.377   2.341   8.875 -0.9100 -0.7786  0.5693
 8079SOL     OW35695   4.618   4.270  12.406  0.2799 -0.3312  0.2972
 8079SOL    HW135696   4.527   4.245  12.419 -0.1807  0.9080 -0.5250
 8079SOL    HW235697   4.604   4.362  12.425  0.6303 -0.0511 -0.7875
 8080SOL     OW35698   3.290   3.026   7.698 -0.3830 -0.0238 -0.6995
 8080SOL    HW135699   3.231   3.082   7.647  1.0354  0.8421 -1.3834
 8080SOL    HW235700   3.223   2.959   7.712  1.0178 -1.7228 -2.2132
 8081SOL     OW35701   4.002   1.360   6.397 -0.3495 -0.3604 -0.2868
 8081SOL    HW135702   3.919   1.386   6.437 -0.3465  0.1917 -0.6314
 8081SOL    HW235703   4.035   1.444   6.363  0.2688 -0.6304 -0.3667
 8082SOL     OW35704   2.548   3.305   3.388  0.5076 -0.3367  0.3512
 8082SOL    HW135705   2.559   3.225   3.439 -0.6693 -0.1244  0.9391
 8082SOL    HW235706   2.634   3.305   3.347  1.0378  0.1712  1.4933
 8083SOL     OW35707   0.461   1.741   1.037  0.1616 -0.2561  0.2493
 8083SOL    HW135708   0.528   1.733   1.104 -0.4656 -0.5828  0.8324
 8083SOL    HW235709   0.511   1.733   0.955  0.4816 -0.7712  0.4927
 8084SOL     OW35710   2.454   2.586  13.838  0.3072 -0.4754  0.1460
 8084SOL    HW135711   2.430   2.608  13.748  0.3890 -2.0223 -0.2550
 8084SOL    HW235712   2.494   2.662  13.879  1.7349 -1.3709  0.4014
 8085SOL     OW35713   0.702   4.108   5.432  0.2337 -0.5490 -0.3297
 8085SOL    HW135714   0.699   4.047   5.359  0.4655 -0.2791 -0.5641
 8085SOL    HW235715   0.684   4.195   5.396  1.7833 -0.1687 -0.1901
 8086SOL     OW35716   2.846   3.599  12.034  0.0715  0.4188 -0.6985
 8086SOL    HW135717   2.922   3.656  12.032 -0.5935  1.3160 -0.3518
 8086SOL    HW235718   2.890   3.518  12.008 -1.1119 -0.6219  0.4860
 8087SOL     OW35719   4.517   2.654   4.914  0.0231  0.1525  0.1324
 8087SOL    HW135720   4.538   2.561   4.903 -0.0632  0.0085  1.2222
 8087SOL    HW235721   4.539   2.656   5.007 -1.3539 -0.1562  0.4636
 8088SOL     OW35722   4.153   3.873  17.229 -0.4443  0.3528 -0.1620
 8088SOL    HW135723   4.079   3.927  17.254  0.6082  1.3726  0.7421
 8088SOL    HW235724   4.123   3.851  17.141  0.2073  1.4146 -0.6493
 8089SOL     OW35725   2.993   1.927   5.947 -0.1255  0.2222 -0.3875
 8089SOL    HW135726   3.012   1.959   6.035  0.5704 -0.0537 -0.4370
 8089SOL    HW235727   3.007   2.006   5.895  0.9365 -0.7712 -1.6407
 8090SOL     OW35728   3.374   0.005  16.210  0.1991  0.2304  0.3673
 8090SOL    HW135729   3.317   4.682  16.149 -0.7422  2.9989 -0.8639
 8090SOL    HW235730   3.426   4.657  16.246  2.0000  1.5930  0.4807
 8091SOL     OW35731   0.237   3.753  10.489 -0.1183 -0.3307 -0.4339
 8091SOL    HW135732   0.255   3.663  10.462 -2.0181 -0.1037 -2.4621
 8091SOL    HW235733   0.208   3.727  10.576  1.5866  0.7484  0.4608
 8092SOL     OW35734   0.536   3.523  11.942 -0.0395  0.4679  0.0817
 8092SOL    HW135735   0.502   3.561  11.861  0.5618 -1.6115 -1.1397
 8092SOL    HW235736   0.454   3.477  11.963  0.4577 -1.0986 -1.4158
 8093SOL     OW35737   3.913   4.153  16.960  0.4621  0.1775 -0.1452
 8093SOL    HW135738   3.857   4.185  16.888 -0.1739  2.1643  1.2416
 8093SOL    HW235739   3.848   4.101  17.007  0.1713  0.6368 -0.0318
 8094SOL     OW35740   1.953   3.594   1.709 -0.2127 -0.3108  0.3210
 8094SOL    HW135741   1.918   3.508   1.687  0.9985 -0.1417 -2.2839
 8094SOL    HW235742   1.984   3.590   1.800  0.5709 -3.0884 -0.0820
 8095SOL     OW35743   1.248   0.391   3.516  0.3563  0.0244  0.0049
 8095SOL    HW135744   1.200   0.320   3.559 -1.6010 -1.1448 -4.0964
 8095SOL    HW235745   1.305   0.336   3.463  1.0145 -0.7467  1.4901
 8096SOL     OW35746   1.597   0.035   7.592 -0.3030  0.6697  0.0959
 8096SOL    HW135747   1.540   0.011   7.519 -0.2778  2.3173 -0.4672
 8096SOL    HW235748   1.638   0.107   7.544 -0.0036  0.1083 -0.4822
 8097SOL     OW35749   0.747   4.504  12.449  0.1925  0.1771 -0.0037
 8097SOL    HW135750   0.718   4.531  12.362  2.1996  0.9271 -0.4354
 8097SOL    HW235751   0.838   4.523  12.428 -0.0037  0.6440 -0.4395
 8098SOL     OW35752   4.212   2.925   2.532 -0.6315  0.2402 -0.0255
 8098SOL    HW135753   4.270   2.858   2.498 -0.4881  0.1525  0.3932
 8098SOL    HW235754   4.148   2.869   2.575  0.0099  0.9755  1.8815
 8099SOL     OW35755   4.008   1.146   1.601  0.2625  0.3945 -0.8022
 8099SOL    HW135756   4.012   1.056   1.635 -2.2231  1.0145  1.1354
 8099SOL    HW235757   3.957   1.191   1.668  0.0093 -2.5665  1.0114
 8100SOL     OW35758   4.361   2.683   2.797  0.1961  0.0282  0.2683
 8100SOL    HW135759   4.340   2.593   2.773 -0.2853  0.6290 -1.6163
 8100SOL    HW235760   4.373   2.725   2.712  2.8308  0.3154  0.7913
 8101SOL     OW35761   3.290   3.994   2.750 -0.3907  0.0860  0.5414
 8101SOL    HW135762   3.259   4.058   2.814  0.7174 -0.6117  1.7683
 8101SOL    HW235763   3.384   4.011   2.761 -0.0467 -0.4948 -1.3979
 8102SOL     OW35764   3.831   1.226   8.898 -0.3355 -0.0020  1.0459
 8102SOL    HW135765   3.744   1.201   8.867 -0.6640  1.3008  0.9393
 8102SOL    HW235766   3.830   1.190   8.987  3.1455 -1.5717  0.4536
 8103SOL     OW35767   0.151   0.298   2.159  0.1440 -0.2951 -0.2597
 8103SOL    HW135768   0.128   0.212   2.193  0.7554 -0.4305 -0.1905
 8103SOL    HW235769   0.135   0.299   2.064 -0.7696 -2.3634 -0.1218
 8104SOL     OW35770   1.709   1.475   2.094  0.1002 -0.6259 -0.1499
 8104SOL    HW135771   1.627   1.524   2.087  0.6571  0.4289  0.9640
 8104SOL    HW235772   1.676   1.385   2.085 -0.7303 -0.1595 -1.6934
 8105SOL     OW35773   2.390   2.382   3.961  0.1375 -0.1028  0.4536
 8105SOL    HW135774   2.365   2.446   3.894  1.6692 -1.2549 -1.2115
 8105SOL    HW235775   2.379   2.444   4.033 -1.6792 -0.2143  0.2901
 8106SOL     OW35776   1.237   3.498  11.969 -0.2966 -0.1484 -0.0649
 8106SOL    HW135777   1.331   3.489  11.982 -0.0380  1.2960 -0.9702
 8106SOL    HW235778   1.247   3.579  11.920 -2.9788 -0.3760 -1.0069
 8107SOL     OW35779   2.662   2.534   8.266 -0.1338  0.1895 -0.2363
 8107SOL    HW135780   2.701   2.518   8.352 -0.5737  0.8458  0.0868
 8107SOL    HW235781   2.742   2.551   8.217  1.5721  0.8434  2.7220
 8108SOL     OW35782   2.541   3.862  14.955 -0.5418  0.5533  0.2942
 8108SOL    HW135783   2.461   3.885  14.907  0.7397  0.5528 -1.8653
 8108SOL    HW235784   2.608   3.835  14.892 -2.0430 -0.7321 -0.7530
 8109SOL     OW35785   3.738   1.885  10.142 -0.0122 -0.0948 -0.2984
 8109SOL    HW135786   3.659   1.830  10.139 -1.1295  1.6879 -3.1482
 8109SOL    HW235787   3.762   1.868  10.233 -0.0127  0.7864 -0.1379
 8110SOL     OW35788   4.619   1.077   7.404 -0.4183 -0.0274  0.7335
 8110SOL    HW135789   4.656   1.140   7.466  0.5794 -0.6581  0.7683
 8110SOL    HW235790   4.665   1.087   7.321 -1.0032  2.2270  0.6730
 8111SOL     OW35791   2.451   3.477  15.496  0.0384 -0.3998 -0.2120
 8111SOL    HW135792   2.522   3.516  15.445 -1.8706  1.3608 -1.5013
 8111SOL    HW235793   2.402   3.434  15.426 -0.8325 -0.6474  0.5388
 8112SOL     OW35794   0.096   2.321  17.483 -0.0767 -0.5694 -0.0835
 8112SOL    HW135795   0.101   2.407  17.523  3.9363 -0.2552 -1.2642
 8112SOL    HW235796   0.004   2.325  17.457  0.2683  0.3707 -1.1716
 8113SOL     OW35797   1.918   3.899   8.914  0.5286 -0.6048  0.0543
 8113SOL    HW135798   1.947   3.814   8.946  0.8196 -0.9346 -1.1032
 8113SOL    HW235799   1.889   3.867   8.829 -0.6886 -0.5563  0.4558
 8114SOL     OW35800   4.201   2.929   3.969 -0.1713 -0.1114 -0.1168
 8114SOL    HW135801   4.137   2.926   4.040 -0.6363  2.0369 -0.4255
 8114SOL    HW235802   4.278   2.945   4.024  0.3378  2.2679 -1.5098
 8115SOL     OW35803   2.734   2.066  16.945  0.1991 -0.0806  0.2541
 8115SOL    HW135804   2.780   2.051  16.863 -0.3524  0.3434 -0.1334
 8115SOL    HW235805   2.800   2.035  17.007  0.1375 -0.6253  0.0453
 8116SOL     OW35806   1.575   1.343  14.830  0.2068 -0.0569 -0.7409
 8116SOL    HW135807   1.574   1.298  14.914 -0.6587 -0.7112 -1.1035
 8116SOL    HW235808   1.622   1.284  14.770  1.5778  0.2474  0.0446
 8117SOL     OW35809   4.412   3.881  11.008 -0.3163 -0.2587  0.5111
 8117SOL    HW135810   4.460   3.896  11.089 -1.2365  2.9202  0.4801
 8117SOL    HW235811   4.324   3.858  11.039  0.3122 -2.3366  0.7665
 8118SOL     OW35812   0.212   3.634  10.733  0.2088 -0.0345  0.5050
 8118SOL    HW135813   0.297   3.598  10.706  0.0307  0.3930 -0.6539
 8118SOL    HW235814   0.166   3.558  10.768 -2.0049 -0.4210 -3.2217
 8119SOL     OW35815   3.073   3.412   3.232  0.2099  0.8595  0.1821
 8119SOL    HW135816   3.064   3.499   3.195  1.4935  0.5964 -0.7261
 8119SOL    HW235817   3.161   3.401   3.197  0.5436  0.2924  1.1848
 8120SOL     OW35818   1.970   4.319   0.069 -0.3095 -0.1439  0.0753
 8120SOL    HW135819   2.059   4.291   0.046  0.4678  1.1966  1.4476
 8120SOL    HW235820   1.947   4.377  17.690  0.1557 -1.9921 -1.5630
 8121SOL     OW35821   0.770   2.611  14.122  0.2758  0.6643 -0.4461
 8121SOL    HW135822   0.783   2.705  14.135  0.6994  0.5215  0.1456
 8121SOL    HW235823   0.752   2.599  14.029  0.2149  1.2233 -0.5048
 8122SOL     OW35824   2.367   3.059   8.903 -0.2504 -0.2191 -0.6261
 8122SOL    HW135825   2.416   3.038   8.824  0.4373 -0.1282 -0.2216
 8122SOL    HW235826   2.303   2.989   8.891  0.6086 -0.9212 -1.0161
 8123SOL     OW35827   4.150   2.142   4.629  0.6546 -0.1147  0.5366
 8123SOL    HW135828   4.106   2.218   4.591  0.5836 -0.0026  0.8343
 8123SOL    HW235829   4.190   2.183   4.706  1.4186  1.1241 -0.5166
 8124SOL     OW35830   2.162   0.137  10.409  0.3806  0.2247  0.7748
 8124SOL    HW135831   2.131   0.172  10.326  3.0389  2.4151  0.6858
 8124SOL    HW235832   2.097   0.075  10.441 -0.0728  0.4992  0.3840
 8125SOL     OW35833   4.144   4.518   3.765  0.1137  0.2569  0.0332
 8125SOL    HW135834   4.051   4.538   3.758  0.6195  2.2363 -1.3186
 8125SOL    HW235835   4.139   4.426   3.742 -3.4003  0.2731  0.7204
 8126SOL     OW35836   1.096   3.858   0.498 -0.3802 -0.2151  0.0718
 8126SOL    HW135837   1.028   3.858   0.565  0.4464 -0.6730  0.9019
 8126SOL    HW235838   1.109   3.951   0.484  2.4722 -0.6044  0.3058
 8127SOL     OW35839   0.431   3.053   8.864  0.0357 -0.1072 -0.4254
 8127SOL    HW135840   0.468   2.973   8.826  2.3298  1.4990 -1.5749
 8127SOL    HW235841   0.462   3.116   8.799 -0.7805  0.3384 -0.3784
 8128SOL     OW35842   2.051   2.136  15.303 -0.2295 -0.8147 -0.3145
 8128SOL    HW135843   2.012   2.169  15.222  0.3716 -1.3411 -0.8178
 8128SOL    HW235844   2.137   2.112  15.271 -0.0935 -0.6276 -0.0886
 8129SOL     OW35845   0.588   2.399  12.774 -0.2921  0.2455 -0.3745
 8129SOL    HW135846   0.594   2.304  12.764 -2.2403 -0.1305  2.0044
 8129SOL    HW235847   0.679   2.427  12.761 -0.1139  1.5008  3.5842
 8130SOL     OW35848   0.568   3.036   5.107 -0.1407  0.6357 -0.1621
 8130SOL    HW135849   0.510   2.969   5.143  1.2594 -0.9982 -0.9480
 8130SOL    HW235850   0.585   3.000   5.020  0.1119 -1.6098  0.7923
 8131SOL     OW35851   3.346   0.859  17.383 -0.2906 -0.1690 -0.0974
 8131SOL    HW135852   3.398   0.859  17.464 -0.1915  0.6253 -0.1611
 8131SOL    HW235853   3.272   0.802  17.402  0.1218 -1.1281 -1.3615
 8132SOL     OW35854   0.987   1.300   6.219  0.2365 -0.5527  0.5012
 8132SOL    HW135855   1.039   1.256   6.153 -0.0480  0.1663 -0.2051
 8132SOL    HW235856   1.042   1.376   6.237 -1.0715  0.2175  1.2802
 8133SOL     OW35857   3.363   1.167   5.523 -0.2623  0.1461 -0.4054
 8133SOL    HW135858   3.457   1.167   5.507  0.0646  0.5721  1.5110
 8133SOL    HW235859   3.340   1.109   5.450 -0.4443 -0.6838  0.3045
 8134SOL     OW35860   2.141   4.099   2.517 -0.2415  0.4369  0.0469
 8134SOL    HW135861   2.090   4.160   2.463 -2.9766 -0.0467  2.0835
 8134SOL    HW235862   2.227   4.137   2.500 -0.1207 -0.4828 -1.4413
 8135SOL     OW35863   0.724   3.536   8.440  0.2970 -0.1841 -0.0412
 8135SOL    HW135864   0.706   3.574   8.525 -2.1138  0.5536 -0.8792
 8135SOL    HW235865   0.805   3.488   8.459 -0.0008 -1.2149 -1.3476
 8136SOL     OW35866   3.677   3.081  10.508  0.1331 -0.2672 -0.1303
 8136SOL    HW135867   3.725   3.106  10.429  0.6535  0.8150  0.5137
 8136SOL    HW235868   3.732   3.012  10.544  1.6273  0.6736 -0.6354
 8137SOL     OW35869   0.289   3.821   6.016 -0.2276 -0.3590  0.1020
 8137SOL    HW135870   0.381   3.842   5.999 -0.9277  1.0958 -1.8668
 8137SOL    HW235871   0.288   3.862   6.103 -0.1398 -1.2121  0.5048
 8138SOL     OW35872   4.365   2.454   4.351 -0.5715 -0.1617  0.1544
 8138SOL    HW135873   4.410   2.387   4.402  0.5447  1.0577  0.7830
 8138SOL    HW235874   4.391   2.436   4.261 -1.3195 -1.1946  0.1449
 8139SOL     OW35875   1.265   4.474   8.442 -0.0667  0.0939  0.2307
 8139SOL    HW135876   1.350   4.476   8.486 -0.2542 -0.0303  0.5989
 8139SOL    HW235877   1.236   4.383   8.451 -2.1510  0.6809 -0.4203
 8140SOL     OW35878   1.668   2.332   2.546 -0.5923 -0.5154  0.0537
 8140SOL    HW135879   1.670   2.395   2.617 -0.3522 -1.6232  1.0260
 8140SOL    HW235880   1.626   2.261   2.595 -0.3775  1.1947  2.6766
 8141SOL     OW35881   2.115   4.548  16.759  0.1646  0.3957  0.5369
 8141SOL    HW135882   2.068   4.578  16.837 -0.0367 -2.0269  1.3644
 8141SOL    HW235883   2.133   4.455  16.777 -0.6212  0.0935 -0.2434
 8142SOL     OW35884   3.776   3.384   3.538 -0.3802 -0.0746  0.1316
 8142SOL    HW135885   3.865   3.349   3.540  1.3108  4.1312 -1.8409
 8142SOL    HW235886   3.775   3.404   3.445  1.0467  2.6908  0.7157
 8143SOL     OW35887   0.386   3.533   1.853  0.3886  1.0720 -0.2506
 8143SOL    HW135888   0.425   3.583   1.925  2.2118  1.8610 -1.8011
 8143SOL    HW235889   0.433   3.450   1.851 -1.3240  0.0740  1.0881
 8144SOL     OW35890   4.147   2.517   0.582 -1.1910  0.5809  0.1287
 8144SOL    HW135891   4.110   2.465   0.654 -1.6619 -0.1623 -0.6597
 8144SOL    HW235892   4.208   2.579   0.623  1.6980 -1.6347 -0.7912
 8145SOL     OW35893   1.431   1.584  11.280  0.4727  0.9026  0.2538
 8145SOL    HW135894   1.443   1.500  11.324  1.8409  0.8855 -0.1401
 8145SOL    HW235895   1.382   1.548  11.206  0.1258  1.9826 -0.0308
 8146SOL     OW35896   0.403   4.489  17.581 -0.1311  0.3884  0.1035
 8146SOL    HW135897   0.475   4.429  17.561  0.8329  2.0992 -1.6019
 8146SOL    HW235898   0.424   4.572  17.538 -0.3351  0.6663  0.5484
 8147SOL     OW35899   0.995   0.351   5.094 -0.1612  0.3333  0.0423
 8147SOL    HW135900   0.911   0.393   5.112 -0.8670 -1.0914  0.1021
 8147SOL    HW235901   0.960   0.266   5.068  1.1317 -0.3686  0.5804
 8148SOL     OW35902   3.121   1.685   6.938  0.1998 -0.2334 -0.5365
 8148SOL    HW135903   3.083   1.606   6.977  0.2238  0.4978  0.9992
 8148SOL    HW235904   3.056   1.752   6.960  0.9534  0.3776 -0.1607
 8149SOL     OW35905   1.700   0.180   7.807 -0.1851 -0.1341  0.1006
 8149SOL    HW135906   1.650   0.250   7.851 -1.0198 -0.3433 -0.5104
 8149SOL    HW235907   1.625   0.141   7.761  0.6244 -0.1396 -1.1907
 8150SOL     OW35908   0.135   0.697  16.468 -0.2916  0.1386  0.2629
 8150SOL    HW135909   0.198   0.717  16.399  1.8293 -1.0165  1.8827
 8150SOL    HW235910   0.176   0.621  16.509 -2.7002 -2.0980 -1.4155
 8151SOL     OW35911   1.914   3.722  17.104  0.0143  0.5700 -0.0601
 8151SOL    HW135912   1.852   3.721  17.176  0.7730  0.6859  0.5969
 8151SOL    HW235913   1.994   3.731  17.156  1.1574 -0.1294 -1.6927
 8152SOL     OW35914   2.840   2.140   0.880 -0.9235 -0.2054 -0.1492
 8152SOL    HW135915   2.894   2.167   0.805 -2.5705 -0.0624 -1.2682
 8152SOL    HW235916   2.827   2.050   0.851  0.4233 -0.7502  0.9614
 8153SOL     OW35917   2.416   4.142   0.804  0.2133  0.2819  0.1202
 8153SOL    HW135918   2.377   4.118   0.719 -0.5422  0.3951  0.4361
 8153SOL    HW235919   2.387   4.233   0.807 -2.5575 -0.6303  0.4900
 8154SOL     OW35920   0.738   1.924   2.523  0.7300  0.5848 -0.6511
 8154SOL    HW135921   0.664   1.919   2.462 -2.6419  1.4840  3.3236
 8154SOL    HW235922   0.807   1.949   2.462 -0.6006  1.2310 -1.9022
 8155SOL     OW35923   4.712   4.130   3.780  0.1781 -0.2214 -0.0623
 8155SOL    HW135924   4.673   4.047   3.753 -0.4651  0.3944 -1.0038
 8155SOL    HW235925   4.650   4.156   3.849 -0.1857 -0.6799 -0.2170
 8156SOL     OW35926   4.628   4.235   8.111  0.5682 -0.0944 -0.7643
 8156SOL    HW135927   4.635   4.294   8.036  2.8130  0.9230  0.2477
 8156SOL    HW235928   4.702   4.176   8.095  1.1012  0.4702 -0.3865
 8157SOL     OW35929   4.553   1.305   3.575  0.4149  0.4958 -0.1309
 8157SOL    HW135930   4.526   1.289   3.484  0.0248 -1.9723  0.4492
 8157SOL    HW235931   4.538   1.400   3.582 -2.6270 -0.1787  2.0160
 8158SOL     OW35932   1.126   4.487  17.287 -0.2103 -0.1201  0.6209
 8158SOL    HW135933   1.184   4.522  17.220  0.4270 -0.6302  0.9111
 8158SOL    HW235934   1.152   4.395  17.295  0.8573  0.1405  0.0733
 8159SOL     OW35935   4.506   2.142   8.492 -0.1336 -0.2013  0.1274
 8159SOL    HW135936   4.589   2.095   8.492  0.3626  0.6654  1.8286
 8159SOL    HW235937   4.518   2.202   8.566  2.1291  2.2961 -2.2822
 8160SOL     OW35938   0.249   3.847   8.375 -0.2011  0.9179 -0.1816
 8160SOL    HW135939   0.289   3.875   8.293  1.6239  0.4582  0.5525
 8160SOL    HW235940   0.253   3.752   8.362  1.4181  0.8604  0.7297
 8161SOL     OW35941   1.309   1.568   7.689 -0.1001 -0.5702 -0.1058
 8161SOL    HW135942   1.337   1.645   7.740  0.3618 -1.5542  1.1520
 8161SOL    HW235943   1.341   1.497   7.745  2.4852 -1.1430 -2.3173
 8162SOL     OW35944   0.615   2.343   7.340  0.3597  0.6331 -0.4615
 8162SOL    HW135945   0.700   2.301   7.352  1.1742  2.4471  0.1895
 8162SOL    HW235946   0.618   2.405   7.413 -1.8591  0.2850 -0.0532
 8163SOL     OW35947   0.935   3.482  11.410  0.1971 -0.6600 -0.5014
 8163SOL    HW135948   0.979   3.544  11.352 -0.9588 -1.5849 -2.3503
 8163SOL    HW235949   0.843   3.496  11.391  0.2246  0.3488  0.0937
 8164SOL     OW35950   0.144   3.119  17.334 -0.1175 -0.2084 -0.4260
 8164SOL    HW135951   0.188   3.051  17.384  1.1897 -0.5559 -2.0723
 8164SOL    HW235952   0.079   3.072  17.280 -1.2647 -1.0607  1.6910
 8165SOL     OW35953   3.165   0.497   4.550 -0.6848 -0.0075  0.3913
 8165SOL    HW135954   3.216   0.455   4.619 -1.3910 -0.2690  0.7461
 8165SOL    HW235955   3.214   0.580   4.546 -0.6095 -0.1675 -1.9943
 8166SOL     OW35956   4.235   0.472   2.261  0.3780 -0.9876  0.3911
 8166SOL    HW135957   4.195   0.392   2.226 -0.0791 -0.1478 -1.0136
 8166SOL    HW235958   4.324   0.475   2.227  0.3773 -1.2609  0.3674
 8167SOL     OW35959   3.850   2.914  14.525 -0.1815 -0.3819  0.6943
 8167SOL    HW135960   3.802   2.917  14.442  0.1539 -1.3502  0.4667
 8167SOL    HW235961   3.937   2.893  14.491  0.2277 -0.6931  1.9440
 8168SOL     OW35962   1.603   3.656   5.801  0.3628 -0.1059  0.0357
 8168SOL    HW135963   1.568   3.594   5.864 -0.5261  1.8352  1.4623
 8168SOL    HW235964   1.587   3.736   5.851 -0.2700 -0.1430 -0.1100
 8169SOL     OW35965   0.266   1.991   3.813 -0.2117  0.1817 -0.3084
 8169SOL    HW135966   0.182   2.000   3.769 -0.3111  0.6818 -0.0109
 8169SOL    HW235967   0.325   2.049   3.766  0.6197 -0.9683 -0.6880
 8170SOL     OW35968   1.265   3.359   8.750  0.0300  0.9628 -0.1454
 8170SOL    HW135969   1.308   3.273   8.746 -0.6710  0.7003 -1.9680
 8170SOL    HW235970   1.174   3.335   8.764  0.3788 -0.0771  0.3498
 8171SOL     OW35971   2.807   0.271  10.802 -0.0184 -0.0077  0.4969
 8171SOL    HW135972   2.850   0.344  10.847 -1.6570  0.6368  1.0034
 8171SOL    HW235973   2.866   0.206  10.841 -1.0420 -1.2173  0.0222
 8172SOL     OW35974   3.559   0.477   6.918 -0.3628  0.2783 -0.2617
 8172SOL    HW135975   3.504   0.451   6.992 -2.0883  1.8690 -0.9941
 8172SOL    HW235976   3.630   0.519   6.968 -0.6070  0.4869 -0.0893
 8173SOL     OW35977   2.367   2.950   8.173 -1.0481  0.1494 -0.5876
 8173SOL    HW135978   2.310   2.899   8.115  0.9395 -2.1521 -0.5095
 8173SOL    HW235979   2.306   2.997   8.230 -1.0351 -0.4305 -0.0947
 8174SOL     OW35980   2.527   3.941   8.743 -0.3603 -0.1731  0.2442
 8174SOL    HW135981   2.446   3.891   8.736 -0.3388 -0.0747 -0.6855
 8174SOL    HW235982   2.534   3.958   8.837  1.2167 -3.2650  0.7000
 8175SOL     OW35983   1.306   4.722  12.849 -0.5494  0.3184  0.1805
 8175SOL    HW135984   1.380   0.031  12.797  0.7601  1.2036  2.5770
 8175SOL    HW235985   1.271   0.087  12.863  1.0320  0.5544  2.6852
 8176SOL     OW35986   2.963   0.457   9.045 -0.1613  0.6154 -0.5769
 8176SOL    HW135987   2.947   0.436   8.953  0.6516 -1.8051 -0.1689
 8176SOL    HW235988   3.057   0.471   9.051 -0.1792  0.8360 -0.8193
 8177SOL     OW35989   2.444   0.819   4.069 -0.6421 -0.2394 -0.0858
 8177SOL    HW135990   2.445   0.914   4.082 -1.4022 -0.0217 -1.5641
 8177SOL    HW235991   2.367   0.814   4.013 -0.8128  1.9427 -0.0460
 8178SOL     OW35992   2.255   1.053   5.063  0.1148  0.2231  0.0156
 8178SOL    HW135993   2.243   0.958   5.074  0.5643  0.2262  0.5193
 8178SOL    HW235994   2.316   1.078   5.132 -0.6661  0.0235  0.7759
 8179SOL     OW35995   0.375   2.681   3.917  0.6405  0.6641  0.5679
 8179SOL    HW135996   0.439   2.739   3.877  1.4026  0.4604  1.4876
 8179SOL    HW235997   0.410   2.596   3.889 -2.1586 -0.6345  0.9547
 8180SOL     OW35998   2.945   1.519   7.082  0.3889  0.6187  0.0775
 8180SOL    HW135999   2.995   1.527   7.163 -0.5315 -0.5566  0.7634
 8180SOL    HW236000   2.859   1.503   7.123  0.5404 -0.2088  0.0855
 8181SOL     OW36001   1.240   3.958   7.963 -0.0417 -0.0906  0.3757
 8181SOL    HW136002   1.307   4.017   7.998 -2.5302  1.9054  1.8273
 8181SOL    HW236003   1.238   3.886   8.025 -0.4809  1.8273  2.6049
 8182SOL     OW36004   0.152   4.326   4.089 -0.3249 -0.8271  0.3851
 8182SOL    HW136005   0.125   4.408   4.048  0.1646 -0.9002 -0.0861
 8182SOL    HW236006   0.165   4.339   4.183  1.0962 -1.8035  0.3284
 8183SOL     OW36007   0.909   3.085   2.179 -0.1725 -0.2414 -0.0582
 8183SOL    HW136008   0.901   3.176   2.149 -0.1550  0.0328  0.7553
 8183SOL    HW236009   0.918   3.038   2.097 -1.1177  0.9154 -0.8345
 8184SOL     OW36010   4.477   0.470   6.383  0.1618 -0.2611 -0.0027
 8184SOL    HW136011   4.523   0.454   6.466  1.6665 -0.2560 -0.8263
 8184SOL    HW236012   4.541   0.442   6.318  0.8537  1.0927  0.0937
 8185SOL     OW36013   0.817   4.161   6.376  0.8055  0.5187 -0.2123
 8185SOL    HW136014   0.905   4.124   6.370  0.2748 -0.6643 -0.6189
 8185SOL    HW236015   0.805   4.184   6.284  0.7595 -1.1375 -0.6105
 8186SOL     OW36016   3.852   2.149   4.011 -0.3448  0.9511  0.2371
 8186SOL    HW136017   3.904   2.162   3.932  0.1118 -0.5411  0.3030
 8186SOL    HW236018   3.818   2.061   3.999  0.3789  0.8630 -1.1978
 8187SOL     OW36019   1.983   2.571   0.218 -0.0583 -0.0107  0.1289
 8187SOL    HW136020   2.037   2.546   0.294 -0.0633 -0.7159 -0.1021
 8187SOL    HW236021   2.022   2.509   0.157  0.1614 -1.2373  1.5100
 8188SOL     OW36022   3.582   1.884   8.635  0.3831 -0.3216 -0.1313
 8188SOL    HW136023   3.567   1.827   8.710 -2.3462  0.2905 -0.2054
 8188SOL    HW236024   3.506   1.864   8.581  0.3938 -1.4713  0.2772
 8189SOL     OW36025   4.548   0.177  16.418  0.0003 -0.6228  0.8682
 8189SOL    HW136026   4.527   0.270  16.419 -0.6781 -0.7532 -1.1642
 8189SOL    HW236027   4.476   0.154  16.359 -1.0319  1.2607  1.3893
 8190SOL     OW36028   3.362   4.243  15.095  0.1405 -0.6451  1.0101
 8190SOL    HW136029   3.441   4.265  15.144 -0.8550 -1.8687  3.1372
 8190SOL    HW236030   3.330   4.331  15.076 -0.5013 -1.0112  0.3835
 8191SOL     OW36031   4.182   0.587  12.202  0.5872  0.4346  0.3240
 8191SOL    HW136032   4.137   0.613  12.283 -1.9095  1.1216 -1.2903
 8191SOL    HW236033   4.134   0.641  12.140  2.6939  1.0345 -0.7879
 8192SOL     OW36034   1.072   3.502   6.204  0.0548  0.6131 -0.2680
 8192SOL    HW136035   1.100   3.514   6.113  1.0591 -0.8247 -0.1531
 8192SOL    HW236036   0.986   3.460   6.193  0.9585 -1.4217  0.3611
 8193SOL     OW36037   0.360   1.875  12.776  0.0712 -0.1402  0.5035
 8193SOL    HW136038   0.274   1.847  12.807 -0.5636 -0.0395 -1.1467
 8193SOL    HW236039   0.368   1.820  12.698 -3.1839 -0.0801  0.1234
 8194SOL     OW36040   4.275   2.257   3.357  0.0372  0.4164  0.1819
 8194SOL    HW136041   4.250   2.340   3.315  0.1335 -0.6331 -1.9298
 8194SOL    HW236042   4.344   2.293   3.413  0.3222  0.6830 -0.3356
 8195SOL     OW36043   4.029   4.212   5.417 -0.3963 -0.1425 -0.4178
 8195SOL    HW136044   4.120   4.188   5.432  0.4403  3.3796  0.0017
 8195SOL    HW236045   4.032   4.237   5.324  0.2352 -0.3136 -0.4419
 8196SOL     OW36046   2.596   0.200   8.013 -0.1974  0.4902 -0.2694
 8196SOL    HW136047   2.585   0.284   7.968  2.3971  1.3184  0.6530
 8196SOL    HW236048   2.506   0.168   8.022  0.2799 -0.0971  2.3171
 8197SOL     OW36049   1.709   0.349   3.295 -0.4954 -0.5497  0.4285
 8197SOL    HW136050   1.691   0.321   3.385  2.6854  2.0373  1.8872
 8197SOL    HW236051   1.663   0.433   3.303  0.7902  0.0079  2.1648
 8198SOL     OW36052   4.390   1.590   2.509 -0.3977  0.0973  0.2917
 8198SOL    HW136053   4.399   1.685   2.497 -2.3038  0.3481  0.8142
 8198SOL    HW236054   4.363   1.568   2.420 -1.8668 -0.4098  0.8623
 8199SOL     OW36055   0.881   2.603  10.615 -0.3087 -0.5654 -0.2105
 8199SOL    HW136056   0.818   2.642  10.677  0.8587 -1.4447  1.5256
 8199SOL    HW236057   0.829   2.541  10.565  3.0886 -2.0553 -1.8836
 8200SOL     OW36058   1.630   0.052   4.005  0.3896  0.3265 -0.6981
 8200SOL    HW136059   1.621   4.680   4.004  1.1170  0.2097  2.8316
 8200SOL    HW236060   1.693   0.062   4.077  0.8942  1.5189 -1.2956
 8201SOL     OW36061   4.294   1.065   1.395 -0.3881 -0.2443  0.3434
 8201SOL    HW136062   4.321   1.083   1.485 -0.5114  0.1647  0.2966
 8201SOL    HW236063   4.345   1.129   1.344 -2.8350  0.1974 -1.5478
 8202SOL     OW36064   0.434   0.950  12.775 -0.1897  0.4232  0.0745
 8202SOL    HW136065   0.352   0.968  12.728 -0.8511 -1.0301  0.6855
 8202SOL    HW236066   0.419   0.859  12.800 -2.7679  1.0004  0.6375
 8203SOL     OW36067   3.554   0.032   5.488  0.0868  0.6744  0.3415
 8203SOL    HW136068   3.467   4.719   5.504  1.0987 -1.5831  0.7249
 8203SOL    HW236069   3.573   0.052   5.580  0.1677  2.1430  0.0110
 8204SOL     OW36070   2.306   4.019   0.596  0.1923 -0.0417 -0.3057
 8204SOL    HW136071   2.219   4.028   0.558  0.0558  1.5615  0.4163
 8204SOL    HW236072   2.338   3.953   0.534  1.0044 -0.3106  0.4028
 8205SOL     OW36073   2.244   0.912   2.376  0.5284  0.3307 -0.2056
 8205SOL    HW136074   2.262   0.854   2.302 -0.0924  1.1974 -1.0342
 8205SOL    HW236075   2.165   0.959   2.351 -0.4493 -1.4525 -0.4099
 8206SOL     OW36076   0.573   0.689   5.504  0.6246 -0.1988  0.1226
 8206SOL    HW136077   0.602   0.598   5.498  0.6182 -0.3356  2.0985
 8206SOL    HW236078   0.598   0.722   5.591  0.8586 -0.5401  0.1829
 8207SOL     OW36079   0.941   2.439   1.443  0.2916  0.1653  0.4793
 8207SOL    HW136080   1.024   2.488   1.449  0.7170 -0.5921  0.7945
 8207SOL    HW236081   0.985   2.354   1.435  2.3642  1.5615 -3.0248
 8208SOL     OW36082   1.883   4.112   4.956  0.1107  0.4777 -0.2546
 8208SOL    HW136083   1.823   4.084   5.026  0.5243 -0.5571 -0.3245
 8208SOL    HW236084   1.872   4.041   4.893  0.3619 -0.9624  1.3106
 8209SOL     OW36085   3.052   1.270   5.878 -0.4853 -0.6748  0.4044
 8209SOL    HW136086   3.040   1.246   5.969 -0.3756 -1.0646  0.3140
 8209SOL    HW236087   3.136   1.241   5.842 -0.6427  0.2227 -0.7005
 8210SOL     OW36088   4.463   4.357   9.004  0.0028 -0.1598  0.4425
 8210SOL    HW136089   4.539   4.403   8.968  0.1232 -0.9935 -0.3586
 8210SOL    HW236090   4.397   4.425   8.992 -0.0086  0.0556  1.7869
 8211SOL     OW36091   2.254   1.308   6.647  0.4675  0.4536 -0.3815
 8211SOL    HW136092   2.302   1.385   6.616 -0.9063  0.7902 -1.6889
 8211SOL    HW236093   2.302   1.283   6.726 -0.9458 -2.6095 -0.5107
 8212SOL     OW36094   3.720   2.716   7.737  0.1104 -0.1417  0.3000
 8212SOL    HW136095   3.743   2.715   7.830  0.4727 -0.4220  0.2049
 8212SOL    HW236096   3.742   2.626   7.712  1.1527  0.2692 -0.2445
 8213SOL     OW36097   4.466   4.328   9.476  0.3881  0.7353  0.1419
 8213SOL    HW136098   4.545   4.375   9.503  1.2533 -1.3867  1.2819
 8213SOL    HW236099   4.424   4.383   9.409  1.8446  1.0920 -0.4834
 8214SOL     OW36100   0.954   0.195   3.431  0.4542  0.1796  0.0078
 8214SOL    HW136101   0.999   0.119   3.396 -0.9430 -1.5806  2.0314
 8214SOL    HW236102   1.002   0.214   3.512  2.5846  1.6959 -1.6095
 8215SOL     OW36103   0.603   2.020   9.399  0.0317 -0.0319 -0.2744
 8215SOL    HW136104   0.655   1.940   9.408 -0.1596 -0.4514 -2.8786
 8215SOL    HW236105   0.646   2.083   9.457 -1.4773  0.1118  0.6994
 8216SOL     OW36106   0.979   2.441   7.760  0.3653  0.2019 -0.6666
 8216SOL    HW136107   0.985   2.530   7.796  0.2643 -1.1071  2.6474
 8216SOL    HW236108   1.017   2.460   7.675 -1.5850  1.2758 -1.3128
 8217SOL     OW36109   4.524   4.257   2.111  0.3460 -0.0983  0.0055
 8217SOL    HW136110   4.450   4.259   2.172  2.1698 -0.0825  2.2198
 8217SOL    HW236111   4.554   4.346   2.091  1.5245 -0.2965  0.8728
 8218SOL     OW36112   2.598   2.623  15.496 -0.0390 -0.3827  0.1265
 8218SOL    HW136113   2.663   2.681  15.537 -0.3112 -0.6773  0.9701
 8218SOL    HW236114   2.629   2.538  15.526 -0.8702 -1.1377 -1.1558
 8219SOL     OW36115   2.017   0.244  17.036 -0.2947  0.1416  0.2885
 8219SOL    HW136116   2.073   0.304  17.086 -0.6768  1.1140 -0.4380
 8219SOL    HW236117   1.978   0.301  16.969  0.1552  0.2530  0.1198
 8220SOL     OW36118   0.027   3.089   8.119  0.3617 -0.1840  0.7320
 8220SOL    HW136119   0.102   3.047   8.162  0.7402 -1.4329 -1.1461
 8220SOL    HW236120   4.695   3.088   8.197  0.5012  1.4776  0.8415
 8221SOL     OW36121   1.603   1.762   2.078 -0.1700  0.7803 -0.0721
 8221SOL    HW136122   1.555   1.844   2.087 -0.2593  0.9329 -1.8206
 8221SOL    HW236123   1.580   1.749   1.986 -0.6371  1.4498 -0.0544
 8222SOL     OW36124   0.809   2.546  15.534 -0.3571 -0.0059  0.5300
 8222SOL    HW136125   0.775   2.625  15.491 -1.7372 -1.8088 -1.7343
 8222SOL    HW236126   0.733   2.489  15.526 -0.9905  0.7381  1.2956
 8223SOL     OW36127   2.371   4.715   4.074 -0.1772 -0.0145  0.1145
 8223SOL    HW136128   2.353   0.078   4.035 -1.7513 -0.9760 -1.2799
 8223SOL    HW236129   2.400   4.667   3.996 -0.1076  0.1114  0.0635
 8224SOL     OW36130   2.018   2.192   1.370 -0.5053 -0.1731 -0.0778
 8224SOL    HW136131   2.063   2.119   1.327  1.3400  1.1363 -0.3421
 8224SOL    HW236132   1.984   2.249   1.301 -0.1577  1.3752  1.0213
 8225SOL     OW36133   1.172   1.066   5.727 -0.4947 -0.4535 -0.5055
 8225SOL    HW136134   1.200   1.074   5.636 -0.8287 -0.0204 -0.5679
 8225SOL    HW236135   1.198   0.976   5.747  2.5457  0.6410  0.3642
 8226SOL     OW36136   1.373   1.240   6.136 -0.0766 -0.6249  0.2719
 8226SOL    HW136137   1.285   1.206   6.117  0.3381 -0.5258 -1.8746
 8226SOL    HW236138   1.393   1.274   6.048  2.1504  2.3533  1.9666
 8227SOL     OW36139   3.858   2.465  13.236 -0.0224 -0.2112  0.2492
 8227SOL    HW136140   3.776   2.472  13.187 -0.7572  2.4047  1.8963
 8227SOL    HW236141   3.897   2.381  13.211  0.8851  0.8159 -1.7993
 8228SOL     OW36142   1.978   4.643   9.270  0.1741 -0.1505  0.2201
 8228SOL    HW136143   1.908   4.702   9.299  0.3558  0.7008 -1.0852
 8228SOL    HW236144   1.964   4.566   9.325 -0.0095 -0.2105  0.0889
 8229SOL     OW36145   1.088   2.374   0.572 -0.0747 -0.1071 -0.2806
 8229SOL    HW136146   1.015   2.322   0.604  0.3162 -0.5819 -0.1612
 8229SOL    HW236147   1.099   2.353   0.480 -1.2824 -2.6650  0.1789
 8230SOL     OW36148   2.069   4.292   1.691  0.3784 -0.3378  0.5124
 8230SOL    HW136149   2.112   4.360   1.742 -0.8187  1.0631 -0.3533
 8230SOL    HW236150   2.014   4.255   1.760  0.8094 -3.2326 -0.6657
 8231SOL     OW36151   0.138   2.653   7.510 -0.3624 -0.9339 -0.1609
 8231SOL    HW136152   0.076   2.595   7.555  2.3897 -2.6067  1.4543
 8231SOL    HW236153   0.189   2.697   7.578 -0.4088 -0.6549 -0.3093
 8232SOL     OW36154   3.692   0.312  14.075  0.4744 -0.2169  0.1483
 8232SOL    HW136155   3.611   0.300  14.026 -0.7189 -0.2905  2.1410
 8232SOL    HW236156   3.697   0.220  14.104 -2.0051 -0.5046 -0.2948
 8233SOL     OW36157   4.059   4.465  16.557 -0.9719  0.0503  0.3665
 8233SOL    HW136158   4.031   4.377  16.530 -0.3553  0.2560 -0.9122
 8233SOL    HW236159   4.153   4.449  16.544 -0.6664  1.7326  0.4668
 8234SOL     OW36160   1.611   0.157   4.407 -0.0784 -0.7497 -0.3918
 8234SOL    HW136161   1.544   0.113   4.353  0.1902  4.2387 -4.7466
 8234SOL    HW236162   1.686   0.100   4.393 -0.5472 -1.9159  1.9053
 8235SOL     OW36163   3.368   2.387  13.362  0.4092 -0.2399  0.4560
 8235SOL    HW136164   3.368   2.433  13.278 -0.3635 -2.4801 -0.7959
 8235SOL    HW236165   3.309   2.447  13.408 -1.4023  0.6536 -2.9619
 8236SOL     OW36166   3.858   0.681   7.600 -0.3034  0.1077 -0.5958
 8236SOL    HW136167   3.887   0.599   7.640 -0.7262  1.0254  1.5525
 8236SOL    HW236168   3.903   0.680   7.515 -1.1722 -0.6155 -1.0536
 8237SOL     OW36169   2.266   1.011   2.091  0.6179 -0.5533  0.4009
 8237SOL    HW136170   2.268   0.918   2.111 -0.7276 -0.6152  0.2435
 8237SOL    HW236171   2.190   1.016   2.033  0.8577  0.8484  0.2042
 8238SOL     OW36172   0.434   0.200  15.327 -0.3384 -0.3175 -0.3675
 8238SOL    HW136173   0.350   0.155  15.320 -1.3476  1.8455 -1.9754
 8238SOL    HW236174   0.417   0.286  15.288  0.4556 -0.3737 -0.8519
 8239SOL     OW36175   1.187   0.276   1.672  0.2179  0.0834  0.4942
 8239SOL    HW136176   1.225   0.189   1.658 -2.5292 -1.1682  0.8410
 8239SOL    HW236177   1.194   0.302   1.580 -0.8662  0.7524  0.6019
 8240SOL     OW36178   3.947   3.701   2.652 -0.1883 -0.1504  0.1760
 8240SOL    HW136179   3.871   3.757   2.667 -1.3957 -1.8422  0.2722
 8240SOL    HW236180   3.991   3.749   2.581  1.7058 -1.2211  0.6232
 8241SOL     OW36181   3.434   3.981   4.560  0.1634 -0.3212 -0.6999
 8241SOL    HW136182   3.469   3.893   4.568  0.4265 -0.2046 -0.5634
 8241SOL    HW236183   3.480   4.020   4.635  0.8545 -1.3078 -0.6126
 8242SOL     OW36184   4.703   3.897   6.226 -0.2238 -0.1875 -0.0266
 8242SOL    HW136185   4.658   3.981   6.236 -0.0349 -0.2492  1.3715
 8242SOL    HW236186   0.029   3.889   6.308  0.8165 -2.1731 -0.8437
 8243SOL     OW36187   3.126   1.485   7.599 -0.3291  0.2981 -0.0819
 8243SOL    HW136188   3.205   1.458   7.645 -0.0452  0.0377 -0.7270
 8243SOL    HW236189   3.075   1.508   7.677  1.4233  0.0216  1.1552
 8244SOL     OW36190   3.638   4.631  10.560 -0.3148  0.0160  0.6043
 8244SOL    HW136191   3.666   4.603  10.648 -0.4608  2.0366  1.2866
 8244SOL    HW236192   3.544   4.628  10.576 -0.1401 -0.2017  1.6398
 8245SOL     OW36193   0.304   0.595   6.016 -0.2413  0.2200  0.3296
 8245SOL    HW136194   0.224   0.564   5.974  0.9200 -2.6703  0.2326
 8245SOL    HW236195   0.348   0.514   6.043 -1.0952 -0.0046  1.0627
 8246SOL     OW36196   1.079   2.278   4.131  0.3072 -0.1685  0.3291
 8246SOL    HW136197   1.145   2.283   4.062  0.7455 -0.5556  0.7176
 8246SOL    HW236198   1.015   2.346   4.108  0.8266 -0.2959 -1.4509
 8247SOL     OW36199   0.648   2.980   7.271 -0.5048 -0.3926 -0.1879
 8247SOL    HW136200   0.624   2.933   7.351  0.8889  1.7032  1.4918
 8247SOL    HW236201   0.636   3.072   7.297 -2.6993 -0.8716  0.5417
 8248SOL     OW36202   1.035   2.038   5.700  0.3241 -0.0463  0.6443
 8248SOL    HW136203   1.024   2.106   5.633 -2.9938 -0.0222  1.2124
 8248SOL    HW236204   1.062   1.965   5.644  1.2335 -1.0449  2.4205
 8249SOL     OW36205   1.968   3.292  17.389 -0.1279  0.1195  0.2300
 8249SOL    HW136206   1.912   3.322  17.462  0.4688  2.4702 -0.2650
 8249SOL    HW236207   2.037   3.255  17.444 -0.2507 -1.4148 -0.6804
 8250SOL     OW36208   4.501   3.463   0.746  0.5027 -0.6693  0.1048
 8250SOL    HW136209   4.441   3.474   0.820  1.8188  0.5941  1.0004
 8250SOL    HW236210   4.453   3.505   0.675  0.0792 -1.5592 -0.1319
 8251SOL     OW36211   4.482   4.357  17.572 -0.6467 -0.2346  0.9879
 8251SOL    HW136212   4.539   4.397  17.506 -1.5883 -0.2672  0.1492
 8251SOL    HW236213   4.408   4.417  17.574 -1.8068 -1.6184 -0.1313
 8252SOL     OW36214   0.137   4.448   7.126  0.0035 -0.3344 -0.3557
 8252SOL    HW136215   0.110   4.483   7.041 -2.3220 -0.7046  0.2299
 8252SOL    HW236216   0.198   4.385   7.088  0.8490  0.1810  0.1524
 8253SOL     OW36217   4.146   0.510   0.685 -0.5173 -0.0012 -0.3425
 8253SOL    HW136218   4.125   0.491   0.593 -1.9055 -1.4568  0.2672
 8253SOL    HW236219   4.082   0.449   0.723 -0.8710  0.3860 -0.3234
 8254SOL     OW36220   3.316   1.635   3.934 -0.4310 -0.0885 -0.8652
 8254SOL    HW136221   3.398   1.661   3.976 -0.8337  1.7907 -1.2388
 8254SOL    HW236222   3.343   1.612   3.845  0.6634  1.1854 -0.8587
 8255SOL     OW36223   2.390   1.349   0.804  0.0195 -0.5359  0.0131
 8255SOL    HW136224   2.312   1.318   0.757  1.2383 -3.1936 -0.2972
 8255SOL    HW236225   2.452   1.287   0.765  0.7622  1.4914 -2.0140
 8256SOL     OW36226   4.057   1.385   2.311  0.3802  0.5297  0.2410
 8256SOL    HW136227   4.048   1.381   2.215  0.3919  0.4764  0.2425
 8256SOL    HW236228   4.129   1.324   2.324 -0.4556 -0.1902  1.4573
 8257SOL     OW36229   3.571   3.386   5.101  0.1026 -0.8321 -0.0423
 8257SOL    HW136230   3.554   3.324   5.030  0.6188  0.6807 -1.5101
 8257SOL    HW236231   3.489   3.379   5.149 -1.5428  0.2881 -2.6538
 8258SOL     OW36232   3.133   4.678  11.463  0.3905  0.1435  0.0176
 8258SOL    HW136233   3.195   4.626  11.413  3.0712  1.1128  2.3572
 8258SOL    HW236234   3.054   4.623  11.458 -0.1974  0.9808  0.0156
 8259SOL     OW36235   2.593   3.035   4.341  0.7117 -0.0491 -0.1439
 8259SOL    HW136236   2.659   3.036   4.272  0.7407 -1.8865 -0.1551
 8259SOL    HW236237   2.647   2.992   4.408 -1.0032 -0.3332  1.0577
 8260SOL     OW36238   0.561   0.159   2.393 -0.5426 -0.2905  0.1367
 8260SOL    HW136239   0.574   0.085   2.334 -1.6775 -1.4951  1.3830
 8260SOL    HW236240   0.496   0.116   2.448 -0.7944  0.0412  0.1030
 8261SOL     OW36241   0.956   4.183   9.478 -0.9799 -0.7892  0.0632
 8261SOL    HW136242   0.876   4.143   9.443 -0.7161  1.5722 -3.2111
 8261SOL    HW236243   0.955   4.171   9.573  0.5667 -1.1637  0.0401
 8262SOL     OW36244   1.415   2.108   4.615  0.1633 -0.0922 -0.7940
 8262SOL    HW136245   1.370   2.029   4.646  1.5295 -0.6588 -0.2464
 8262SOL    HW236246   1.431   2.072   4.528  1.2908  0.9500 -1.0137
 8263SOL     OW36247   2.882   1.191   4.542 -0.0123 -0.0514 -0.5077
 8263SOL    HW136248   2.823   1.176   4.615 -0.2096 -1.4719 -0.9461
 8263SOL    HW236249   2.963   1.194   4.593  0.1020  0.7320 -0.7274
 8264SOL     OW36250   2.659   4.018   7.072 -0.4985 -0.2912  0.0972
 8264SOL    HW136251   2.728   3.956   7.096  0.3165  1.2397  1.7700
 8264SOL    HW236252   2.668   4.085   7.141  0.7832  0.1678 -0.5116
 8265SOL     OW36253   4.709   3.782   5.313  0.1393 -0.1544  0.3173
 8265SOL    HW136254   4.624   3.744   5.333 -0.0607 -0.1878 -0.5841
 8265SOL    HW236255   0.039   3.706   5.288  0.9953  0.4501  0.2862
 8266SOL     OW36256   1.515   4.314   4.497 -0.0130 -0.1699 -0.2059
 8266SOL    HW136257   1.430   4.275   4.519 -0.3218  0.1253 -0.8598
 8266SOL    HW236258   1.534   4.249   4.430  0.6264 -1.0683  0.8647
 8267SOL     OW36259   1.216   2.784   1.269  0.0812  0.3292  0.1856
 8267SOL    HW136260   1.279   2.723   1.306  0.1476  1.3162  1.7173
 8267SOL    HW236261   1.221   2.766   1.175 -2.5593 -0.6598  0.2434
 8268SOL     OW36262   1.784   2.566   9.682  0.4828  0.1169 -0.6575
 8268SOL    HW136263   1.845   2.634   9.654 -0.0432  1.7237  2.1021
 8268SOL    HW236264   1.731   2.556   9.603 -0.9293  1.7675  0.0860
 8269SOL     OW36265   3.911   1.776   1.057  0.0850 -0.0656  0.5736
 8269SOL    HW136266   3.844   1.816   1.002  1.2970  0.0508 -0.8208
 8269SOL    HW236267   3.870   1.694   1.082 -0.0679 -0.0032  0.5312
 8270SOL     OW36268   4.539   0.782  14.426  0.1932 -0.5212 -0.1745
 8270SOL    HW136269   4.597   0.803  14.352  0.8693 -1.1083  0.1880
 8270SOL    HW236270   4.591   0.825  14.494 -0.2763 -1.5965  0.8556
 8271SOL     OW36271   1.451   3.098   1.817 -0.3584  0.0930  0.0958
 8271SOL    HW136272   1.426   3.010   1.790  2.9844 -0.7499 -0.2459
 8271SOL    HW236273   1.494   3.090   1.902  2.6184 -1.2446 -1.5271
 8272SOL     OW36274   2.760   4.380  15.517 -0.5274 -0.1148 -0.0594
 8272SOL    HW136275   2.847   4.387  15.478 -0.6231 -1.2744 -0.5034
 8272SOL    HW236276   2.715   4.345  15.440  0.5635  0.1362 -0.8153
 8273SOL     OW36277   1.914   4.117   1.316  0.3296  0.2018 -0.0770
 8273SOL    HW136278   1.895   4.194   1.264 -0.4803  1.0630  1.4998
 8273SOL    HW236279   1.827   4.079   1.302  1.5002 -1.1792 -3.4833
 8274SOL     OW36280   3.375   0.751   6.781  0.5893  0.1731 -0.0130
 8274SOL    HW136281   3.286   0.761   6.747  0.6884  0.7520 -0.0955
 8274SOL    HW236282   3.363   0.791   6.867 -2.1427 -0.3007 -0.1882
 8275SOL     OW36283   0.488   2.894   6.516  0.3020  0.2145  0.0630
 8275SOL    HW136284   0.446   2.835   6.454 -0.5295  2.0180 -1.0977
 8275SOL    HW236285   0.433   2.887   6.594 -0.6753  1.6985 -0.5059
 8276SOL     OW36286   1.792   0.774   9.495  0.5163 -0.3028 -0.1653
 8276SOL    HW136287   1.831   0.694   9.530  0.0201 -1.6092 -2.5704
 8276SOL    HW236288   1.873   0.822   9.482 -0.9271  1.8471 -1.2289
 8277SOL     OW36289   1.667   4.305   8.912 -0.3343  0.1210  0.1780
 8277SOL    HW136290   1.653   4.396   8.937 -0.7492  0.3768 -0.9678
 8277SOL    HW236291   1.726   4.314   8.837  1.6910 -0.2427  1.7128
 8278SOL     OW36292   1.667   2.634   2.438 -0.4360 -0.1827  0.1112
 8278SOL    HW136293   1.578   2.615   2.407  0.4323 -1.9471 -1.3196
 8278SOL    HW236294   1.656   2.720   2.478 -0.7670 -0.5828  0.8780
 8279SOL     OW36295   3.075   1.511  12.037  0.1520  0.0564  0.3905
 8279SOL    HW136296   3.018   1.473  11.970 -0.1009  1.0917  0.0175
 8279SOL    HW236297   3.092   1.594  11.994  0.4599 -0.0551  0.3007
 8280SOL     OW36298   1.805   0.004   2.358  0.1108  0.3335 -0.2406
 8280SOL    HW136299   1.849   4.709   2.275 -2.1515 -0.4316 -1.2626
 8280SOL    HW236300   1.763   4.643   2.375  1.9724 -0.5620 -0.0952
 8281SOL     OW36301   1.763   0.756  17.060 -1.2338  0.2661 -0.0891
 8281SOL    HW136302   1.817   0.760  16.981  0.8798 -1.6195  1.2688
 8281SOL    HW236303   1.775   0.664  17.086 -0.0060  0.4540  0.0345
 8282SOL     OW36304   4.614   3.085   5.658  0.1556  0.1072 -0.1851
 8282SOL    HW136305   4.639   3.153   5.595 -1.2523 -0.1529 -1.0345
 8282SOL    HW236306   4.519   3.091   5.652  0.2224  0.4065 -1.0083
 8283SOL     OW36307   4.721   0.605   4.485 -0.2732  0.2468 -0.1667
 8283SOL    HW136308   4.702   0.512   4.496 -0.1746  0.6958  3.9211
 8283SOL    HW236309   0.085   0.616   4.524 -0.3787 -1.1038  0.4427
 8284SOL     OW36310   0.327   0.669  17.119 -0.2635 -0.2467  0.2318
 8284SOL    HW136311   0.267   0.651  17.192 -0.4437 -2.3733 -0.4359
 8284SOL    HW236312   0.388   0.597  17.104 -1.1612 -0.8512 -0.5374
 8285SOL     OW36313   0.396   1.250   5.422  0.1067  0.2036  0.3267
 8285SOL    HW136314   0.343   1.187   5.373  0.6484  0.0653 -0.0734
 8285SOL    HW236315   0.444   1.304   5.360 -1.1044 -3.1474 -3.5196
 8286SOL     OW36316   4.397   2.104   4.230  0.2886 -0.2132 -0.0102
 8286SOL    HW136317   4.446   2.144   4.302  0.0762  1.6090 -0.8685
 8286SOL    HW236318   4.350   2.182   4.200 -0.1563 -0.4396  0.0928
 8287SOL     OW36319   3.865   2.449   6.199 -0.3525 -0.1416 -0.2514
 8287SOL    HW136320   3.923   2.373   6.208 -0.3760 -0.1248  0.0726
 8287SOL    HW236321   3.894   2.479   6.113  1.1901  0.3947  0.4626
 8288SOL     OW36322   3.582   1.859   4.927  0.2875 -0.4070 -0.1009
 8288SOL    HW136323   3.571   1.806   4.848 -1.1379 -0.0975 -0.1116
 8288SOL    HW236324   3.518   1.825   4.989  0.3460  1.6609  1.0810
 8289SOL     OW36325   3.478   1.466   8.830  0.3534 -0.6337 -0.2175
 8289SOL    HW136326   3.557   1.482   8.882 -0.9592 -2.5178  2.3981
 8289SOL    HW236327   3.414   1.500   8.893 -0.6153 -3.8036  0.5578
 8290SOL     OW36328   4.521   4.225   3.967  0.3982 -0.6422 -0.4821
 8290SOL    HW136329   4.468   4.251   3.893 -0.5433  2.8452  1.4458
 8290SOL    HW236330   4.455   4.233   4.036 -0.2538  0.6953 -1.2632
 8291SOL     OW36331   3.288   1.462   6.637 -0.0840 -0.0286  0.4115
 8291SOL    HW136332   3.231   1.385   6.643 -1.0471  0.6900  0.6005
 8291SOL    HW236333   3.272   1.503   6.722  1.8722  2.0985 -0.2456
 8292SOL     OW36334   0.574   0.449   8.210 -0.0540  0.1737  0.4484
 8292SOL    HW136335   0.666   0.472   8.223  0.0800 -0.6456  0.9004
 8292SOL    HW236336   0.559   0.383   8.278 -0.5633  2.0575  2.1627
 8293SOL     OW36337   1.448   3.395   3.199  0.0057  0.3304 -0.2417
 8293SOL    HW136338   1.397   3.335   3.144 -0.3414  0.1468  0.2805
 8293SOL    HW236339   1.539   3.371   3.184  0.2901 -0.1314  2.2408
 8294SOL     OW36340   2.498   1.601   4.827  0.0088  0.3324 -0.4448
 8294SOL    HW136341   2.547   1.654   4.764  0.0201  2.0945  1.0271
 8294SOL    HW236342   2.519   1.508   4.829  0.0661  0.3481 -0.2569
 8295SOL     OW36343   1.985   3.815   3.134  0.2029 -0.6830  0.0859
 8295SOL    HW136344   2.021   3.745   3.188  1.4322  0.8795  1.2815
 8295SOL    HW236345   2.061   3.833   3.078 -1.3189 -1.0095 -2.1041
 8296SOL     OW36346   3.677   1.202   8.008 -0.5477  0.3146 -0.5057
 8296SOL    HW136347   3.656   1.152   7.930  2.5823 -0.2689 -0.9971
 8296SOL    HW236348   3.773   1.201   8.017 -0.8133 -3.5274  1.6618
 8297SOL     OW36349   1.917   2.742   8.749  0.2896 -0.1529  0.0697
 8297SOL    HW136350   1.898   2.745   8.655  1.5528  2.0230 -0.1283
 8297SOL    HW236351   1.964   2.824   8.762  0.9082 -0.2698 -1.4963
 8298SOL     OW36352   3.587   0.917   3.676 -0.3988  0.2280  0.2886
 8298SOL    HW136353   3.577   0.931   3.770 -1.5240 -2.7383  0.5869
 8298SOL    HW236354   3.655   0.981   3.654 -0.4380  0.9539  2.2805
 8299SOL     OW36355   4.038   1.009   6.794 -0.4601  0.1438  0.0581
 8299SOL    HW136356   4.032   1.100   6.767 -0.1027 -0.4353 -1.9962
 8299SOL    HW236357   4.023   0.958   6.714  0.0593  0.7200 -0.3994
 8300SOL     OW36358   4.273   4.041   3.804  0.0750 -0.0194  0.2827
 8300SOL    HW136359   4.241   3.963   3.850  0.4000  0.2736  1.0200
 8300SOL    HW236360   4.341   3.999   3.751  2.1679  2.7202  0.7748
 8301SOL     OW36361   4.017   1.070   9.196 -0.8076  0.0597 -0.5683
 8301SOL    HW136362   4.029   0.993   9.251 -0.5010  0.1522 -0.5034
 8301SOL    HW236363   3.922   1.069   9.187 -0.8136 -0.2731 -0.4774
 8302SOL     OW36364   3.849   3.668   6.393 -0.2509  0.3187 -0.7442
 8302SOL    HW136365   3.823   3.756   6.419  1.3282 -0.0724  2.0920
 8302SOL    HW236366   3.792   3.612   6.445  1.7433 -0.2937  0.7924
 8303SOL     OW36367   1.616   2.468   2.781 -0.2659 -0.0696 -0.0867
 8303SOL    HW136368   1.616   2.498   2.872 -1.3905 -0.8861  0.1839
 8303SOL    HW236369   1.556   2.532   2.742 -0.5270 -0.5451 -0.4786
 8304SOL     OW36370   2.122   1.461   7.862 -1.1024 -0.0864 -0.1364
 8304SOL    HW136371   2.109   1.550   7.896 -2.3402  0.3740 -1.8708
 8304SOL    HW236372   2.190   1.425   7.920 -1.5469 -3.0030 -1.4543
 8305SOL     OW36373   3.904   1.775   3.434 -0.2129  0.0331  0.2036
 8305SOL    HW136374   3.997   1.751   3.433 -0.7981 -2.2640  1.3452
 8305SOL    HW236375   3.876   1.723   3.359 -2.3956 -3.5858  3.5565
 8306SOL     OW36376   2.966   3.010   7.909  0.4279  0.5137 -0.0246
 8306SOL    HW136377   3.040   3.051   7.954  0.1363  0.3570  0.5998
 8306SOL    HW236378   2.900   3.055   7.961 -0.2590  0.7950 -1.1422
 8307SOL     OW36379   0.306   4.459   1.401  0.0075 -0.0578 -0.2957
 8307SOL    HW136380   0.279   4.433   1.313  0.2259 -1.1475 -0.0385
 8307SOL    HW236381   0.345   4.378   1.434  1.3673 -0.5517 -3.1415
 8308SOL     OW36382   0.601   2.995   6.985 -0.1764 -0.2676  0.7518
 8308SOL    HW136383   0.598   3.017   7.078  1.7117 -2.4106  1.3305
 8308SOL    HW236384   0.544   3.064   6.953 -0.7715  0.0452  2.4669
 8309SOL     OW36385   2.530   0.045   2.128  0.2238  0.8735  0.8565
 8309SOL    HW136386   2.564   0.124   2.086 -0.4302  1.3325  1.1902
 8309SOL    HW236387   2.524   0.064   2.222 -0.2636  2.4075  0.5147
 8310SOL     OW36388   0.076   2.001   2.682 -0.0911 -1.0117  0.0006
 8310SOL    HW136389   0.053   2.080   2.633 -0.7561 -0.2652  1.5024
 8310SOL    HW236390   0.145   1.961   2.630 -1.8570 -4.4460  0.2744
 8311SOL     OW36391   1.440   3.528   2.174 -0.0205 -0.0679 -0.1591
 8311SOL    HW136392   1.526   3.567   2.189  1.1304 -2.1734 -1.1875
 8311SOL    HW236393   1.406   3.567   2.093 -1.8241  1.7338  1.4678
 8312SOL     OW36394   0.092   2.674   4.581  0.3995  0.1373  0.1292
 8312SOL    HW136395   0.115   2.714   4.497 -0.3711  3.0031  1.2742
 8312SOL    HW236396   0.101   2.581   4.560  2.2970  0.3024  0.1361
 8313SOL     OW36397   0.935   1.268   8.406  0.0052 -0.2159  0.0522
 8313SOL    HW136398   0.965   1.177   8.409 -2.3481 -1.0049 -0.5482
 8313SOL    HW236399   0.891   1.269   8.491  0.3286 -0.3117  0.2201
 8314SOL     OW36400   4.383   4.000  16.980  0.2609  0.8095 -0.5320
 8314SOL    HW136401   4.442   3.990  17.054  0.5227 -0.7879 -0.9457
 8314SOL    HW236402   4.391   4.095  16.974 -0.0666  0.8259 -0.7313
 8315SOL     OW36403   4.479   3.238  13.497  0.2928 -0.0885 -0.2649
 8315SOL    HW136404   4.399   3.236  13.550  0.4884 -2.3802 -0.0496
 8315SOL    HW236405   4.548   3.228  13.562 -2.2585  2.1977  2.8074
 8316SOL     OW36406   4.517   2.152   7.053  0.3064 -0.6649  0.3952
 8316SOL    HW136407   4.455   2.197   7.110  3.2910 -0.1481  3.2331
 8316SOL    HW236408   4.604   2.179   7.083 -0.8497 -0.9187  3.9997
 8317SOL     OW36409   1.604   3.455   6.188 -0.1497  0.0485  0.6662
 8317SOL    HW136410   1.562   3.443   6.273 -1.5397 -2.0810 -0.3040
 8317SOL    HW236411   1.693   3.489   6.199 -0.3888  0.3671  1.5747
 8318SOL     OW36412   1.415   0.912   8.059 -0.5142 -1.0260 -0.8480
 8318SOL    HW136413   1.380   0.827   8.086  1.6667 -1.4204  0.7063
 8318SOL    HW236414   1.509   0.903   8.040 -0.5031 -0.4411 -1.0494
 8319SOL     OW36415   0.246   2.979   8.249  0.2696 -0.3425  0.1863
 8319SOL    HW136416   0.293   3.061   8.269  0.6234 -0.3125 -0.7780
 8319SOL    HW236417   0.242   2.936   8.335 -1.5802 -0.7417 -0.1071
 8320SOL     OW36418   2.138   2.512  13.107 -0.2344  0.6805  0.3949
 8320SOL    HW136419   2.057   2.537  13.062  0.3697  1.6524 -0.1342
 8320SOL    HW236420   2.147   2.424  13.071  2.1143  1.1406 -0.1113
 8321SOL     OW36421   2.725   1.595   6.116  0.3126 -0.1648 -0.0834
 8321SOL    HW136422   2.761   1.684   6.112 -0.3371  0.0740 -0.6870
 8321SOL    HW236423   2.704   1.589   6.209 -0.0702  1.1570 -0.0836
 8322SOL     OW36424   1.694   3.665   8.674  0.2178 -0.2057  0.3007
 8322SOL    HW136425   1.726   3.756   8.676  0.3188 -0.2492  0.6451
 8322SOL    HW236426   1.665   3.658   8.765  1.0165  1.5527  0.7013
 8323SOL     OW36427   4.372   1.535   3.419 -0.5960 -0.3417  0.1102
 8323SOL    HW136428   4.364   1.479   3.342  2.0538  0.8494 -1.0608
 8323SOL    HW236429   4.294   1.590   3.416 -1.0248 -0.8485  2.1936
 8324SOL     OW36430   1.227   4.006  13.072  0.3848 -0.6490 -0.2177
 8324SOL    HW136431   1.284   3.965  13.007  1.6190  2.1045 -0.8897
 8324SOL    HW236432   1.287   4.024  13.145 -0.8224  4.4064 -0.4309
 8325SOL     OW36433   2.690   0.245   5.423 -0.0233  0.1248 -0.1992
 8325SOL    HW136434   2.635   0.302   5.369  2.2212  0.3241 -2.2865
 8325SOL    HW236435   2.783   0.255   5.399 -0.0284  3.9942  1.2771
 8326SOL     OW36436   3.220   2.758  14.085 -0.1673  0.5296 -0.1801
 8326SOL    HW136437   3.272   2.823  14.132  2.2666 -1.5347 -0.0031
 8326SOL    HW236438   3.161   2.734  14.156 -0.2036  2.1576  0.3341
 8327SOL     OW36439   3.127   1.497   9.284  0.3123  0.2523  0.4141
 8327SOL    HW136440   3.087   1.484   9.199 -0.0470  0.3541  0.5691
 8327SOL    HW236441   3.206   1.443   9.275  0.3583  0.2391  0.8938
 8328SOL     OW36442   3.326   1.784   8.768  0.2972  1.2619 -0.0953
 8328SOL    HW136443   3.332   1.768   8.674  1.8327  1.2556 -0.0005
 8328SOL    HW236444   3.235   1.810   8.779  0.3544  1.1157  0.6764
 8329SOL     OW36445   3.543   2.055   2.151 -0.0178 -0.2756  0.0729
 8329SOL    HW136446   3.534   1.969   2.110 -0.3764  0.0546 -0.5477
 8329SOL    HW236447   3.482   2.107   2.098 -1.2783 -3.0367 -1.2018
 8330SOL     OW36448   1.950   3.137   5.920  0.4141 -0.0308 -0.2962
 8330SOL    HW136449   1.916   3.215   5.877 -0.8491  0.3632  1.4276
 8330SOL    HW236450   1.883   3.123   5.987  0.5386 -0.9159 -0.3543
 8331SOL     OW36451   2.690   1.424   4.599  0.4239 -0.3008 -0.1308
 8331SOL    HW136452   2.654   1.385   4.520  0.6575 -0.3523 -0.2127
 8331SOL    HW236453   2.608   1.419   4.647 -1.5841  2.6877 -3.2693
 8332SOL     OW36454   1.070   0.999   7.768  0.2961 -0.3264  0.4246
 8332SOL    HW136455   1.123   1.053   7.827 -1.7937  0.9582  1.1387
 8332SOL    HW236456   1.143   0.970   7.714  1.8481  1.9121  1.3191
 8333SOL     OW36457   1.921   3.748   9.439  0.2190  0.3370  0.8576
 8333SOL    HW136458   1.856   3.762   9.508 -0.6248  1.8983 -0.2643
 8333SOL    HW236459   1.921   3.834   9.396  2.5723 -0.0764 -0.0002
 8334SOL     OW36460   3.062   3.644   4.599  0.4281  0.2289  0.3030
 8334SOL    HW136461   3.028   3.574   4.655 -0.2661  0.4197  0.1202
 8334SOL    HW236462   3.087   3.600   4.518  1.3316  0.4554  0.4572
 8335SOL     OW36463   1.199   1.977  11.259 -0.3552  0.1646  0.5998
 8335SOL    HW136464   1.163   1.888  11.265  1.5542 -0.7074 -0.9869
 8335SOL    HW236465   1.155   2.008  11.180 -0.9173 -2.1833 -0.0095
 8336SOL     OW36466   3.378   2.902   4.810 -0.2790 -0.6486  0.1133
 8336SOL    HW136467   3.285   2.882   4.808 -0.4711  0.2933 -0.6257
 8336SOL    HW236468   3.406   2.813   4.828 -1.6894 -0.7497  1.7931
 8337SOL     OW36469   1.698   2.749  13.506 -0.4460  0.6084 -0.6432
 8337SOL    HW136470   1.611   2.762  13.469 -0.1872  0.7609 -1.2009
 8337SOL    HW236471   1.719   2.658  13.481 -1.9567  0.2745 -0.6821
 8338SOL     OW36472   1.340   3.367  13.926 -0.8053  0.2530 -0.1542
 8338SOL    HW136473   1.359   3.278  13.955 -1.4054  0.1918  0.0557
 8338SOL    HW236474   1.251   3.375  13.961 -0.2793  3.3874  0.4345
 8339SOL     OW36475   4.050   3.737   5.602 -0.4469 -0.2932 -0.4975
 8339SOL    HW136476   4.029   3.801   5.534 -2.0230  0.8516  1.0566
 8339SOL    HW236477   4.007   3.662   5.561 -1.2610 -1.3118  2.2459
 8340SOL     OW36478   3.727   2.383   4.723  0.4504 -0.2975 -0.1341
 8340SOL    HW136479   3.693   2.403   4.636  0.4745  1.1736  0.1804
 8340SOL    HW236480   3.668   2.315   4.755  0.4122 -0.0282  0.3758
 8341SOL     OW36481   2.555   0.961  13.419  0.6586  0.2272 -0.0408
 8341SOL    HW136482   2.598   0.879  13.397 -1.6685 -0.9041 -0.4040
 8341SOL    HW236483   2.623   1.006  13.469  0.4764  0.5667 -0.0991
 8342SOL     OW36484   4.135   2.657   6.407 -0.3046  0.2126 -0.7083
 8342SOL    HW136485   4.126   2.610   6.324  0.8922 -0.9179 -0.2033
 8342SOL    HW236486   4.043   2.679   6.419  0.1750  1.1065  1.2463
 8343SOL     OW36487   0.839   4.024   4.652 -0.1913 -0.3163  0.5335
 8343SOL    HW136488   0.796   4.051   4.571  1.8919  0.8602 -0.1780
 8343SOL    HW236489   0.889   4.104   4.666  2.2219 -1.3707 -2.1435
 8344SOL     OW36490   0.077   2.077   2.045  0.0036  0.9508 -0.4066
 8344SOL    HW136491   0.136   2.014   2.002  2.0766  3.2454 -0.9246
 8344SOL    HW236492   0.123   2.155   2.014 -0.3935  0.9181 -1.0841
 8345SOL     OW36493   3.280   1.970   8.017 -0.1530  0.4650 -0.5134
 8345SOL    HW136494   3.262   1.878   7.998 -1.5796  0.7716 -0.6311
 8345SOL    HW236495   3.240   1.980   8.103  2.1363 -1.0595  0.7110
 8346SOL     OW36496   2.380   2.565   8.358 -0.4411 -0.1893 -0.2047
 8346SOL    HW136497   2.308   2.618   8.393 -1.7566 -0.9378 -1.8040
 8346SOL    HW236498   2.438   2.616   8.302 -0.6277  1.8552  1.4445
 8347SOL     OW36499   4.014   1.854   9.525  0.4103  0.0567  0.8257
 8347SOL    HW136500   3.922   1.872   9.543  0.8418  2.3772  0.6986
 8347SOL    HW236501   4.045   1.793   9.592  1.6556  1.3026  1.3872
 8348SOL     OW36502   2.056   4.573   1.270  0.1616 -0.3879 -0.0585
 8348SOL    HW136503   2.126   4.617   1.318 -0.0720  2.0855 -1.9713
 8348SOL    HW236504   2.013   4.518   1.336  0.3686  0.1350  0.5110
 8349SOL     OW36505   2.177   2.077   5.048  0.4192  0.1894 -0.2085
 8349SOL    HW136506   2.132   2.046   4.970 -1.7457  1.2442  0.6130
 8349SOL    HW236507   2.193   1.994   5.093  3.0211  1.8576  1.9341
 8350SOL     OW36508   0.243   3.474  14.981 -0.9647 -0.2043  0.0866
 8350SOL    HW136509   0.335   3.473  15.006 -1.3108  4.3519  1.5199
 8350SOL    HW236510   0.243   3.568  14.963  1.3698 -0.3455 -0.5638
 8351SOL     OW36511   1.350   0.945  13.562  0.1915 -0.0672  0.8138
 8351SOL    HW136512   1.394   0.971  13.644 -1.7420  0.3744  1.7174
 8351SOL    HW236513   1.314   1.028  13.532 -0.0403  0.0883  1.5040
 8352SOL     OW36514   3.001   4.170   0.646  0.5115 -0.5237 -0.1550
 8352SOL    HW136515   3.034   4.259   0.639 -1.7274  0.4392  1.5660
 8352SOL    HW236516   2.989   4.148   0.553  0.4895 -2.4596  0.2933
 8353SOL     OW36517   3.322   2.498  15.897  0.0048  0.1785  0.3184
 8353SOL    HW136518   3.295   2.587  15.875 -1.2247 -0.9054 -2.5075
 8353SOL    HW236519   3.236   2.462  15.917 -0.6818  0.5225 -2.0897
 8354SOL     OW36520   1.545   2.450   8.636 -0.4908 -0.1405  0.5618
 8354SOL    HW136521   1.473   2.454   8.699 -1.0875  1.7087 -0.2162
 8354SOL    HW236522   1.616   2.480   8.692  0.1555 -1.9113  0.6874
 8355SOL     OW36523   1.132   2.196   4.563 -0.3341 -0.3478  0.5206
 8355SOL    HW136524   1.103   2.170   4.475  3.0320 -1.1360 -0.3333
 8355SOL    HW236525   1.224   2.215   4.548 -0.4992  0.1907  0.1824
 8356SOL     OW36526   3.815   0.612   8.355 -0.2831 -0.3027  0.0972
 8356SOL    HW136527   3.750   0.611   8.285 -0.6887 -0.1308  0.4735
 8356SOL    HW236528   3.762   0.582   8.428  0.2842  1.5513  1.2561
 8357SOL     OW36529   4.097   1.686   9.733  0.0432  0.3498 -0.4346
 8357SOL    HW136530   4.190   1.665   9.740  0.0768  0.6389 -0.0548
 8357SOL    HW236531   4.083   1.741   9.810  0.0745 -1.5849  0.9385
 8358SOL     OW36532   3.641   0.141   2.945  0.0906 -0.0262 -0.2793
 8358SOL    HW136533   3.655   0.236   2.937 -0.3117  0.0630  0.0939
 8358SOL    HW236534   3.551   0.142   2.977  0.4026 -0.0543  0.6036
 8359SOL     OW36535   3.626   1.612  10.155 -0.3513  0.0765 -0.2270
 8359SOL    HW136536   3.690   1.624  10.085 -1.5942  0.1787 -1.3320
 8359SOL    HW236537   3.686   1.615  10.230  0.3140 -3.8435 -0.5832
 8360SOL     OW36538   1.975   4.414   1.465 -0.0333 -0.0616 -0.5206
 8360SOL    HW136539   1.957   4.331   1.421 -3.2306 -0.7746  2.1148
 8360SOL    HW236540   1.991   4.397   1.558 -0.7769  2.0075  0.0111
 8361SOL     OW36541   2.852   1.162   6.510  0.2753 -0.1376 -0.1877
 8361SOL    HW136542   2.795   1.191   6.439 -2.6255  0.0699  2.2298
 8361SOL    HW236543   2.892   1.081   6.478 -0.3675 -0.1988 -0.8184
 8362SOL     OW36544   1.114   0.896   7.496  0.2019  0.1929 -0.5020
 8362SOL    HW136545   1.019   0.884   7.498  0.1848  0.2534 -0.9227
 8362SOL    HW236546   1.133   0.878   7.404  2.3376  0.6813 -0.1429
 8363SOL     OW36547   3.663   1.656   9.310 -0.4205  0.3164 -0.5861
 8363SOL    HW136548   3.594   1.658   9.243 -0.6339  1.6200 -0.3434
 8363SOL    HW236549   3.608   1.654   9.388  0.0533  1.9167 -0.2084
 8364SOL     OW36550   0.541   1.018   6.022  0.2561 -0.1919  0.2196
 8364SOL    HW136551   0.633   1.001   6.042  1.0437  4.3242  0.2750
 8364SOL    HW236552   0.531   1.110   6.044 -0.9381 -0.2704  0.0190
 8365SOL     OW36553   1.076   3.101   9.878 -0.4291  0.0654 -0.6873
 8365SOL    HW136554   1.165   3.130   9.898  0.3454 -4.1934  1.9926
 8365SOL    HW236555   1.080   3.013   9.915  1.0062 -0.1327 -1.3153
 8366SOL     OW36556   1.033   3.078  13.746  0.3257  0.0694  0.3075
 8366SOL    HW136557   0.967   3.140  13.776 -0.5851  0.2605 -2.1071
 8366SOL    HW236558   1.079   3.073  13.830 -0.1010  0.9086  0.5920
 8367SOL     OW36559   1.474   4.377   8.626  0.1722  0.4137  0.5720
 8367SOL    HW136560   1.460   4.335   8.710  1.7410  1.8147  1.5277
 8367SOL    HW236561   1.460   4.302   8.568 -2.1775  0.5481  0.9944
 8368SOL     OW36562   4.091   3.970   3.387  0.6448  0.1103 -0.0481
 8368SOL    HW136563   4.083   4.061   3.414  0.1882  0.6354 -1.9961
 8368SOL    HW236564   4.097   3.973   3.292  0.5993 -0.0104 -0.0547
 8369SOL     OW36565   4.397   3.592   3.459 -0.3566  0.3226 -0.2977
 8369SOL    HW136566   4.403   3.687   3.456 -3.9215  0.4477 -3.2495
 8369SOL    HW236567   4.332   3.579   3.390 -0.3800  1.5712 -0.5064
 8370SOL     OW36568   4.077   0.775   3.359 -0.2737 -0.3969 -0.1383
 8370SOL    HW136569   4.062   0.755   3.451 -0.4883 -0.2304 -0.1377
 8370SOL    HW236570   4.084   0.686   3.324  2.5978 -0.1304 -0.2368
 8371SOL     OW36571   1.404   1.920   6.025  0.4381 -0.1386  0.0822
 8371SOL    HW136572   1.390   1.833   6.063  0.1834 -1.4203 -2.9469
 8371SOL    HW236573   1.318   1.947   5.995  0.2510  0.7185  1.3777
 8372SOL     OW36574   2.431   0.152  10.359 -0.3364 -0.0122 -0.1342
 8372SOL    HW136575   2.467   0.065  10.373 -0.3754  0.3606  2.3203
 8372SOL    HW236576   2.339   0.141  10.382 -0.1854  0.2985  0.6515
 8373SOL     OW36577   2.259   0.777  10.804  0.9072  0.4398 -0.1204
 8373SOL    HW136578   2.321   0.801  10.735 -0.7112  0.5836 -1.4958
 8373SOL    HW236579   2.226   0.865  10.820  3.8143  1.4539  0.3863
 8374SOL     OW36580   2.020   0.626   2.220  0.0984  0.1156 -0.6160
 8374SOL    HW136581   1.996   0.535   2.205 -0.0924  0.4087 -2.0925
 8374SOL    HW236582   1.936   0.671   2.210  0.5141  1.3297  1.3092
 8375SOL     OW36583   2.465   3.525  10.361 -0.0955  0.4710 -0.4397
 8375SOL    HW136584   2.537   3.553  10.304  0.5132 -0.2489 -0.0186
 8375SOL    HW236585   2.443   3.442  10.319 -0.9806 -0.6068  2.1784
 8376SOL     OW36586   4.113   3.655   3.575  0.1031  0.0569  1.1414
 8376SOL    HW136587   4.142   3.569   3.546 -0.7970 -0.0013  0.3929
 8376SOL    HW236588   4.040   3.673   3.516 -0.9772 -2.1905  1.7733
 8377SOL     OW36589   2.626   1.771   7.948  0.0550 -0.3226 -0.0646
 8377SOL    HW136590   2.595   1.784   7.858  0.8221 -0.5511 -0.3627
 8377SOL    HW236591   2.659   1.859   7.968  0.0053 -0.1566 -0.7032
 8378SOL     OW36592   4.080   4.221   6.309  0.6508 -0.4308  0.1836
 8378SOL    HW136593   4.054   4.189   6.395 -1.0596  0.8483  0.1440
 8378SOL    HW236594   4.023   4.162   6.261  0.5561  1.6167 -2.2226
 8379SOL     OW36595   2.608   2.205   7.408  0.3498 -0.1836 -0.1032
 8379SOL    HW136596   2.643   2.278   7.357  0.8509 -1.5634 -1.7126
 8379SOL    HW236597   2.615   2.237   7.498 -2.6964 -0.6898  0.3229
 8380SOL     OW36598   0.783   3.733   5.055  0.0867  0.1471  0.2948
 8380SOL    HW136599   0.840   3.656   5.046  0.4820  0.5161 -0.4051
 8380SOL    HW236600   0.743   3.744   4.969 -0.3534 -1.3184  0.3161
 8381SOL     OW36601   3.325   4.569  17.067  0.1694 -0.2703 -0.8301
 8381SOL    HW136602   3.347   4.480  17.097 -2.0136 -1.1551 -1.8800
 8381SOL    HW236603   3.237   4.557  17.031 -0.7615 -0.4946  1.5092
 8382SOL     OW36604   3.552   3.061   1.896 -0.5085  0.0321  0.3329
 8382SOL    HW136605   3.591   2.979   1.926 -0.5787  0.4331  1.5235
 8382SOL    HW236606   3.465   3.021   1.890 -0.0850 -0.8362 -0.0995
 8383SOL     OW36607   0.653   1.665   4.813 -0.1428 -0.0081  0.3988
 8383SOL    HW136608   0.687   1.617   4.888 -2.2988 -2.8544 -0.4163
 8383SOL    HW236609   0.688   1.614   4.740  0.0952  0.5603  0.1148
 8384SOL     OW36610   1.384   4.202  13.382  0.2313 -0.9223  0.1119
 8384SOL    HW136611   1.401   4.140  13.453 -0.2701  1.4285  2.3363
 8384SOL    HW236612   1.429   4.157  13.311  0.0401  0.1222 -0.6796
 8385SOL     OW36613   3.054   4.286   4.975  0.2907  0.4275  0.6831
 8385SOL    HW136614   3.094   4.372   4.983 -2.5934  1.8559  0.0883
 8385SOL    HW236615   3.127   4.226   4.963  0.9032  1.3617 -0.3052
 8386SOL     OW36616   1.753   4.278   6.635 -0.0007  0.3450  0.1407
 8386SOL    HW136617   1.763   4.219   6.709 -1.9152  0.8052  0.7602
 8386SOL    HW236618   1.677   4.246   6.586  2.1187 -2.3155 -1.4110
 8387SOL     OW36619   1.925   3.701   5.673  0.0761  0.1054  0.3088
 8387SOL    HW136620   2.017   3.723   5.685 -0.6312  1.8679  2.5026
 8387SOL    HW236621   1.894   3.742   5.754 -2.3171  0.6837 -0.8830
 8388SOL     OW36622   1.976   2.836  13.449 -0.3033 -0.0256 -0.0949
 8388SOL    HW136623   2.038   2.802  13.384  0.2189  1.3686 -0.3147
 8388SOL    HW236624   1.885   2.805  13.440  0.2313 -1.1651 -1.6567
 8389SOL     OW36625   1.193   3.968   9.123  0.2578 -0.0447 -0.2498
 8389SOL    HW136626   1.168   3.943   9.034  0.5752  0.0337 -0.3613
 8389SOL    HW236627   1.118   4.017   9.157  1.3776  2.5254 -1.5190
 8390SOL     OW36628   1.761   1.929   7.840 -0.6432  0.3528 -0.1675
 8390SOL    HW136629   1.808   1.927   7.924 -0.9360 -1.5352 -0.0496
 8390SOL    HW236630   1.677   1.955   7.877  0.9418  1.1154  2.9080
 8391SOL     OW36631   0.291   0.721   2.221  0.2119  0.1870 -0.0561
 8391SOL    HW136632   0.384   0.697   2.222  0.4614  1.0022 -4.4326
 8391SOL    HW236633   0.289   0.797   2.279  1.6154 -0.0289  0.2740
 8392SOL     OW36634   2.300   1.712   3.421  0.2136  0.4187  0.5226
 8392SOL    HW136635   2.276   1.638   3.478  0.8542  0.3888  0.7536
 8392SOL    HW236636   2.210   1.727   3.394  0.2428 -0.2920  0.0247
 8393SOL     OW36637   2.562   3.082   4.706 -0.0904  0.4267 -0.3595
 8393SOL    HW136638   2.470   3.088   4.682 -0.1767 -0.7605 -0.3466
 8393SOL    HW236639   2.610   3.100   4.625  0.4601  0.2907 -0.0662
 8394SOL     OW36640   1.867   3.584   2.256  0.1448  0.4581  0.1112
 8394SOL    HW136641   1.923   3.534   2.196  0.3280  0.2244  0.4741
 8394SOL    HW236642   1.909   3.580   2.342  0.1817 -2.9602 -0.0400
 8395SOL     OW36643   2.000   2.251  15.534 -0.2716  0.3212 -0.0614
 8395SOL    HW136644   2.027   2.179  15.592  2.3314  0.5452 -0.9992
 8395SOL    HW236645   2.019   2.210  15.450  1.0198 -0.1214  0.4367
 8396SOL     OW36646   1.637   3.353   5.147  0.0385  0.1005 -0.2852
 8396SOL    HW136647   1.715   3.359   5.203 -0.0777 -1.1664  0.0149
 8396SOL    HW236648   1.575   3.326   5.214 -2.9119  1.8295 -2.2902
 8397SOL     OW36649   2.498   1.966   4.137  0.6230  0.6293 -0.2362
 8397SOL    HW136650   2.458   1.932   4.056  1.4954 -1.1004  0.0541
 8397SOL    HW236651   2.588   1.951   4.109  0.9338 -0.2330  1.2115
 8398SOL     OW36652   4.138   1.176   8.478 -0.2546 -0.3843 -0.4535
 8398SOL    HW136653   4.138   1.193   8.572  0.3854 -1.3380 -0.2773
 8398SOL    HW236654   4.212   1.116   8.469 -0.3702 -0.7047  0.8080
 8399SOL     OW36655   4.349   2.582   7.016 -0.1691  0.4423 -0.1490
 8399SOL    HW136656   4.398   2.654   7.056  1.0411 -0.4917  0.0397
 8399SOL    HW236657   4.301   2.558   7.096  2.9080 -1.5670  1.1057
 8400SOL     OW36658   0.081   0.474   2.991  0.1067 -0.3886 -0.0639
 8400SOL    HW136659   0.007   0.454   3.048  0.4353  1.5445  1.0493
 8400SOL    HW236660   0.072   0.569   2.980 -0.9102 -0.5385 -0.4771
 8401SOL     OW36661   2.443   2.172   7.936  0.2020  0.0939  0.0360
 8401SOL    HW136662   2.388   2.222   7.875  2.0877  0.8502 -1.0488
 8401SOL    HW236663   2.472   2.239   7.998  1.3972 -1.3906  1.0438
 8402SOL     OW36664   2.100   4.306   6.728 -0.5365 -0.2542 -0.0697
 8402SOL    HW136665   2.064   4.218   6.717  0.1060 -0.6620  1.0793
 8402SOL    HW236666   2.095   4.316   6.823  0.2615  0.1201 -0.0716
 8403SOL     OW36667   3.936   2.590   3.374 -0.0841  0.5637 -0.2946
 8403SOL    HW136668   3.852   2.546   3.360  0.1521 -0.1650  0.5894
 8403SOL    HW236669   3.952   2.564   3.465  1.2886  0.1827 -0.6431
 8404SOL     OW36670   0.123   3.992  13.121  0.4589  0.5930  0.4240
 8404SOL    HW136671   0.145   4.002  13.213 -0.1815 -1.0276  0.7453
 8404SOL    HW236672   0.040   4.037  13.109  2.2863  4.1277  0.9074
 8405SOL     OW36673   0.272   1.264   5.785  0.2563  0.6425 -0.1322
 8405SOL    HW136674   0.190   1.283   5.831  0.6733  0.1425  0.8101
 8405SOL    HW236675   0.334   1.264   5.859  0.4726  1.6021 -0.3138
 8406SOL     OW36676   4.239   2.248   4.874  0.2984 -0.1581  0.1020
 8406SOL    HW136677   4.245   2.326   4.818 -1.0053  0.5780  1.0051
 8406SOL    HW236678   4.160   2.265   4.924  0.4284 -1.4560  0.7488
 8407SOL     OW36679   2.912   4.123   7.463  0.5735  0.4598 -0.4148
 8407SOL    HW136680   2.946   4.211   7.483  1.2841 -0.2686  1.5396
 8407SOL    HW236681   2.991   4.090   7.420 -1.5551 -0.8138 -3.3180
 8408SOL     OW36682   2.761   1.824   5.468  0.1527  0.0109  0.0292
 8408SOL    HW136683   2.775   1.843   5.561  0.1940 -1.9767  0.4216
 8408SOL    HW236684   2.775   1.911   5.430  0.8083 -0.8391 -1.6388
 8409SOL     OW36685   3.555   3.221  13.519 -0.3386  0.3631  0.1450
 8409SOL    HW136686   3.514   3.235  13.605 -0.0584  0.3575  0.2790
 8409SOL    HW236687   3.642   3.201  13.554 -0.4346 -2.5879 -1.2678
 8410SOL     OW36688   1.850   2.350   2.267 -0.2520 -0.3753 -0.3272
 8410SOL    HW136689   1.930   2.299   2.252  0.4647  0.6091  0.1894
 8410SOL    HW236690   1.851   2.408   2.192  2.1531 -0.4031 -0.2921
 8411SOL     OW36691   4.454   0.238   9.464  0.2838 -0.0261  0.2341
 8411SOL    HW136692   4.533   0.261   9.512  2.0360 -0.2475 -2.5955
 8411SOL    HW236693   4.399   0.208   9.537 -0.8767  1.6316  0.0737
 8412SOL     OW36694   2.473   4.720  16.059 -0.0032 -0.3554 -0.3591
 8412SOL    HW136695   2.496   0.050  15.983  1.0489 -0.2037  0.0659
 8412SOL    HW236696   2.413   0.058  16.100  0.5970 -0.8613  1.2812
 8413SOL     OW36697   2.787   2.539   5.167  0.6065  0.2057  0.5735
 8413SOL    HW136698   2.699   2.503   5.178  0.3934  0.5479 -0.0246
 8413SOL    HW236699   2.787   2.577   5.079  0.8672  0.3053  0.6151
 8414SOL     OW36700   3.537   0.852  13.794 -0.1399 -0.7880  0.3547
 8414SOL    HW136701   3.455   0.886  13.831  0.8462  0.2145  1.6202
 8414SOL    HW236702   3.582   0.926  13.753  0.9107 -1.4257  0.3503
 8415SOL     OW36703   0.552   3.607   2.891 -0.1388 -0.2734  0.2767
 8415SOL    HW136704   0.598   3.525   2.871  0.4912  0.0379  0.4787
 8415SOL    HW236705   0.495   3.592   2.967  0.0057 -1.1651  0.2124
 8416SOL     OW36706   2.077   4.474  14.886 -1.0058 -0.6549 -0.8279
 8416SOL    HW136707   2.124   4.476  14.969 -1.1306 -2.6934 -0.7243
 8416SOL    HW236708   2.150   4.453  14.828  1.6716 -0.0631  2.3603
 8417SOL     OW36709   2.522   2.298   9.611 -0.1854  0.2553  0.3216
 8417SOL    HW136710   2.559   2.211   9.598 -0.3120  0.0773  1.1165
 8417SOL    HW236711   2.537   2.326   9.521  1.2537  1.7963  1.0327
 8418SOL     OW36712   3.994   2.317   4.475  0.1308  0.3477  0.2870
 8418SOL    HW136713   3.903   2.340   4.495  0.1167 -0.0972  0.7083
 8418SOL    HW236714   3.992   2.223   4.461 -0.0482  0.1108  1.9464
 8419SOL     OW36715   1.170   2.880   4.183 -0.7881  0.1026 -0.4669
 8419SOL    HW136716   1.084   2.921   4.193 -0.1863  1.2138  0.1865
 8419SOL    HW236717   1.149   2.816   4.116  1.1501  0.2557 -1.2409
 8420SOL     OW36718   0.508   4.692   9.306 -0.0427 -0.0346 -0.4831
 8420SOL    HW136719   0.588   4.694   9.255  0.1876 -1.4367 -0.1546
 8420SOL    HW236720   0.466   0.047   9.268 -0.1573  0.2085  0.1332
 8421SOL     OW36721   0.140   2.768   2.089  0.2155  0.2919  0.7019
 8421SOL    HW136722   0.206   2.836   2.077 -1.7362  2.1376  0.4750
 8421SOL    HW236723   0.095   2.761   2.005  0.8766 -1.4519  0.4771
 8422SOL     OW36724   1.302   3.779   3.496 -0.2376 -0.2256  0.0546
 8422SOL    HW136725   1.387   3.736   3.487  0.2650  0.3898  1.9073
 8422SOL    HW236726   1.295   3.757   3.589  0.8474  3.8504  1.1010
 8423SOL     OW36727   2.059   4.604  13.373  0.2080  0.1731  0.4976
 8423SOL    HW136728   1.997   4.544  13.332  0.2337  1.4361 -1.4194
 8423SOL    HW236729   2.143   4.558  13.367 -0.8228 -1.7916  1.3495
 8424SOL     OW36730   4.404   1.415   4.753 -0.4923 -0.2185  0.1681
 8424SOL    HW136731   4.323   1.459   4.779 -0.0314 -0.3711  1.8406
 8424SOL    HW236732   4.409   1.351   4.824 -0.5358  0.2961  0.6261
 8425SOL     OW36733   1.792   1.675   2.263 -0.6962 -0.6351 -1.1259
 8425SOL    HW136734   1.789   1.597   2.207  1.2150 -1.5536  0.0306
 8425SOL    HW236735   1.730   1.726   2.211 -0.7392  1.6554  1.1677
 8426SOL     OW36736   4.205   3.983   6.906  0.3042  0.4347  0.9970
 8426SOL    HW136737   4.160   4.032   6.838 -0.3904 -0.3318  0.9074
 8426SOL    HW236738   4.162   4.001   6.989 -2.1424 -1.5848  0.1489
 8427SOL     OW36739   0.573   2.717  17.327  0.3970 -0.2151 -0.6733
 8427SOL    HW136740   0.601   2.803  17.296 -0.3215  0.1182 -0.3917
 8427SOL    HW236741   0.645   2.689  17.384 -1.9649 -3.7130  0.6646
 8428SOL     OW36742   2.690   3.695   2.312  0.2850 -0.1061  0.4788
 8428SOL    HW136743   2.772   3.701   2.263  1.3614 -1.2927  2.1162
 8428SOL    HW236744   2.663   3.785   2.331 -0.6629 -0.9124  3.0469
 8429SOL     OW36745   2.179   2.642  14.898 -0.2349  0.5363  0.4639
 8429SOL    HW136746   2.208   2.730  14.925 -0.4774  0.0738  2.2395
 8429SOL    HW236747   2.250   2.611  14.842  0.8518  0.7443  1.6944
 8430SOL     OW36748   3.270   0.153   5.279  0.1255 -0.2066 -0.3206
 8430SOL    HW136749   3.178   0.130   5.269 -0.1844  1.4616 -1.2505
 8430SOL    HW236750   3.301   0.063   5.265  1.7333  0.0133  1.7726
 8431SOL     OW36751   0.683   0.957   8.461  0.7567  0.1894  0.2020
 8431SOL    HW136752   0.675   0.862   8.457  1.3563  0.2198 -1.5895
 8431SOL    HW236753   0.777   0.972   8.463  0.0437  4.4734  2.2624
 8432SOL     OW36754   0.634   0.971   7.574 -0.0654  0.2460 -0.1177
 8432SOL    HW136755   0.598   0.950   7.660 -0.4318 -1.9768 -0.8348
 8432SOL    HW236756   0.692   1.041   7.605  1.2479 -1.0014  0.2239
 8433SOL     OW36757   0.222   0.072   5.829  0.4907  0.3527 -0.1102
 8433SOL    HW136758   0.307   0.065   5.786  0.5107  2.8171 -0.4480
 8433SOL    HW236759   0.237   0.050   5.921  0.6181  0.0071 -0.2121
 8434SOL     OW36760   4.686   0.885   2.311 -0.2242  0.1967  0.6407
 8434SOL    HW136761   4.708   0.974   2.338  0.5291  0.8094 -2.0427
 8434SOL    HW236762   0.046   0.847   2.283  0.6398  2.1193  0.6436
 8435SOL     OW36763   4.156   1.217   7.267  0.6275  0.0382  0.1730
 8435SOL    HW136764   4.149   1.133   7.222  0.1007 -0.5571  1.3791
 8435SOL    HW236765   4.250   1.232   7.269  0.6316 -0.1362  1.4102
 8436SOL     OW36766   2.138   0.739   4.084  0.1833 -0.2057 -0.1793
 8436SOL    HW136767   2.193   0.669   4.120 -0.1052 -0.7892 -0.8705
 8436SOL    HW236768   2.048   0.711   4.096 -0.2689  1.1406 -0.4044
 8437SOL     OW36769   4.521   0.903   4.156 -0.2716  0.0925  0.1675
 8437SOL    HW136770   4.602   0.879   4.111  0.3116  0.2410  1.1532
 8437SOL    HW236771   4.554   0.910   4.245  1.2786  2.3461 -0.5694
 8438SOL     OW36772   2.365   3.479  15.960 -0.0105 -0.9815  0.0761
 8438SOL    HW136773   2.300   3.548  15.950 -0.3669 -1.3220  0.0263
 8438SOL    HW236774   2.330   3.395  15.929 -1.1610 -0.3215 -0.4181
 8439SOL     OW36775   4.567   3.286   6.905 -0.3293 -0.3978 -0.1902
 8439SOL    HW136776   4.508   3.362   6.906  1.4090  0.9416  0.2701
 8439SOL    HW236777   4.517   3.224   6.851 -0.8503  2.6830 -3.2490
 8440SOL     OW36778   3.974   2.701   0.494 -0.7809 -0.4390  0.0227
 8440SOL    HW136779   3.943   2.723   0.582  0.1690 -1.4383  0.6068
 8440SOL    HW236780   4.038   2.633   0.512 -1.0847 -0.8412 -0.4023
 8441SOL     OW36781   0.560   4.155   8.777 -0.3968  0.7129 -0.0195
 8441SOL    HW136782   0.472   4.159   8.814 -0.9391  1.0494 -1.3602
 8441SOL    HW236783   0.615   4.175   8.853  0.5741 -0.2616 -0.4686
 8442SOL     OW36784   3.110   3.204   5.154  0.4248 -0.0607  0.2821
 8442SOL    HW136785   3.045   3.143   5.189  0.4400  0.1058  0.6036
 8442SOL    HW236786   3.173   3.134   5.138 -0.8982 -0.6207 -2.4452
 8443SOL     OW36787   0.295   0.842   1.671 -0.5734 -0.3070  0.0320
 8443SOL    HW136788   0.355   0.846   1.745  0.9594 -0.4051 -1.1822
 8443SOL    HW236789   0.336   0.773   1.618 -1.2221 -1.5604  1.1632
 8444SOL     OW36790   2.766   3.363  15.695  0.5387 -0.7455 -0.6545
 8444SOL    HW136791   2.765   3.343  15.602  1.8797 -1.0798 -0.5946
 8444SOL    HW236792   2.852   3.405  15.705 -0.4144  1.0204  0.1618
 8445SOL     OW36793   2.705   4.542   1.699  0.1390 -0.9151  0.1607
 8445SOL    HW136794   2.695   4.563   1.792 -2.7367 -1.5541 -0.0025
 8445SOL    HW236795   2.720   4.448   1.693 -1.7889 -1.2920  1.4085
 8446SOL     OW36796   1.128   4.673   3.126 -0.2920  0.1369  0.1840
 8446SOL    HW136797   1.187   4.636   3.061  0.4765  0.2168  0.8319
 8446SOL    HW236798   1.112   0.037   3.091  0.5795  0.0958 -0.3106
 8447SOL     OW36799   3.549   1.446   9.970  0.3589  0.5031 -0.0641
 8447SOL    HW136800   3.638   1.468   9.943 -0.1737  1.1589 -1.2818
 8447SOL    HW236801   3.533   1.513  10.037  0.7217 -0.3476  0.8791
 8448SOL     OW36802   1.887   0.807   3.279  0.4228  0.6514 -0.1835
 8448SOL    HW136803   1.867   0.745   3.209 -2.1400  1.3791 -0.0940
 8448SOL    HW236804   1.859   0.890   3.241 -0.5203 -0.3698 -1.7354
 8449SOL     OW36805   1.509   4.352   7.298  0.2606  0.4353  0.2754
 8449SOL    HW136806   1.477   4.421   7.356  0.9694  1.3019 -0.3586
 8449SOL    HW236807   1.428   4.318   7.261  0.4769 -1.2003  1.3256
 8450SOL     OW36808   1.318   4.187   3.813 -0.4227  0.3239  0.9693
 8450SOL    HW136809   1.327   4.124   3.741  1.7052  0.2070  1.3379
 8450SOL    HW236810   1.346   4.269   3.772  0.8620 -1.2794 -1.3601
 8451SOL     OW36811   2.059   2.430   5.081  0.5091  0.9656  0.0703
 8451SOL    HW136812   2.083   2.339   5.098  0.2583  0.7144 -0.9373
 8451SOL    HW236813   2.017   2.420   4.996  0.7975 -1.8943  0.2561
 8452SOL     OW36814   1.528   0.026   4.650 -0.4356  0.2075 -0.0486
 8452SOL    HW136815   1.538   0.055   4.559  1.5075 -0.2200  0.0318
 8452SOL    HW236816   1.554   4.657   4.653  1.1790  0.6635 -0.0292
 8453SOL     OW36817   2.774   3.511   7.333  0.1621 -0.0273 -0.5497
 8453SOL    HW136818   2.781   3.466   7.249 -1.3864 -0.7453 -0.2781
 8453SOL    HW236819   2.709   3.573   7.302  0.5887  0.6948 -0.0144
 8454SOL     OW36820   4.275   4.436   0.186 -0.6629 -0.0048  0.5528
 8454SOL    HW136821   4.267   4.480   0.101  3.2252 -0.6370 -0.1462
 8454SOL    HW236822   4.353   4.478   0.221 -2.0376  1.2296  2.1257
 8455SOL     OW36823   2.483   0.364   2.929  0.5132  0.3486  0.2971
 8455SOL    HW136824   2.513   0.328   2.846  2.5903  1.1256  0.6959
 8455SOL    HW236825   2.429   0.434   2.893  0.9152 -0.4906 -1.9038
 8456SOL     OW36826   0.782   3.198  14.812  0.3526  0.1624  0.5131
 8456SOL    HW136827   0.751   3.288  14.804 -0.4886 -0.0422  1.4427
 8456SOL    HW236828   0.705   3.159  14.770  0.4788  1.4817 -0.9342
 8457SOL     OW36829   0.767   0.269   3.234 -0.3920  0.2688  0.5680
 8457SOL    HW136830   0.825   0.260   3.310 -0.9439 -2.3731  0.6825
 8457SOL    HW236831   0.818   0.228   3.165  1.3281  2.3303  0.6145
 8458SOL     OW36832   3.381   3.087   6.534 -0.2963 -0.3131  0.1575
 8458SOL    HW136833   3.310   3.056   6.478 -1.2456  0.7440  0.7630
 8458SOL    HW236834   3.318   3.106   6.604  0.9086 -0.2339  1.2193
 8459SOL     OW36835   4.315   2.950   5.267 -0.1120 -0.7122  0.2703
 8459SOL    HW136836   4.312   3.041   5.239  1.6376 -0.6522  0.2886
 8459SOL    HW236837   4.379   2.935   5.197  0.9318  2.1604  0.6466
 8460SOL     OW36838   1.266   4.029   2.487 -1.0546  0.2148 -0.5975
 8460SOL    HW136839   1.215   3.948   2.485  1.2411 -1.2363 -0.9430
 8460SOL    HW236840   1.199   4.097   2.479 -1.8376 -0.7163 -2.0514
 8461SOL     OW36841   1.067   1.486  12.400  0.1513 -0.1609  0.1495
 8461SOL    HW136842   1.054   1.481  12.495  0.0445  4.9250  0.4108
 8461SOL    HW236843   1.154   1.448  12.399  0.6176  0.9058  0.5409
 8462SOL     OW36844   2.837   4.530  16.354  0.0490 -0.2876  0.4758
 8462SOL    HW136845   2.884   4.473  16.294 -0.3233  0.7100 -0.7801
 8462SOL    HW236846   2.750   4.501  16.327 -0.1197 -0.6080  1.3682
 8463SOL     OW36847   3.343   0.263   5.539  0.1085  0.0150  0.4239
 8463SOL    HW136848   3.332   0.220   5.454  1.0087  1.0915 -0.2311
 8463SOL    HW236849   3.310   0.202   5.606 -1.0366  0.9652  0.7352
 8464SOL     OW36850   3.776   3.144   3.788  0.2833 -0.0781  0.0436
 8464SOL    HW136851   3.850   3.113   3.841  1.6820 -0.0729 -1.9055
 8464SOL    HW236852   3.814   3.211   3.731 -0.4951  0.1523 -0.1936
 8465SOL     OW36853   2.872   3.225   2.955  0.5434  0.3644 -0.0538
 8465SOL    HW136854   2.954   3.274   2.965  1.5379 -1.1577 -0.8016
 8465SOL    HW236855   2.862   3.246   2.862 -2.4336  1.5303  0.5336
 8466SOL     OW36856   3.992   3.311   8.204 -0.3108 -0.4362  0.1903
 8466SOL    HW136857   3.937   3.233   8.200 -0.1033 -0.6135  0.8175
 8466SOL    HW236858   3.995   3.322   8.109 -1.5057  0.5678  0.2668
 8467SOL     OW36859   4.204   2.437   3.748 -0.1491  0.4686 -0.0306
 8467SOL    HW136860   4.234   2.528   3.747 -1.0140  0.7602  0.5320
 8467SOL    HW236861   4.161   2.425   3.663  0.0864 -1.7246  0.1718
 8468SOL     OW36862   1.367   4.314   3.123  0.3353 -0.0589  0.1527
 8468SOL    HW136863   1.393   4.353   3.040  1.0251  1.2032  0.9561
 8468SOL    HW236864   1.367   4.393   3.177 -0.4410 -0.0909  0.1957
 8469SOL     OW36865   0.629   4.067   1.488 -0.1476 -0.0385  0.0660
 8469SOL    HW136866   0.672   4.028   1.564 -1.1065 -1.6759 -0.2269
 8469SOL    HW236867   0.611   3.995   1.428  0.3675  0.7578 -1.0630
 8470SOL     OW36868   2.922   4.558  17.473  0.4870  0.8523  0.2140
 8470SOL    HW136869   2.945   4.581  17.563 -0.5143 -0.0337  0.6924
 8470SOL    HW236870   2.926   4.643  17.430 -0.3694  0.8446  0.1285
 8471SOL     OW36871   0.882   1.529   7.963 -0.7601  0.0064 -0.6314
 8471SOL    HW136872   0.902   1.448   7.916  0.3595 -0.3636  0.4950
 8471SOL    HW236873   0.840   1.496   8.042 -2.4762  1.0116 -1.1058
 8472SOL     OW36874   3.213   2.330   5.737 -0.1644  0.0770 -0.5268
 8472SOL    HW136875   3.251   2.289   5.659 -1.5462 -1.1665 -0.5495
 8472SOL    HW236876   3.118   2.319   5.743 -0.2713  1.7985  1.0175
 8473SOL     OW36877   0.440   2.056  16.266  0.2246  0.6366  0.0124
 8473SOL    HW136878   0.449   2.023  16.355  0.4840 -1.1764 -0.6806
 8473SOL    HW236879   0.530   2.038  16.237  0.3298 -0.0588  0.7596
 8474SOL     OW36880   0.416   2.462   6.003  0.1726 -0.2255 -0.0408
 8474SOL    HW136881   0.372   2.432   6.082 -0.9790  2.1794  0.2653
 8474SOL    HW236882   0.469   2.526   6.050 -0.5209  0.7859 -0.5990
 8475SOL     OW36883   0.511   3.143   1.933 -0.1950  0.2030 -0.0085
 8475SOL    HW136884   0.508   3.184   1.846 -1.3824 -2.7817 -1.3793
 8475SOL    HW236885   0.601   3.174   1.947  0.7118 -1.4308 -2.1977
 8476SOL     OW36886   0.363   3.108   0.039 -0.0807 -0.0213 -0.5848
 8476SOL    HW136887   0.311   3.184   0.015 -1.5678 -0.0834  2.4306
 8476SOL    HW236888   0.365   3.116   0.134 -1.8035 -0.6894 -0.5018
 8477SOL     OW36889   1.109   3.057   0.459 -0.5177 -0.1659 -0.2157
 8477SOL    HW136890   1.081   3.031   0.547  1.0042  0.4026  0.4505
 8477SOL    HW236891   1.024   3.067   0.418 -0.6913  0.3523  0.2655
 8478SOL     OW36892   4.150   0.322  12.096 -0.2165  0.0404 -0.1697
 8478SOL    HW136893   4.180   0.405  12.131  0.2386 -0.7850  1.4000
 8478SOL    HW236894   4.225   0.296  12.042 -0.9730  0.6739 -1.5207
 8479SOL     OW36895   1.502   4.256   6.272  0.5537 -0.0158  0.6538
 8479SOL    HW136896   1.574   4.298   6.225  0.4485 -1.0393 -0.4211
 8479SOL    HW236897   1.467   4.197   6.206 -0.1457  1.8484 -0.6003
 8480SOL     OW36898   2.456   1.392  10.569  0.1161 -0.6331 -0.3003
 8480SOL    HW136899   2.438   1.462  10.632  3.5415 -1.4411  1.5812
 8480SOL    HW236900   2.414   1.436  10.495  1.9098 -0.6423 -1.3526
 8481SOL     OW36901   2.540   2.620   2.338 -0.2318  0.6271  0.5663
 8481SOL    HW136902   2.445   2.610   2.334 -0.0724 -0.8271  0.5826
 8481SOL    HW236903   2.545   2.713   2.363  0.2568  0.4664  1.0642
 8482SOL     OW36904   2.285   1.295   4.297  0.1309  0.4250  0.0062
 8482SOL    HW136905   2.313   1.204   4.287 -0.7171  0.2503 -0.7272
 8482SOL    HW236906   2.331   1.337   4.224  0.4355  0.9378  0.4870
 8483SOL     OW36907   0.842   1.876   8.580  0.9212 -0.1750  0.0373
 8483SOL    HW136908   0.854   1.785   8.555 -1.4050 -0.7384  0.9980
 8483SOL    HW236909   0.760   1.893   8.533  1.0370  1.4203  0.3961
 8484SOL     OW36910   2.154   0.919   2.644  0.3472  0.0634 -0.9592
 8484SOL    HW136911   2.209   0.923   2.565 -0.2221 -2.3721 -1.4655
 8484SOL    HW236912   2.103   1.000   2.637  0.0754 -0.3059 -3.3686
 8485SOL     OW36913   3.001   3.283   6.050 -0.5449  0.4310 -0.4771
 8485SOL    HW136914   3.081   3.231   6.058 -0.7857 -0.0203 -1.0388
 8485SOL    HW236915   3.021   3.363   6.099  0.6630  1.2393 -2.2800
 8486SOL     OW36916   3.436   0.453  12.205 -0.0700 -0.4037  0.3283
 8486SOL    HW136917   3.491   0.486  12.276 -0.4451 -0.2923  0.5691
 8486SOL    HW236918   3.349   0.458  12.244 -1.0544 -2.3169 -1.6026
 8487SOL     OW36919   2.219   4.228   0.047  0.4968 -0.5634 -0.0152
 8487SOL    HW136920   2.162   4.174   0.101 -0.0088 -0.2531 -0.2286
 8487SOL    HW236921   2.277   4.252   0.119 -0.0636 -0.6433  0.4554
 8488SOL     OW36922   1.822   4.350   5.053  0.0719  0.0697 -0.1064
 8488SOL    HW136923   1.859   4.264   5.035 -1.2924 -0.5248 -0.0967
 8488SOL    HW236924   1.907   4.390   5.070 -0.1970  0.9728 -0.9238
 8489SOL     OW36925   3.319   1.259   4.528 -0.3966  0.1852  0.5555
 8489SOL    HW136926   3.260   1.189   4.558 -1.7621  1.0399 -0.1354
 8489SOL    HW236927   3.390   1.201   4.503  0.7498  1.7920  0.0775
 8490SOL     OW36928   0.919   3.375   6.883  1.0555 -0.0456  0.3395
 8490SOL    HW136929   0.999   3.330   6.911  0.6895 -0.0057  1.4669
 8490SOL    HW236930   0.930   3.458   6.928  0.3461  0.8138 -1.0904
 8491SOL     OW36931   3.668   0.665   5.541 -0.6250  0.5699 -0.7638
 8491SOL    HW136932   3.599   0.621   5.492 -0.2539  0.2222 -0.9772
 8491SOL    HW236933   3.625   0.715   5.611 -0.7914 -1.0044  0.2584
 8492SOL     OW36934   0.038   0.381   2.568  0.6899 -0.2120  0.0033
 8492SOL    HW136935   0.011   0.468   2.596  1.4198 -0.1052  0.3692
 8492SOL    HW236936   0.033   0.401   2.475  0.6797  1.2892  0.3238
 8493SOL     OW36937   0.279   4.655   2.254  0.2078 -0.3339  0.0386
 8493SOL    HW136938   0.359   4.615   2.287 -0.8140 -1.0586  1.6612
 8493SOL    HW236939   0.296   4.630   2.164 -1.8926  0.8465 -0.7063
 8494SOL     OW36940   1.060   3.255  11.495  0.4657  0.0344  0.5069
 8494SOL    HW136941   1.066   3.285  11.586 -0.1022  4.5720 -0.9802
 8494SOL    HW236942   1.030   3.334  11.450 -0.6203 -1.3673 -1.1880
 8495SOL     OW36943   2.769   1.899  12.921  0.5167  0.7450  0.1650
 8495SOL    HW136944   2.842   1.960  12.915  0.1246  1.4898  2.7910
 8495SOL    HW236945   2.821   1.823  12.895  1.5024  1.9258 -1.2422
 8496SOL     OW36946   4.050   2.093   2.093  0.0799 -0.0975  0.3935
 8496SOL    HW136947   4.008   2.121   2.011 -1.1742  0.3799  1.1944
 8496SOL    HW236948   4.140   2.094   2.062  0.3807 -1.3390  1.2591
 8497SOL     OW36949   1.027   4.456  13.648  0.1756 -0.2326 -0.0375
 8497SOL    HW136950   0.977   4.509  13.709 -1.1145  0.8694 -2.0409
 8497SOL    HW236951   0.978   4.475  13.568  0.3583 -2.9556 -0.8116
 8498SOL     OW36952   2.255   3.656   0.457 -0.5615  0.5171  0.0531
 8498SOL    HW136953   2.171   3.674   0.497 -1.0909 -1.2472 -0.2659
 8498SOL    HW236954   2.230   3.589   0.393 -2.3666  2.3065 -1.1061
 8499SOL     OW36955   0.994   3.031  16.559  0.4550 -0.6061 -0.3752
 8499SOL    HW136956   1.025   3.015  16.649  3.6492  0.1058 -1.3417
 8499SOL    HW236957   1.064   3.087  16.526 -0.3379  0.1305 -0.7754
 8500SOL     OW36958   2.190   0.864   1.654 -0.0171  0.7012  0.5775
 8500SOL    HW136959   2.215   0.953   1.679  2.7144  0.6138 -1.7262
 8500SOL    HW236960   2.263   0.826   1.703  0.3671 -1.6370 -1.7867
 8501SOL     OW36961   3.447   2.617   2.858  0.2553  0.3395  0.1689
 8501SOL    HW136962   3.469   2.548   2.921  0.7091  0.3143 -0.0155
 8501SOL    HW236963   3.512   2.603   2.790  0.8538  0.8006  0.6414
 8502SOL     OW36964   4.242   0.463   6.493  0.2492 -0.6742 -0.1283
 8502SOL    HW136965   4.317   0.461   6.434  0.3548  2.1593 -0.0962
 8502SOL    HW236966   4.203   0.547   6.468 -1.5063 -1.6295 -0.6289
 8503SOL     OW36967   0.440   4.696   8.866  0.0722  0.1349  0.2238
 8503SOL    HW136968   0.372   0.009   8.924  0.2818  0.2480  0.3976
 8503SOL    HW236969   0.510   0.038   8.875  2.6745 -2.5658 -0.8030
 8504SOL     OW36970   2.524   0.903   2.344  0.3873 -0.6724 -0.7389
 8504SOL    HW136971   2.568   0.955   2.277 -1.1005  2.5853  0.8220
 8504SOL    HW236972   2.449   0.960   2.363  0.4024 -0.1421 -2.2978
 8505SOL     OW36973   3.180   2.182   3.966 -0.0060 -0.2555 -0.3215
 8505SOL    HW136974   3.232   2.101   3.968  0.9820  0.4417  1.7793
 8505SOL    HW236975   3.093   2.143   3.966  0.0481 -0.3605  1.7663
 8506SOL     OW36976   4.702   0.969   3.223  0.0283  0.3182  0.6669
 8506SOL    HW136977   0.055   0.982   3.165 -1.1117 -2.0791 -1.3368
 8506SOL    HW236978   0.011   0.886   3.259  1.1575  0.2674 -0.4343
 8507SOL     OW36979   2.057   3.571   0.274  0.0805 -0.6374  0.2474
 8507SOL    HW136980   1.967   3.583   0.304 -0.5432 -0.6491 -1.6070
 8507SOL    HW236981   2.043   3.577   0.180  0.0328  3.8964  0.5262
 8508SOL     OW36982   0.886   1.023   4.393  0.3390 -0.7971 -0.1645
 8508SOL    HW136983   0.852   1.067   4.315  1.7444 -0.3832 -0.5378
 8508SOL    HW236984   0.825   0.949   4.400 -0.0473 -0.2795  1.7570
 8509SOL     OW36985   0.553   4.694  11.185  0.2195  0.1134 -0.1458
 8509SOL    HW136986   0.619   4.717  11.120 -0.6253  0.3918 -0.9086
 8509SOL    HW236987   0.479   4.671  11.129  1.7669  2.4690 -3.1486
 8510SOL     OW36988   1.162   1.732   6.807 -0.0528 -0.0192  0.5950
 8510SOL    HW136989   1.215   1.795   6.759 -1.8731  0.8461 -0.2392
 8510SOL    HW236990   1.128   1.788   6.877 -0.6671 -0.4793  0.6679
 8511SOL     OW36991   3.711   3.064   4.924 -0.2584 -0.3304 -0.7299
 8511SOL    HW136992   3.659   2.996   4.968  3.6170 -1.5896  1.9340
 8511SOL    HW236993   3.776   3.072   4.994 -0.2282  1.5893 -0.9833
 8512SOL     OW36994   3.230   3.922   3.794 -0.6449 -0.0878  0.0922
 8512SOL    HW136995   3.137   3.920   3.771 -0.7423 -1.0712  0.5697
 8512SOL    HW236996   3.257   3.839   3.753 -0.2475 -0.2309  0.6352
 8513SOL     OW36997   3.130   3.449  12.817  0.7394  0.4616  0.0651
 8513SOL    HW136998   3.121   3.475  12.909 -2.8058  2.6599 -0.9222
 8513SOL    HW236999   3.123   3.536  12.777  1.4141  0.0710 -0.8914
 8514SOL     OW37000   3.171   2.556  12.213  0.1892  0.6178  0.1526
 8514SOL    HW137001   3.220   2.635  12.235  0.4981  0.0631  1.4363
 8514SOL    HW237002   3.101   2.551  12.279  2.0122 -2.5119  1.8433
 8515SOL     OW37003   1.472   2.026   1.724 -0.0593  0.3336 -0.2598
 8515SOL    HW137004   1.388   2.065   1.702 -1.2160 -2.6996 -1.1417
 8515SOL    HW237005   1.528   2.044   1.649  1.4741  4.0710  1.7412
 8516SOL     OW37006   4.553   2.913   1.642  0.4335  0.6976 -0.5468
 8516SOL    HW137007   4.515   2.933   1.728  1.1145  0.0671 -0.0984
 8516SOL    HW237008   4.541   3.005   1.617  0.5088  0.3250 -1.9072
 8517SOL     OW37009   4.413   3.130   2.127 -0.7345 -0.7653  0.1911
 8517SOL    HW137010   4.320   3.108   2.136 -0.4403 -2.3148 -0.4528
 8517SOL    HW237011   4.409   3.225   2.117  0.2239 -0.6110  1.2794
 8518SOL     OW37012   0.005   3.567   8.412  0.4315 -0.0877  0.4322
 8518SOL    HW137013   4.697   3.646   8.457  0.7420 -0.4473  1.2819
 8518SOL    HW237014   4.679   3.506   8.468  3.1146 -0.2892  2.5614
 8519SOL     OW37015   2.723   0.456   7.744  0.7527 -0.5289 -0.0959
 8519SOL    HW137016   2.640   0.481   7.786  0.4976  0.2025 -1.0261
 8519SOL    HW237017   2.785   0.487   7.811 -0.6408  1.6223  0.2259
 8520SOL     OW37018   2.705   4.589   3.912  0.2990  0.0217 -0.1065
 8520SOL    HW137019   2.706   4.527   3.839 -3.4785 -2.0844  1.6247
 8520SOL    HW237020   2.666   4.669   3.878 -0.3292 -0.3204 -0.2000
 8521SOL     OW37021   2.006   0.849  16.081  0.1310  0.2260 -0.1255
 8521SOL    HW137022   2.024   0.818  16.170  1.0912  2.4359  0.4733
 8521SOL    HW237023   1.939   0.917  16.091 -2.6700 -2.6251  0.3536
 8522SOL     OW37024   4.161   4.233  12.946  0.2372 -0.0783  0.2909
 8522SOL    HW137025   4.073   4.200  12.963 -0.7151  2.6318  0.5267
 8522SOL    HW237026   4.215   4.162  12.982 -1.1199 -0.2539  1.9459
 8523SOL     OW37027   1.388   3.416  10.553  0.2298  0.2503  0.2344
 8523SOL    HW137028   1.445   3.347  10.587  1.6630  1.2280 -0.1769
 8523SOL    HW237029   1.353   3.364  10.480  1.9806  2.1248 -1.9311
 8524SOL     OW37030   4.351   2.407   2.711  0.7168  0.2269 -0.2619
 8524SOL    HW137031   4.307   2.373   2.633  0.0087 -0.0574  0.2605
 8524SOL    HW237032   4.440   2.380   2.692  2.0842  2.2991  3.1220
 8525SOL     OW37033   2.309   3.291   6.169  0.0319  0.3321 -0.0754
 8525SOL    HW137034   2.217   3.308   6.147  0.1738 -0.7472 -1.4508
 8525SOL    HW237035   2.309   3.335   6.254 -2.0371 -0.8466  0.5333
 8526SOL     OW37036   0.867   0.710   3.403 -0.3254 -0.2653 -0.2409
 8526SOL    HW137037   0.794   0.769   3.417 -2.0676 -2.1619 -1.3911
 8526SOL    HW237038   0.827   0.624   3.388  1.1587 -0.7683 -1.4378
 8527SOL     OW37039   1.870   1.481   2.432 -0.5851  0.6022 -0.1111
 8527SOL    HW137040   1.907   1.500   2.517 -0.6753 -0.0168  0.0682
 8527SOL    HW237041   1.864   1.570   2.398 -0.0066  0.6895  0.0265
 8528SOL     OW37042   1.722   3.227   4.101 -0.5549 -0.0778 -0.4634
 8528SOL    HW137043   1.781   3.277   4.157  0.3771 -2.8929  1.0732
 8528SOL    HW237044   1.778   3.228   4.023 -0.0104 -1.4038 -0.0799
 8529SOL     OW37045   1.689   2.694   0.947 -0.1052 -0.6379  0.1314
 8529SOL    HW137046   1.670   2.696   0.854  1.9514  1.5962 -0.2319
 8529SOL    HW237047   1.784   2.678   0.944 -0.0874  0.0080 -2.1612
 8530SOL     OW37048   1.118   0.336   6.851 -0.3343  0.3954 -0.8485
 8530SOL    HW137049   1.189   0.397   6.871  0.6975 -0.0947 -2.9954
 8530SOL    HW237050   1.165   0.308   6.772 -1.9580 -0.3645 -1.5532
 8531SOL     OW37051   4.050   2.234  10.755 -0.2136  0.1508 -0.2892
 8531SOL    HW137052   4.123   2.233  10.818  0.0153 -0.0518 -0.5588
 8531SOL    HW237053   4.009   2.150  10.778  0.9208 -0.7697 -1.6186
 8532SOL     OW37054   0.534   2.205   7.003 -0.3369  0.3807  0.3088
 8532SOL    HW137055   0.495   2.222   6.917  0.6010  0.3143 -0.1305
 8532SOL    HW237056   0.608   2.265   7.011 -0.9926  0.9054  2.4151
 8533SOL     OW37057   1.850   0.210   3.927  0.2375 -0.0499 -0.4008
 8533SOL    HW137058   1.761   0.177   3.937 -0.0428  0.2392 -1.8578
 8533SOL    HW237059   1.886   0.142   3.871 -0.3817  0.0999 -0.9861
 8534SOL     OW37060   0.567   2.366  15.361  0.0715 -0.0754 -0.9837
 8534SOL    HW137061   0.632   2.297  15.377  0.4873  0.2373 -1.3292
 8534SOL    HW237062   0.485   2.317  15.360  0.5662 -0.9265 -0.3473
 8535SOL     OW37063   3.954   3.003   2.785 -0.2780 -0.2865  0.4916
 8535SOL    HW137064   3.885   2.972   2.726  0.2431 -1.4467  0.4890
 8535SOL    HW237065   3.995   3.071   2.732  0.0871 -0.7619  0.1641
 8536SOL     OW37066   2.602   0.643   5.612  0.0526  0.2849  0.1871
 8536SOL    HW137067   2.641   0.677   5.531  1.0146 -1.0443  0.0921
 8536SOL    HW237068   2.651   0.561   5.621 -0.9194  0.0302  3.1072
 8537SOL     OW37069   4.053   2.494   8.138  0.2452 -0.0532 -0.1050
 8537SOL    HW137070   4.037   2.515   8.046  0.8906  0.0322 -0.1949
 8537SOL    HW237071   3.999   2.561   8.180  0.3877 -0.1967  0.3002
 8538SOL     OW37072   3.249   4.711  12.001 -0.4654  0.4636 -0.1164
 8538SOL    HW137073   3.329   0.041  12.005 -0.4924  0.4693  0.3663
 8538SOL    HW237074   3.192   0.051  11.957 -1.0212  0.9499  1.2891
 8539SOL     OW37075   0.528   3.325   5.215 -0.9584 -0.1278 -0.3079
 8539SOL    HW137076   0.470   3.255   5.186 -2.5993  1.7953 -1.7279
 8539SOL    HW237077   0.541   3.379   5.136  1.3830  0.2989  0.3899
 8540SOL     OW37078   4.610   1.837  11.656  0.6623 -0.1297 -0.0022
 8540SOL    HW137079   4.590   1.758  11.707  0.0107 -0.1498 -0.2874
 8540SOL    HW237080   4.642   1.784  11.583  1.3462  1.0095 -0.5140
 8541SOL     OW37081   2.120   2.752  13.248  0.1620  0.2665  0.6925
 8541SOL    HW137082   2.124   2.673  13.195 -1.3537 -1.1378  2.6691
 8541SOL    HW237083   2.177   2.812  13.200  1.8976 -1.0278  1.1268
 8542SOL     OW37084   3.049   0.760  14.421 -0.2072  0.0302 -0.3396
 8542SOL    HW137085   2.980   0.766  14.487  1.4905  0.2042  1.4082
 8542SOL    HW237086   3.000   0.780  14.341 -0.2564  3.8341  0.6017
 8543SOL     OW37087   2.117   2.071   4.330 -0.7215  0.2461  0.2387
 8543SOL    HW137088   2.042   2.105   4.379 -1.5438  1.7721 -2.0473
 8543SOL    HW237089   2.124   1.992   4.383  4.1523  0.5972  0.1295
 8544SOL     OW37090   0.802   2.043   5.109 -0.1995  0.1341 -0.3787
 8544SOL    HW137091   0.851   1.976   5.156 -0.5830 -1.2751 -1.9833
 8544SOL    HW237092   0.721   1.994   5.095  2.7724 -5.3390  1.6335
 8545SOL     OW37093   0.198   4.375  17.446 -0.8163  0.1487 -0.4554
 8545SOL    HW137094   0.224   4.283  17.452  1.4941  0.8115 -0.4818
 8545SOL    HW237095   0.266   4.424  17.490 -2.4583  2.5141 -0.5719
 8546SOL     OW37096   0.364   0.814   1.318  0.3268  0.7927 -0.5321
 8546SOL    HW137097   0.290   0.774   1.274 -0.5891  2.1981 -0.2506
 8546SOL    HW237098   0.435   0.749   1.325 -1.4780 -1.2702 -1.5003
 8547SOL     OW37099   0.498   2.916   5.904 -0.3267 -0.1189 -0.1383
 8547SOL    HW137100   0.499   2.985   5.971  1.4244  0.0522 -0.3364
 8547SOL    HW237101   0.549   2.963   5.838 -0.8785 -0.0486 -0.5087
 8548SOL     OW37102   4.248   4.250  11.314  0.1329  0.2844 -0.5925
 8548SOL    HW137103   4.249   4.155  11.324  0.1227  0.6010  2.3452
 8548SOL    HW237104   4.334   4.290  11.327  1.1287 -1.8526 -0.6138
 8549SOL     OW37105   1.303   3.459  13.318  0.2331 -0.1070  0.3491
 8549SOL    HW137106   1.215   3.429  13.295  0.4226 -0.2931 -0.1517
 8549SOL    HW237107   1.354   3.391  13.273  0.8737  1.2099 -0.9276
 8550SOL     OW37108   3.013   3.087   5.809  0.1769 -0.5243 -0.3340
 8550SOL    HW137109   2.926   3.053   5.832 -0.0819 -0.6936 -1.5704
 8550SOL    HW237110   3.064   3.006   5.802  0.8050 -0.1368 -0.2234
 8551SOL     OW37111   4.387   2.892   6.792 -0.4298  0.5449  0.4070
 8551SOL    HW137112   4.466   2.851   6.828  0.3148  1.0261 -0.6341
 8551SOL    HW237113   4.381   2.839   6.712 -0.8318  0.9766  0.1514
 8552SOL     OW37114   2.627   1.133   5.451 -0.1639  0.2285 -0.5260
 8552SOL    HW137115   2.697   1.095   5.398  0.1538 -2.2109  1.6342
 8552SOL    HW237116   2.664   1.207   5.499 -0.4977  0.2201 -0.2523
 8553SOL     OW37117   1.325   0.652   1.664 -0.3802  0.3276 -0.1936
 8553SOL    HW137118   1.236   0.662   1.698  0.0679 -0.0476  1.1018
 8553SOL    HW237119   1.348   0.574   1.716 -2.1306 -1.6483 -2.4290
 8554SOL     OW37120   3.378   1.761   6.977  0.2229 -0.4020 -0.3307
 8554SOL    HW137121   3.415   1.677   6.948  0.4823 -0.2845 -0.3403
 8554SOL    HW237122   3.287   1.733   6.988  0.7605 -1.0340  2.3568
 8555SOL     OW37123   2.919   0.581   5.507  0.7509  0.3125  0.3221
 8555SOL    HW137124   2.951   0.671   5.513  0.2342  0.4937  0.3539
 8555SOL    HW237125   2.892   0.550   5.594  1.1969 -0.0584  0.3297
 8556SOL     OW37126   0.997   4.018   5.400 -0.1128  0.5752 -0.5414
 8556SOL    HW137127   0.963   3.986   5.483  2.5851 -0.5454  0.1316
 8556SOL    HW237128   1.044   4.095   5.432 -2.1015  0.9632  1.4216
 8557SOL     OW37129   1.704   1.849   6.234  0.1983 -0.8467 -0.0420
 8557SOL    HW137130   1.771   1.813   6.176 -0.6589 -2.1704 -0.2052
 8557SOL    HW237131   1.679   1.930   6.190 -1.6738 -1.3200  0.1564
 8558SOL     OW37132   0.089   0.218   3.254 -0.0630  0.1738  0.0282
 8558SOL    HW137133   0.014   0.247   3.307 -1.1664  1.4040 -2.1692
 8558SOL    HW237134   0.046   0.138   3.224 -1.0161  0.5325  0.4351
 8559SOL     OW37135   4.504   2.052   6.029 -0.1752 -0.2424 -0.4234
 8559SOL    HW137136   4.511   1.960   6.004 -0.2512 -0.4213  0.2085
 8559SOL    HW237137   4.587   2.083   6.065  0.5690  0.1733 -2.5091
 8560SOL     OW37138   1.403   1.335   9.105 -0.6977  0.2150 -0.0081
 8560SOL    HW137139   1.404   1.254   9.053  0.8471 -0.7631  1.5280
 8560SOL    HW237140   1.429   1.294   9.188 -0.2848  0.2438 -0.1198
 8561SOL     OW37141   4.581   0.021  10.504 -0.5061 -0.1781  0.0158
 8561SOL    HW137142   4.570   4.686  10.579 -0.3985 -0.1090  0.0851
 8561SOL    HW237143   4.515   0.090  10.511  0.4260  0.6387  0.7617
 8562SOL     OW37144   3.977   1.393   3.525  0.4233  0.1965 -0.2559
 8562SOL    HW137145   4.063   1.367   3.492 -0.1036 -1.5450 -0.2705
 8562SOL    HW237146   3.941   1.306   3.545 -0.1459 -0.0726 -2.3577
 8563SOL     OW37147   4.146   3.726   9.335 -0.0031 -0.1631  0.3719
 8563SOL    HW137148   4.179   3.805   9.292 -0.2526 -0.3589 -0.1752
 8563SOL    HW237149   4.069   3.716   9.280  0.1427  0.2266  0.0987
 8564SOL     OW37150   3.120   4.715  12.725 -0.9139  0.1208  0.2598
 8564SOL    HW137151   3.045   0.051  12.719 -1.3845 -0.5510 -0.3192
 8564SOL    HW237152   3.169   0.053  12.781 -0.9993  0.6909 -0.2867
 8565SOL     OW37153   3.020   4.381   7.901 -0.3253  0.3616  0.3058
 8565SOL    HW137154   3.054   4.449   7.958 -1.3370  1.4129 -0.3439
 8565SOL    HW237155   2.928   4.366   7.924  0.1178 -1.1757  1.0675
 8566SOL     OW37156   4.707   3.836   8.536  0.4791  0.2059 -0.1610
 8566SOL    HW137157   0.075   3.854   8.514  0.2405 -1.7737 -2.6946
 8566SOL    HW237158   4.713   3.817   8.630  0.0170  1.1884  0.0687
 8567SOL     OW37159   1.435   3.226   5.309  0.1582  0.4754  0.1823
 8567SOL    HW137160   1.492   3.151   5.295  0.3577  0.4857  0.9196
 8567SOL    HW237161   1.375   3.198   5.378  0.6877 -1.2626 -0.0790
 8568SOL     OW37162   0.604   1.213   8.510 -0.3327 -0.0821  0.1442
 8568SOL    HW137163   0.668   1.243   8.575 -0.2031 -2.9224  1.3266
 8568SOL    HW237164   0.619   1.118   8.515 -0.2197 -0.1795 -2.1065
 8569SOL     OW37165   1.026   0.283   4.540  0.7319 -0.5224 -0.3052
 8569SOL    HW137166   0.948   0.234   4.566  0.6662 -1.5719 -2.5405
 8569SOL    HW237167   1.092   0.214   4.537  1.9969  0.6197  1.1053
 8570SOL     OW37168   0.532   0.393   7.386  0.4166  0.2470  0.2314
 8570SOL    HW137169   0.444   0.381   7.349 -0.5520  0.3141  2.4831
 8570SOL    HW237170   0.532   0.306   7.426 -1.8790 -0.6112 -1.5766
 8571SOL     OW37171   2.307   3.527   7.411  0.0090  0.2109  0.2774
 8571SOL    HW137172   2.340   3.612   7.440  2.3026  0.1597 -2.1269
 8571SOL    HW237173   2.230   3.538   7.356 -0.8976 -0.2813  1.4421
 8572SOL     OW37174   1.139   4.689   3.401 -0.4673  0.0044  0.2384
 8572SOL    HW137175   1.159   4.598   3.425  1.4980  0.7627  1.4626
 8572SOL    HW237176   1.152   4.698   3.306  1.6918  0.1963  0.5520
 8573SOL     OW37177   3.776   0.809   7.986  0.6522 -0.4723 -0.3544
 8573SOL    HW137178   3.718   0.820   7.911 -0.1579  0.6137  0.4304
 8573SOL    HW237179   3.807   0.720   7.971 -0.1809 -0.3097 -2.9473
 8574SOL     OW37180   0.709   4.400  15.643  0.3101 -0.2445  0.1711
 8574SOL    HW137181   0.663   4.316  15.643 -0.0318 -0.0565  0.5735
 8574SOL    HW237182   0.781   4.366  15.697 -0.0581  0.2343  0.9676
 8575SOL     OW37183   0.923   3.932   8.052 -0.0315 -0.1109  0.1333
 8575SOL    HW137184   1.000   3.930   7.996 -0.2552 -3.2792 -0.0719
 8575SOL    HW237185   0.953   3.994   8.118 -0.3146 -0.3671  0.5018
 8576SOL     OW37186   2.821   1.743   8.735  0.1632 -0.3059  0.1193
 8576SOL    HW137187   2.784   1.761   8.648  1.5389 -1.2464 -0.6765
 8576SOL    HW237188   2.820   1.647   8.737 -0.7042 -0.3097 -0.7546
 8577SOL     OW37189   1.768   3.743  16.570 -0.6254 -0.2342  0.5711
 8577SOL    HW137190   1.815   3.659  16.569  0.7272  0.5484 -1.8332
 8577SOL    HW237191   1.803   3.777  16.653 -1.4434  3.9335 -0.7853
 8578SOL     OW37192   2.059   2.595   4.374 -0.0200 -0.4023 -0.1151
 8578SOL    HW137193   2.117   2.522   4.352 -1.2369 -0.9145 -1.6079
 8578SOL    HW237194   2.006   2.552   4.442 -0.1004 -0.7126 -0.3745
 8579SOL     OW37195   1.595   0.351   3.976 -0.2635  0.0574  0.7340
 8579SOL    HW137196   1.537   0.405   4.030 -1.0663  0.9169 -1.0263
 8579SOL    HW237197   1.587   0.263   4.013  0.9598 -0.1235  0.5630
 8580SOL     OW37198   3.349   0.701   2.451  0.9204 -0.2919 -0.1192
 8580SOL    HW137199   3.266   0.741   2.477  0.8638 -0.0286 -0.6970
 8580SOL    HW237200   3.395   0.765   2.397 -1.5237  0.9825 -0.6931
 8581SOL     OW37201   1.452   3.375   1.539  0.4992  0.1251 -0.5666
 8581SOL    HW137202   1.478   3.317   1.467  0.6458 -1.0013  0.3939
 8581SOL    HW237203   1.502   3.332   1.609 -0.6331 -1.4118 -0.7171
 8582SOL     OW37204   3.540   2.031   8.221 -0.1230  0.0172 -0.0448
 8582SOL    HW137205   3.580   2.096   8.163  1.7311 -0.6898  0.4538
 8582SOL    HW237206   3.449   2.040   8.193 -0.6028 -0.3862  1.4236
 8583SOL     OW37207   2.451   3.989  10.213  0.1204 -0.0666 -0.3285
 8583SOL    HW137208   2.490   3.903  10.228  3.3077  1.9114  2.7554
 8583SOL    HW237209   2.428   3.972  10.122  1.4582 -0.0114 -0.6805
 8584SOL     OW37210   4.701   0.202   2.816 -0.5524 -0.0552  0.2086
 8584SOL    HW137211   0.012   0.251   2.741  0.9361 -0.2728  0.7412
 8584SOL    HW237212   0.047   0.219   2.881  0.7134 -3.7644 -0.1611
 8585SOL     OW37213   3.890   1.927   2.237  0.2883  0.0252 -0.2303
 8585SOL    HW137214   3.930   1.841   2.249  1.0735  0.2655 -1.1292
 8585SOL    HW237215   3.944   1.974   2.174  1.7063  0.4778  1.3312
 8586SOL     OW37216   0.132   2.195   5.198 -0.9029  0.8045  0.4078
 8586SOL    HW137217   0.176   2.277   5.176  1.7698 -0.7211  0.0956
 8586SOL    HW237218   0.085   2.170   5.118 -1.0414  1.2947  0.3349
 8587SOL     OW37219   0.218   0.018  15.712 -0.4613 -0.5550 -0.1797
 8587SOL    HW137220   0.235   4.647  15.701 -0.0418 -0.1458 -3.0234
 8587SOL    HW237221   0.292   0.057  15.666  0.0577 -0.1850  0.9654
 8588SOL     OW37222   1.191   1.515   6.243 -0.2755 -0.1502 -0.1014
 8588SOL    HW137223   1.155   1.593   6.200  1.1899 -0.6256 -2.1742
 8588SOL    HW237224   1.282   1.542   6.256  0.4749 -3.2310  0.8759
 8589SOL     OW37225   3.918   0.487   0.931 -0.4120  0.1024 -0.5346
 8589SOL    HW137226   3.968   0.447   1.002  0.3191  0.1758 -1.0029
 8589SOL    HW237227   3.928   0.427   0.857 -2.0888  4.0682 -3.9889
 8590SOL     OW37228   4.471   3.941  16.002 -0.1399  0.2455  0.3167
 8590SOL    HW137229   4.395   3.993  16.027 -0.1855 -0.1046  0.8940
 8590SOL    HW237230   4.517   3.963  16.083  1.6403  1.7676 -1.1201
 8591SOL     OW37231   3.345   1.763   2.340 -0.5176  0.1514  0.4076
 8591SOL    HW137232   3.428   1.802   2.365  0.1248 -0.3610 -0.9181
 8591SOL    HW237233   3.367   1.670   2.348 -0.3710  0.1510 -0.0237
 8592SOL     OW37234   1.412   0.961   6.291 -0.4676 -0.1502  0.4302
 8592SOL    HW137235   1.495   0.984   6.249 -0.5996  0.2684  0.3982
 8592SOL    HW237236   1.367   1.043   6.312  0.8694  1.1777 -1.8687
 8593SOL     OW37237   2.978   0.805  11.118 -0.1297 -0.2211  0.3139
 8593SOL    HW137238   2.888   0.834  11.125  0.4340  1.6177 -0.1491
 8593SOL    HW237239   2.998   0.835  11.029  1.2603 -1.0759  0.3290
 8594SOL     OW37240   2.479   3.611  15.726 -0.3854 -0.0757  0.0017
 8594SOL    HW137241   2.470   3.555  15.649  0.0823  0.3082 -0.3343
 8594SOL    HW237242   2.441   3.554  15.793  0.8605 -1.0458 -0.1261
 8595SOL     OW37243   3.525   0.063   6.945  0.4621  0.1530  0.4849
 8595SOL    HW137244   3.585   0.083   7.016 -0.7129 -0.1776  1.5877
 8595SOL    HW237245   3.570   0.113   6.877  0.3126  1.0316  1.0340
 8596SOL     OW37246   3.633   2.850   5.982  0.0055  0.2774 -0.3311
 8596SOL    HW137247   3.631   2.799   6.063  1.3513 -1.7360 -1.5767
 8596SOL    HW237248   3.726   2.836   5.962 -0.0147  2.2029 -1.7485
 8597SOL     OW37249   3.548   2.806   8.690 -0.0622 -0.3721  0.1698
 8597SOL    HW137250   3.561   2.900   8.674  0.4434 -0.3891  0.4569
 8597SOL    HW237251   3.469   2.791   8.639  1.0684 -1.4559 -1.2769
 8598SOL     OW37252   1.592   4.016   3.866  0.3533 -0.9087 -0.2751
 8598SOL    HW137253   1.624   3.928   3.847  0.5368 -0.6962 -0.9577
 8598SOL    HW237254   1.502   3.999   3.894  0.0872  1.9423  0.6363
 8599SOL     OW37255   2.464   4.132   6.930  0.3299  0.2311  0.3616
 8599SOL    HW137256   2.545   4.106   6.974  1.9367  2.9764 -0.9616
 8599SOL    HW237257   2.481   4.109   6.838 -1.1483  0.0586  0.1301
 8600SOL     OW37258   3.220   0.786  13.709  0.3982  0.3804 -0.0290
 8600SOL    HW137259   3.192   0.721  13.773  0.6772  0.6095  0.3249
 8600SOL    HW237260   3.224   0.870  13.755 -2.3000 -0.3438  1.4698
 8601SOL     OW37261   2.013   0.774  16.371 -0.1205 -0.5916 -0.1687
 8601SOL    HW137262   2.077   0.704  16.365 -0.4646 -0.5818 -3.9597
 8601SOL    HW237263   1.933   0.721  16.377  0.7407 -2.0222 -1.2472
 8602SOL     OW37264   2.878   2.537  16.083 -0.0489  0.1771  0.0716
 8602SOL    HW137265   2.838   2.609  16.035  0.2316 -0.1367 -0.6320
 8602SOL    HW237266   2.813   2.521  16.152  1.3034  2.5368  1.8894
 8603SOL     OW37267   3.032   2.093   8.746  0.0212 -0.0731  0.2919
 8603SOL    HW137268   2.961   2.116   8.686  1.2745 -0.0581 -1.2005
 8603SOL    HW237269   3.049   2.179   8.785  1.7867 -0.0104 -0.6158
 8604SOL     OW37270   1.316   2.874   1.023 -0.1753 -0.0667 -0.6846
 8604SOL    HW137271   1.400   2.871   1.068  0.2168  0.8640 -1.3795
 8604SOL    HW237272   1.332   2.934   0.950  1.7401  1.2429  0.8206
 8605SOL     OW37273   4.474   3.459  10.825  0.1941  0.0872 -0.9455
 8605SOL    HW137274   4.512   3.514  10.893  2.4661 -1.9412 -0.5790
 8605SOL    HW237275   4.435   3.516  10.758 -2.2131  0.9226  1.1650
 8606SOL     OW37276   0.840   1.409   1.276  0.0317  0.3173 -0.5720
 8606SOL    HW137277   0.778   1.399   1.203 -0.9635  0.8614  0.1998
 8606SOL    HW237278   0.873   1.497   1.260  1.8679 -0.4370 -0.8839
 8607SOL     OW37279   2.432   0.788  14.850 -0.3454  0.7633 -0.7465
 8607SOL    HW137280   2.360   0.730  14.874  0.1778  0.3059 -0.2810
 8607SOL    HW237281   2.498   0.719  14.849 -1.2735 -0.1288  1.4590
 8608SOL     OW37282   0.840   2.264  15.756 -0.5193  0.0361 -0.5945
 8608SOL    HW137283   0.816   2.258  15.663 -0.7452  1.0708 -0.6006
 8608SOL    HW237284   0.870   2.173  15.764 -2.1581 -0.2973  1.6557
 8609SOL     OW37285   4.660   1.055   0.476 -0.3116 -0.1054 -0.6397
 8609SOL    HW137286   4.622   1.138   0.446 -1.0441  1.0243  3.5077
 8609SOL    HW237287   0.025   1.065   0.439 -0.5686  0.9074 -0.9937
 8610SOL     OW37288   0.626   1.336  17.343  0.5047  0.4964 -0.3733
 8610SOL    HW137289   0.683   1.302  17.273  0.0310  0.1159 -0.5726
 8610SOL    HW237290   0.633   1.431  17.339 -1.0633  0.6303  0.3850
 8611SOL     OW37291   1.528   2.111   5.043  0.0368 -0.0919 -0.4588
 8611SOL    HW137292   1.548   2.128   4.951 -0.0251  1.9688 -0.0943
 8611SOL    HW237293   1.511   2.201   5.071 -0.6546 -0.5161  0.4900
 8612SOL     OW37294   0.404   4.109   9.941 -0.5765 -0.1191  0.5013
 8612SOL    HW137295   0.319   4.152   9.933  0.0928  1.0852 -0.1477
 8612SOL    HW237296   0.407   4.061   9.859 -2.5164 -0.1906  0.4727
 8613SOL     OW37297   2.655   3.590   9.113 -0.4641  0.0353 -0.1522
 8613SOL    HW137298   2.645   3.567   9.206  3.2448  2.5799  0.8999
 8613SOL    HW237299   2.687   3.678   9.135 -1.5362  0.7041 -1.2667
 8614SOL     OW37300   0.338   3.133   2.302  0.5258 -0.6215  0.3643
 8614SOL    HW137301   0.335   3.038   2.316 -0.2784 -0.9494 -2.0052
 8614SOL    HW237302   0.258   3.154   2.350  0.5218  1.1019 -0.3986
 8615SOL     OW37303   2.452   2.618  16.789  0.1510 -0.6718  0.4962
 8615SOL    HW137304   2.524   2.584  16.842  1.3707 -0.4590 -1.0255
 8615SOL    HW237305   2.419   2.533  16.760  1.9636 -1.0691 -0.4575
 8616SOL     OW37306   3.369   3.048   4.141 -0.2500  1.0036  0.3892
 8616SOL    HW137307   3.399   2.991   4.212  1.2290 -1.1673 -1.9871
 8616SOL    HW237308   3.450   3.080   4.101  0.8285 -1.3204  0.7206
 8617SOL     OW37309   4.562   0.700  17.497  0.2049 -0.0643  0.1236
 8617SOL    HW137310   4.538   0.608  17.487 -0.8513  0.1612  0.4614
 8617SOL    HW237311   4.651   0.706  17.463  0.1497  1.4534  0.2281
 8618SOL     OW37312   0.495   0.959   3.602 -0.1985  0.4807 -0.0889
 8618SOL    HW137313   0.409   0.954   3.560 -0.4747  3.8278  0.0727
 8618SOL    HW237314   0.481   0.918   3.687  2.6616 -1.8930 -0.7730
 8619SOL     OW37315   3.517   3.238   2.095 -0.0494  1.0772  0.1017
 8619SOL    HW137316   3.457   3.297   2.050 -1.6933 -0.8773 -0.2812
 8619SOL    HW237317   3.553   3.187   2.022 -1.1871  2.7837 -1.6523
 8620SOL     OW37318   2.709   3.811   1.805 -0.3912 -0.0756  0.1790
 8620SOL    HW137319   2.705   3.852   1.719 -1.2800 -0.2001  0.1599
 8620SOL    HW237320   2.639   3.745   1.803 -1.1876  0.8453 -2.3860
 8621SOL     OW37321   0.816   2.005  16.834 -0.1548 -0.4683 -0.2698
 8621SOL    HW137322   0.731   2.047  16.847 -0.6629 -1.6656  0.2880
 8621SOL    HW237323   0.837   2.031  16.744  1.2996  0.6681  0.3942
 8622SOL     OW37324   4.426   1.734  16.696  0.4512  0.0283  0.2969
 8622SOL    HW137325   4.345   1.682  16.702 -0.7691  2.0391  1.3232
 8622SOL    HW237326   4.409   1.814  16.745  3.4172  1.2330 -0.6403
 8623SOL     OW37327   2.864   2.811  15.898 -0.7037 -0.2155  0.3379
 8623SOL    HW137328   2.784   2.763  15.919 -2.4379  2.8974  0.7850
 8623SOL    HW237329   2.830   2.898  15.879  0.2852  0.5268  1.9999
 8624SOL     OW37330   4.480   4.082   5.266 -0.5779  0.2891 -0.5370
 8624SOL    HW137331   4.519   4.020   5.205  0.9720 -0.9373  1.7310
 8624SOL    HW237332   4.550   4.120   5.318 -0.4363  0.2802 -0.7206
 8625SOL     OW37333   2.020   0.649  10.717 -0.6417 -0.0857  0.0528
 8625SOL    HW137334   2.106   0.679  10.749 -0.0837 -1.0519 -0.5469
 8625SOL    HW237335   1.964   0.714  10.760  0.0690  0.3673  0.2905
 8626SOL     OW37336   3.606   2.478   7.920 -0.9116  0.2434 -0.0284
 8626SOL    HW137337   3.528   2.534   7.923 -1.7233 -0.7662 -2.7780
 8626SOL    HW237338   3.588   2.442   7.833  1.2709 -1.8191  0.3736
 8627SOL     OW37339   4.012   1.783   6.953 -0.0121 -0.1335  0.0804
 8627SOL    HW137340   4.000   1.693   6.922 -2.9840  0.6672 -1.0683
 8627SOL    HW237341   3.999   1.791   7.047 -0.3849  0.3597 -0.0164
 8628SOL     OW37342   1.926   3.736   1.476 -0.0724  0.5634  0.3408
 8628SOL    HW137343   1.938   3.698   1.564 -2.4169  0.9125  0.8143
 8628SOL    HW237344   2.001   3.704   1.426  0.5901  0.1661  1.5805
 8629SOL     OW37345   0.214   0.618  16.022  0.3755  0.2618 -0.5444
 8629SOL    HW137346   0.161   0.544  15.991 -2.6100  1.9533  0.5377
 8629SOL    HW237347   0.145   0.679  16.049  1.2375  1.7674 -1.7323
 8630SOL     OW37348   4.511   3.894   8.354 -0.1507 -0.6426  0.1798
 8630SOL    HW137349   4.587   3.898   8.411 -2.5681  2.5946  3.1421
 8630SOL    HW237350   4.535   3.823   8.294  0.3794 -0.3986  0.1028
 8631SOL     OW37351   1.128   2.998   5.900  0.1147 -0.2571  1.0318
 8631SOL    HW137352   1.090   3.061   5.961 -0.5512 -1.4382  1.8170
 8631SOL    HW237353   1.048   2.964   5.860 -0.0701 -0.3013  1.4474
 8632SOL     OW37354   2.325   1.147  13.052 -0.1360 -0.0867 -0.6213
 8632SOL    HW137355   2.345   1.162  12.960  2.6948 -0.4751 -0.0510
 8632SOL    HW237356   2.322   1.052  13.044 -1.4546 -0.1018 -0.0116
 8633SOL     OW37357   3.621   0.795   7.725  0.0975  0.3713 -0.0766
 8633SOL    HW137358   3.705   0.757   7.697 -0.2038  0.2710 -0.8244
 8633SOL    HW237359   3.554   0.741   7.685  1.0800 -1.5313  0.8335
 8634SOL     OW37360   0.295   1.293   6.249  0.2001 -0.0080  0.5514
 8634SOL    HW137361   0.225   1.229   6.237 -0.5828  0.6556  1.5569
 8634SOL    HW237362   0.327   1.274   6.337  1.1761 -1.2568 -0.0754
 8635SOL     OW37363   3.121   1.147   8.939 -0.2876  0.6986  0.2320
 8635SOL    HW137364   3.059   1.094   8.890  1.2460  0.0619 -1.0309
 8635SOL    HW237365   3.194   1.151   8.877 -2.2245  1.5205 -1.9928
 8636SOL     OW37366   2.057   2.373  13.602 -0.2512  0.3072  0.4513
 8636SOL    HW137367   2.045   2.283  13.631 -0.7170  1.0398  2.4960
 8636SOL    HW237368   2.114   2.404  13.672 -0.8864  0.8888  0.7082
 8637SOL     OW37369   0.345   3.623  17.170 -0.4417  0.4548 -0.3878
 8637SOL    HW137370   0.301   3.698  17.129  0.0024  1.1287  0.3831
 8637SOL    HW237371   0.289   3.567  17.116  0.0890 -0.8170  0.3967
 8638SOL     OW37372   3.751   0.231   3.562  0.4341  0.0629  0.4157
 8638SOL    HW137373   3.664   0.196   3.580  0.9715 -0.8643  1.2003
 8638SOL    HW237374   3.791   0.225   3.648  0.3362  0.8013  0.5104
 8639SOL     OW37375   0.367   2.809   5.497 -0.6444 -0.1370 -0.1889
 8639SOL    HW137376   0.322   2.860   5.564  0.8592  0.4569  0.3622
 8639SOL    HW237377   0.369   2.728   5.547  0.4134 -0.1350 -0.2342
 8640SOL     OW37378   4.319   3.656   0.611 -0.9209  0.4494  0.1345
 8640SOL    HW137379   4.346   3.714   0.539  1.2166 -0.6945  0.0278
 8640SOL    HW237380   4.231   3.692   0.623 -0.9876  0.0874  0.6972
 8641SOL     OW37381   0.488   1.002   2.998 -0.0674  0.1712 -0.4049
 8641SOL    HW137382   0.505   1.048   2.915 -0.0129 -1.4926 -1.3047
 8641SOL    HW237383   0.525   0.916   2.980  2.6598  1.3246 -0.3275
 8642SOL     OW37384   1.596   4.559   5.734  0.0328  0.3429 -0.0480
 8642SOL    HW137385   1.544   4.610   5.672  0.4017  1.1849  0.3317
 8642SOL    HW237386   1.626   4.618   5.803 -0.2235 -1.5260  1.6998
 8643SOL     OW37387   3.490   2.617  14.167 -0.5256  0.1445  0.5385
 8643SOL    HW137388   3.427   2.547  14.146 -2.1525  2.6370 -2.7401
 8643SOL    HW237389   3.474   2.624  14.262  0.7738  1.2421  0.6635
 8644SOL     OW37390   0.875   0.415   7.555 -0.1775 -0.2606  0.4132
 8644SOL    HW137391   0.896   0.323   7.535 -1.2707  0.1361 -2.6272
 8644SOL    HW237392   0.883   0.455   7.468  0.0528  2.9363  1.9214
 8645SOL     OW37393   1.186   1.332   2.144  0.0785  0.5484 -0.0953
 8645SOL    HW137394   1.115   1.375   2.097  0.6691  0.7600 -0.7883
 8645SOL    HW237395   1.150   1.245   2.160 -4.0106  2.0333 -1.2310
 8646SOL     OW37396   3.944   0.009  11.958  0.1765 -0.3066  0.4589
 8646SOL    HW137397   3.928   4.639  11.973  0.7228 -0.4666  0.0552
 8646SOL    HW237398   3.867   0.047  11.998  0.7391  2.9510 -1.5033
 8647SOL     OW37399   4.497   0.020   5.865  0.4297 -0.3125  0.1610
 8647SOL    HW137400   4.457   4.695   5.793  0.2424 -0.5756  0.4409
 8647SOL    HW237401   4.509   0.107   5.826 -1.7026 -0.0105  0.1831
 8648SOL     OW37402   2.703   1.632  17.622 -0.1331  0.3374  0.3754
 8648SOL    HW137403   2.621   1.632  17.572  0.1419  0.8860 -0.0735
 8648SOL    HW237404   2.705   1.727  17.625  1.9216  0.3142 -0.7042
 8649SOL     OW37405   1.396   2.399  12.901  0.3824  0.4264  0.1571
 8649SOL    HW137406   1.327   2.406  12.836  0.4229 -0.6487 -0.0082
 8649SOL    HW237407   1.361   2.326  12.951  1.2488  0.0810  0.2740
 8650SOL     OW37408   4.716   2.466   5.219  0.0936  0.0165 -0.3313
 8650SOL    HW137409   0.043   2.513   5.286  3.7368 -0.8171 -2.4869
 8650SOL    HW237410   4.712   2.375   5.248 -0.3383  0.1767  0.1100
 8651SOL     OW37411   0.076   0.616   7.791 -0.2625 -0.5579  0.8805
 8651SOL    HW137412   0.147   0.653   7.739 -0.2540 -2.6159 -0.5808
 8651SOL    HW237413   0.093   0.647   7.880 -0.8992  1.6187  0.2399
 8652SOL     OW37414   0.199   4.138  13.909 -0.6508 -0.5364  0.1885
 8652SOL    HW137415   0.278   4.096  13.876 -0.8789  0.1212 -1.2262
 8652SOL    HW237416   0.138   4.133  13.834 -1.2873 -1.6569  0.7881
 8653SOL     OW37417   0.755   3.554   2.625 -0.0247  0.3361  0.0137
 8653SOL    HW137418   0.773   3.639   2.666  2.4571  0.0407 -0.4228
 8653SOL    HW237419   0.742   3.582   2.534 -0.0081  2.0002  0.5158
 8654SOL     OW37420   1.083   2.877   0.662 -0.0974  0.1390  0.2997
 8654SOL    HW137421   1.032   2.796   0.655  0.9112 -0.2311 -2.5011
 8654SOL    HW237422   1.170   2.837   0.669  0.1885  0.5991 -0.6195
 8655SOL     OW37423   2.742   0.394   4.600 -0.1275  0.0391  0.5152
 8655SOL    HW137424   2.813   0.354   4.550  1.9398  3.3981  0.7543
 8655SOL    HW237425   2.794   0.457   4.650  2.1063 -0.3329 -1.3175
 8656SOL     OW37426   4.084   2.721   2.092 -0.5197  0.2720  0.4870
 8656SOL    HW137427   4.117   2.638   2.126  0.9797  0.7671  0.2478
 8656SOL    HW237428   3.991   2.712   2.110 -0.3571 -2.1158  0.1812
 8657SOL     OW37429   4.686   0.960  11.584 -0.3804 -0.1413 -0.5390
 8657SOL    HW137430   4.654   0.879  11.545 -0.1126 -0.4673 -0.0901
 8657SOL    HW237431   4.706   1.003  11.501  0.7546 -1.8600 -1.1768
 8658SOL     OW37432   3.431   1.935   0.526  0.2853  0.9606 -0.0899
 8658SOL    HW137433   3.392   2.018   0.555 -0.9792 -0.1672  1.4565
 8658SOL    HW237434   3.504   1.964   0.471  0.6032  0.1540 -0.0789
 8659SOL     OW37435   1.610   3.624   5.520  0.5416 -0.0958 -0.0662
 8659SOL    HW137436   1.598   3.631   5.614 -1.4434  1.2278 -0.4259
 8659SOL    HW237437   1.623   3.530   5.509 -3.0201 -0.6256  0.4843
 8660SOL     OW37438   2.731   2.826  17.211  0.2567 -0.1526  0.5256
 8660SOL    HW137439   2.694   2.738  17.208  2.1718 -0.9641  0.3583
 8660SOL    HW237440   2.729   2.837  17.116  1.1669  1.2804  0.6817
 8661SOL     OW37441   2.462   0.275   5.807  0.0486  0.1235  0.2089
 8661SOL    HW137442   2.389   0.274   5.868  2.8880 -0.2044  3.5975
 8661SOL    HW237443   2.534   0.289   5.869  1.3429  0.5255 -1.3879
 8662SOL     OW37444   4.135   1.118   5.552  1.3875  0.0133  0.4595
 8662SOL    HW137445   4.099   1.093   5.637 -0.8934  2.3682  0.2040
 8662SOL    HW237446   4.129   1.035   5.505 -1.5064  2.6066 -3.7039
 8663SOL     OW37447   0.189   4.687   1.005  1.0330 -0.1598  0.4639
 8663SOL    HW137448   0.114   4.637   1.035  0.5679 -0.1309 -0.6409
 8663SOL    HW237449   0.155   0.054   1.004 -0.2922 -0.6745 -1.0057
 8664SOL     OW37450   3.680   1.077   1.359  0.4341  0.3613 -0.1757
 8664SOL    HW137451   3.766   1.111   1.333 -0.1601  0.6547 -1.6806
 8664SOL    HW237452   3.668   0.992   1.316  1.3294  0.6739 -1.0331
 8665SOL     OW37453   0.685   3.990   6.571  0.3686  0.2594 -0.1745
 8665SOL    HW137454   0.710   3.925   6.506  0.5440  1.0844 -0.9428
 8665SOL    HW237455   0.707   4.073   6.527 -1.0028  2.3107  2.9825
 8666SOL     OW37456   3.556   0.131   7.613  0.4760  0.4392  0.0462
 8666SOL    HW137457   3.463   0.144   7.633 -0.2915 -1.5413 -2.3006
 8666SOL    HW237458   3.594   0.219   7.620  0.7031  0.3286  0.1861
 8667SOL     OW37459   1.290   3.230   6.014 -0.0552 -0.3338 -0.0681
 8667SOL    HW137460   1.211   3.273   5.981 -0.2151 -0.8843 -0.3932
 8667SOL    HW237461   1.263   3.142   5.991 -0.1538 -0.2625 -0.2252
 8668SOL     OW37462   4.182   1.110  13.728  0.0571 -0.5496 -0.2435
 8668SOL    HW137463   4.219   1.170  13.793  0.3186  0.6698 -1.5036
 8668SOL    HW237464   4.256   1.100  13.667  0.7435 -0.9360  0.6566
 8669SOL     OW37465   4.163   1.395   1.242  0.1887  0.2615 -0.4120
 8669SOL    HW137466   4.169   1.328   1.174 -3.5355 -1.6470  1.0937
 8669SOL    HW237467   4.121   1.460   1.187 -3.1348 -1.1649  0.3607
 8670SOL     OW37468   2.263   2.524   4.902 -0.3121  0.0482  0.7507
 8670SOL    HW137469   2.210   2.469   4.844 -1.1730  3.0602 -1.3529
 8670SOL    HW237470   2.271   2.477   4.985 -1.1086 -0.1964  0.6893
 8671SOL     OW37471   3.991   2.786   6.758 -0.2279 -0.0242  0.3428
 8671SOL    HW137472   4.032   2.727   6.822  1.1597  1.5549  0.9186
 8671SOL    HW237473   4.044   2.863   6.776  1.1604 -1.2165  1.4301
 8672SOL     OW37474   1.860   2.860   4.951  0.1425 -0.1063 -0.1682
 8672SOL    HW137475   1.947   2.821   4.949  0.3289  0.4241 -2.2814
 8672SOL    HW237476   1.857   2.918   5.028  0.2190 -1.5628  0.9192
 8673SOL     OW37477   4.555   3.594   2.226 -0.3959 -0.4018 -0.3884
 8673SOL    HW137478   4.551   3.676   2.276 -0.6211  0.3662 -1.6334
 8673SOL    HW237479   4.615   3.618   2.156  0.5649  0.0805  0.6047
 8674SOL     OW37480   0.080   4.345  12.215 -0.1731 -1.0538  0.5960
 8674SOL    HW137481   4.718   4.306  12.236 -1.6250  1.3477 -0.9288
 8674SOL    HW237482   0.112   4.378  12.299 -0.5737  0.8425 -0.0029
 8675SOL     OW37483   4.433   0.222  17.543  0.2488 -0.2688  0.2858
 8675SOL    HW137484   4.472   0.138  17.519  0.2225  0.5332 -2.5083
 8675SOL    HW237485   4.442   0.218  17.638 -0.2526  4.3290  0.5261
 8676SOL     OW37486   2.211   1.123  14.578 -0.1172 -0.0128 -0.1458
 8676SOL    HW137487   2.276   1.115  14.648  0.2298  1.3400 -0.3126
 8676SOL    HW237488   2.186   1.031  14.571 -1.7581  0.2440  2.3550
 8677SOL     OW37489   0.555   2.216   5.481 -0.0646  0.8276  0.3787
 8677SOL    HW137490   0.593   2.142   5.529 -0.5230 -0.7830 -1.7414
 8677SOL    HW237491   0.477   2.177   5.442 -0.4647  1.4015  0.6295
 8678SOL     OW37492   4.443   1.709   9.462  0.3955  0.0238  0.0302
 8678SOL    HW137493   4.368   1.659   9.429  0.1301 -0.1349  0.8694
 8678SOL    HW237494   4.450   1.784   9.403 -1.0536 -1.4768 -2.0322
 8679SOL     OW37495   2.226   3.211   0.432  0.6315 -0.8761  0.5994
 8679SOL    HW137496   2.278   3.169   0.499  0.4176 -0.7676  0.8339
 8679SOL    HW237497   2.153   3.242   0.486 -0.1895 -0.5922 -0.6599
 8680SOL     OW37498   2.054   4.304   5.612 -0.0836  0.1512 -0.3477
 8680SOL    HW137499   2.029   4.259   5.532  2.0439 -0.1240 -0.8679
 8680SOL    HW237500   2.017   4.250   5.681 -0.2705  0.8985  0.1432
 8681SOL     OW37501   1.297   3.078  16.745  0.1810  1.2502 -0.7987
 8681SOL    HW137502   1.208   3.044  16.738  0.3913  0.8241 -1.4077
 8681SOL    HW237503   1.271   3.160  16.788 -3.9621  1.0406 -3.0028
 8682SOL     OW37504   2.445   3.380   2.221  0.0891  0.0573 -0.6063
 8682SOL    HW137505   2.380   3.431   2.270  0.1279 -0.4807  0.0105
 8682SOL    HW237506   2.466   3.446   2.156 -1.9385  1.1596 -0.1669
 8683SOL     OW37507   4.556   3.810   4.673  0.3072  0.7598 -0.3814
 8683SOL    HW137508   4.644   3.799   4.635  0.4784  2.1502 -0.3788
 8683SOL    HW237509   4.532   3.891   4.628 -1.4345 -0.7031 -2.0678
 8684SOL     OW37510   3.249   3.895   2.240  0.2575  0.2167  0.2498
 8684SOL    HW137511   3.311   3.839   2.287  0.1245 -0.3924 -0.3090
 8684SOL    HW237512   3.273   3.856   2.156 -1.1935 -1.0189  0.4196
 8685SOL     OW37513   0.174   2.267  13.727  0.2918  0.1811 -0.3559
 8685SOL    HW137514   0.257   2.239  13.765  0.7592  2.5258  0.3296
 8685SOL    HW237515   0.208   2.307  13.647 -1.3455 -0.3794 -1.3217
 8686SOL     OW37516   0.754   4.655   6.588 -0.1652  0.1445 -0.1447
 8686SOL    HW137517   0.781   4.589   6.523 -0.9439  0.2688 -0.5965
 8686SOL    HW237518   0.816   4.659   6.660  1.5587  0.8834 -1.6646
 8687SOL     OW37519   2.722   0.848  13.765  0.3873  0.3763 -0.5423
 8687SOL    HW137520   2.746   0.908  13.694  1.4769  0.3147 -0.2195
 8687SOL    HW237521   2.628   0.833  13.752  0.7600 -2.6859  0.4608
 8688SOL     OW37522   2.309   2.972   4.310  0.0448  0.1552  0.0853
 8688SOL    HW137523   2.397   3.007   4.317  0.1700 -0.6352  2.4323
 8688SOL    HW237524   2.318   2.878   4.327 -2.5207  0.2043  1.7426
 8689SOL     OW37525   1.616   0.193   1.992 -0.8130 -0.2007 -0.0267
 8689SOL    HW137526   1.675   0.268   2.004 -0.4339 -0.1052 -2.4569
 8689SOL    HW237527   1.673   0.123   1.959 -1.0557  1.2634 -3.5441
 8690SOL     OW37528   3.937   2.613   5.666  0.1897 -0.2038 -0.2911
 8690SOL    HW137529   3.886   2.619   5.585  1.4225 -1.6041 -1.1655
 8690SOL    HW237530   3.995   2.685   5.641  0.9564 -0.3703  0.9975
 8691SOL     OW37531   3.835   4.722   2.711  0.1377 -0.0972 -0.1468
 8691SOL    HW137532   3.860   0.059   2.640 -1.1884  0.1497 -0.4130
 8691SOL    HW237533   3.759   0.041   2.752  0.3805  2.5857 -2.3818
 8692SOL     OW37534   0.360   2.824   7.014  0.0646 -0.3976 -0.0191
 8692SOL    HW137535   0.371   2.916   7.040  0.0883 -0.8773  1.6813
 8692SOL    HW237536   0.293   2.797   7.077  1.0181  0.4845  1.3864
 8693SOL     OW37537   0.077   4.253   1.987  0.4140 -0.1968  0.3147
 8693SOL    HW137538   0.128   4.254   2.069  0.7740  1.0582  0.0705
 8693SOL    HW237539   4.715   4.236   2.027 -0.4766  4.6512  0.5052
 8694SOL     OW37540   3.638   4.071   4.102  0.3521 -0.3202 -0.1989
 8694SOL    HW137541   3.550   4.099   4.076  0.7785  1.9607  0.7693
 8694SOL    HW237542   3.633   4.079   4.198 -1.8593 -0.2975 -0.3255
 8695SOL     OW37543   2.478   0.855   7.428  0.4205  0.2958 -0.1729
 8695SOL    HW137544   2.552   0.849   7.489 -0.1869 -1.3650  0.4036
 8695SOL    HW237545   2.405   0.872   7.488  0.4892 -0.3385  0.0954
 8696SOL     OW37546   0.981   4.243   4.719  0.0865  0.0081 -0.5687
 8696SOL    HW137547   1.029   4.174   4.766  2.0248 -0.6592 -3.5017
 8696SOL    HW237548   1.042   4.316   4.711 -1.0271  1.1116  1.1640
 8697SOL     OW37549   1.955   4.155  11.420 -0.1524  0.6134  0.0497
 8697SOL    HW137550   1.999   4.237  11.397  2.5008 -0.1839  2.1950
 8697SOL    HW237551   1.934   4.167  11.512 -2.6124  0.2513 -0.4738
 8698SOL     OW37552   0.885   0.436   7.275 -0.0089  0.6031  0.3612
 8698SOL    HW137553   0.969   0.393   7.258 -0.4788 -0.5168  0.8830
 8698SOL    HW237554   0.830   0.382   7.219 -1.8294 -1.3606  4.0929
 8699SOL     OW37555   3.456   1.022  14.889  0.0683  0.2840 -0.2901
 8699SOL    HW137556   3.425   1.095  14.942 -0.9219  1.2170 -2.1647
 8699SOL    HW237557   3.510   0.979  14.955  3.0739  3.4657 -0.7280
 8700SOL     OW37558   2.916   4.314   0.378  0.4379  0.2514  0.2893
 8700SOL    HW137559   2.878   4.360   0.453  1.2639  3.0390 -0.9947
 8700SOL    HW237560   3.008   4.339   0.389  0.1610  1.2143  0.4121
 8701SOL     OW37561   2.919   3.573   2.865 -0.0280  0.0281 -0.7866
 8701SOL    HW137562   2.882   3.510   2.803 -0.0636 -0.0974 -0.6391
 8701SOL    HW237563   2.964   3.627   2.800  0.1323  0.3888 -0.3772
 8702SOL     OW37564   4.510   2.278   8.772  0.0623 -0.4589 -0.1242
 8702SOL    HW137565   4.510   2.209   8.838  0.0000 -0.3931 -0.0542
 8702SOL    HW237566   4.573   2.344   8.802 -2.6028  1.8267  0.4827
 8703SOL     OW37567   1.035   0.545   4.512  0.2710 -0.5904  0.5710
 8703SOL    HW137568   1.015   0.560   4.604  0.8541 -0.2127  0.6369
 8703SOL    HW237569   1.034   0.449   4.516 -2.0162 -0.6243 -0.8680
 8704SOL     OW37570   1.853   3.235  12.340 -0.1192  0.1279  0.0866
 8704SOL    HW137571   1.908   3.307  12.370  1.7503 -0.9324 -0.7948
 8704SOL    HW237572   1.782   3.236  12.404  0.5346 -1.9043  0.8391
 8705SOL     OW37573   4.308   3.241  12.559  0.0640  0.4757  0.0362
 8705SOL    HW137574   4.275   3.261  12.647 -1.9039  0.9147 -0.8062
 8705SOL    HW237575   4.332   3.149  12.572 -0.0430  0.7109  1.8702
 8706SOL     OW37576   3.967   2.952  14.763  0.2609 -0.3419  0.0608
 8706SOL    HW137577   3.925   2.954  14.676  1.6251 -1.8729 -0.6335
 8706SOL    HW237578   3.934   3.034  14.800  1.9046  0.4675 -0.2791
 8707SOL     OW37579   4.495   0.120   6.126  0.0612 -0.0713 -0.1370
 8707SOL    HW137580   4.515   0.087   6.038 -1.8430  1.0408 -0.9957
 8707SOL    HW237581   4.579   0.165   6.134  0.1501 -0.6958  2.4531
 8708SOL     OW37582   4.332   3.132  15.907  0.0081  0.1604  0.7773
 8708SOL    HW137583   4.412   3.166  15.866 -0.4418 -2.5493 -2.2876
 8708SOL    HW237584   4.335   3.158  15.999 -2.3165  1.0122  0.6107
 8709SOL     OW37585   1.415   3.799   4.468 -0.1279  0.5358  0.3012
 8709SOL    HW137586   1.460   3.771   4.388 -0.7406 -1.2763  0.6027
 8709SOL    HW237587   1.372   3.717   4.494 -2.0153  1.7482  0.9852
 8710SOL     OW37588   3.725   4.000   4.955 -0.2709  0.6984  0.0561
 8710SOL    HW137589   3.804   3.990   5.007  1.1521 -0.3260 -2.3148
 8710SOL    HW237590   3.707   3.911   4.927 -2.8564  0.8905  1.0769
 8711SOL     OW37591   1.183   0.279   7.468  0.1612 -0.0691 -0.1068
 8711SOL    HW137592   1.220   0.194   7.443 -1.5909 -0.5244 -1.1139
 8711SOL    HW237593   1.176   0.272   7.563 -0.7473  2.2574 -0.0186
 8712SOL     OW37594   1.089   1.090   0.714 -0.2408  0.4106  0.0266
 8712SOL    HW137595   1.075   1.052   0.801 -1.0439  0.8831  0.1073
 8712SOL    HW237596   1.009   1.057   0.673 -0.6608  1.5862 -0.1038
 8713SOL     OW37597   1.617   2.993   5.222  0.2720 -0.9363  0.5192
 8713SOL    HW137598   1.606   2.949   5.306  1.1448 -1.1766  0.5066
 8713SOL    HW237599   1.692   3.050   5.241  0.7080 -0.9906 -1.0590
 8714SOL     OW37600   2.628   4.142   3.903  0.4506  0.5291  0.3329
 8714SOL    HW137601   2.665   4.195   3.833 -2.3257 -1.9834 -3.0208
 8714SOL    HW237602   2.695   4.076   3.919  2.3438  2.2750 -0.3785
 8715SOL     OW37603   1.480   4.435  12.901  0.0155 -0.1224  0.1845
 8715SOL    HW137604   1.429   4.358  12.875  1.8763 -1.1904 -0.2690
 8715SOL    HW237605   1.562   4.417  12.856  0.4291 -2.0330  1.7583
 8716SOL     OW37606   2.130   1.838   4.498 -0.3109 -0.3777 -0.3648
 8716SOL    HW137607   2.184   1.797   4.565 -2.5832 -1.4929  0.7665
 8716SOL    HW237608   2.152   1.784   4.422  0.1574  0.0538 -0.5365
 8717SOL     OW37609   3.311   2.810   2.495  0.2012 -0.5456 -0.2045
 8717SOL    HW137610   3.284   2.776   2.410  3.2204  0.0918 -1.4060
 8717SOL    HW237611   3.293   2.733   2.549 -0.7147 -1.3347 -1.6190
 8718SOL     OW37612   1.391   3.621   3.020  0.4412 -0.5843 -0.0024
 8718SOL    HW137613   1.406   3.527   3.027 -1.1691 -0.8628 -0.2435
 8718SOL    HW237614   1.329   3.640   3.091 -0.6566 -0.5971 -0.9511
 8719SOL     OW37615   3.614   0.596   6.382 -0.7680 -0.3669 -0.4078
 8719SOL    HW137616   3.603   0.501   6.378 -0.0549 -0.5030  0.5696
 8719SOL    HW237617   3.669   0.613   6.459 -2.0910  2.1041 -0.0234
 8720SOL     OW37618   4.302   2.485   1.975 -0.0988  0.3072  0.2929
 8720SOL    HW137619   4.232   2.448   2.028 -1.4061  1.2955 -0.7204
 8720SOL    HW237620   4.370   2.487   2.043 -1.5263  0.4960  1.7062
 8721SOL     OW37621   3.316   2.981  11.094  0.1302 -0.5099  0.0442
 8721SOL    HW137622   3.383   3.033  11.049  0.9821 -1.4727  0.1833
 8721SOL    HW237623   3.254   3.052  11.106  0.5819  0.2422 -2.1732
 8722SOL     OW37624   3.101   2.753  13.178 -0.2403 -0.0495 -0.5634
 8722SOL    HW137625   3.148   2.799  13.247  0.0946  0.6623 -1.2598
 8722SOL    HW237626   3.039   2.705  13.232 -1.3549 -0.5771 -2.3232
 8723SOL     OW37627   0.077   1.264   2.951  0.2848 -0.0346 -0.1770
 8723SOL    HW137628   0.087   1.186   3.006  3.2104  0.5177  0.0766
 8723SOL    HW237629   0.163   1.271   2.909 -0.4453 -0.0718 -1.6417
 8724SOL     OW37630   4.029   1.398   8.255  0.0652  0.2488  0.6378
 8724SOL    HW137631   4.087   1.397   8.331 -1.8511 -0.9698  2.1126
 8724SOL    HW237632   3.962   1.334   8.281 -1.1199  1.1437 -0.2142
 8725SOL     OW37633   0.746   1.508   8.625 -0.0171  0.1809 -0.6996
 8725SOL    HW137634   0.761   1.417   8.650 -1.9773 -0.0589 -0.4364
 8725SOL    HW237635   0.742   1.555   8.708  1.2997 -1.6324  0.3737
 8726SOL     OW37636   2.897   3.794   3.711  0.0024  0.2261 -0.1787
 8726SOL    HW137637   2.804   3.776   3.696  0.1407 -0.8520  0.2688
 8726SOL    HW237638   2.900   3.880   3.669 -0.0274  0.2779 -0.0738
 8727SOL     OW37639   1.104   0.924   4.168  0.0720  0.0771 -0.0157
 8727SOL    HW137640   1.106   0.856   4.235  0.5491  0.2532  0.1504
 8727SOL    HW237641   1.150   0.998   4.208 -2.2728  1.3277  0.3830
 8728SOL     OW37642   1.711   3.307  10.774  0.1223 -0.1419 -0.1641
 8728SOL    HW137643   1.805   3.293  10.788  0.3914 -0.0592 -1.8888
 8728SOL    HW237644   1.721   3.396  10.742 -0.9858 -0.3031 -0.9646
 8729SOL     OW37645   4.307   0.716  14.628  0.0225 -0.3624  0.2421
 8729SOL    HW137646   4.346   0.769  14.559 -0.6835 -0.8121 -0.5062
 8729SOL    HW237647   4.379   0.725  14.691  0.2952  2.7280 -0.5325
 8730SOL     OW37648   2.530   4.001   3.150  0.0406  0.0298  0.1350
 8730SOL    HW137649   2.562   3.927   3.099 -0.0372 -0.7814  1.2685
 8730SOL    HW237650   2.548   3.969   3.238 -0.3492 -0.6549 -0.0337
 8731SOL     OW37651   2.182   0.542   7.379  0.0928  0.1337  0.0745
 8731SOL    HW137652   2.123   0.617   7.373 -1.2955 -1.0448 -1.1752
 8731SOL    HW237653   2.257   0.585   7.339  0.7614 -0.2622  0.9102
 8732SOL     OW37654   0.668   1.607   6.560 -0.6475 -0.1231 -0.2977
 8732SOL    HW137655   0.713   1.639   6.638  0.3625 -0.8739 -0.5640
 8732SOL    HW237656   0.575   1.610   6.581  0.0586  3.1195  2.2851
 8733SOL     OW37657   1.057   1.680   5.890 -0.2161 -0.1022 -0.0296
 8733SOL    HW137658   1.037   1.692   5.983 -0.8110 -1.2573 -0.0048
 8733SOL    HW237659   0.967   1.700   5.862 -0.9034 -0.9015  1.5934
 8734SOL     OW37660   2.159   2.749   6.839 -0.1058 -0.0631 -0.4018
 8734SOL    HW137661   2.207   2.702   6.770  1.5275 -0.3508  0.9292
 8734SOL    HW237662   2.073   2.707   6.829  0.6171 -2.4047  3.1872
 8735SOL     OW37663   0.366   1.183  10.594  0.4549  0.3770 -0.6283
 8735SOL    HW137664   0.291   1.190  10.652  0.0109  1.5537 -1.3371
 8735SOL    HW237665   0.317   1.190  10.512  0.2592  2.7089 -0.3202
 8736SOL     OW37666   3.550   1.601   4.711  0.3814 -0.1966  0.3647
 8736SOL    HW137667   3.468   1.628   4.753  1.0139 -1.0759  2.1935
 8736SOL    HW237668   3.533   1.565   4.624  0.3734 -0.7613  0.5975
 8737SOL     OW37669   1.337   2.890  10.962  0.3538  0.0893  0.5831
 8737SOL    HW137670   1.291   2.815  10.925 -0.1881  0.8888 -0.3749
 8737SOL    HW237671   1.359   2.852  11.046  0.1388 -1.8678 -0.2518
 8738SOL     OW37672   2.058   0.629   2.465 -0.2920 -0.4474  0.2300
 8738SOL    HW137673   2.042   0.626   2.370 -1.2372 -2.5839  0.4598
 8738SOL    HW237674   2.112   0.707   2.465 -1.0829  0.0849  3.6215
 8739SOL     OW37675   1.318   1.933  12.466  0.1338  0.4737  0.0933
 8739SOL    HW137676   1.349   1.888  12.545  1.1944  0.9083 -0.0828
 8739SOL    HW237677   1.223   1.922  12.476  0.6214 -1.7469  2.5021
 8740SOL     OW37678   4.265   1.901   5.253 -0.2333 -0.4407  0.4829
 8740SOL    HW137679   4.187   1.937   5.210 -0.7036 -0.8587  0.9808
 8740SOL    HW237680   4.328   1.951   5.201 -0.1337 -1.4554 -0.3745
 8741SOL     OW37681   1.688   0.706  10.873 -0.2106 -0.2377 -0.3147
 8741SOL    HW137682   1.756   0.773  10.878 -0.7993  0.3673 -0.4975
 8741SOL    HW237683   1.714   0.650  10.946  0.7884 -0.7228 -1.0467
 8742SOL     OW37684   3.940   3.189   5.297  0.2315 -0.1357  0.3915
 8742SOL    HW137685   3.848   3.182   5.322  0.3320  1.2227  1.1746
 8742SOL    HW237686   3.982   3.108   5.327  1.1676  0.4240  0.6112
 8743SOL     OW37687   0.241   1.666   4.900  0.0788  0.1440 -1.0533
 8743SOL    HW137688   0.289   1.613   4.837  2.2018 -0.6879  1.2830
 8743SOL    HW237689   0.223   1.740   4.843 -2.9695  0.9564  0.9352
 8744SOL     OW37690   4.088   2.474  11.526 -0.2753 -0.3425 -0.1903
 8744SOL    HW137691   4.107   2.432  11.610 -1.2649 -0.7695 -0.1801
 8744SOL    HW237692   4.027   2.541  11.557  0.0344  0.0435 -0.4190
 8745SOL     OW37693   2.629   2.141  10.424  0.0685 -0.3892 -0.3011
 8745SOL    HW137694   2.617   2.224  10.471  1.0478 -1.7386  2.3365
 8745SOL    HW237695   2.685   2.095  10.488 -0.1194  0.4899  0.5007
 8746SOL     OW37696   3.061   0.250   1.951  0.2525 -0.6503 -0.4742
 8746SOL    HW137697   2.975   0.250   1.993  0.6669 -0.6256  0.3659
 8746SOL    HW237698   3.045   0.210   1.865 -0.1040  0.2834 -0.8456
 8747SOL     OW37699   3.353   1.141   6.824  0.3087  0.1217 -0.6247
 8747SOL    HW137700   3.411   1.180   6.760 -0.0868  1.4672 -0.1723
 8747SOL    HW237701   3.273   1.153   6.773 -2.4699 -2.8272  2.9904
 8748SOL     OW37702   3.298   0.916   1.913  0.5430  1.3225 -0.5307
 8748SOL    HW137703   3.228   0.945   1.854 -0.8382  0.3450  0.6154
 8748SOL    HW237704   3.333   1.003   1.933  3.4613  0.4496 -1.8614
 8749SOL     OW37705   3.183   4.522  12.532 -0.4641 -0.1100 -0.1560
 8749SOL    HW137706   3.238   4.500  12.607  0.4122  0.6568 -0.5685
 8749SOL    HW237707   3.153   4.609  12.557  2.0174 -0.2322  3.1673
 8750SOL     OW37708   4.178   1.961   1.727 -0.2224 -0.8005 -0.8529
 8750SOL    HW137709   4.253   2.003   1.769 -0.1360 -0.1000 -1.7092
 8750SOL    HW237710   4.212   1.938   1.640  0.1288  2.3806 -1.5304
 8751SOL     OW37711   2.020   0.831   7.073  0.9052  0.3163 -0.4242
 8751SOL    HW137712   1.929   0.842   7.045  0.6252 -1.6923 -0.3380
 8751SOL    HW237713   2.005   0.798   7.162 -0.4003 -0.5481 -0.9571
 8752SOL     OW37714   1.268   4.605  13.648 -0.0348  0.2952  0.2058
 8752SOL    HW137715   1.341   4.545  13.663  0.6492  1.4275  1.4024
 8752SOL    HW237716   1.190   4.550  13.645  2.5065 -3.1922 -2.0471
 8753SOL     OW37717   1.153   1.570   7.467 -0.3420 -0.9439  0.1723
 8753SOL    HW137718   1.216   1.570   7.539  1.9025 -1.3786 -1.7759
 8753SOL    HW237719   1.088   1.510   7.504  0.9381 -0.8439  2.6259
 8754SOL     OW37720   3.347   1.138   6.361  0.6013 -0.2266 -0.1355
 8754SOL    HW137721   3.284   1.106   6.425  0.2009  1.3161  0.2334
 8754SOL    HW237722   3.315   1.227   6.345  0.5005 -0.2376  0.0062
 8755SOL     OW37723   4.355   1.540  13.206 -0.1010 -0.1523 -0.1733
 8755SOL    HW137724   4.294   1.469  13.184 -1.4123  0.5968  1.0545
 8755SOL    HW237725   4.291   1.595  13.251  0.1967  1.1419 -1.3297
 8756SOL     OW37726   3.104   3.415   4.953 -0.7056  0.1646 -0.3498
 8756SOL    HW137727   3.130   3.389   5.041  2.4059 -2.0892 -1.9366
 8756SOL    HW237728   3.038   3.481   4.977  1.3894  2.2285 -0.3071
 8757SOL     OW37729   3.310   0.415   7.102  0.2748  0.1968  0.2816
 8757SOL    HW137730   3.314   0.379   7.190  1.6747 -0.2660  0.0198
 8757SOL    HW237731   3.290   0.329   7.065  0.9924  0.8803 -1.6751
 8758SOL     OW37732   4.206   1.411   6.063  0.2483 -0.3825 -0.1835
 8758SOL    HW137733   4.176   1.385   5.976 -0.4137 -0.0453 -0.0529
 8758SOL    HW237734   4.142   1.362   6.115 -0.5480  0.6773 -0.1702
 8759SOL     OW37735   4.483   0.389   6.994  0.4038 -0.0232 -0.0319
 8759SOL    HW137736   4.485   0.423   7.083 -0.6997 -1.8192  0.6716
 8759SOL    HW237737   4.577   0.375   6.985  0.4419 -0.3734  0.9497
 8760SOL     OW37738   1.937   0.674   8.035 -0.5267  0.2822 -0.1720
 8760SOL    HW137739   1.947   0.582   8.013 -3.5095 -0.0113 -0.2701
 8760SOL    HW237740   1.959   0.712   7.950  0.4235 -1.7122 -0.8145
 8761SOL     OW37741   1.543   0.293   2.379 -0.4042 -0.2895  0.1438
 8761SOL    HW137742   1.459   0.255   2.353 -0.2810  0.0756 -0.7827
 8761SOL    HW237743   1.593   0.213   2.392  0.8739  0.6046  0.7157
 8762SOL     OW37744   3.869   3.531  10.110 -0.5559  0.1479 -0.5342
 8762SOL    HW137745   3.953   3.490  10.131 -0.5830 -0.9990 -2.6896
 8762SOL    HW237746   3.863   3.593  10.182 -2.0162 -1.8291  1.0625
 8763SOL     OW37747   3.789   3.792   6.647 -0.2630  0.0951  0.0171
 8763SOL    HW137748   3.727   3.721   6.633 -0.3839  0.9244 -3.4751
 8763SOL    HW237749   3.745   3.869   6.612  0.6435 -0.5889 -2.6448
 8764SOL     OW37750   4.507   3.980   2.091  0.6881  0.6129  0.0756
 8764SOL    HW137751   4.481   3.986   1.999 -0.0043  0.4019  0.2598
 8764SOL    HW237752   4.529   4.072   2.104 -3.1394  1.2697  1.8657
 8765SOL     OW37753   2.504   1.290   4.931 -0.3220  0.1820  0.1764
 8765SOL    HW137754   2.449   1.351   4.980 -3.3755 -1.4427 -1.2193
 8765SOL    HW237755   2.472   1.299   4.842  0.5963 -2.2329 -0.3930
 8766SOL     OW37756   3.866   1.596   0.232  0.7061 -0.3593  0.0124
 8766SOL    HW137757   3.824   1.610   0.317 -0.8940  1.3557 -1.0607
 8766SOL    HW237758   3.929   1.668   0.227 -0.5418  0.8748  1.9054
 8767SOL     OW37759   3.535   3.487  13.728  0.2568 -0.1085 -0.1018
 8767SOL    HW137760   3.580   3.486  13.644  0.3061  0.2241 -0.0775
 8767SOL    HW237761   3.574   3.405  13.759  1.1866  0.3855  0.0317
 8768SOL     OW37762   1.753   3.643   9.161 -0.1654  0.4714 -0.3503
 8768SOL    HW137763   1.838   3.686   9.153 -0.4573  1.0199 -0.4918
 8768SOL    HW237764   1.710   3.693   9.230 -0.0721 -0.6848  0.5476
 8769SOL     OW37765   4.148   2.438   8.860  0.2106  0.1857  0.1377
 8769SOL    HW137766   4.192   2.372   8.807  0.0904  2.0661 -2.3050
 8769SOL    HW237767   4.156   2.387   8.940  0.6993  1.0796  0.6618
 8770SOL     OW37768   1.292   4.340   8.048 -1.0349  0.4191 -0.0644
 8770SOL    HW137769   1.267   4.346   7.955  1.4998  1.6749 -0.6535
 8770SOL    HW237770   1.374   4.295   8.027  0.1563  3.3274 -1.7042
 8771SOL     OW37771   2.681   1.765  10.315 -0.2834  0.0132 -0.0251
 8771SOL    HW137772   2.763   1.815  10.323 -1.9298  2.4728  1.4454
 8771SOL    HW237773   2.715   1.677  10.299  0.4088  0.2028  0.3779
 8772SOL     OW37774   4.492   0.416   9.764 -0.0526 -0.0503 -0.2602
 8772SOL    HW137775   4.499   0.505   9.799  1.6326 -0.1415 -0.3392
 8772SOL    HW237776   4.541   0.374   9.834 -1.1350 -2.8847 -1.2039
 8773SOL     OW37777   2.162   0.988   6.785  0.1480 -0.1271 -0.7623
 8773SOL    HW137778   2.166   0.895   6.806  1.4115  0.1029  0.0007
 8773SOL    HW237779   2.189   0.991   6.693  1.0567 -0.6007 -0.5087
 8774SOL     OW37780   2.865   4.090   8.838 -0.0126 -0.3522 -0.7181
 8774SOL    HW137781   2.852   4.082   8.933  0.7668 -0.9543 -0.6658
 8774SOL    HW237782   2.940   4.034   8.819 -1.0508 -1.6120 -1.1020
 8775SOL     OW37783   2.879   0.486   3.562  0.1285  0.1492 -0.0882
 8775SOL    HW137784   2.812   0.543   3.599  2.0199  0.4468  2.8316
 8775SOL    HW237785   2.933   0.453   3.634  0.3868  1.0378  0.1199
 8776SOL     OW37786   1.309   0.532   3.769  0.0984  0.0904  0.1845
 8776SOL    HW137787   1.399   0.549   3.797  0.2724 -1.6911  0.7071
 8776SOL    HW237788   1.323   0.523   3.675 -1.0792  2.6003 -0.2440
 8777SOL     OW37789   2.182   1.173   3.532 -0.2675  0.7088 -0.6303
 8777SOL    HW137790   2.230   1.091   3.523  2.5784  2.4465 -1.3848
 8777SOL    HW237791   2.110   1.135   3.582  0.6215 -0.5648 -0.3114
 8778SOL     OW37792   1.506   4.380   9.265 -0.1437 -0.0085 -0.3183
 8778SOL    HW137793   1.481   4.464   9.303  0.2063  0.6054 -1.4167
 8778SOL    HW237794   1.599   4.395   9.246 -0.2387  0.1445 -0.6726
 8779SOL     OW37795   3.480   2.605  17.593 -0.3370  0.0668  0.0738
 8779SOL    HW137796   3.555   2.658  17.616  0.5622 -0.8872 -0.6401
 8779SOL    HW237797   3.419   2.671  17.559 -0.4564 -0.7825 -1.3888
 8780SOL     OW37798   2.435   1.038  14.735 -0.0703 -0.1574  0.3212
 8780SOL    HW137799   2.428   0.953  14.778  0.8003  0.7187  2.1637
 8780SOL    HW237800   2.509   1.017  14.678 -0.2715 -0.4395  0.1656
 8781SOL     OW37801   3.637   3.104   4.035  0.1152  0.2583 -0.2561
 8781SOL    HW137802   3.662   3.130   3.947  1.5889 -0.2510  0.0144
 8781SOL    HW237803   3.651   3.183   4.088 -0.6809 -0.3586  0.8807
 8782SOL     OW37804   1.509   1.519  14.443 -0.9057 -0.4268  0.0938
 8782SOL    HW137805   1.485   1.507  14.350  0.8129  0.3227 -0.4294
 8782SOL    HW237806   1.421   1.542  14.474 -0.1907  2.7807 -0.3630
 8783SOL     OW37807   3.474   2.615   9.130 -0.2633  0.3478 -0.1041
 8783SOL    HW137808   3.443   2.541   9.078  0.8087  0.1699 -0.4908
 8783SOL    HW237809   3.526   2.574   9.198 -0.2749  0.3669 -0.0837
 8784SOL     OW37810   1.507   0.276   6.800 -0.2032  0.2811 -0.0064
 8784SOL    HW137811   1.586   0.244   6.757 -0.5551  0.6464 -0.9246
 8784SOL    HW237812   1.542   0.360   6.831  1.4361 -0.8299  1.1780
 8785SOL     OW37813   4.479   0.912   3.050  0.2616  0.7492 -0.0770
 8785SOL    HW137814   4.542   0.889   3.118 -0.2885 -1.2537 -0.2242
 8785SOL    HW237815   4.417   0.839   3.053 -0.6583  1.5157 -0.7911
 8786SOL     OW37816   3.565   3.888   2.558  0.1790  0.3132  0.4990
 8786SOL    HW137817   3.516   3.853   2.484 -0.6348  0.6866  0.8560
 8786SOL    HW237818   3.606   3.970   2.529  0.0453  0.3220  0.3412
 8787SOL     OW37819   0.714   0.814   4.432  0.0201  0.3290 -0.1020
 8787SOL    HW137820   0.764   0.747   4.386  2.9685  1.9016  0.8414
 8787SOL    HW237821   0.713   0.767   4.515  0.5493  2.8428  1.3358
 8788SOL     OW37822   3.899   2.539   4.115 -0.5068 -0.3225 -0.4467
 8788SOL    HW137823   3.985   2.533   4.157 -0.5224 -2.8232 -0.7776
 8788SOL    HW237824   3.842   2.549   4.192  0.7603 -0.5973  0.5170
 8789SOL     OW37825   4.013   1.911   7.560 -0.4830 -0.2898 -0.7741
 8789SOL    HW137826   3.944   1.845   7.565  0.7710 -1.5667 -0.3950
 8789SOL    HW237827   3.968   1.979   7.510  1.0329  0.7252 -0.7528
 8790SOL     OW37828   3.540   3.838  11.036  0.5175 -0.2106 -0.7357
 8790SOL    HW137829   3.534   3.886  10.953  0.5014  1.3414  0.1446
 8790SOL    HW237830   3.613   3.893  11.066 -1.1494  1.5206  0.1620
 8791SOL     OW37831   4.413   0.880  16.604  0.3369  0.3067 -0.1133
 8791SOL    HW137832   4.486   0.841  16.557  0.4753  0.5496 -0.0963
 8791SOL    HW237833   4.428   0.844  16.691 -1.2756 -0.1287 -0.0169
 8792SOL     OW37834   1.581   1.563   4.896 -0.0222  0.2824 -0.0872
 8792SOL    HW137835   1.609   1.485   4.942  2.1575 -0.0960 -2.0025
 8792SOL    HW237836   1.528   1.518   4.830  1.2014 -0.3749 -0.6265
 8793SOL     OW37837   2.102   1.798   1.595  0.0326 -0.2298 -0.6980
 8793SOL    HW137838   2.062   1.713   1.578  1.3238 -0.4583 -2.6011
 8793SOL    HW237839   2.171   1.798   1.529 -0.3993  0.9528 -1.1588
 8794SOL     OW37840   2.499   3.333  11.240  0.1934  0.1332 -0.2224
 8794SOL    HW137841   2.413   3.297  11.217 -0.5037  0.0555  2.5510
 8794SOL    HW237842   2.489   3.322  11.334 -0.7377  2.1985 -0.0729
 8795SOL     OW37843   3.841   1.477   6.114 -0.3608  0.1357 -0.1950
 8795SOL    HW137844   3.787   1.481   6.035  2.0613 -2.7152 -1.9929
 8795SOL    HW237845   3.864   1.384   6.114  1.2962  0.5476 -0.8311
 8796SOL     OW37846   2.751   3.234   6.135 -0.1172 -0.3543  0.3698
 8796SOL    HW137847   2.733   3.224   6.228 -0.6356  1.4590  0.4656
 8796SOL    HW237848   2.844   3.253   6.124 -0.3431  0.7650  0.3438
 8797SOL     OW37849   1.110   0.806   8.260 -0.2766  0.1188 -0.0575
 8797SOL    HW137850   1.174   0.758   8.208  0.2101  1.2783 -0.5461
 8797SOL    HW237851   1.084   0.739   8.323  2.8964 -0.5544  0.5688
 8798SOL     OW37852   2.061   1.349   2.258 -0.7433 -0.6381 -0.1481
 8798SOL    HW137853   1.974   1.367   2.292 -0.8055 -0.2102 -0.5419
 8798SOL    HW237854   2.041   1.276   2.198  0.6059 -0.2398 -1.0973
 8799SOL     OW37855   1.821   2.148   9.098  0.5766  0.1046 -0.1957
 8799SOL    HW137856   1.770   2.191   9.030 -1.2528 -2.3731 -0.4050
 8799SOL    HW237857   1.897   2.114   9.050 -0.6946 -0.0779 -2.0998
 8800SOL     OW37858   2.102   0.061   1.570 -0.5355  0.3129  0.3727
 8800SOL    HW137859   2.149   0.004   1.508 -2.1414 -2.7811  1.9757
 8800SOL    HW237860   2.022   0.009   1.576 -0.3421 -0.1992 -1.5683
 8801SOL     OW37861   4.663   4.640   6.299 -0.4986 -0.2433 -0.2847
 8801SOL    HW137862   4.670   4.639   6.204  2.5180  2.6975 -0.1422
 8801SOL    HW237863   0.000   4.567   6.311  0.5941  0.7573  0.3962
 8802SOL     OW37864   0.772   3.086   5.283 -0.0938  0.3060 -0.1565
 8802SOL    HW137865   0.709   3.087   5.212  1.3630  0.9106 -1.4395
 8802SOL    HW237866   0.718   3.106   5.360 -1.2410 -0.8871 -0.6474
 8803SOL     OW37867   2.427   2.946  15.640 -0.5817 -0.4175 -0.6603
 8803SOL    HW137868   2.376   2.904  15.570 -2.2407 -0.0977  0.3730
 8803SOL    HW237869   2.397   3.034  15.621  1.4438  0.5287  0.4745
 8804SOL     OW37870   2.417   2.614   7.829 -0.1162  0.1846 -0.0467
 8804SOL    HW137871   2.434   2.557   7.904  0.3631 -1.5474 -1.4730
 8804SOL    HW237872   2.324   2.604   7.808  0.7149 -2.9404 -2.1616
 8805SOL     OW37873   4.494   3.861  12.306 -0.1078  0.3102 -0.2261
 8805SOL    HW137874   4.410   3.815  12.298  0.8750 -1.5643  0.0614
 8805SOL    HW237875   4.515   3.906  12.224 -1.1142 -0.1379 -0.7331
 8806SOL     OW37876   4.130   0.451   5.076 -0.1883 -0.4218 -0.0508
 8806SOL    HW137877   4.131   0.442   5.172  0.1436  2.0436  0.1572
 8806SOL    HW237878   4.104   0.362   5.052 -0.5667 -0.2285 -0.3473
 8807SOL     OW37879   3.386   4.328  17.183 -0.0912  0.3089 -0.6727
 8807SOL    HW137880   3.291   4.322  17.198 -0.0680 -1.7019 -1.2456
 8807SOL    HW237881   3.408   4.277  17.262 -0.5633  0.2616 -0.5718
 8808SOL     OW37882   2.317   4.129   4.604 -0.3080  0.5502 -0.5661
 8808SOL    HW137883   2.329   4.208   4.657  0.8059 -0.4567  0.6537
 8808SOL    HW237884   2.224   4.121   4.626 -0.1567  2.6942  0.8526
 8809SOL     OW37885   3.432   0.380   1.250  0.3219  0.6409  0.0308
 8809SOL    HW137886   3.472   0.427   1.177 -1.3586 -1.8175 -2.4489
 8809SOL    HW237887   3.392   0.303   1.212 -0.8192  0.8320  0.8344
 8810SOL     OW37888   0.665   2.035   4.558  0.6190 -0.2913  0.2152
 8810SOL    HW137889   0.596   1.994   4.611 -0.3839  1.2013  0.0491
 8810SOL    HW237890   0.714   1.959   4.528  1.2790  1.0358 -2.0153
 8811SOL     OW37891   4.038   1.874  12.276  0.5594  0.8850 -0.3930
 8811SOL    HW137892   4.110   1.816  12.301 -1.1588 -0.3208  1.7117
 8811SOL    HW237893   3.983   1.819  12.220  1.7302  0.9438 -1.6051
 8812SOL     OW37894   4.027   0.519   8.179  0.0396 -0.4584 -0.1927
 8812SOL    HW137895   4.077   0.494   8.257 -1.9981 -3.1289  0.2603
 8812SOL    HW237896   3.942   0.525   8.223  0.6836  0.0190  1.0039
 8813SOL     OW37897   2.513   2.175  13.806  0.1368 -0.4132 -0.0659
 8813SOL    HW137898   2.576   2.222  13.751 -0.6552  0.8027  0.0645
 8813SOL    HW237899   2.520   2.085  13.774 -0.8834 -1.4271  2.5923
 8814SOL     OW37900   1.453   3.971  17.093  0.3403 -0.1958  0.0387
 8814SOL    HW137901   1.536   3.926  17.109 -0.2647 -0.9210  1.1199
 8814SOL    HW237902   1.401   3.894  17.071  0.7743 -0.1684 -1.0548
 8815SOL     OW37903   2.356   4.269   8.645  0.4721  0.5301  0.8670
 8815SOL    HW137904   2.439   4.302   8.679  0.1212  0.6637  1.5949
 8815SOL    HW237905   2.312   4.351   8.625  0.3282  0.6301  1.5837
 8816SOL     OW37906   3.884   3.246  15.632 -0.3542  0.3672  0.4554
 8816SOL    HW137907   3.827   3.214  15.703  1.0509  0.8868  1.8128
 8816SOL    HW237908   3.889   3.340  15.651  2.1540  0.0810  1.1490
 8817SOL     OW37909   1.778   1.624   8.067 -0.4156  0.0639 -0.5357
 8817SOL    HW137910   1.794   1.536   8.033  3.7370 -0.1860  2.0382
 8817SOL    HW237911   1.867   1.652   8.089  0.0039 -3.4615  2.2624
 8818SOL     OW37912   4.669   4.549   1.607 -0.1215  0.0436  0.3487
 8818SOL    HW137913   4.623   4.496   1.672  0.9660  1.0697  1.9553
 8818SOL    HW237914   4.706   4.617   1.663 -0.5380 -1.0486  1.9515
 8819SOL     OW37915   0.364   1.629   8.722  0.2464  0.4142 -0.2283
 8819SOL    HW137916   0.435   1.579   8.762  1.1448  2.5109  0.7917
 8819SOL    HW237917   0.300   1.603   8.788 -0.3304 -3.4324 -2.3074
 8820SOL     OW37918   1.991   0.451   3.370 -0.2397  0.0604  0.2212
 8820SOL    HW137919   1.988   0.492   3.457 -1.8932 -1.4623  0.8722
 8820SOL    HW237920   1.904   0.469   3.334  0.0725 -3.0257 -2.0000
 8821SOL     OW37921   2.317   1.516   5.016 -0.2761 -0.4649  0.2242
 8821SOL    HW137922   2.356   1.528   5.102  0.3033  1.4833 -0.3200
 8821SOL    HW237923   2.378   1.562   4.959  0.9405  0.6594  2.4598
 8822SOL     OW37924   2.759   1.505   7.964 -0.2768 -0.1158  0.0521
 8822SOL    HW137925   2.715   1.583   7.931 -2.3313 -1.7174 -0.9445
 8822SOL    HW237926   2.823   1.554   8.016 -2.4320  1.4074  1.2168
 8823SOL     OW37927   1.380   2.445   5.713 -0.0750  0.0497 -0.0717
 8823SOL    HW137928   1.450   2.441   5.648  0.2327 -0.0857  0.2686
 8823SOL    HW237929   1.311   2.449   5.646 -0.6427 -1.8578  0.4015
 8824SOL     OW37930   2.257   4.141   3.596 -0.8392 -0.4327  0.1353
 8824SOL    HW137931   2.231   4.214   3.651  1.2100 -1.9523  3.1268
 8824SOL    HW237932   2.337   4.179   3.560  0.3793 -1.6980  1.5191
 8825SOL     OW37933   1.107   1.200   4.760  0.4605  0.5211  0.2221
 8825SOL    HW137934   1.192   1.199   4.716 -0.0503 -0.5243 -0.7418
 8825SOL    HW237935   1.137   1.195   4.850 -2.2692  2.4499  1.2278
 8826SOL     OW37936   2.601   3.151   2.628 -0.0995  0.0601  0.1976
 8826SOL    HW137937   2.621   3.223   2.567 -0.3508 -0.7281 -0.8143
 8826SOL    HW237938   2.657   3.088   2.583  1.6363  2.2529 -0.7313
 8827SOL     OW37939   1.163   0.742   5.432  0.4307 -0.9063  0.5883
 8827SOL    HW137940   1.154   0.656   5.390 -0.2141 -1.6119  2.1416
 8827SOL    HW237941   1.078   0.780   5.409  1.2522  1.1684  0.9919
 8828SOL     OW37942   1.948   2.650   7.240  0.2041 -0.0679 -0.2519
 8828SOL    HW137943   1.879   2.669   7.175  0.6972 -0.2705 -0.8316
 8828SOL    HW237944   1.947   2.728   7.296 -1.6236 -0.5097  0.3392
 8829SOL     OW37945   1.692   1.879   1.397  0.1257  0.2297  0.1387
 8829SOL    HW137946   1.765   1.867   1.336  0.0181 -1.2232  0.2912
 8829SOL    HW237947   1.625   1.843   1.339  0.5367  1.1421 -0.8959
 8830SOL     OW37948   0.530   1.009   4.819  0.3207  0.5828 -0.1943
 8830SOL    HW137949   0.448   0.973   4.786  0.5572  0.3067 -0.4797
 8830SOL    HW237950   0.548   0.946   4.889 -0.1314  1.3455  0.6066
 8831SOL     OW37951   1.906   4.588  13.011 -0.4875 -0.6510  0.1605
 8831SOL    HW137952   1.973   4.525  13.036 -2.7859 -2.4537  1.8002
 8831SOL    HW237953   1.969   4.654  12.983 -1.8010  1.3688  1.9483
 8832SOL     OW37954   3.973   4.549   4.607  0.0329 -0.1087  0.0112
 8832SOL    HW137955   4.057   4.594   4.599  0.8234 -1.7935 -1.3131
 8832SOL    HW237956   3.939   4.558   4.518 -0.9449 -0.5085  0.3525
 8833SOL     OW37957   1.953   1.966   5.302 -0.5412 -0.2335 -0.3384
 8833SOL    HW137958   1.945   2.040   5.242  0.9884  0.6979  0.5956
 8833SOL    HW237959   2.042   1.939   5.278 -0.9372 -0.3638 -1.6421
 8834SOL     OW37960   2.154   4.439  11.849 -0.3686 -0.2935 -0.3491
 8834SOL    HW137961   2.166   4.466  11.758 -2.4493 -3.2972 -1.5037
 8834SOL    HW237962   2.244   4.411  11.868 -0.0974 -0.2542 -1.5736
 8835SOL     OW37963   2.898   0.965   0.147 -0.2945 -0.0403  0.7199
 8835SOL    HW137964   2.875   1.020   0.222 -0.6718  0.9214 -0.1009
 8835SOL    HW237965   2.983   1.003   0.127 -0.8614  0.1660 -1.3115
 8836SOL     OW37966   4.021   0.950  10.351  0.1899  0.2554 -0.3492
 8836SOL    HW137967   3.984   0.887  10.413  0.7069 -0.7911 -1.1063
 8836SOL    HW237968   4.053   1.019  10.409  1.3150  0.7294 -1.5278
 8837SOL     OW37969   2.361   1.046   0.159  0.1334  0.8961 -0.0589
 8837SOL    HW137970   2.352   1.105   0.234 -2.6251  1.1713 -0.6159
 8837SOL    HW237971   2.453   1.019   0.161 -0.2800 -0.4418  1.1297
 8838SOL     OW37972   2.724   1.246   1.850  0.7070 -0.2263 -0.1219
 8838SOL    HW137973   2.768   1.202   1.777 -0.5143  1.2754 -1.7386
 8838SOL    HW237974   2.649   1.281   1.803  1.3304  3.3264  1.5850
 8839SOL     OW37975   3.829   4.053   1.013  0.4889 -0.0684 -0.2547
 8839SOL    HW137976   3.786   3.975   1.047  0.4663  0.3019  0.5767
 8839SOL    HW237977   3.879   4.085   1.089 -1.8021 -0.1477  1.2829
 8840SOL     OW37978   3.174   2.740  15.870  0.2235  0.4637  0.2530
 8840SOL    HW137979   3.106   2.686  15.911  2.2438 -1.4589  1.0145
 8840SOL    HW237980   3.143   2.827  15.894 -2.9370 -1.0503  1.7086
 8841SOL     OW37981   1.367   1.120   4.264 -0.0892  0.1811 -0.8010
 8841SOL    HW137982   1.422   1.118   4.343 -0.0932  3.2444 -0.7540
 8841SOL    HW237983   1.436   1.122   4.198 -1.3024 -0.8785 -2.0810
 8842SOL     OW37984   2.368   0.128   5.126 -0.1981 -0.5114 -0.0760
 8842SOL    HW137985   2.277   0.103   5.114 -1.1424  1.7876  2.2958
 8842SOL    HW237986   2.368   0.136   5.222  0.9085 -2.5253  0.0799
 8843SOL     OW37987   1.901   0.423   7.550  0.0887 -0.4367 -0.4119
 8843SOL    HW137988   1.842   0.498   7.557  0.1355 -0.2950 -1.5273
 8843SOL    HW237989   1.947   0.416   7.634 -1.2542 -0.8100  0.2938
 8844SOL     OW37990   0.268   4.128   5.918  0.3336 -0.1980  0.0333
 8844SOL    HW137991   0.257   4.188   5.992 -0.6540 -0.0302 -0.2593
 8844SOL    HW237992   0.295   4.043   5.954 -0.4075  0.2297  1.5594
 8845SOL     OW37993   1.457   4.366  15.235 -0.2576 -0.3404  0.0872
 8845SOL    HW137994   1.420   4.443  15.279 -0.1272 -0.5918  0.6240
 8845SOL    HW237995   1.549   4.349  15.257  0.5075  2.5099 -0.7676
 8846SOL     OW37996   1.745   1.284   4.705 -0.0795 -0.1994  0.6081
 8846SOL    HW137997   1.760   1.237   4.623 -0.1516  1.6473 -0.4632
 8846SOL    HW237998   1.732   1.372   4.669 -0.1035 -0.5691 -0.2902
 8847SOL     OW37999   3.389   2.406   6.806 -0.0543  0.4008  0.2319
 8847SOL    HW138000   3.485   2.407   6.807 -0.0205  0.4535 -1.4933
 8847SOL    HW238001   3.377   2.406   6.711 -3.6279  3.0968  0.6969
 8848SOL     OW38002   4.573   1.551   4.156 -0.4343 -0.7603  0.7019
 8848SOL    HW138003   4.523   1.491   4.101  0.6027 -0.8712 -0.1196
 8848SOL    HW238004   4.586   1.497   4.234 -1.3612 -0.2726  1.1931
 8849SOL     OW38005   1.479   3.283   5.695  1.2508 -0.0710 -0.7661
 8849SOL    HW138006   1.448   3.341   5.626 -0.7180  1.9051  1.7754
 8849SOL    HW238007   1.448   3.330   5.772 -0.7092 -2.2536 -0.2367
 8850SOL     OW38008   1.543   4.092   7.121  0.0107 -0.0553 -0.0285
 8850SOL    HW138009   1.615   4.093   7.184  0.0066 -0.5168 -0.0109
 8850SOL    HW238010   1.477   4.030   7.154 -0.4569 -0.0911 -1.0260
 8851SOL     OW38011   0.033   4.493  12.663  0.1494  0.1529 -0.3852
 8851SOL    HW138012   0.053   4.447  12.581  2.8747  1.1422 -0.2871
 8851SOL    HW238013   4.713   4.426  12.716  2.7711  0.3323  1.9232
 8852SOL     OW38014   1.330   0.080   6.873  0.1228 -0.3097 -0.3090
 8852SOL    HW138015   1.347   0.172   6.851  1.9352 -0.8526 -1.1975
 8852SOL    HW238016   1.407   0.049   6.825 -0.4156 -0.2144 -1.2290
 8853SOL     OW38017   1.179   2.365   5.959 -0.0410  0.6674 -0.2249
 8853SOL    HW138018   1.128   2.378   5.880 -1.4045 -0.0738  0.5346
 8853SOL    HW238019   1.255   2.316   5.928  0.6406  3.1469 -2.4598
 8854SOL     OW38020   1.263   3.959   5.220  1.2874  0.0081  0.1639
 8854SOL    HW138021   1.307   4.002   5.147 -0.9503  0.5264 -0.9114
 8854SOL    HW238022   1.175   3.946   5.183  0.2616  2.2057  1.7764
 8855SOL     OW38023   4.714   1.225   8.227  0.1823 -0.4026 -0.1234
 8855SOL    HW138024   0.040   1.297   8.267 -1.4181 -0.2095  1.4823
 8855SOL    HW238025   4.635   1.263   8.187  1.7155  2.2478 -0.6381
 8856SOL     OW38026   0.526   3.632   9.889  0.0981 -0.0722  0.1802
 8856SOL    HW138027   0.497   3.541   9.887  1.1539 -0.3661 -1.4115
 8856SOL    HW238028   0.614   3.633   9.853 -0.5654 -0.2627 -1.4112
 8857SOL     OW38029   3.528   2.197  17.063 -0.0360  0.1304  0.5638
 8857SOL    HW138030   3.588   2.265  17.033 -1.3699  1.0823  0.0739
 8857SOL    HW238031   3.551   2.184  17.155 -1.3692  0.1741  0.9027
 8858SOL     OW38032   3.123   2.594  17.411 -0.3307 -0.1685 -0.3519
 8858SOL    HW138033   3.056   2.657  17.386 -1.5063 -0.6302  1.6364
 8858SOL    HW238034   3.199   2.648  17.388 -0.1232 -0.2707  0.0875
 8859SOL     OW38035   1.404   0.631  17.669 -0.1116  0.0713  0.3503
 8859SOL    HW138036   1.400   0.660  17.578  0.3431  1.7171  0.8604
 8859SOL    HW238037   1.490   0.589  17.677 -0.1744  0.0224  0.7703
 8860SOL     OW38038   2.482   0.410  14.489  0.0246  0.1996  0.2579
 8860SOL    HW138039   2.466   0.348  14.561 -1.1140  0.8466  0.5567
 8860SOL    HW238040   2.562   0.387  14.442  0.3669  0.1185  0.8825
 8861SOL     OW38041   2.500   4.347  10.243  0.1717 -0.4543  0.1284
 8861SOL    HW138042   2.560   4.279  10.276 -1.5706 -1.4769  1.2048
 8861SOL    HW238043   2.476   4.389  10.326  3.9664 -0.3409  1.1790
 8862SOL     OW38044   4.040   0.875  13.092  0.3165  0.0419  0.0955
 8862SOL    HW138045   4.090   0.918  13.023 -0.7421  1.3570  0.1632
 8862SOL    HW238046   4.032   0.789  13.049 -1.1850  0.5858 -0.6821
 8863SOL     OW38047   1.821   3.094   6.596 -0.4521  0.5111  0.0410
 8863SOL    HW138048   1.792   3.005   6.576  0.1286  0.7237 -1.7198
 8863SOL    HW238049   1.915   3.076   6.598 -1.0112 -2.3606  0.6320
 8864SOL     OW38050   3.241   1.312   8.055 -0.6639 -0.5580  0.0466
 8864SOL    HW138051   3.251   1.218   8.040 -1.1119 -0.8487  1.5591
 8864SOL    HW238052   3.231   1.313   8.151 -1.8806 -1.5436 -0.0811
 8865SOL     OW38053   3.194   2.068   5.321  0.2693  0.1756  0.3783
 8865SOL    HW138054   3.216   2.155   5.354  2.9167 -0.1119 -0.7025
 8865SOL    HW238055   3.177   2.026   5.406 -0.5260  0.0883  0.1825
 8866SOL     OW38056   1.159   4.109   5.954 -0.2960 -0.1486  0.3078
 8866SOL    HW138057   1.166   4.120   5.859  0.6900 -0.2243  0.3752
 8866SOL    HW238058   1.089   4.044   5.953  1.6922 -2.2698 -1.2111
 8867SOL     OW38059   3.191   3.578   8.527  0.6844  0.5553  0.4874
 8867SOL    HW138060   3.102   3.558   8.557 -0.2494  2.7720 -0.8423
 8867SOL    HW238061   3.182   3.673   8.532 -1.1264  0.4714 -0.9426
 8868SOL     OW38062   3.497   4.278   0.484  0.6102 -0.4169  0.1666
 8868SOL    HW138063   3.556   4.343   0.522  0.2815 -0.9725  1.5992
 8868SOL    HW238064   3.463   4.237   0.563  0.6825  1.9552  1.4365
 8869SOL     OW38065   1.699   3.236   7.127 -0.3493 -0.6743 -0.4147
 8869SOL    HW138066   1.658   3.269   7.206  1.9185  1.1469 -0.0140
 8869SOL    HW238067   1.735   3.320   7.100 -0.5138 -0.6172 -0.4570
 8870SOL     OW38068   3.752   4.524   5.768 -0.5312  0.0020 -0.6436
 8870SOL    HW138069   3.798   4.598   5.806 -1.1846  0.2869 -0.4171
 8870SOL    HW238070   3.686   4.525   5.837  1.2014 -0.0333  1.0357
 8871SOL     OW38071   4.552   4.431   7.928 -0.4360  0.1764  0.5949
 8871SOL    HW138072   4.592   4.508   7.967 -0.9722  0.6142  0.2836
 8871SOL    HW238073   4.457   4.447   7.931 -0.3821  0.3247  1.3759
 8872SOL     OW38074   0.908   3.006   2.713 -0.0780 -0.4460 -0.0889
 8872SOL    HW138075   0.917   3.065   2.639 -0.8099 -0.5765 -0.2802
 8872SOL    HW238076   0.883   3.063   2.786  1.5644  1.8430 -1.3205
 8873SOL     OW38077   2.583   1.908   1.388  0.2765 -0.3653 -0.3120
 8873SOL    HW138078   2.563   2.002   1.386  0.6848 -0.2371  1.3327
 8873SOL    HW238079   2.576   1.887   1.295  1.9480  3.8021 -1.3618
 8874SOL     OW38080   0.566   2.061  12.704 -0.2617  0.4238  0.1828
 8874SOL    HW138081   0.520   2.072  12.621  1.5065  4.6335 -0.2117
 8874SOL    HW238082   0.509   2.000  12.751  0.7468  0.7539  1.8399
 8875SOL     OW38083   2.193   4.508  12.198  0.0687 -0.0420 -0.2515
 8875SOL    HW138084   2.232   4.503  12.285  1.2864  0.1652 -0.7946
 8875SOL    HW238085   2.221   4.423  12.164  1.0248  1.1086 -2.2835
 8876SOL     OW38086   1.862   1.976   7.286 -0.1656 -0.3246 -0.3665
 8876SOL    HW138087   1.828   2.060   7.256 -1.1664 -0.3900  0.5613
 8876SOL    HW238088   1.790   1.915   7.301 -0.9070  0.8662  0.9352
 8877SOL     OW38089   4.408   4.444   5.790  0.4406  0.2007  0.1349
 8877SOL    HW138090   4.394   4.410   5.879 -1.2738  1.0899  0.2177
 8877SOL    HW238091   4.498   4.416   5.773  0.7092  1.6351 -0.7511
 8878SOL     OW38092   3.128   3.014  11.726  0.2136 -0.1062 -0.3936
 8878SOL    HW138093   3.063   3.072  11.766 -0.2432  0.3219 -1.7760
 8878SOL    HW238094   3.122   2.940  11.786 -1.1350 -0.3189 -0.7994
 8879SOL     OW38095   0.458   0.281  11.032 -0.3924 -0.2410 -0.6532
 8879SOL    HW138096   0.512   0.347  11.075 -2.1576  0.1018  1.0328
 8879SOL    HW238097   0.522   0.214  11.008  0.6346  0.7064 -0.5694
 8880SOL     OW38098   1.860   2.247   5.781  0.4502 -0.6245 -0.4676
 8880SOL    HW138099   1.854   2.242   5.876  1.4518 -0.6877 -0.4116
 8880SOL    HW238100   1.858   2.155   5.755 -0.3122 -0.1489 -2.0921
 8881SOL     OW38101   2.544   4.144   8.491 -0.2409  0.1135  0.3387
 8881SOL    HW138102   2.587   4.091   8.558 -0.0818  0.3386  0.4138
 8881SOL    HW238103   2.464   4.171   8.535 -0.6231 -0.0052 -0.2903
 8882SOL     OW38104   4.424   3.195   8.477 -0.0921  0.1192 -0.4000
 8882SOL    HW138105   4.479   3.140   8.422  2.4110  0.5379  1.7210
 8882SOL    HW238106   4.431   3.164   8.567  0.0997  0.2673 -0.3656
 8883SOL     OW38107   2.478   2.714   4.829  0.5606  0.1214 -0.0768
 8883SOL    HW138108   2.495   2.762   4.910 -0.2164 -2.2154  1.4646
 8883SOL    HW238109   2.412   2.652   4.861  0.3342 -0.1562 -1.0709
 8884SOL     OW38110   1.841   4.218  15.791  0.2611 -0.0928  0.2494
 8884SOL    HW138111   1.884   4.294  15.752  0.3471 -0.8936 -1.2136
 8884SOL    HW238112   1.892   4.223  15.873 -0.8750 -0.2576  0.9596
 8885SOL     OW38113   1.092   1.469   3.354  0.3708  0.6275  0.3520
 8885SOL    HW138114   1.055   1.381   3.353 -1.6484  1.4813  0.7328
 8885SOL    HW238115   1.033   1.508   3.419  0.9931  0.9689  0.7086
 8886SOL     OW38116   2.019   4.315   4.386 -0.4461 -0.6690 -0.0045
 8886SOL    HW138117   2.041   4.224   4.406  4.4354  1.0845  2.8231
 8886SOL    HW238118   1.935   4.291   4.347 -1.4764  3.5017 -0.3112
 8887SOL     OW38119   4.267   3.171  11.636 -0.1626 -0.1493  0.8298
 8887SOL    HW138120   4.202   3.157  11.567 -0.3934 -0.9885  1.2127
 8887SOL    HW238121   4.342   3.131  11.592  0.8824  1.5321  1.0796
 8888SOL     OW38122   0.413   0.083   6.376  0.3135  0.0459  0.5715
 8888SOL    HW138123   0.474   0.156   6.381  0.0689  0.2504  0.5281
 8888SOL    HW238124   0.337   0.111   6.427 -0.1031  1.3782 -0.7772
 8889SOL     OW38125   4.467   2.935   5.059 -0.7774 -0.3197 -0.1796
 8889SOL    HW138126   4.549   2.977   5.033 -0.1908 -0.8597  0.7813
 8889SOL    HW238127   4.485   2.843   5.041 -2.5187 -0.6533 -0.1953
 8890SOL     OW38128   3.468   2.217   4.016  0.6818 -0.0739 -0.7170
 8890SOL    HW138129   3.485   2.288   3.954  0.7747  1.3035  0.8805
 8890SOL    HW238130   3.445   2.145   3.957  1.6843  0.2609 -1.5373
 8891SOL     OW38131   4.570   3.917   3.639 -0.5209 -0.1704  0.3133
 8891SOL    HW138132   4.487   3.881   3.607 -0.5934  1.2376 -1.0736
 8891SOL    HW238133   4.638   3.865   3.597  1.2959  0.2064  2.8009
 8892SOL     OW38134   4.274   1.239   2.381 -0.1976  0.0757 -0.1231
 8892SOL    HW138135   4.344   1.275   2.327 -3.9865  4.1672 -2.2636
 8892SOL    HW238136   4.302   1.259   2.471  2.0914 -0.3091 -0.7538
 8893SOL     OW38137   4.138   4.182   0.346 -0.2715 -0.3397  0.3616
 8893SOL    HW138138   4.151   4.268   0.305 -2.9023  0.2263  0.6747
 8893SOL    HW238139   4.049   4.163   0.316 -1.0242  0.9194  1.7802
 8894SOL     OW38140   1.545   2.971   6.141  0.0221  0.0376  0.1766
 8894SOL    HW138141   1.468   2.917   6.121  0.9756 -1.1337 -0.2893
 8894SOL    HW238142   1.511   3.008   6.223 -2.9643  0.5027 -1.2455
 8895SOL     OW38143   0.339   2.028   8.370 -0.2945  0.0725 -0.1593
 8895SOL    HW138144   0.394   2.090   8.417 -0.0977 -0.2318  0.0149
 8895SOL    HW238145   0.355   1.943   8.412 -0.0959 -0.5023 -1.4149
 8896SOL     OW38146   0.359   4.303   4.833  0.0931 -0.0790 -0.0218
 8896SOL    HW138147   0.445   4.289   4.874 -0.2368 -0.5054  0.5264
 8896SOL    HW238148   0.381   4.365   4.764  0.8811 -0.5606 -0.2131
 8897SOL     OW38149   3.220   0.922   6.546 -0.2284  0.2298 -0.1258
 8897SOL    HW138150   3.132   0.917   6.509 -0.2919  0.8652 -0.0671
 8897SOL    HW238151   3.202   0.897   6.637  4.0205 -1.8127  0.1215
 8898SOL     OW38152   1.974   4.627   6.037 -0.1879 -0.1570 -0.0339
 8898SOL    HW138153   2.062   4.622   5.999  0.5781  0.1436  1.7102
 8898SOL    HW238154   1.928   4.558   5.989 -2.4392  2.5484 -1.7412
 8899SOL     OW38155   2.676   3.015  15.697 -0.3307  0.1239  0.0753
 8899SOL    HW138156   2.703   2.960  15.623 -0.7393  0.3179 -0.2210
 8899SOL    HW238157   2.581   3.004  15.693 -0.1796 -0.4858 -2.2295
 8900SOL     OW38158   3.522   1.402   7.895  0.2611  0.5941  0.1174
 8900SOL    HW138159   3.463   1.409   7.970  1.2597 -0.1265  0.9702
 8900SOL    HW238160   3.592   1.351   7.935  0.5619  1.2542  0.4408
 8901SOL     OW38161   2.759   3.155   3.189 -0.1786 -0.2543 -0.0805
 8901SOL    HW138162   2.808   3.180   3.110 -1.1326  1.6419 -0.0589
 8901SOL    HW238163   2.781   3.226   3.250  2.6991 -1.5670  0.4240
 8902SOL     OW38164   4.213   4.066   7.467  0.1333 -0.3191  0.0255
 8902SOL    HW138165   4.174   4.000   7.525 -1.4046  2.2669  1.8977
 8902SOL    HW238166   4.138   4.081   7.411  0.7846  1.1505 -0.4501
 8903SOL     OW38167   2.835   4.200   1.853 -0.0381 -0.6171 -0.6047
 8903SOL    HW138168   2.754   4.162   1.888  0.0924 -4.2953 -4.3417
 8903SOL    HW238169   2.801   4.213   1.765  4.2789 -0.0629 -2.1797
 8904SOL     OW38170   1.551   4.339   3.617  0.3481 -0.1738  1.0847
 8904SOL    HW138171   1.602   4.308   3.692  1.1624 -2.5406 -0.4457
 8904SOL    HW238172   1.613   4.322   3.546 -1.1439 -1.1362  0.0208
 8905SOL     OW38173   1.934   3.176   3.618  0.1069  0.1698  0.3171
 8905SOL    HW138174   2.000   3.109   3.638 -1.4431 -1.8899 -1.4438
 8905SOL    HW238175   1.891   3.132   3.544  0.3467  1.4395 -0.5809
 8906SOL     OW38176   3.262   4.331  15.944 -0.1774 -0.6387  0.2655
 8906SOL    HW138177   3.241   4.332  15.851  1.3039  1.7512 -0.0352
 8906SOL    HW238178   3.332   4.266  15.941  1.1138  0.6721  1.9833
 8907SOL     OW38179   4.261   0.912   8.420 -0.0312  0.1016  0.7415
 8907SOL    HW138180   4.302   0.826   8.421  0.3695  0.2990  1.3111
 8907SOL    HW238181   4.172   0.882   8.403 -0.1802 -0.0728  1.8363
 8908SOL     OW38182   1.201   0.287   5.526 -0.0113  0.3349 -0.1796
 8908SOL    HW138183   1.261   0.341   5.576 -0.9062  1.1207  0.0378
 8908SOL    HW238184   1.205   0.326   5.438 -1.3793 -0.4382 -0.5945
 8909SOL     OW38185   1.911   2.488   3.483  0.5930  0.2695 -0.7105
 8909SOL    HW138186   1.972   2.417   3.500 -1.4840 -1.2784  0.3229
 8909SOL    HW238187   1.865   2.505   3.565 -0.9015 -2.2574 -1.0018
 8910SOL     OW38188   2.634   2.247   4.426  0.1484  0.4464 -0.0696
 8910SOL    HW138189   2.623   2.338   4.456  0.5430  0.7049 -0.7027
 8910SOL    HW238190   2.560   2.223   4.370  0.0419 -0.9737  0.7003
 8911SOL     OW38191   1.328   1.792   3.336  0.0096  0.5927 -0.5531
 8911SOL    HW138192   1.246   1.809   3.382  0.2060 -1.7820  0.7231
 8911SOL    HW238193   1.382   1.849   3.391 -2.1761  0.0521  2.1436
 8912SOL     OW38194   0.140   2.226   3.078  0.4290 -0.0378 -0.3748
 8912SOL    HW138195   0.069   2.165   3.097  0.7773  0.3424  2.1121
 8912SOL    HW238196   0.185   2.184   3.004 -0.6544 -1.8382 -0.0359
 8913SOL     OW38197   3.696   0.362   7.546 -0.0954 -0.1617  0.5753
 8913SOL    HW138198   3.706   0.365   7.451  0.5829  0.8478  0.6792
 8913SOL    HW238199   3.651   0.446   7.552 -3.1270 -1.8263  1.1434
 8914SOL     OW38200   2.681   0.541  17.220 -0.2017 -0.1835  0.2165
 8914SOL    HW138201   2.745   0.559  17.151  1.9695 -3.4399  1.3575
 8914SOL    HW238202   2.669   0.628  17.257  1.0714  0.7546 -1.5478
 8915SOL     OW38203   0.139   0.678   4.720 -0.3687 -0.1029  0.4856
 8915SOL    HW138204   0.063   0.630   4.752 -0.1484 -0.1672  0.9043
 8915SOL    HW238205   0.202   0.671   4.792  0.0569 -1.2153  0.0077
 8916SOL     OW38206   4.550   3.689   2.598  0.2984 -0.3355 -0.2194
 8916SOL    HW138207   4.606   3.658   2.669  1.3472  2.0244 -0.0230
 8916SOL    HW238208   4.513   3.602   2.584  2.1346 -1.0957 -0.3525
 8917SOL     OW38209   0.925   3.357   5.309 -1.0162  0.2379  0.2727
 8917SOL    HW138210   1.019   3.353   5.291 -0.9984 -0.0939  0.4338
 8917SOL    HW238211   0.903   3.275   5.266 -0.0560  1.0295 -1.7176
 8918SOL     OW38212   0.214   0.722  10.139  0.0002 -0.6562  0.2083
 8918SOL    HW138213   0.276   0.779  10.184 -0.1554 -2.7899  3.0906
 8918SOL    HW238214   0.256   0.637  10.130  0.3276 -0.3658 -0.9552
 8919SOL     OW38215   4.431   0.007   0.502  0.4761  0.0514 -0.0822
 8919SOL    HW138216   4.388   4.654   0.543  0.2839  0.2822  0.1411
 8919SOL    HW238217   4.456   4.693   0.418  0.2982  1.0486 -0.5652
 8920SOL     OW38218   1.295   2.626   8.484  0.2086  0.2920  0.1450
 8920SOL    HW138219   1.227   2.566   8.453  1.9933 -1.1052 -1.0756
 8920SOL    HW238220   1.275   2.614   8.576 -2.7096 -0.9073 -0.6618
 8921SOL     OW38221   3.246   1.208   4.090 -0.0887  0.3657  0.1177
 8921SOL    HW138222   3.250   1.264   4.167 -0.3929  0.6499 -0.0730
 8921SOL    HW238223   3.213   1.275   4.031 -0.4269 -0.6014 -0.7971
 8922SOL     OW38224   1.382   4.487   7.529  0.7437  0.1637 -0.8924
 8922SOL    HW138225   1.435   4.508   7.605  0.2301  3.5751 -1.4861
 8922SOL    HW238226   1.334   4.407   7.551 -1.0109  1.1435 -1.1591
 8923SOL     OW38227   1.469   1.809  15.106  0.3604 -0.7877 -1.0565
 8923SOL    HW138228   1.426   1.724  15.097 -1.4505  0.1177 -0.8216
 8923SOL    HW238229   1.393   1.866  15.094  0.1387 -0.8339  0.1269
 8924SOL     OW38230   0.508   1.143   7.423  0.2981 -0.7177  0.2774
 8924SOL    HW138231   0.545   1.078   7.483  0.1096 -1.7742 -0.7599
 8924SOL    HW238232   0.585   1.194   7.397  0.2274 -0.2229  1.0110
 8925SOL     OW38233   1.948   0.894   5.097 -0.4671  0.0004  0.1113
 8925SOL    HW138234   2.037   0.866   5.077 -0.3612  0.5726 -0.2448
 8925SOL    HW238235   1.959   0.958   5.167  1.1225 -0.1083 -0.0466
 8926SOL     OW38236   3.916   1.496   4.475 -0.0255  0.0233  0.0337
 8926SOL    HW138237   3.821   1.490   4.485  0.1718  0.4081  2.0281
 8926SOL    HW238238   3.934   1.589   4.457 -1.2049  0.1868 -0.3365
 8927SOL     OW38239   4.145   2.473   6.658  0.0227 -0.4943  0.4289
 8927SOL    HW138240   4.186   2.389   6.679  2.1247  0.4295  0.0294
 8927SOL    HW238241   4.061   2.450   6.619 -0.3830 -1.8238  2.0415
 8928SOL     OW38242   2.722   0.437  11.526  0.4267  0.0705 -0.0356
 8928SOL    HW138243   2.746   0.453  11.617 -0.7376  0.7889  0.1465
 8928SOL    HW238244   2.677   0.521  11.519  0.2885 -0.0721 -0.8851
 8929SOL     OW38245   0.071   4.442   2.750 -0.7250 -0.4068 -0.0741
 8929SOL    HW138246   0.023   4.499   2.689  3.5135  2.3232 -0.8195
 8929SOL    HW238247   0.071   4.499   2.826  0.9805 -2.0547  1.1721
 8930SOL     OW38248   0.000   1.124  11.941 -0.2169  0.1163 -0.8959
 8930SOL    HW138249   4.667   1.186  11.987 -0.8817  0.2356 -1.8593
 8930SOL    HW238250   4.702   1.041  11.983  0.4566 -0.2659 -1.3080
 8931SOL     OW38251   4.341   1.823  16.964 -0.4482  0.6504 -0.5747
 8931SOL    HW138252   4.312   1.760  17.030 -0.0617  0.6055 -0.4466
 8931SOL    HW238253   4.254   1.852  16.935 -0.7548 -0.2139 -0.5392
 8932SOL     OW38254   4.027   0.116   8.307 -0.4293  0.0070 -0.1158
 8932SOL    HW138255   4.044   0.035   8.355  0.6247  0.2315 -0.1060
 8932SOL    HW238256   4.080   0.177   8.358  0.2076  0.8557 -1.8030
 8933SOL     OW38257   1.265   4.489   1.908  0.0861  0.8491  0.3672
 8933SOL    HW138258   1.255   4.546   1.832 -2.1973 -1.3467 -1.0150
 8933SOL    HW238259   1.359   4.475   1.918 -0.1228 -0.5189  0.4760
 8934SOL     OW38260   1.767   4.590   3.142  0.0935  0.0980  0.5655
 8934SOL    HW138261   1.790   4.683   3.146 -4.4432  1.2207  0.2341
 8934SOL    HW238262   1.790   4.570   3.233 -1.1115 -1.5920  0.5003
 8935SOL     OW38263   0.587   3.493   3.770  0.0299  0.1697 -0.6338
 8935SOL    HW138264   0.674   3.458   3.749 -0.0206 -2.3477  3.3867
 8935SOL    HW238265   0.556   3.524   3.685  1.3480  1.0363 -0.8127
 8936SOL     OW38266   3.387   3.078  16.326 -0.5093  1.1412  0.5776
 8936SOL    HW138267   3.465   3.130  16.345  0.4645  0.6150 -1.9239
 8936SOL    HW238268   3.400   3.036  16.241 -1.0509  1.1808  0.4748
 8937SOL     OW38269   0.172   3.383  17.310  0.5608 -0.4159 -0.3073
 8937SOL    HW138270   0.205   3.417  17.227 -0.0116 -2.6127 -1.4458
 8937SOL    HW238271   0.167   3.287  17.305  1.7597 -0.3923 -1.7521
 8938SOL     OW38272   3.042   2.513   9.951  0.8051 -0.3603 -0.2701
 8938SOL    HW138273   3.126   2.533   9.991 -0.2939  2.5116  0.5695
 8938SOL    HW238274   2.977   2.521  10.021  0.8170 -0.2640 -0.2700
 8939SOL     OW38275   1.749   2.622  17.444  0.1358  0.4356  0.1730
 8939SOL    HW138276   1.670   2.573  17.467  0.3156 -0.6455 -1.5300
 8939SOL    HW238277   1.710   2.698  17.400 -2.2817 -1.9000 -1.7008
 8940SOL     OW38278   1.858   3.561   6.136  0.5420  0.1560 -0.2460
 8940SOL    HW138279   1.824   3.625   6.074  2.1502  1.6299  0.3782
 8940SOL    HW238280   1.903   3.612   6.203 -0.1549  0.0980  0.2668
 8941SOL     OW38281   3.834   4.467   9.997  1.0398 -0.0279  0.0448
 8941SOL    HW138282   3.876   4.538   9.948  0.5227 -0.1448 -0.5568
 8941SOL    HW238283   3.791   4.508  10.072 -0.4925  1.1948 -1.5168
 8942SOL     OW38284   0.741   1.405   4.006  0.1130  0.4327 -0.0657
 8942SOL    HW138285   0.748   1.432   4.098  2.4447 -2.5456  0.6042
 8942SOL    HW238286   0.649   1.392   3.983  0.6162 -1.4819 -0.9360
 8943SOL     OW38287   0.839   4.343   4.145  0.7471 -0.1735 -0.4239
 8943SOL    HW138288   0.789   4.262   4.159  1.5771 -0.2177  2.2888
 8943SOL    HW238289   0.898   4.341   4.220  0.5910 -1.8235 -0.3332
 8944SOL     OW38290   4.148   0.522   7.438 -0.6618  0.5702 -0.0793
 8944SOL    HW138291   4.190   0.607   7.441 -0.4835  0.5070 -0.8813
 8944SOL    HW238292   4.217   0.460   7.412 -3.4095 -3.3666  1.9323
 8945SOL     OW38293   3.031   2.900  14.467 -0.8199 -0.3526  0.0949
 8945SOL    HW138294   3.057   2.872  14.555  0.9757  0.1515 -0.2805
 8945SOL    HW238295   2.943   2.936  14.481 -0.7557 -0.1202 -0.1005
 8946SOL     OW38296   3.631   0.549   8.146  0.0887 -0.8365  0.3288
 8946SOL    HW138297   3.682   0.528   8.067  0.0920 -1.5227  0.5098
 8946SOL    HW238298   3.559   0.594   8.103  1.1755  0.8115  0.2509
 8947SOL     OW38299   1.995   2.169   7.880  0.0197 -0.3180  0.2724
 8947SOL    HW138300   2.043   2.127   7.808 -0.9779  0.9035 -1.1145
 8947SOL    HW238301   1.947   2.102   7.929  1.5408 -0.9399  0.8858
 8948SOL     OW38302   0.973   2.461   3.559  0.1394 -0.2173  0.4420
 8948SOL    HW138303   0.899   2.490   3.506 -1.1758  0.4986  2.6581
 8948SOL    HW238304   1.028   2.417   3.494  2.0893  2.7012  0.1212
 8949SOL     OW38305   4.637   1.587  16.816  0.1719 -0.3775  0.2076
 8949SOL    HW138306   4.596   1.523  16.874 -0.6039  0.0702  0.1651
 8949SOL    HW238307   4.567   1.643  16.781  0.7183 -1.1611 -2.1089
 8950SOL     OW38308   2.854   0.421   7.048  0.8434  0.1158  0.2101
 8950SOL    HW138309   2.776   0.457   7.006  0.5061 -1.2483 -0.3376
 8950SOL    HW238310   2.898   0.376   6.975 -1.3179 -0.6194 -0.6412
 8951SOL     OW38311   3.436   3.421  12.704 -0.3873  0.4309 -0.1537
 8951SOL    HW138312   3.355   3.376  12.683 -0.2082 -0.1614  0.4250
 8951SOL    HW238313   3.507   3.387  12.650 -0.0083  1.0742 -0.0697
 8952SOL     OW38314   3.062   4.564  14.912  0.3718  0.2720 -0.3952
 8952SOL    HW138315   3.001   4.634  14.891  2.3346  2.6842  1.9874
 8952SOL    HW238316   3.007   4.491  14.882  0.7819 -0.0497 -0.3694
 8953SOL     OW38317   0.809   1.419   8.223  0.3252  0.6805  0.3041
 8953SOL    HW138318   0.851   1.359   8.284 -1.4323  0.8845  1.7282
 8953SOL    HW238319   0.715   1.399   8.231 -0.0579  2.1632 -0.3944
 8954SOL     OW38320   4.716   3.694   3.582  0.3611 -0.0589  0.1826
 8954SOL    HW138321   4.669   3.613   3.603 -0.8421  0.7243  0.4773
 8954SOL    HW238322   0.062   3.660   3.525  0.1410 -0.6516  0.2745
 8955SOL     OW38323   2.264   3.683   3.531 -0.0030 -0.6374  0.1562
 8955SOL    HW138324   2.273   3.629   3.610  0.1746  0.1832  0.6933
 8955SOL    HW238325   2.335   3.650   3.476 -1.8029 -1.0704 -1.9297
 8956SOL     OW38326   4.148   3.256   0.251  0.0048  0.6301 -0.4863
 8956SOL    HW138327   4.157   3.338   0.299 -0.8422  0.0832  0.6009
 8956SOL    HW238328   4.067   3.222   0.289 -0.1424  1.6876  0.1542
 8957SOL     OW38329   4.624   2.394   7.259  0.3489 -0.1027 -0.0367
 8957SOL    HW138330   4.607   2.487   7.244  1.9376 -0.2327 -2.7304
 8957SOL    HW238331   4.719   2.391   7.250  0.4930 -1.0606  1.8279
 8958SOL     OW38332   3.824   2.982  10.057  0.6893  0.2746 -0.1575
 8958SOL    HW138333   3.785   3.067  10.076  0.8841  0.5628 -1.0479
 8958SOL    HW238334   3.775   2.925  10.116 -1.0296  0.8224 -1.0543
 8959SOL     OW38335   2.326   3.598   6.862 -0.0363 -0.7385  0.0319
 8959SOL    HW138336   2.383   3.653   6.809 -3.2231  2.0867 -0.4952
 8959SOL    HW238337   2.277   3.669   6.904  2.3235  0.1649  1.2229
 8960SOL     OW38338   0.236   2.567   1.417  0.0657  0.5880  0.0550
 8960SOL    HW138339   0.310   2.610   1.374  0.3531  1.5177  1.4782
 8960SOL    HW238340   0.263   2.576   1.509  1.3332  1.0701 -0.3598
 8961SOL     OW38341   0.931   0.453   3.782  0.3599 -0.9668 -0.3612
 8961SOL    HW138342   0.848   0.426   3.741  0.8565 -1.1693 -1.2436
 8961SOL    HW238343   0.966   0.528   3.734  0.0638 -0.7306 -0.2093
 8962SOL     OW38344   3.209   0.059   8.302  0.2505  0.1018 -0.5770
 8962SOL    HW138345   3.255   0.103   8.373  0.6358 -0.9552 -0.1746
 8962SOL    HW238346   3.232   4.693   8.326 -2.5826 -0.5917 -0.4174
 8963SOL     OW38347   3.311   3.399   6.897 -0.3953 -0.7020  0.1664
 8963SOL    HW138348   3.313   3.403   6.802 -2.8263  1.4980  0.2236
 8963SOL    HW238349   3.393   3.441   6.925 -2.5172  0.8754  4.0176
 8964SOL     OW38350   2.671   0.215   8.268 -0.1470  0.6700  0.2845
 8964SOL    HW138351   2.629   0.301   8.277  1.9644  1.8957 -1.5031
 8964SOL    HW238352   2.652   0.198   8.176  0.0099  1.9284  0.0175
 8965SOL     OW38353   0.800   3.825   9.827 -0.7121 -0.0196 -0.0623
 8965SOL    HW138354   0.829   3.874   9.904  0.5124 -0.1315 -0.4522
 8965SOL    HW238355   0.807   3.895   9.762  2.7018  1.6226  2.0652
 8966SOL     OW38356   0.002   0.025   5.669 -0.0601  0.0806  0.3318
 8966SOL    HW138357   4.666   0.088   5.711 -2.1597 -1.7465  0.0955
 8966SOL    HW238358   0.073   0.017   5.732  0.0984  2.9749  0.5427
 8967SOL     OW38359   4.190   0.251  17.423  0.2365 -0.5625  0.1246
 8967SOL    HW138360   4.280   0.235  17.452  0.4697  0.0931 -0.2382
 8967SOL    HW238361   4.199   0.216  17.335 -0.6104 -2.3413  0.7174
 8968SOL     OW38362   3.445   3.627  13.458  0.1774  0.1397 -0.2130
 8968SOL    HW138363   3.539   3.617  13.442 -0.3537  0.1001 -3.3722
 8968SOL    HW238364   3.411   3.564  13.394 -2.0660  2.4601 -1.3367
 8969SOL     OW38365   1.981   2.735  11.060  0.2670 -0.2105 -0.4102
 8969SOL    HW138366   1.937   2.764  11.139 -1.6111 -0.8557 -1.2296
 8969SOL    HW238367   1.924   2.669  11.020 -0.7544  1.7696 -2.2312
 8970SOL     OW38368   2.748   2.486   7.398  0.3835  0.6837  0.3473
 8970SOL    HW138369   2.712   2.455   7.481 -0.4709 -2.9958 -1.4004
 8970SOL    HW238370   2.749   2.579   7.422 -1.1778  0.6376  0.5811
 8971SOL     OW38371   0.207   4.290   5.724  0.1542 -0.1712  0.6115
 8971SOL    HW138372   0.228   4.233   5.650 -0.4026 -0.0196  0.3321
 8971SOL    HW238373   0.212   4.223   5.792  0.2006 -2.5215 -1.7096
 8972SOL     OW38374   4.299   4.321   7.408  0.7056 -0.2274 -0.3894
 8972SOL    HW138375   4.297   4.333   7.313 -0.9372 -0.2877 -0.3568
 8972SOL    HW238376   4.293   4.225   7.415  0.4870 -0.0389  2.2402
 8973SOL     OW38377   3.783   3.256   7.059  0.0084 -0.4403  0.5122
 8973SOL    HW138378   3.861   3.309   7.075 -0.4946  0.2633  0.6241
 8973SOL    HW238379   3.817   3.170   7.084  2.1340 -0.0754 -1.1705
 8974SOL     OW38380   3.888   1.689   2.552 -0.2722  0.3639 -0.2018
 8974SOL    HW138381   3.928   1.608   2.522 -0.6499  0.2714 -0.4499
 8974SOL    HW238382   3.938   1.754   2.503 -2.5568  0.6020 -2.2401
 8975SOL     OW38383   2.713   1.954  11.917  0.5273  0.7655 -0.4162
 8975SOL    HW138384   2.741   2.000  11.995  0.1891 -2.4963  1.6317
 8975SOL    HW238385   2.756   1.868  11.922 -0.9967  0.0955  0.9973
 8976SOL     OW38386   0.937   4.093   7.261  0.4469 -0.0403  0.2794
 8976SOL    HW138387   0.955   4.084   7.355  0.4141  0.5984  0.3498
 8976SOL    HW238388   0.857   4.042   7.249  0.3388  0.1361  0.2412
 8977SOL     OW38389   1.592   3.617  11.259 -0.3887  0.1265 -0.3420
 8977SOL    HW138390   1.607   3.523  11.272 -1.6336  0.0657  0.5977
 8977SOL    HW238391   1.676   3.661  11.269 -0.5899  0.4572 -0.1281
 8978SOL     OW38392   1.602   1.147   1.276 -0.7011  0.5225  0.0619
 8978SOL    HW138393   1.601   1.142   1.372  0.3064 -1.0613 -0.0025
 8978SOL    HW238394   1.644   1.070   1.239 -0.6537 -0.9199  3.0955
 8979SOL     OW38395   3.451   0.886   3.422 -0.4408 -0.3250  0.6891
 8979SOL    HW138396   3.365   0.848   3.440 -1.0559 -0.2935 -2.2393
 8979SOL    HW238397   3.483   0.888   3.512  0.9369  1.5254  0.1570
 8980SOL     OW38398   2.330   0.488   2.015  0.0968  0.1408 -0.5733
 8980SOL    HW138399   2.292   0.478   2.102  2.6912  0.3614  0.5980
 8980SOL    HW238400   2.422   0.467   2.032 -0.7859 -0.9674  2.9689
 8981SOL     OW38401   3.191   4.294   6.338 -0.1949 -0.1090 -0.2621
 8981SOL    HW138402   3.181   4.206   6.374  0.6232 -0.5061 -0.9998
 8981SOL    HW238403   3.260   4.287   6.272  2.2447 -1.0179  2.3497
 8982SOL     OW38404   0.650   3.632  12.887 -0.0243 -0.4331  0.3664
 8982SOL    HW138405   0.692   3.700  12.834 -1.2775  0.3638  0.3992
 8982SOL    HW238406   0.686   3.658  12.972 -0.2754  2.3137 -0.3692
 8983SOL     OW38407   3.821   2.739   2.167  0.1609  0.4749  0.0192
 8983SOL    HW138408   3.764   2.688   2.224  0.1954 -1.3033 -1.5374
 8983SOL    HW238409   3.847   2.815   2.219  0.1990  0.6126 -0.1996
 8984SOL     OW38410   3.331   1.590  12.080 -0.1702 -0.2380  0.4608
 8984SOL    HW138411   3.353   1.632  11.996 -1.4280 -0.9082 -0.2077
 8984SOL    HW238412   3.236   1.582  12.066 -0.0324 -1.2334  0.1234
 8985SOL     OW38413   1.760   3.545   7.487 -0.0619  0.0813 -0.0215
 8985SOL    HW138414   1.826   3.511   7.548  2.3118  1.6178 -1.7184
 8985SOL    HW238415   1.763   3.639   7.507  0.0072  0.5407 -2.2535
 8986SOL     OW38416   2.950   3.040  14.777 -0.0646 -0.1136  1.1117
 8986SOL    HW138417   2.920   3.054  14.687  1.4649 -0.6084  0.5199
 8986SOL    HW238418   2.989   2.954  14.765 -0.6388 -0.3162  0.6714
 8987SOL     OW38419   2.285   2.955   8.589  0.1779 -0.1586 -0.6012
 8987SOL    HW138420   2.277   3.050   8.587  0.0621 -0.1097  1.9366
 8987SOL    HW238421   2.378   2.942   8.605 -0.3124 -1.4526  1.2266
 8988SOL     OW38422   3.096   0.578  15.513  0.3291  0.1028  0.4440
 8988SOL    HW138423   3.038   0.510  15.479 -0.8001  0.5989  1.3345
 8988SOL    HW238424   3.167   0.518  15.533  0.4401 -0.2170 -0.9571
 8989SOL     OW38425   0.931   1.480   9.107 -0.5060 -0.0209 -0.0542
 8989SOL    HW138426   0.950   1.529   9.187  2.6196  0.6687 -1.2432
 8989SOL    HW238427   1.026   1.469   9.099 -0.3401  1.5015 -0.1525
 8990SOL     OW38428   4.511   2.850   8.196 -0.3846 -0.2413 -0.0338
 8990SOL    HW138429   4.505   2.895   8.111  3.5307 -1.8215 -1.1816
 8990SOL    HW238430   4.421   2.818   8.198  0.2205 -2.0790 -1.3395
 8991SOL     OW38431   1.425   1.656  12.283 -0.0530 -0.0506  0.2858
 8991SOL    HW138432   1.398   1.604  12.207 -1.7147  0.4057  0.5538
 8991SOL    HW238433   1.471   1.591  12.337  0.4194 -1.1382 -1.4408
 8992SOL     OW38434   1.932   2.796   9.590  0.2507 -0.4486 -0.0920
 8992SOL    HW138435   1.913   2.822   9.500  1.3458  0.4521 -0.0782
 8992SOL    HW238436   1.913   2.880   9.632 -0.4639 -0.6432 -0.0273
 8993SOL     OW38437   4.635   4.055   1.769 -0.3667  0.1619  0.0338
 8993SOL    HW138438   4.640   4.025   1.679 -1.0111  0.8744 -0.2408
 8993SOL    HW238439   4.678   4.139   1.755 -1.0481  0.3357 -1.0189
 8994SOL     OW38440   1.000   2.443  17.482  0.3747  0.5632  0.1286
 8994SOL    HW138441   0.963   2.365  17.441  1.2897  1.0262 -1.5734
 8994SOL    HW238442   1.071   2.403  17.533 -0.5937 -1.7601 -0.3430
 8995SOL     OW38443   2.034   3.875   5.444 -0.1247  0.1695 -0.1560
 8995SOL    HW138444   2.083   3.814   5.389 -1.4667 -0.1882 -0.9396
 8995SOL    HW238445   1.981   3.813   5.495 -2.3319  1.3763 -0.9973
 8996SOL     OW38446   1.247   4.134   7.265  0.4807 -0.3650 -0.0195
 8996SOL    HW138447   1.162   4.101   7.235  0.6927 -0.8230 -0.1189
 8996SOL    HW238448   1.229   4.228   7.265  0.2551 -0.4071 -0.0930
 8997SOL     OW38449   2.759   1.057   7.309 -0.2705 -0.1865 -0.3084
 8997SOL    HW138450   2.809   1.069   7.390  1.5682 -1.1221 -1.2904
 8997SOL    HW238451   2.770   0.962   7.297  2.2967  0.2585 -1.5821
 8998SOL     OW38452   1.211   1.913   3.011 -0.4971 -0.1493  0.7018
 8998SOL    HW138453   1.122   1.895   3.038 -1.2838  1.3011 -0.9123
 8998SOL    HW238454   1.221   1.852   2.938 -0.3897  3.1361 -2.0218
 8999SOL     OW38455   0.117   0.975   8.177  0.0794 -0.1403  0.4817
 8999SOL    HW138456   0.156   0.991   8.091 -0.5270 -2.4904 -0.2229
 8999SOL    HW238457   0.080   1.061   8.196  1.1846 -0.0504  2.2298
 9000SOL     OW38458   2.817   0.540   3.105  0.1276 -0.2408 -0.4158
 9000SOL    HW138459   2.731   0.536   3.146 -0.1838  0.9447 -0.9627
 9000SOL    HW238460   2.878   0.569   3.172 -0.9966 -0.1364  0.5552
 9001SOL     OW38461   3.315   4.570   5.514  0.0778  0.1613  0.0987
 9001SOL    HW138462   3.350   4.487   5.547  1.1789  0.1329 -1.1515
 9001SOL    HW238463   3.273   4.603   5.593 -1.3887  1.7908 -1.3701
 9002SOL     OW38464   0.073   0.852  15.875  0.1982 -0.0403 -0.0916
 9002SOL    HW138465   0.046   0.813  15.958  2.8594  0.3674  0.9829
 9002SOL    HW238466   4.719   0.904  15.853 -0.0564 -0.3643  0.0281
 9003SOL     OW38467   3.885   2.353   6.621 -0.0381  0.5522 -0.2941
 9003SOL    HW138468   3.817   2.345   6.554  0.4687  0.6883 -0.8227
 9003SOL    HW238469   3.911   2.261   6.631  2.2544  1.5132  2.3675
 9004SOL     OW38470   3.645   0.766   7.368 -0.0511  0.4153 -0.0825
 9004SOL    HW138471   3.569   0.824   7.360 -2.0375 -2.5705 -2.7479
 9004SOL    HW238472   3.712   0.833   7.353 -1.2869  1.2528 -1.8128
 9005SOL     OW38473   1.304   3.251   6.323 -0.1400 -0.4259  0.1630
 9005SOL    HW138474   1.215   3.218   6.334 -0.1166  0.3643  2.7973
 9005SOL    HW238475   1.312   3.257   6.228 -0.1477  1.5333  0.2799
 9006SOL     OW38476   0.902   4.653   4.315 -0.4308 -0.2553 -0.2608
 9006SOL    HW138477   0.842   4.649   4.241 -1.3450 -0.6917  0.4988
 9006SOL    HW238478   0.850   4.615   4.387  0.8685  1.2439  1.4516
 9007SOL     OW38479   3.249   4.100   8.890  0.0872 -0.2222  0.5560
 9007SOL    HW138480   3.343   4.087   8.899 -0.0592 -0.9793  1.0306
 9007SOL    HW238481   3.232   4.141   8.975  1.2100 -0.4742  0.9038
 9008SOL     OW38482   0.630   2.088  12.117 -0.0628 -0.0009  0.3360
 9008SOL    HW138483   0.646   1.998  12.088 -0.2437  0.8318 -2.2968
 9008SOL    HW238484   0.669   2.081  12.204 -0.1960  3.9350  0.7014
 9009SOL     OW38485   1.345   3.673  10.459 -0.5513  0.1591  0.5365
 9009SOL    HW138486   1.279   3.703  10.522 -0.0772 -3.5211  2.7772
 9009SOL    HW238487   1.364   3.589  10.501  1.3029  0.1991 -0.1966
 9010SOL     OW38488   1.575   3.869  17.360 -0.5041  0.1165 -0.5044
 9010SOL    HW138489   1.570   3.963  17.340 -0.6879  0.0672 -0.6892
 9010SOL    HW238490   1.524   3.859  17.440 -0.5075  0.7777 -0.4192
 9011SOL     OW38491   0.781   3.352   5.534  0.3169  0.2404  0.1562
 9011SOL    HW138492   0.697   3.315   5.510 -0.3566  0.6088  1.9339
 9011SOL    HW238493   0.825   3.351   5.449 -1.2704 -1.2479 -0.6508
 9012SOL     OW38494   2.031   1.909   2.911  0.4161 -0.3273 -0.3043
 9012SOL    HW138495   2.089   1.981   2.937  0.1263 -0.0565 -0.4054
 9012SOL    HW238496   2.102   1.846   2.894  0.3778  0.2584 -2.6407
 9013SOL     OW38497   0.047   3.592   7.437 -0.0181 -0.1703 -0.1843
 9013SOL    HW138498   0.055   3.531   7.510 -1.9850  0.6135  0.6703
 9013SOL    HW238499   4.676   3.611   7.430 -0.2455 -0.9327  0.9122
 9014SOL     OW38500   2.048   3.805  14.768  0.2257  0.7266  0.4840
 9014SOL    HW138501   2.014   3.859  14.839  0.2030 -0.0449  1.0599
 9014SOL    HW238502   1.963   3.782  14.732 -0.2402  0.8229  1.5206
 9015SOL     OW38503   3.401   1.511   5.397 -0.1776 -0.8829 -0.4873
 9015SOL    HW138504   3.324   1.459   5.423 -1.1223 -0.1287 -1.7391
 9015SOL    HW238505   3.376   1.600   5.421  1.4017 -0.0778 -1.8633
 9016SOL     OW38506   2.093   0.638  15.372 -0.0321  0.0639  0.1628
 9016SOL    HW138507   2.004   0.620  15.342  0.3945 -0.8611 -0.5346
 9016SOL    HW238508   2.080   0.658  15.465  1.7082  0.0536  0.3982
 9017SOL     OW38509   0.630   1.448   5.723  0.5206 -0.0609  0.3294
 9017SOL    HW138510   0.563   1.515   5.708  1.9118  1.8993  3.0458
 9017SOL    HW238511   0.672   1.457   5.637  0.3074 -1.4725  0.0770
 9018SOL     OW38512   2.182   4.235   7.695 -0.7673 -0.0914  0.2975
 9018SOL    HW138513   2.202   4.141   7.701 -1.3805 -0.1016  2.0878
 9018SOL    HW238514   2.235   4.274   7.763  0.6006 -0.5050 -0.5251
 9019SOL     OW38515   1.389   1.409   5.299 -0.2092  0.3865  0.2212
 9019SOL    HW138516   1.298   1.404   5.328 -0.6698 -1.4927 -1.5019
 9019SOL    HW238517   1.391   1.500   5.271 -1.1353  0.2114 -0.4065
 9020SOL     OW38518   2.874   1.680  13.206  0.4961 -0.7721  0.0642
 9020SOL    HW138519   2.900   1.683  13.113  1.2150  0.6990  0.3052
 9020SOL    HW238520   2.860   1.773  13.222  1.5564  0.1110 -4.1153
 9021SOL     OW38521   1.621   0.745   7.283 -0.4915 -0.0360  0.2100
 9021SOL    HW138522   1.535   0.733   7.242  0.1269  0.5115 -1.2634
 9021SOL    HW238523   1.675   0.680   7.238  0.1339  0.6332  0.0007
 9022SOL     OW38524   4.457   3.913  12.580 -0.7202  0.2141 -0.4908
 9022SOL    HW138525   4.495   3.905  12.492  1.7838  0.5047  0.5764
 9022SOL    HW238526   4.366   3.920  12.552 -0.8176  4.6552  1.0320
 9023SOL     OW38527   4.614   1.823  13.644  0.4616 -0.2012  0.7890
 9023SOL    HW138528   4.692   1.862  13.604 -1.1713  3.5630  1.3246
 9023SOL    HW238529   4.646   1.733  13.647  1.7977  0.2270 -0.2858
 9024SOL     OW38530   4.681   2.254  14.560  0.1740 -0.0891 -0.5022
 9024SOL    HW138531   4.644   2.289  14.480  1.9286 -1.7162 -2.0362
 9024SOL    HW238532   4.646   2.316  14.624 -2.1781  0.0889 -2.0022
 9025SOL     OW38533   2.240   1.244   5.539  0.1956  0.4720  0.0281
 9025SOL    HW138534   2.188   1.301   5.483  0.6964  1.1898  0.2931
 9025SOL    HW238535   2.234   1.289   5.623 -0.3312 -1.3557  0.9718
 9026SOL     OW38536   2.113   0.477  10.543 -0.1085 -0.2932  0.1376
 9026SOL    HW138537   2.179   0.532  10.502 -0.6075 -0.2602 -0.6259
 9026SOL    HW238538   2.063   0.534  10.602  1.1069 -1.3416  2.1984
 9027SOL     OW38539   3.757   4.177  11.660 -0.0457  0.0996  0.3001
 9027SOL    HW138540   3.843   4.154  11.623 -1.2629 -2.0609 -1.2370
 9027SOL    HW238541   3.737   4.091  11.697 -0.3765 -0.2038 -0.5703
 9028SOL     OW38542   4.165   4.691  15.343  0.8781  0.1525  0.2969
 9028SOL    HW138543   4.233   4.718  15.281  0.5786  0.2411  0.0098
 9028SOL    HW238544   4.087   0.003  15.302 -0.1457  1.3074  3.2093
 9029SOL     OW38545   3.708   1.931   9.541  0.5625 -0.3941 -0.0828
 9029SOL    HW138546   3.641   1.872   9.506 -1.3041  1.2573  0.7015
 9029SOL    HW238547   3.687   1.918   9.634  3.3269  2.7540  0.9445
 9030SOL     OW38548   1.113   0.101   4.211 -0.0122 -0.8694  0.0566
 9030SOL    HW138549   1.046   0.104   4.143 -0.6438 -1.4357  0.6582
 9030SOL    HW238550   1.062   0.062   4.282  0.4075 -0.3819  0.6225
 9031SOL     OW38551   1.961   1.614   6.533 -0.3165  0.2659 -0.4483
 9031SOL    HW138552   2.021   1.685   6.557  0.4560 -0.3780 -0.4758
 9031SOL    HW238553   1.931   1.567   6.610  0.6778 -0.5377 -0.5528
 9032SOL     OW38554   2.643   3.731   1.398  0.0537  0.6849  0.1241
 9032SOL    HW138555   2.626   3.781   1.478  0.2085  0.6682  0.1670
 9032SOL    HW238556   2.739   3.730   1.402 -0.0269 -2.6621  0.5838
 9033SOL     OW38557   4.333   1.632   7.898  0.2920  0.0297 -0.6623
 9033SOL    HW138558   4.359   1.695   7.964 -1.4457 -0.5532  0.5696
 9033SOL    HW238559   4.240   1.619   7.912  0.2080  2.1272  0.6339
 9034SOL     OW38560   1.824   4.192   9.548  0.6164  0.2163 -0.0666
 9034SOL    HW138561   1.824   4.276   9.502  1.5829  0.0115 -0.4545
 9034SOL    HW238562   1.731   4.171   9.551  0.7167 -0.0215  1.1720
 9035SOL     OW38563   3.837   4.272  11.245  0.1419 -0.2884  1.0685
 9035SOL    HW138564   3.759   4.327  11.234  0.8638 -0.0929 -3.1558
 9035SOL    HW238565   3.900   4.337  11.274  0.1511 -0.1826  0.8161
 9036SOL     OW38566   1.585   1.396  12.236  0.4226  0.4863 -0.3113
 9036SOL    HW138567   1.629   1.312  12.250 -1.8498 -0.6552 -0.0255
 9036SOL    HW238568   1.654   1.451  12.199 -0.5673  0.2402 -2.5798
 9037SOL     OW38569   1.621   2.499   5.301 -0.2577  0.1356 -0.2341
 9037SOL    HW138570   1.549   2.528   5.244 -0.9854  0.6723  0.9509
 9037SOL    HW238571   1.693   2.530   5.246 -2.4690  2.2827 -1.9391
 9038SOL     OW38572   2.047   2.777   6.449  0.0088 -0.5616  0.2416
 9038SOL    HW138573   2.082   2.827   6.375 -2.4346  0.7481 -0.0547
 9038SOL    HW238574   2.024   2.692   6.412 -1.4919 -0.2452  0.4397
 9039SOL     OW38575   0.425   0.425  14.606 -0.8990  0.2413  1.2670
 9039SOL    HW138576   0.417   0.402  14.699 -1.3587  0.7408  1.3512
 9039SOL    HW238577   0.359   0.361  14.577 -0.0673 -0.4758  0.9384
 9040SOL     OW38578   2.507   2.582   6.869  0.0755 -0.0769 -0.4151
 9040SOL    HW138579   2.459   2.531   6.934 -2.7685  1.9279 -0.9092
 9040SOL    HW238580   2.464   2.556   6.787  1.8552 -0.2732 -1.2970
 9041SOL     OW38581   0.956   2.760   4.911  0.4572  0.3620  0.3145
 9041SOL    HW138582   0.999   2.757   4.826 -2.2466 -0.1929 -1.0338
 9041SOL    HW238583   0.864   2.743   4.890  0.6308  0.3381 -0.4239
 9042SOL     OW38584   2.095   3.421   5.253  0.2025 -0.1858 -0.5065
 9042SOL    HW138585   2.106   3.476   5.175  0.1334  0.7732  0.1642
 9042SOL    HW238586   2.176   3.444   5.298  0.0428  0.1793 -0.4061
 9043SOL     OW38587   2.669   3.044   4.078 -0.0101 -0.4705  0.4155
 9043SOL    HW138588   2.629   2.962   4.048  2.6252 -1.4442 -0.4593
 9043SOL    HW238589   2.591   3.090   4.110 -0.3139 -0.3942 -0.4150
 9044SOL     OW38590   2.259   3.372  17.275  0.8337 -0.0444 -0.7646
 9044SOL    HW138591   2.309   3.291  17.267  0.2329 -0.8315  3.5388
 9044SOL    HW238592   2.242   3.403  17.186  0.6927  0.1229 -0.6789
 9045SOL     OW38593   1.753   4.510   4.143 -0.3265 -0.1866  0.0628
 9045SOL    HW138594   1.846   4.532   4.134 -0.1131 -1.2144 -0.3729
 9045SOL    HW238595   1.758   4.415   4.157 -0.7780 -0.0035  1.3955
 9046SOL     OW38596   4.207   3.318   9.056 -0.0376  0.4224 -0.2552
 9046SOL    HW138597   4.155   3.313   9.137  0.5774 -0.3926  0.0898
 9046SOL    HW238598   4.219   3.413   9.050 -1.1390  0.5891  0.1065
 9047SOL     OW38599   1.333   1.579  15.155  0.5429  0.4364  0.0509
 9047SOL    HW138600   1.310   1.522  15.228 -1.1939  0.4526 -0.4853
 9047SOL    HW238601   1.336   1.523  15.078 -2.7853 -0.3538  0.5015
 9048SOL     OW38602   1.947   4.113   3.377 -0.1763  0.6045 -0.6807
 9048SOL    HW138603   2.022   4.058   3.398  0.8289  2.1947 -0.1228
 9048SOL    HW238604   1.924   4.130   3.469  1.3055 -0.9254 -0.0187
 9049SOL     OW38605   1.615   3.892  15.704 -0.0027 -0.3528  0.6777
 9049SOL    HW138606   1.704   3.888  15.738  0.2024 -0.9040  0.0732
 9049SOL    HW238607   1.613   3.818  15.644  3.1206 -0.1055  0.2723
 9050SOL     OW38608   2.699   1.121   0.923  0.4307 -0.0793  0.8064
 9050SOL    HW138609   2.761   1.049   0.933  1.2778  0.6719  0.9462
 9050SOL    HW238610   2.722   1.155   0.836  2.9271 -2.8387  0.3870
 9051SOL     OW38611   1.091   3.483   9.008  0.2177  0.0766  0.1589
 9051SOL    HW138612   1.182   3.487   8.978  0.2059 -0.7363  0.0028
 9051SOL    HW238613   1.086   3.391   9.034  2.8089 -0.0046  0.4645
 9052SOL     OW38614   2.276   3.785   4.269  0.0617  0.3762  0.5640
 9052SOL    HW138615   2.347   3.834   4.228 -1.1581  3.4116  2.0888
 9052SOL    HW238616   2.286   3.799   4.363 -1.9652  1.0653  0.6624
 9053SOL     OW38617   1.480   3.547   8.249  0.1016  0.0518 -0.3561
 9053SOL    HW138618   1.398   3.543   8.200 -0.6426  1.3883  0.7798
 9053SOL    HW238619   1.548   3.568   8.185  0.6907  0.8833  0.5551
 9054SOL     OW38620   0.052   0.391  13.739 -0.5038 -0.4460  0.0095
 9054SOL    HW138621   0.116   0.349  13.797 -1.6180  0.1164  1.6559
 9054SOL    HW238622   4.708   0.392  13.808  0.2139  1.0495  0.6689
 9055SOL     OW38623   3.655   3.327   8.239 -0.0883 -0.4970 -0.0799
 9055SOL    HW138624   3.697   3.241   8.238  1.1598  0.1588 -3.9882
 9055SOL    HW238625   3.718   3.384   8.283 -1.3966  0.3165  0.7588
 9056SOL     OW38626   0.595   1.449   6.280  0.3932 -0.5053  0.5214
 9056SOL    HW138627   0.508   1.481   6.257  0.7247  2.4923  3.3473
 9056SOL    HW238628   0.580   1.434   6.374 -0.1419 -1.4217  0.2884
 9057SOL     OW38629   2.672   1.166   6.707  0.5676  0.5434 -0.5139
 9057SOL    HW138630   2.623   1.240   6.671  2.6422  1.3510 -1.7312
 9057SOL    HW238631   2.739   1.156   6.640  0.2284 -0.4754 -0.7006
 9058SOL     OW38632   0.623   4.554   6.866  0.7341  0.6277 -0.3891
 9058SOL    HW138633   0.679   4.487   6.905 -0.4594 -1.3359 -2.0865
 9058SOL    HW238634   0.599   4.604   6.944  2.4259  1.7213 -0.5696
 9059SOL     OW38635   0.299   0.321   3.399 -0.0689 -0.0112 -0.1478
 9059SOL    HW138636   0.376   0.288   3.354 -0.3967 -1.6903  0.5370
 9059SOL    HW238637   0.230   0.274   3.354 -1.7930  2.4430 -0.0340
 9060SOL     OW38638   2.439   0.623   7.293 -0.9577 -0.3853  0.3841
 9060SOL    HW138639   2.438   0.712   7.328  0.6216 -0.4094  0.5271
 9060SOL    HW238640   2.497   0.588   7.362 -0.0342 -1.0330 -0.7161
 9061SOL     OW38641   1.928   3.037   2.223  0.0729  0.1648 -0.0912
 9061SOL    HW138642   1.885   3.046   2.309  1.1179  1.3353  0.2979
 9061SOL    HW238643   1.982   3.115   2.212 -0.2763  0.5609  0.9632
 9062SOL     OW38644   0.230   0.018   1.291 -0.0513 -0.6304 -0.2863
 9062SOL    HW138645   0.238   4.668   1.352 -2.1379  0.2206  1.0003
 9062SOL    HW238646   0.242   4.700   1.205  0.7773 -1.6897  0.3238
 9063SOL     OW38647   2.694   0.062  11.293 -0.3892 -0.1149 -0.3248
 9063SOL    HW138648   2.654   0.037  11.377  1.9336  0.9206  1.1043
 9063SOL    HW238649   2.620   0.059  11.233 -0.6921  1.1505 -0.0333
 9064SOL     OW38650   1.566   4.137   9.449 -0.3628  0.2708 -0.0190
 9064SOL    HW138651   1.498   4.171   9.508 -0.1955 -1.4054  1.1432
 9064SOL    HW238652   1.525   4.154   9.364 -2.2552  0.4010  0.9214
 9065SOL     OW38653   1.725   4.594  17.666 -0.0517 -0.0528  0.2334
 9065SOL    HW138654   1.782   4.517  17.676 -0.9657 -0.7347  0.1555
 9065SOL    HW238655   1.668   4.564  17.596  0.9673 -2.2550  0.3396
 9066SOL     OW38656   2.453   3.848   4.877  0.2851 -0.1709 -0.0115
 9066SOL    HW138657   2.532   3.902   4.875 -1.6912  2.6203 -2.5422
 9066SOL    HW238658   2.467   3.799   4.958  1.6915  2.8310  1.5746
 9067SOL     OW38659   0.269   0.244   4.353  0.1245  0.1319  0.0974
 9067SOL    HW138660   0.311   0.329   4.340  2.6175 -0.7868  2.1314
 9067SOL    HW238661   0.348   0.190   4.358  1.7069  2.4852  0.1882
 9068SOL     OW38662   0.479   3.672  12.661  0.2993  0.1703  0.4622
 9068SOL    HW138663   0.489   3.638  12.572 -0.5221  0.4747  0.2516
 9068SOL    HW238664   0.536   3.617  12.716  1.9827  0.4213 -1.0322
 9069SOL     OW38665   0.198   4.653   5.454  0.5406  0.3547  0.3079
 9069SOL    HW138666   0.205   0.000   5.390 -2.1123  1.1291  0.8398
 9069SOL    HW238667   0.139   4.689   5.521 -0.9221 -0.4826 -0.5178
 9070SOL     OW38668   1.717   1.658   6.446 -0.0568 -0.3946 -0.3876
 9070SOL    HW138669   1.813   1.659   6.444 -0.0742  0.7084 -0.8016
 9070SOL    HW238670   1.683   1.655   6.357 -2.1740 -0.4678  0.4111
 9071SOL     OW38671   4.448   1.821   5.652  0.6159  0.5125  0.1475
 9071SOL    HW138672   4.473   1.743   5.602 -0.0656  1.2346 -1.3244
 9071SOL    HW238673   4.499   1.887   5.606 -0.5949  1.9384  0.8461
 9072SOL     OW38674   0.036   1.189   4.143  0.0569  0.6654 -0.0395
 9072SOL    HW138675   0.066   1.099   4.131 -1.9170 -0.0197  0.1089
 9072SOL    HW238676   0.043   1.198   4.238  1.0646 -3.3939  0.2612
 9073SOL     OW38677   4.174   4.018   2.851  0.1467 -0.6709 -0.3606
 9073SOL    HW138678   4.255   4.017   2.799  1.1705 -1.5678  1.2350
 9073SOL    HW238679   4.117   4.088   2.820 -0.2384 -0.6876  0.2993
 9074SOL     OW38680   3.880   0.143   5.655  0.4981  0.2147  0.2116
 9074SOL    HW138681   3.915   0.116   5.740  0.8779  1.8921  0.5964
 9074SOL    HW238682   3.817   0.213   5.673 -1.8511 -2.2631  1.6389
 9075SOL     OW38683   3.617   2.336  12.556 -0.8231 -0.3141 -0.2458
 9075SOL    HW138684   3.627   2.347  12.461  2.5127 -1.7116 -0.0529
 9075SOL    HW238685   3.529   2.300  12.560 -0.5107 -1.0453  0.0026
 9076SOL     OW38686   2.012   2.212   2.823  0.3157  0.3753  0.0661
 9076SOL    HW138687   1.988   2.185   2.735  1.3868 -0.6178  0.0788
 9076SOL    HW238688   2.102   2.179   2.827  0.2722  0.0113 -2.3926
 9077SOL     OW38689   2.885   4.450  15.268  0.3798  0.0985 -0.0067
 9077SOL    HW138690   2.954   4.415  15.212 -0.4662 -1.1606 -0.2574
 9077SOL    HW238691   2.820   4.479  15.203  0.0838 -2.4086 -0.8338
 9078SOL     OW38692   2.725   4.720   7.886 -0.1181  0.6524 -0.3302
 9078SOL    HW138693   2.670   4.647   7.856 -0.8055  1.4347 -0.9874
 9078SOL    HW238694   2.677   0.051   7.949  0.2800  1.6552 -0.8883
 9079SOL     OW38695   0.495   3.449   8.303 -0.0858 -0.2795 -0.0586
 9079SOL    HW138696   0.549   3.513   8.350  0.9494 -0.6606 -0.7476
 9079SOL    HW238697   0.561   3.381   8.289  0.2530  0.1657 -0.5986
 9080SOL     OW38698   0.327   1.106   6.606 -0.1502  0.2195 -0.1523
 9080SOL    HW138699   0.238   1.140   6.620 -1.3512 -3.1257  0.3834
 9080SOL    HW238700   0.338   1.052   6.685 -0.0890 -0.0514 -0.3458
 9081SOL     OW38701   1.863   1.150   1.766  0.0299  0.0884  0.2740
 9081SOL    HW138702   1.794   1.187   1.711  1.4564  1.1125 -0.8260
 9081SOL    HW238703   1.935   1.189   1.717 -0.7829  0.6443 -0.4596
 9082SOL     OW38704   0.574   3.060   9.160  0.3811 -0.3367 -0.1503
 9082SOL    HW138705   0.557   3.068   9.066 -2.0131 -1.4381  0.2074
 9082SOL    HW238706   0.542   2.970   9.170 -2.1703  0.6108  0.1438
 9083SOL     OW38707   0.155   4.592   0.022  0.4260 -0.5837  0.5748
 9083SOL    HW138708   0.071   4.598   0.069 -0.7565 -0.4285 -1.5886
 9083SOL    HW238709   0.147   4.673  17.666 -1.2887 -0.1829  1.4711
 9084SOL     OW38710   3.497   2.001  12.836 -0.3259 -0.3770 -1.1173
 9084SOL    HW138711   3.538   2.011  12.922 -1.7486  2.2738 -0.7533
 9084SOL    HW238712   3.462   1.911  12.843 -0.0581 -0.4364 -0.5302
 9085SOL     OW38713   1.283   0.075   5.359 -0.0905 -0.1970 -0.4464
 9085SOL    HW138714   1.268   0.013   5.288  0.4896  0.4943 -1.1769
 9085SOL    HW238715   1.200   0.120   5.373 -1.0211 -1.9995 -0.3082
 9086SOL     OW38716   2.101   1.564   5.919  0.4579 -0.4661 -0.0368
 9086SOL    HW138717   2.163   1.581   5.991 -1.2171  0.2809  1.2257
 9086SOL    HW238718   2.153   1.539   5.843 -0.5762  1.0259 -1.2377
 9087SOL     OW38719   0.052   2.070   7.940  0.3019  0.7047 -0.0111
 9087SOL    HW138720   0.114   2.010   7.983 -0.0151 -0.6423 -1.4355
 9087SOL    HW238721   0.001   2.003   7.895 -0.2447  1.1925 -0.1092
 9088SOL     OW38722   4.331   4.277   2.749  0.1751 -0.0526 -0.3934
 9088SOL    HW138723   4.353   4.294   2.841 -2.5404  1.4570 -0.0177
 9088SOL    HW238724   4.314   4.368   2.726 -0.7843  0.0690  0.8141
 9089SOL     OW38725   4.442   3.541   6.864 -0.5956  0.4914 -0.7300
 9089SOL    HW138726   4.357   3.582   6.880 -0.5489  0.5948 -0.7439
 9089SOL    HW238727   4.507   3.609   6.882  0.7698 -1.1074  0.4236
 9090SOL     OW38728   2.137   2.482   3.831  0.2087  0.6333 -0.9048
 9090SOL    HW138729   2.200   2.554   3.829 -1.2053  1.9184 -0.3361
 9090SOL    HW238730   2.097   2.514   3.913  1.5674  2.6684 -1.0197
 9091SOL     OW38731   1.397   2.637   1.367  0.0257  0.5941 -0.0935
 9091SOL    HW138732   1.433   2.700   1.429  0.7706 -1.0000  1.0769
 9091SOL    HW238733   1.470   2.641   1.304 -1.1587 -1.6869 -1.6076
 9092SOL     OW38734   0.856   3.542   4.259  0.8917 -0.1489 -0.0208
 9092SOL    HW138735   0.913   3.597   4.313 -2.4059  2.1315  1.0833
 9092SOL    HW238736   0.903   3.532   4.176  1.0090  1.1661 -0.1146
 9093SOL     OW38737   4.095   2.520   4.332 -0.0266 -0.5426  0.4875
 9093SOL    HW138738   4.046   2.460   4.388 -0.7321  0.7946  1.2788
 9093SOL    HW238739   4.185   2.494   4.353  1.0272  1.5618 -1.3747
 9094SOL     OW38740   0.092   3.563  13.027 -0.2606  0.2127 -0.1883
 9094SOL    HW138741   0.144   3.558  13.108  1.9333  1.4676 -1.5135
 9094SOL    HW238742   0.149   3.530  12.957  2.7432  3.6118  0.6597
 9095SOL     OW38743   0.667   2.514   4.603  0.1993  0.7920 -0.1189
 9095SOL    HW138744   0.734   2.526   4.535  0.7059 -0.8922  0.0977
 9095SOL    HW238745   0.585   2.498   4.557 -0.4733 -1.1998  1.7693
 9096SOL     OW38746   2.741   3.878  10.032 -0.0018  0.4143  0.2071
 9096SOL    HW138747   2.764   3.969  10.015 -2.5186  0.9850 -0.0586
 9096SOL    HW238748   2.801   3.874  10.106 -3.2631 -0.5028  2.7656
 9097SOL     OW38749   0.053   2.932   4.139  0.1375  0.1705 -0.0977
 9097SOL    HW138750   0.033   2.998   4.206 -1.1902 -0.5937  0.2630
 9097SOL    HW238751   0.126   2.985   4.107 -0.3026  1.2377  0.6280
 9098SOL     OW38752   0.507   3.333   7.138  0.2825 -0.2541  0.1971
 9098SOL    HW138753   0.499   3.420   7.099  2.4012  0.4480  1.3265
 9098SOL    HW238754   0.484   3.281   7.061  2.2277 -0.2636 -0.3733
 9099SOL     OW38755   3.000   4.230  12.329 -0.2767 -0.6231  0.1556
 9099SOL    HW138756   3.021   4.157  12.388  2.8202 -0.1377 -0.3518
 9099SOL    HW238757   3.075   4.289  12.337 -2.3674  2.2993 -1.9409
 9100SOL     OW38758   2.755   2.294   2.966 -0.3024  0.5605 -0.1295
 9100SOL    HW138759   2.809   2.309   2.888 -0.5771 -0.7911 -0.5728
 9100SOL    HW238760   2.825   2.292   3.031  0.0529  0.8145 -0.5032
 9101SOL     OW38761   1.187   2.454  11.292  0.1426 -0.6734 -0.0258
 9101SOL    HW138762   1.268   2.491  11.258 -1.2379  2.5460  0.1964
 9101SOL    HW238763   1.129   2.522  11.258 -1.0201 -2.2203 -1.1498
 9102SOL     OW38764   4.123   1.542   6.601 -0.1382  0.6530 -0.9080
 9102SOL    HW138765   4.131   1.571   6.511 -2.5697  0.4538 -1.1960
 9102SOL    HW238766   4.115   1.629   6.641  1.1830  0.1535  0.4526
 9103SOL     OW38767   1.874   1.208   7.419  0.0979  0.4876  0.4557
 9103SOL    HW138768   1.840   1.147   7.485  1.4754 -1.8149 -0.9607
 9103SOL    HW238769   1.858   1.157   7.339 -0.7016  1.8028 -0.2144
 9104SOL     OW38770   4.599   0.117  12.003 -0.5416  0.6691  0.1767
 9104SOL    HW138771   4.608   0.027  11.972 -3.9365  1.1371 -2.2614
 9104SOL    HW238772   4.673   0.125  12.062 -1.5504 -2.9757  1.9362
 9105SOL     OW38773   2.719   4.251   0.692 -0.5674 -0.1142  0.5411
 9105SOL    HW138774   2.801   4.202   0.685 -0.7786 -0.5112  0.8103
 9105SOL    HW238775   2.673   4.203   0.761 -1.3088  0.7082  0.6123
 9106SOL     OW38776   3.450   3.686  13.076  1.0424  0.2097 -0.4964
 9106SOL    HW138777   3.489   3.642  12.999 -1.6028 -1.0506 -1.1272
 9106SOL    HW238778   3.412   3.767  13.042 -1.7471 -0.1161  1.9015
 9107SOL     OW38779   3.881   0.964   4.424  0.1259  0.0152 -0.5876
 9107SOL    HW138780   3.886   0.909   4.502  0.0163  0.6907 -0.1036
 9107SOL    HW238781   3.888   1.050   4.465 -0.2127 -0.3599  0.2575
 9108SOL     OW38782   4.090   0.432   5.349 -0.2827  0.2269 -0.3490
 9108SOL    HW138783   4.053   0.504   5.400  1.3494  0.0820  1.0364
 9108SOL    HW238784   4.032   0.356   5.352 -0.9171  0.7176 -0.2516
 9109SOL     OW38785   1.184   3.230   3.795  0.0251 -0.0169 -0.2277
 9109SOL    HW138786   1.213   3.166   3.730  2.1969  2.2779 -1.5620
 9109SOL    HW238787   1.136   3.167   3.847 -0.8532  0.9243  0.1047
 9110SOL     OW38788   2.206   3.874   2.987  0.3483  0.1266  0.1250
 9110SOL    HW138789   2.282   3.816   2.996  0.3234  0.3319  1.6507
 9110SOL    HW238790   2.211   3.909   2.898 -2.1638 -1.6851 -0.7401
 9111SOL     OW38791   2.442   3.626   8.436  0.0223 -0.2913  0.2128
 9111SOL    HW138792   2.500   3.695   8.405  0.4340 -0.2109  1.1543
 9111SOL    HW238793   2.384   3.670   8.499 -0.6913 -1.7622  0.5829
 9112SOL     OW38794   3.448   2.933  13.589  0.3662 -0.4959  0.0333
 9112SOL    HW138795   3.462   3.022  13.557  1.2430 -0.8291 -0.4879
 9112SOL    HW238796   3.463   2.870  13.519 -0.8216 -1.8842  1.0186
 9113SOL     OW38797   1.409   1.971   2.580  0.1224  0.6103  0.6571
 9113SOL    HW138798   1.485   2.013   2.621  1.7776 -2.0836  0.3144
 9113SOL    HW238799   1.344   2.038   2.603  1.5151  2.1318  0.1396
 9114SOL     OW38800   1.831   4.266   2.820 -0.6129 -0.9265 -0.3761
 9114SOL    HW138801   1.825   4.180   2.779  1.6117 -1.1328 -0.2831
 9114SOL    HW238802   1.768   4.313   2.766 -0.9678 -0.3704  0.5224
 9115SOL     OW38803   3.932   0.575   7.278 -0.0858 -1.3579 -0.4417
 9115SOL    HW138804   4.007   0.570   7.337  0.1062  0.7930 -0.5322
 9115SOL    HW238805   3.950   0.516   7.204  1.9621 -0.0702 -0.9586
 9116SOL     OW38806   3.366   3.518   4.230 -0.6371  0.2954  0.2962
 9116SOL    HW138807   3.334   3.577   4.162  0.0375 -3.1190 -3.0259
 9116SOL    HW238808   3.318   3.438   4.210 -1.6724  0.5184  1.8707
 9117SOL     OW38809   3.374   0.106   4.931 -0.1462  0.1060  0.5145
 9117SOL    HW138810   3.342   0.136   5.017 -0.1691 -0.3184  0.6551
 9117SOL    HW238811   3.396   0.016   4.953  2.0277  1.2137  2.8633
 9118SOL     OW38812   3.943   4.007   6.129 -0.4179  0.1187  0.6629
 9118SOL    HW138813   4.020   4.043   6.085 -1.2848  2.3086  0.8977
 9118SOL    HW238814   3.883   4.028   6.057 -1.2974 -0.7045  1.1597
 9119SOL     OW38815   0.635   4.148   8.067 -0.1196  0.2360 -0.4653
 9119SOL    HW138816   0.608   4.115   8.152  1.0682  1.7769  0.4910
 9119SOL    HW238817   0.719   4.192   8.072 -0.5699  1.0678 -0.1662
 9120SOL     OW38818   3.227   1.288  11.856 -0.0375  0.4438 -0.2176
 9120SOL    HW138819   3.228   1.201  11.816 -1.0446  0.6614 -0.7034
 9120SOL    HW238820   3.286   1.267  11.929  0.1714 -0.5966 -0.6853
 9121SOL     OW38821   4.579   3.883   7.578 -0.3431 -0.4188 -1.0003
 9121SOL    HW138822   4.584   3.964   7.526 -0.2185  0.4595  0.3993
 9121SOL    HW238823   4.499   3.901   7.626 -0.2006 -1.0802 -0.5157
 9122SOL     OW38824   3.576   0.889   1.184 -0.2837 -0.4851  0.3395
 9122SOL    HW138825   3.516   0.837   1.238  0.3080 -3.8938 -2.3365
 9122SOL    HW238826   3.533   0.910   1.101 -1.8707  1.6522  1.6871
 9123SOL     OW38827   0.007   1.068  10.365 -0.0295 -0.4529 -0.2774
 9123SOL    HW138828   4.652   1.110  10.402  1.4402  1.5005  0.6100
 9123SOL    HW238829   0.034   1.021  10.444 -0.8612 -1.8309 -0.8083
 9124SOL     OW38830   3.724   3.453   3.809 -0.4765  0.0718 -0.3743
 9124SOL    HW138831   3.805   3.491   3.842  0.2463 -2.0273  0.2666
 9124SOL    HW238832   3.743   3.427   3.719  1.3767  2.6152 -0.7049
 9125SOL     OW38833   4.356   4.301   5.151 -0.7815 -0.5257  0.5282
 9125SOL    HW138834   4.416   4.366   5.189  0.1519 -1.1304  0.0753
 9125SOL    HW238835   4.389   4.217   5.182  0.7478 -0.0294  0.2564
 9126SOL     OW38836   1.173   3.385  13.033 -0.7199 -0.0861  0.5329
 9126SOL    HW138837   1.184   3.427  12.948 -0.2498  2.1205  1.7035
 9126SOL    HW238838   1.168   3.294  13.003 -2.0286 -0.1496  0.9197
 9127SOL     OW38839   0.104   2.892   1.545  0.7166 -1.0149 -0.0494
 9127SOL    HW138840   0.114   2.944   1.625  0.5835 -0.1310 -0.5971
 9127SOL    HW238841   0.013   2.864   1.554 -0.1716  0.9921 -2.7388
 9128SOL     OW38842   1.126   4.123   7.601  0.3157 -0.0640  0.0225
 9128SOL    HW138843   1.041   4.080   7.588  0.7513 -0.7563 -0.5668
 9128SOL    HW238844   1.179   4.045   7.588  1.2331  0.6190 -0.2932
 9129SOL     OW38845   2.435   4.320   3.381 -0.5493 -0.0754 -0.4902
 9129SOL    HW138846   2.522   4.361   3.377  1.0271 -3.1680  2.0462
 9129SOL    HW238847   2.426   4.290   3.290 -0.0506 -1.0942 -0.2086
 9130SOL     OW38848   0.447   2.203   3.570  0.2248  0.5802 -0.5663
 9130SOL    HW138849   0.538   2.175   3.575 -0.1572 -0.6709 -0.5914
 9130SOL    HW238850   0.444   2.251   3.488  3.0401  0.4046 -0.7696
 9131SOL     OW38851   3.674   4.397   4.485  0.2330 -0.2935 -0.2710
 9131SOL    HW138852   3.589   4.441   4.480  0.5397  0.2615 -0.6629
 9131SOL    HW238853   3.705   4.441   4.564  0.7761  2.4341 -1.9715
 9132SOL     OW38854   3.394   0.919   2.261 -0.3447  0.5471  0.4374
 9132SOL    HW138855   3.396   0.984   2.191  0.1973  1.1520  1.0123
 9132SOL    HW238856   3.359   0.982   2.325 -2.4896 -1.4480  1.2046
 9133SOL     OW38857   2.638   1.103  17.447  0.2788  0.0139  0.0309
 9133SOL    HW138858   2.709   1.119  17.385  1.1514 -0.3013  0.9589
 9133SOL    HW238859   2.568   1.164  17.422  1.9013  1.2891 -1.3823
 9134SOL     OW38860   3.221   0.750   8.024 -0.3203  0.0762  0.4511
 9134SOL    HW138861   3.153   0.683   8.032  0.6361 -0.9700 -0.1457
 9134SOL    HW238862   3.280   0.719   8.093 -0.6615  4.8931  2.8933
 9135SOL     OW38863   4.533   3.520   9.422 -0.3305  0.4990 -0.1861
 9135SOL    HW138864   4.453   3.535   9.472  0.5296  0.3776  1.2187
 9135SOL    HW238865   4.499   3.535   9.334  0.6306  3.5088 -0.0728
 9136SOL     OW38866   4.298   1.313   3.718 -0.1029 -0.3575  0.1512
 9136SOL    HW138867   4.374   1.336   3.665 -1.5321  0.7019 -1.4351
 9136SOL    HW238868   4.268   1.404   3.717  1.3702  0.1384  0.2154
 9137SOL     OW38869   2.371   3.764   8.915  0.2480 -0.5267 -0.1349
 9137SOL    HW138870   2.402   3.768   9.005 -0.1621  0.0633 -0.0239
 9137SOL    HW238871   2.427   3.699   8.873 -0.0435  0.6873 -2.4121
 9138SOL     OW38872   0.191   3.977  14.389 -0.8058 -0.2243  0.1080
 9138SOL    HW138873   0.187   4.073  14.394  1.1497 -0.0288 -2.1286
 9138SOL    HW238874   0.105   3.959  14.350 -1.4283 -0.9702  1.8169
 9139SOL     OW38875   2.279   2.272   6.441 -0.0890 -0.5112  0.0353
 9139SOL    HW138876   2.227   2.344   6.405  1.3281 -0.4881 -1.9475
 9139SOL    HW238877   2.300   2.228   6.359  0.4950 -0.3810  0.1207
 9140SOL     OW38878   4.222   4.686   4.592  0.0926 -0.6042 -0.0104
 9140SOL    HW138879   4.280   4.625   4.638 -0.4510 -0.2955  1.0837
 9140SOL    HW238880   4.265   4.677   4.508 -0.1928  0.0994 -0.2298
 9141SOL     OW38881   4.518   4.541   6.663  0.1643  0.3946  0.5471
 9141SOL    HW138882   4.595   4.487   6.650 -1.3595 -1.4756 -0.6111
 9141SOL    HW238883   4.562   4.617   6.702 -1.0550  1.2831  0.1854
 9142SOL     OW38884   1.038   2.840   9.837  0.2162 -0.0510  0.3971
 9142SOL    HW138885   1.078   2.768   9.886  0.6842  0.3672  0.6319
 9142SOL    HW238886   1.075   2.844   9.749  0.5152 -1.5911  0.4556
 9143SOL     OW38887   1.841   3.375   5.320  0.3517  0.5155  0.1176
 9143SOL    HW138888   1.933   3.365   5.294 -0.7648 -3.1626 -2.4789
 9143SOL    HW238889   1.852   3.363   5.414  1.6407 -0.9061 -0.2208
 9144SOL     OW38890   0.515   3.409  14.980 -0.0981 -0.4838 -0.3373
 9144SOL    HW138891   0.565   3.410  14.898  1.0902  0.1267  0.4077
 9144SOL    HW238892   0.531   3.323  15.020  3.3444  0.7370  0.8899
 9145SOL     OW38893   3.187   0.650   1.097  0.0730  0.1395 -0.3882
 9145SOL    HW138894   3.229   0.570   1.065  0.1002 -0.3308  0.8322
 9145SOL    HW238895   3.125   0.617   1.162 -2.9023  3.4769 -1.4866
 9146SOL     OW38896   1.287   2.046  11.503  0.1008  0.1796  0.3324
 9146SOL    HW138897   1.223   2.117  11.501 -0.0871 -0.0027 -0.1178
 9146SOL    HW238898   1.269   2.006  11.418  1.1453 -1.1765  0.7548
 9147SOL     OW38899   3.875   1.542   3.289  0.5652  0.3754  0.5440
 9147SOL    HW138900   3.886   1.472   3.352  0.7392 -1.4591 -1.5111
 9147SOL    HW238901   3.923   1.506   3.214  1.0840  0.0706  1.0204
 9148SOL     OW38902   4.396   3.797   8.723 -0.1370 -0.0379  0.1220
 9148SOL    HW138903   4.436   3.861   8.781  2.3748 -1.3969 -0.1148
 9148SOL    HW238904   4.388   3.722   8.782  0.0678 -0.4883 -0.4230
 9149SOL     OW38905   3.038   3.879   3.022  0.2409  0.1637 -0.2268
 9149SOL    HW138906   3.081   3.914   3.100  0.6491 -1.4423  0.2761
 9149SOL    HW238907   3.011   3.959   2.977 -1.6576 -0.7435 -0.6857
 9150SOL     OW38908   3.633   3.605   5.971  0.9571 -0.2729  0.1085
 9150SOL    HW138909   3.627   3.563   6.057  0.9311  2.4843  1.4776
 9150SOL    HW238910   3.629   3.697   5.999  1.3526 -0.2712  0.1571
 9151SOL     OW38911   2.832   0.220   1.639  0.0397  0.0854  0.4769
 9151SOL    HW138912   2.815   0.139   1.590 -0.2231  1.3912 -1.5841
 9151SOL    HW238913   2.917   0.183   1.663  0.8721  0.6547 -1.5850
 9152SOL     OW38914   4.721   2.393  14.932 -1.0754 -0.4312 -0.0548
 9152SOL    HW138915   4.686   2.406  15.020  1.2918 -3.4919  1.3464
 9152SOL    HW238916   4.691   2.303  14.925 -0.2857 -0.4376 -3.3448
 9153SOL     OW38917   4.460   3.199   8.971 -0.1977 -0.1046 -0.4783
 9153SOL    HW138918   4.380   3.248   8.986  0.3976  0.1089  2.0069
 9153SOL    HW238919   4.481   3.184   9.063  1.0654  1.1060 -0.5446
 9154SOL     OW38920   0.072   3.948   6.854 -0.2320  0.0283  0.1769
 9154SOL    HW138921   0.091   3.948   6.948 -0.7756  0.2009  0.2847
 9154SOL    HW238922   0.155   3.909   6.826 -0.1120  0.1696  0.3328
 9155SOL     OW38923   1.819   0.427  10.955  0.0407  0.2314  0.0119
 9155SOL    HW138924   1.734   0.390  10.929 -0.5600  3.3822 -2.5695
 9155SOL    HW238925   1.790   0.492  11.020 -0.5647 -0.1631  0.1396
 9156SOL     OW38926   4.245   4.515   7.610  0.4227 -0.0634  0.4899
 9156SOL    HW138927   4.316   4.571   7.641  1.5685  0.5424 -3.1132
 9156SOL    HW238928   4.287   4.477   7.532 -0.7587 -2.1375  0.8813
 9157SOL     OW38929   0.936   2.677   3.273 -0.4660  0.0514  0.2718
 9157SOL    HW138930   0.886   2.750   3.236  1.1259  2.0488  2.0810
 9157SOL    HW238931   0.944   2.615   3.201  0.2088 -1.5012  1.6873
 9158SOL     OW38932   4.384   4.629   5.562  0.3546 -0.6490  0.2680
 9158SOL    HW138933   4.300   4.674   5.564  1.3383  1.2633 -1.4235
 9158SOL    HW238934   4.361   4.552   5.614  0.3165 -0.7306  0.1311
 9159SOL     OW38935   0.868   1.994  15.793  0.2571  0.8567  0.0400
 9159SOL    HW138936   0.851   1.945  15.712  0.6159 -0.9333  1.0550
 9159SOL    HW238937   0.918   1.923  15.834 -0.3482 -1.1348 -2.6560
 9160SOL     OW38938   3.951   3.450   8.777  0.4246  0.6162  0.7862
 9160SOL    HW138939   3.986   3.411   8.697 -0.0374 -1.2541  1.5120
 9160SOL    HW238940   3.893   3.383   8.811  0.8048 -0.4609 -0.6787
 9161SOL     OW38941   1.230   4.606   2.609  0.0801  0.5857  0.2561
 9161SOL    HW138942   1.268   4.585   2.524 -1.0592  1.0673 -0.3672
 9161SOL    HW238943   1.161   4.540   2.607  0.6278 -0.0237  1.6556
 9162SOL     OW38944   4.714   2.641   8.210 -0.1203 -0.5287 -0.0032
 9162SOL    HW138945   4.660   2.569   8.242 -0.2525 -0.3874  0.0909
 9162SOL    HW238946   4.647   2.708   8.203  0.3904  0.0611  0.7785
 9163SOL     OW38947   1.922   1.960   8.065 -0.1673  0.5902 -0.0158
 9163SOL    HW138948   1.864   1.935   8.137  0.1328  1.6843  0.6020
 9163SOL    HW238949   2.004   1.972   8.114 -1.9267  0.2241  3.0092
 9164SOL     OW38950   1.048   4.623   8.607 -0.5049 -0.5164 -0.0613
 9164SOL    HW138951   1.125   4.574   8.635 -0.7611 -0.2350  1.1589
 9164SOL    HW238952   1.078   4.706   8.644 -1.7370 -0.5997  1.1231
 9165SOL     OW38953   0.818   2.818   8.709  1.0118 -0.0200  0.3330
 9165SOL    HW138954   0.737   2.792   8.753  0.2791  2.9727  0.7298
 9165SOL    HW238955   0.886   2.808   8.776 -0.1905 -0.9762  1.4167
 9166SOL     OW38956   0.385   4.331   9.180 -0.1306 -0.7334  0.1756
 9166SOL    HW138957   0.431   4.358   9.101 -1.3252 -3.5392 -1.4863
 9166SOL    HW238958   0.315   4.396   9.176  1.2443  0.7820  0.8653
 9167SOL     OW38959   4.574   0.992  10.136 -0.4254 -0.1695 -0.2672
 9167SOL    HW138960   4.636   1.023  10.201 -1.3402  1.5941 -0.2464
 9167SOL    HW238961   4.615   0.910  10.109  1.6341  0.9958 -0.6515
 9168SOL     OW38962   4.260   4.039  13.304  0.4783  0.2891 -0.0932
 9168SOL    HW138963   4.324   4.106  13.331 -0.3377  0.9585  0.1610
 9168SOL    HW238964   4.262   4.056  13.210 -0.7955 -1.1789 -0.3739
 9169SOL     OW38965   0.972   2.132   2.707 -0.0497 -0.2543  0.5415
 9169SOL    HW138966   0.903   2.075   2.741  1.2290 -0.3147  3.0852
 9169SOL    HW238967   0.948   2.132   2.615  0.2729 -2.6573  0.4534
 9170SOL     OW38968   3.810   2.829   2.563  0.9514 -0.6021 -0.0430
 9170SOL    HW138969   3.733   2.804   2.512  1.1806 -0.5454 -0.4152
 9170SOL    HW238970   3.769   2.831   2.649  0.2416 -1.8068 -0.3562
 9171SOL     OW38971   1.488   0.035   1.294  0.2434  0.7773 -0.8334
 9171SOL    HW138972   1.488   0.080   1.209  3.9173 -1.6922 -2.1234
 9171SOL    HW238973   1.406   4.711   1.278  0.4411  0.5537 -1.1708
 9172SOL     OW38974   0.936   0.136   6.934  0.0979  0.4041  0.4679
 9172SOL    HW138975   0.973   0.206   6.880 -0.3923  0.3743  0.0974
 9172SOL    HW238976   1.020   0.105   6.967  0.2481 -1.3542 -1.5854
 9173SOL     OW38977   0.530   2.784   9.169 -0.1577 -0.0975 -0.7979
 9173SOL    HW138978   0.435   2.784   9.184 -0.4306 -1.5908 -2.4158
 9173SOL    HW238979   0.570   2.758   9.252 -0.7046  1.0840 -0.1742
 9174SOL     OW38980   4.003   3.640   6.723  0.3224  0.0512  0.0812
 9174SOL    HW138981   3.943   3.707   6.691 -0.6962 -1.0847 -0.3428
 9174SOL    HW238982   3.967   3.568   6.672 -0.4620 -1.5596  2.9217
 9175SOL     OW38983   4.002   1.214   4.841  0.3594  0.6097 -0.1167
 9175SOL    HW138984   4.047   1.298   4.846  1.6104 -0.0259 -0.6688
 9175SOL    HW238985   3.918   1.229   4.884  0.3611 -0.1074  0.1389
 9176SOL     OW38986   3.542   3.678   7.385 -0.1472  0.1501 -0.1141
 9176SOL    HW138987   3.507   3.755   7.340 -1.9148 -1.1453 -0.9308
 9176SOL    HW238988   3.531   3.611   7.318  0.1937 -0.3080  0.2881
 9177SOL     OW38989   4.126   3.740  14.717 -0.2331 -0.0408  0.1061
 9177SOL    HW138990   4.125   3.791  14.636 -0.5452 -1.0458 -0.5264
 9177SOL    HW238991   4.197   3.680  14.695  2.6950  2.3612  3.0246
 9178SOL     OW38992   0.349   3.469   5.570 -0.3945 -0.1031 -0.0883
 9178SOL    HW138993   0.372   3.550   5.616  0.5216 -0.1842 -0.4025
 9178SOL    HW238994   0.358   3.511   5.485 -0.8246 -0.7505 -0.4468
 9179SOL     OW38995   1.471   1.082   3.594  0.1095 -0.1892  0.0758
 9179SOL    HW138996   1.383   1.066   3.629 -0.0144 -3.5284 -1.7607
 9179SOL    HW238997   1.452   1.088   3.500 -1.2128 -1.5651  0.2551
 9180SOL     OW38998   1.740   2.762   3.823  0.2474  0.3273 -0.5417
 9180SOL    HW138999   1.747   2.779   3.729  0.4681  0.9830 -0.4062
 9180SOL    HW239000   1.763   2.852   3.848  2.7403 -0.6095  0.5631
 9181SOL     OW39001   3.015   4.592  10.042 -0.2296 -0.0226  0.0402
 9181SOL    HW139002   3.053   4.561   9.960 -1.4115  0.4498 -0.6813
 9181SOL    HW239003   2.922   4.581  10.026  0.2428  1.5388 -3.6435
 9182SOL     OW39004   4.384   2.287   7.239  0.1438  0.2249 -0.5619
 9182SOL    HW139005   4.476   2.302   7.259 -0.1857  0.9999  0.4266
 9182SOL    HW239006   4.351   2.339   7.312 -0.2003  1.0588 -1.3164
 9183SOL     OW39007   1.168   0.351   1.362  0.3912 -0.6858 -0.1278
 9183SOL    HW139008   1.188   0.440   1.333  1.9823 -0.4998  1.4971
 9183SOL    HW239009   1.213   0.299   1.296 -0.8554 -2.6487  0.5468
 9184SOL     OW39010   1.149   0.404   5.309  0.4672 -0.0091  0.3804
 9184SOL    HW139011   1.096   0.363   5.240 -0.1693  1.0432  0.2438
 9184SOL    HW239012   1.207   0.463   5.261 -1.5878  2.6649  1.1583
 9185SOL     OW39013   0.349   3.085   4.296  0.4578 -0.8396 -0.0736
 9185SOL    HW139014   0.441   3.072   4.321  0.4705  0.6331  0.6166
 9185SOL    HW239015   0.362   3.156   4.234  0.4424 -2.6161 -2.1264
 9186SOL     OW39016   4.404   1.394   6.649 -0.4468 -0.5471  0.1942
 9186SOL    HW139017   4.328   1.450   6.634  0.8937  0.8923 -1.2461
 9186SOL    HW239018   4.372   1.333   6.716 -4.1492  2.5964  1.2603
 9187SOL     OW39019   3.505   2.108   5.711 -0.1123  0.0640  0.2163
 9187SOL    HW139020   3.422   2.084   5.751 -0.1471  1.6323  1.0707
 9187SOL    HW239021   3.567   2.117   5.784 -0.4890 -1.1237  0.6861
 9188SOL     OW39022   4.311   1.968   8.669  0.4888  0.1241  0.6952
 9188SOL    HW139023   4.393   2.001   8.631  0.3487 -2.3523 -1.7210
 9188SOL    HW239024   4.294   1.894   8.611 -0.1757  0.2393  0.7431
 9189SOL     OW39025   3.906   4.323   4.351 -0.3100 -0.4983 -0.1923
 9189SOL    HW139026   3.813   4.333   4.374  0.1157 -0.1554  1.4089
 9189SOL    HW239027   3.940   4.254   4.408 -1.1399 -2.1340 -1.6636
 9190SOL     OW39028   0.974   4.484   2.577 -0.5564 -0.4114 -0.4166
 9190SOL    HW139029   0.879   4.495   2.571 -0.7822 -1.1306  1.7080
 9190SOL    HW239030   0.987   4.390   2.560 -0.0578 -0.2667 -0.8326
 9191SOL     OW39031   3.664   1.424   9.581 -0.6964  0.3704  0.4409
 9191SOL    HW139032   3.710   1.420   9.497 -1.8301  1.2343 -0.2171
 9191SOL    HW239033   3.735   1.387   9.633 -0.0957  0.7285 -0.1303
 9192SOL     OW39034   0.038   1.897   5.653 -0.5019 -0.2712  0.6212
 9192SOL    HW139035   0.111   1.837   5.636 -1.0019 -0.7817  0.2875
 9192SOL    HW239036   0.048   1.903   5.748 -0.4000 -0.6054  0.6292
 9193SOL     OW39037   4.244   2.519  15.284 -0.2662 -0.1833  0.0326
 9193SOL    HW139038   4.196   2.596  15.316 -1.0572 -2.1980  3.6505
 9193SOL    HW239039   4.172   2.458  15.277  0.1837 -1.0710  3.0208
 9194SOL     OW39040   3.143   3.080   4.595  0.1240  0.1412  0.3960
 9194SOL    HW139041   3.103   3.052   4.513  1.3125  2.0074 -0.8153
 9194SOL    HW239042   3.177   3.164   4.565  1.4938 -0.7638 -0.5988
 9195SOL     OW39043   3.962   4.409   4.096 -0.1130 -0.4556 -0.5709
 9195SOL    HW139044   3.937   4.365   4.177  0.8273 -2.3685 -1.3084
 9195SOL    HW239045   3.973   4.500   4.123 -1.6251 -0.4506  0.0085
 9196SOL     OW39046   2.927   2.385   2.740 -0.3972  0.0953  0.2724
 9196SOL    HW139047   2.999   2.322   2.741 -0.4683  0.0740  2.8467
 9196SOL    HW239048   2.913   2.409   2.648  3.2653 -1.4764 -0.6972
 9197SOL     OW39049   1.466   3.251   3.841 -0.0226 -0.1576 -0.3861
 9197SOL    HW139050   1.373   3.269   3.830  0.1652  1.3461  0.4540
 9197SOL    HW239051   1.499   3.323   3.895  0.5199 -0.3671 -0.4322
 9198SOL     OW39052   1.128   0.199   3.668 -0.1479 -0.2839  0.6719
 9198SOL    HW139053   1.130   0.241   3.754  0.1495 -0.2550  0.6510
 9198SOL    HW239054   1.069   0.125   3.682 -1.7333  0.8859  0.1739
 9199SOL     OW39055   4.224   4.316   8.405  0.5110 -0.0437  0.5182
 9199SOL    HW139056   4.178   4.340   8.325  0.8180  0.6635  0.5499
 9199SOL    HW239057   4.295   4.267   8.366 -1.0086 -1.7530 -0.0657
 9200SOL     OW39058   0.026   1.441  12.241  0.4730 -0.3229 -0.4046
 9200SOL    HW139059   4.687   1.392  12.186  0.5964 -0.0267 -0.8103
 9200SOL    HW239060   4.693   1.475  12.310  1.2519  2.7805 -1.3246
 9201SOL     OW39061   1.037   2.030   4.888 -0.0630  0.1180  0.1534
 9201SOL    HW139062   1.084   2.086   4.950  0.9861  0.0357 -0.5770
 9201SOL    HW239063   0.951   2.053   4.923  1.0842  2.7487  1.2784
 9202SOL     OW39064   2.449   3.753   6.655 -0.2145 -0.7114  0.5983
 9202SOL    HW139065   2.468   3.681   6.595 -2.4451  0.4170 -1.4919
 9202SOL    HW239066   2.514   3.823   6.646 -1.0039  0.0280  0.6243
 9203SOL     OW39067   0.084   2.912   3.602  0.4030 -0.1944 -0.0111
 9203SOL    HW139068   0.174   2.881   3.591  0.2418 -0.1012 -1.5701
 9203SOL    HW239069   0.085   2.967   3.523 -0.8180 -0.4220 -0.1876
 9204SOL     OW39070   3.595   3.319   4.231 -0.1016 -0.2029  0.2145
 9204SOL    HW139071   3.552   3.380   4.171 -0.1130 -1.2864 -0.8653
 9204SOL    HW239072   3.542   3.335   4.310 -1.7873  2.9435 -1.5747
 9205SOL     OW39073   0.305   4.095   4.560 -0.3021  0.0967  0.1145
 9205SOL    HW139074   0.387   4.113   4.605 -0.7289  2.0601  0.1126
 9205SOL    HW239075   0.340   4.053   4.481 -2.2249  1.3279 -1.4171
 9206SOL     OW39076   2.217   1.680   1.874  0.3749 -0.2904 -0.1032
 9206SOL    HW139077   2.146   1.672   1.810  0.8183 -2.0305 -0.3734
 9206SOL    HW239078   2.176   1.690   1.959  2.2706  1.2025  0.6336
 9207SOL     OW39079   0.854   1.521   7.515  0.7171  0.1990  0.2663
 9207SOL    HW139080   0.923   1.553   7.574  1.3410  0.2795 -0.5184
 9207SOL    HW239081   0.778   1.558   7.561 -0.3264 -0.3018 -1.0661
 9208SOL     OW39082   3.069   3.412   8.359 -0.2656  0.4315  0.5199
 9208SOL    HW139083   3.131   3.479   8.388 -0.5195  0.7027  0.4390
 9208SOL    HW239084   3.086   3.347   8.427 -0.2308  0.9317  0.9951
 9209SOL     OW39085   1.688   3.711   1.955  0.3350  0.7821 -0.3633
 9209SOL    HW139086   1.680   3.743   2.045  0.5942 -2.3987  0.7967
 9209SOL    HW239087   1.682   3.617   1.974  0.3996  0.4593 -1.9824
 9210SOL     OW39088   4.295   4.001   2.312  0.1623  0.5134  0.4758
 9210SOL    HW139089   4.388   3.980   2.313  0.5729  2.3489  0.4919
 9210SOL    HW239090   4.291   4.055   2.391  0.4780  0.7985  0.2987
 9211SOL     OW39091   1.487   2.691   2.717 -0.5309 -0.6428 -0.2844
 9211SOL    HW139092   1.526   2.760   2.662  0.2394  1.0149  2.3391
 9211SOL    HW239093   1.442   2.738   2.787 -0.7400 -0.1517 -0.7428
 9212SOL     OW39094   1.789   4.409   9.235 -0.6901  0.1290  0.5244
 9212SOL    HW139095   1.832   4.433   9.153 -0.5439 -1.4204  0.1594
 9212SOL    HW239096   1.853   4.423   9.305 -1.1027  1.8712  0.5705
 9213SOL     OW39097   3.775   3.236   4.465 -0.4285 -0.4498 -0.5657
 9213SOL    HW139098   3.712   3.251   4.395 -1.1426 -1.4259 -0.1263
 9213SOL    HW239099   3.728   3.260   4.545 -0.0687  0.5859 -0.6698
 9214SOL     OW39100   3.607   2.162   8.999 -0.3847 -0.4373 -0.8096
 9214SOL    HW139101   3.541   2.096   9.021  0.9708 -1.9737 -1.3216
 9214SOL    HW239102   3.678   2.098   9.000 -1.3279 -1.4897  0.1564
 9215SOL     OW39103   0.783   3.590   7.188 -0.8079 -0.2025 -0.1240
 9215SOL    HW139104   0.860   3.564   7.137 -0.1428  0.1582  0.6961
 9215SOL    HW239105   0.731   3.634   7.120 -1.2528 -0.6106 -0.0503
 9216SOL     OW39106   0.780   1.520  12.441 -0.3488 -0.4414  0.2687
 9216SOL    HW139107   0.870   1.495  12.421 -0.2074  1.3934 -1.4081
 9216SOL    HW239108   0.785   1.524  12.536 -2.9553  0.0790  0.3745
 9217SOL     OW39109   0.406   1.077  11.553  0.0895 -0.1077 -0.2292
 9217SOL    HW139110   0.403   1.172  11.562  1.0097  0.0126 -1.1643
 9217SOL    HW239111   0.322   1.073  11.598 -0.1350 -3.0221 -0.8864
 9218SOL     OW39112   2.346   0.238   5.391 -0.0352 -0.4885 -0.2067
 9218SOL    HW139113   2.291   0.302   5.346  0.1378 -1.7018 -2.1341
 9218SOL    HW239114   2.424   0.293   5.404  1.7301 -2.5864 -1.9603
 9219SOL     OW39115   2.869   3.521   8.930  0.6459 -0.0873  0.5609
 9219SOL    HW139116   2.782   3.541   8.965  0.8459  0.4653  0.7352
 9219SOL    HW239117   2.847   3.454   8.865 -0.2459  0.2081  0.5469
 9220SOL     OW39118   0.799   2.869  16.673 -0.1057  0.4728 -0.1620
 9220SOL    HW139119   0.830   2.779  16.669 -1.2928  0.0690 -0.2052
 9220SOL    HW239120   0.870   2.916  16.629  1.0134 -2.5340 -1.5721
 9221SOL     OW39121   4.268   2.197  16.895  0.4424 -0.0287  0.0097
 9221SOL    HW139122   4.215   2.276  16.883 -0.9920 -0.9220  0.5126
 9221SOL    HW239123   4.263   2.185  16.990 -1.3613  1.5740  0.1157
 9222SOL     OW39124   1.443   4.283  11.752 -0.5569 -0.0969  0.6489
 9222SOL    HW139125   1.393   4.291  11.671 -0.1676  2.3415  0.6320
 9222SOL    HW239126   1.510   4.223  11.720 -1.7314 -1.5686  0.9409
 9223SOL     OW39127   2.578   4.492   6.652  0.0776 -0.1760  0.1055
 9223SOL    HW139128   2.568   4.477   6.746  4.2350  2.1290  0.8989
 9223SOL    HW239129   2.512   4.427   6.626 -0.4959  0.0229  1.0645
 9224SOL     OW39130   4.259   4.389   7.954  0.0382  0.3034 -0.5947
 9224SOL    HW139131   4.222   4.460   7.901  1.2513  2.5222  1.5700
 9224SOL    HW239132   4.191   4.380   8.021 -1.1232  2.9984 -1.3947
 9225SOL     OW39133   2.260   0.553   7.637  0.3639 -0.5004 -0.0294
 9225SOL    HW139134   2.254   0.546   7.541  3.0251  2.3008 -0.4168
 9225SOL    HW239135   2.340   0.603   7.653  0.1020 -0.3693  0.8849
 9226SOL     OW39136   2.809   3.887  14.360 -0.1683  0.9053  0.0835
 9226SOL    HW139137   2.866   3.932  14.422  0.4659 -1.0071  0.8966
 9226SOL    HW239138   2.739   3.867  14.423  0.1925 -0.6127  0.0220
 9227SOL     OW39139   2.953   0.454  16.262  0.2980 -0.5114 -0.1115
 9227SOL    HW139140   3.038   0.498  16.264  1.4808 -2.7017 -2.2156
 9227SOL    HW239141   2.918   0.498  16.186  0.0681 -1.0632 -0.3215
 9228SOL     OW39142   2.611   1.513  14.880 -0.2909  0.2390  0.2288
 9228SOL    HW139143   2.668   1.535  14.805  1.5857 -0.7342  1.3697
 9228SOL    HW239144   2.558   1.445  14.839  0.9349 -0.1977 -0.6526
 9229SOL     OW39145   0.790   1.972   6.767  0.3473 -0.4159 -0.0092
 9229SOL    HW139146   0.703   1.991   6.733 -0.2965 -0.3966  1.6449
 9229SOL    HW239147   0.804   2.007   6.855  0.8994  3.0468 -1.5074
 9230SOL     OW39148   1.838   1.583   0.910  0.2690 -0.1344 -1.0842
 9230SOL    HW139149   1.787   1.605   0.988 -0.2468 -1.5530 -1.0372
 9230SOL    HW239150   1.873   1.669   0.886  1.7239 -0.5347 -0.3933
 9231SOL     OW39151   2.662   0.208   4.256 -0.6488 -0.5232 -0.1430
 9231SOL    HW139152   2.690   0.131   4.305 -0.7285 -1.2074 -1.1652
 9231SOL    HW239153   2.742   0.235   4.211 -1.6048  2.4967 -0.0363
 9232SOL     OW39154   3.358   1.921   9.704 -0.0021 -0.6930  0.3022
 9232SOL    HW139155   3.341   1.870   9.784 -0.2481  3.0330  2.6350
 9232SOL    HW239156   3.349   2.009   9.741 -2.4907 -0.0604 -1.8248
 9233SOL     OW39157   3.484   0.206  16.393 -0.2005 -0.3469  0.4944
 9233SOL    HW139158   3.418   0.136  16.392  0.3046 -0.8290  1.2482
 9233SOL    HW239159   3.460   0.269  16.460  2.1894  0.5007  0.5434
 9234SOL     OW39160   0.404   2.335  12.962  0.2677  0.3040 -0.6910
 9234SOL    HW139161   0.364   2.270  12.904 -2.7337  0.3821  1.3184
 9234SOL    HW239162   0.479   2.357  12.907  1.5975 -0.6572  0.7526
 9235SOL     OW39163   2.408   3.111   0.092  0.2553 -0.2450  0.2869
 9235SOL    HW139164   2.382   3.107   0.001 -1.0315 -2.1555  0.7627
 9235SOL    HW239165   2.456   3.031   0.114 -1.3665 -1.3403 -0.2453
 9236SOL     OW39166   2.649   3.203   2.277 -0.0824  0.2459  0.2270
 9236SOL    HW139167   2.709   3.266   2.316  0.6338  0.2325 -0.8462
 9236SOL    HW239168   2.573   3.259   2.260  1.3811  1.9638 -0.7358
 9237SOL     OW39169   2.634   4.319   6.112 -0.3383  0.2429 -0.0521
 9237SOL    HW139170   2.644   4.392   6.050  2.3091 -0.0594  0.0374
 9237SOL    HW239171   2.700   4.260   6.076 -0.7789  0.7693 -1.7281
 9238SOL     OW39172   0.128   4.332  14.094 -0.1432 -0.3652  0.9640
 9238SOL    HW139173   0.155   4.274  14.023  1.0939 -1.2735  2.1884
 9238SOL    HW239174   0.044   4.297  14.124  0.9085 -1.2973  2.7949
 9239SOL     OW39175   1.056   3.295   5.016  0.6392  0.2528 -0.2759
 9239SOL    HW139176   1.008   3.218   4.987 -1.7462  1.7239 -0.2537
 9239SOL    HW239177   1.108   3.248   5.081 -0.1820 -0.4458 -0.1378
 9240SOL     OW39178   2.242   2.829   8.857 -0.0812  0.1001 -0.1035
 9240SOL    HW139179   2.207   2.768   8.923  0.9891 -1.9002 -1.3700
 9240SOL    HW239180   2.270   2.768   8.789 -1.5327 -1.6677  0.8623
 9241SOL     OW39181   1.271   2.739   7.057 -0.0072 -0.3649  0.4270
 9241SOL    HW139182   1.243   2.648   7.072  0.5897 -0.7873 -1.0632
 9241SOL    HW239183   1.186   2.769   7.027  0.2837 -0.1304 -0.1538
 9242SOL     OW39184   1.909   2.142   4.509 -0.0956 -0.0765  0.5157
 9242SOL    HW139185   1.823   2.182   4.515  0.9032  2.1561 -0.1469
 9242SOL    HW239186   1.944   2.148   4.598  1.8967 -0.3131 -0.2509
 9243SOL     OW39187   1.548   1.577   2.856  0.1671  0.6024  0.7925
 9243SOL    HW139188   1.483   1.520   2.814  0.7767 -0.8101  1.7567
 9243SOL    HW239189   1.500   1.609   2.932 -0.2846  2.1851 -0.1606
 9244SOL     OW39190   1.366   2.967   7.855  0.0486 -0.4104  0.7204
 9244SOL    HW139191   1.407   2.943   7.772  2.7775  0.1935  1.8945
 9244SOL    HW239192   1.346   2.881   7.893 -0.3558 -0.7355 -0.2299
 9245SOL     OW39193   0.299   1.121   8.474  0.3574  0.0572  0.5876
 9245SOL    HW139194   0.224   1.067   8.448  0.3243  0.1198  0.5524
 9245SOL    HW239195   0.268   1.209   8.455  0.7648  0.5485  2.2234
 9246SOL     OW39196   0.805   3.032   3.965 -0.4943 -0.3162  1.1967
 9246SOL    HW139197   0.852   3.102   3.921 -2.1507 -1.2777 -2.0842
 9246SOL    HW239198   0.792   2.983   3.884  0.8636 -1.0522  1.4225
 9247SOL     OW39199   2.806   1.540   0.303  0.2634 -0.0617 -0.4788
 9247SOL    HW139200   2.846   1.579   0.226 -0.3850 -0.0379 -0.8105
 9247SOL    HW239201   2.718   1.580   0.306  0.2041 -0.3673  1.5322
 9248SOL     OW39202   3.080   2.466  10.666  0.2258  0.0797 -0.1282
 9248SOL    HW139203   3.170   2.437  10.656  1.0136  1.6531  2.3070
 9248SOL    HW239204   3.092   2.559  10.685  1.7279  0.3205 -2.2984
 9249SOL     OW39205   2.441   0.504  17.056 -0.1377  0.0537  0.0016
 9249SOL    HW139206   2.496   0.543  17.125  1.7773 -1.6763 -0.5475
 9249SOL    HW239207   2.478   0.419  17.033  1.5545  0.5401  0.8839
 9250SOL     OW39208   0.054   1.468  15.205  0.0457 -0.3575  0.1314
 9250SOL    HW139209   0.011   1.478  15.290  0.6879 -1.4975  0.5829
 9250SOL    HW239210   0.128   1.410  15.222  0.5819 -0.1244 -1.4011
 9251SOL     OW39211   4.300   2.750  14.099 -0.5214  0.1381 -0.0850
 9251SOL    HW139212   4.205   2.750  14.114 -0.5673 -0.3762 -0.3869
 9251SOL    HW239213   4.308   2.845  14.094 -0.0269  0.1134  0.2701
 9252SOL     OW39214   2.305   1.819   1.411 -0.3276 -0.0790 -0.4140
 9252SOL    HW139215   2.327   1.750   1.350  0.1343  1.3755 -1.9000
 9252SOL    HW239216   2.390   1.853   1.438 -0.5868 -0.0910  0.4120
 9253SOL     OW39217   4.215   3.032   7.664  0.3913  0.2130 -0.2428
 9253SOL    HW139218   4.133   3.052   7.618  1.2398 -0.8645 -2.2069
 9253SOL    HW239219   4.234   3.119   7.700 -0.6714  1.3590 -2.4669
 9254SOL     OW39220   2.550   1.516   1.445  0.4414 -0.3403 -0.3471
 9254SOL    HW139221   2.520   1.532   1.535  0.1564 -1.7812 -0.1991
 9254SOL    HW239222   2.638   1.553   1.448  0.2462  0.0346  1.2171
 9255SOL     OW39223   3.602   2.788   9.296  0.6613  0.3874  0.0585
 9255SOL    HW139224   3.542   2.762   9.225 -1.5871  1.2179  1.6428
 9255SOL    HW239225   3.651   2.859   9.256  0.7868 -0.0892 -0.6434
 9256SOL     OW39226   3.065   1.033   1.411  0.3143  0.5087  0.4931
 9256SOL    HW139227   3.146   1.077   1.437 -0.1690  1.9124 -0.3498
 9256SOL    HW239228   2.994   1.096   1.409  0.2839  0.5542  3.4180
 9257SOL     OW39229   1.323   3.674   1.937 -0.4327  0.1674 -0.3670
 9257SOL    HW139230   1.381   3.727   1.883 -2.9398  2.4699 -0.7615
 9257SOL    HW239231   1.256   3.646   1.875  0.4178  0.5919 -1.4817
 9258SOL     OW39232   4.289   3.462   9.662  0.3158  0.0035 -0.3473
 9258SOL    HW139233   4.277   3.391   9.600  1.6808 -1.8936  1.5612
 9258SOL    HW239234   4.323   3.413   9.737 -0.1721  0.6640  0.3100
 9259SOL     OW39235   1.570   1.379   2.422  0.6618  0.1460 -0.4706
 9259SOL    HW139236   1.650   1.432   2.416  0.2944  0.8513  0.8912
 9259SOL    HW239237   1.538   1.365   2.333  0.5968 -0.2068 -0.3927
 9260SOL     OW39238   0.785   2.405   0.922 -0.0651  0.7023  0.5830
 9260SOL    HW139239   0.848   2.383   0.990  1.9326 -0.2167 -1.5934
 9260SOL    HW239240   0.831   2.357   0.853  0.2726  0.2763  1.1046
 9261SOL     OW39241   1.365   0.875   9.668 -0.6575 -0.1815 -0.0652
 9261SOL    HW139242   1.332   0.816   9.736  0.6896 -0.0497  0.7109
 9261SOL    HW239243   1.335   0.959   9.701  0.2402 -0.2880  1.0448
 9262SOL     OW39244   3.493   3.504   1.918  0.5274  0.4748  0.2476
 9262SOL    HW139245   3.530   3.590   1.934 -0.0244  1.1187 -1.8511
 9262SOL    HW239246   3.404   3.531   1.899 -1.1007 -3.0547  2.9068
 9263SOL     OW39247   3.478   3.142   3.020  0.2063  0.4284  0.2409
 9263SOL    HW139248   3.509   3.232   3.013  2.7167 -0.5217 -1.2578
 9263SOL    HW239249   3.536   3.105   2.953  1.6216  1.0293  1.1427
 9264SOL     OW39250   4.496   0.198  10.308 -0.0447  0.1658 -0.1847
 9264SOL    HW139251   4.462   0.214  10.220  0.6440  0.1260 -0.4537
 9264SOL    HW239252   4.562   0.265  10.323  1.3532 -1.5274  1.1909
 9265SOL     OW39253   1.160   2.505   7.115 -0.0053 -0.2223  0.4443
 9265SOL    HW139254   1.176   2.416   7.146 -2.7281 -1.1047 -0.6604
 9265SOL    HW239255   1.070   2.494   7.085  0.3169 -2.0119  0.1536
 9266SOL     OW39256   2.177   4.240  11.022  0.1145 -0.2541  0.5652
 9266SOL    HW139257   2.085   4.264  11.018  0.2608  0.1420 -0.3883
 9266SOL    HW239258   2.168   4.155  11.065  0.8830 -0.1252  0.9963
 9267SOL     OW39259   0.337   3.002   4.708  0.6795  0.5070  0.1839
 9267SOL    HW139260   0.390   2.937   4.661  0.8613  0.9850 -0.2688
 9267SOL    HW239261   0.256   2.953   4.724  1.0182  0.2112  1.0104
 9268SOL     OW39262   0.704   2.669   4.814 -0.2406 -0.3807 -0.0322
 9268SOL    HW139263   0.680   2.609   4.884 -1.8991 -1.8379 -1.8426
 9268SOL    HW239264   0.709   2.616   4.735 -0.6881 -0.0558 -0.2819
 9269SOL     OW39265   1.409   2.630  16.108  0.0862 -0.3876 -0.5345
 9269SOL    HW139266   1.320   2.645  16.076 -1.2983 -0.9064  3.1533
 9269SOL    HW239267   1.390   2.575  16.184 -0.5680 -0.2803 -0.6191
 9270SOL     OW39268   0.194   1.357   8.845  0.1500  0.3332 -0.2522
 9270SOL    HW139269   0.147   1.387   8.923  0.5586  0.9665 -0.2538
 9270SOL    HW239270   0.134   1.363   8.771  0.3646  0.3650 -0.4234
 9271SOL     OW39271   0.029   4.454   2.350  0.5356  0.4078  0.3268
 9271SOL    HW139272   4.671   4.417   2.386  0.9369 -1.7971 -1.0670
 9271SOL    HW239273   4.717   4.501   2.274  1.3738  1.4374  0.5781
 9272SOL     OW39274   0.284   4.536   3.312 -0.1524  0.2287 -0.1922
 9272SOL    HW139275   0.312   4.533   3.220  0.1620 -1.1325 -0.0405
 9272SOL    HW239276   0.193   4.508   3.303  0.6931 -2.1178 -1.6446
 9273SOL     OW39277   1.803   0.386   5.580 -0.1943 -0.8621  0.1863
 9273SOL    HW139278   1.871   0.320   5.566  0.7690  0.2497 -0.3051
 9273SOL    HW239279   1.848   0.459   5.621 -0.3257  1.4847 -3.7949
 9274SOL     OW39280   1.640   2.405   8.018 -0.1381  0.4942  0.7292
 9274SOL    HW139281   1.705   2.378   7.953 -2.3478 -3.3148  0.0850
 9274SOL    HW239282   1.692   2.418   8.096 -1.7781  1.6103  1.6452
 9275SOL     OW39283   3.104   3.935  17.621  0.3970  0.1440  0.2381
 9275SOL    HW139284   3.161   3.966  17.550  0.5902 -2.0846 -0.5686
 9275SOL    HW239285   3.166   3.898  17.684  0.5651 -2.1276 -1.2517
 9276SOL     OW39286   1.209   1.957  11.822 -0.6598 -0.1809  0.2995
 9276SOL    HW139287   1.133   1.957  11.881 -0.0124  0.8840  1.1150
 9276SOL    HW239288   1.181   2.018  11.753 -1.6358 -0.9208  0.0328
 9277SOL     OW39289   3.130   0.139  17.040  0.4908  0.1250 -0.1314
 9277SOL    HW139290   3.107   0.048  17.022  1.6812 -0.3427  0.6970
 9277SOL    HW239291   3.110   0.159  17.132 -1.3993 -3.5057  0.2407
 9278SOL     OW39292   0.725   3.798   5.889  0.3088  0.5915  0.0096
 9278SOL    HW139293   0.763   3.795   5.977  0.3816  1.6290  0.0057
 9278SOL    HW239294   0.643   3.845   5.901  0.6950  0.9980  1.0854
 9279SOL     OW39295   2.640   2.437   0.727  0.1762  0.1154  0.3818
 9279SOL    HW139296   2.599   2.454   0.642 -0.6433  0.7662  0.9082
 9279SOL    HW239297   2.723   2.396   0.705 -1.1273 -1.4839 -1.5220
 9280SOL     OW39298   1.880   1.170   3.638  0.0671 -0.5309 -0.0563
 9280SOL    HW139299   1.865   1.126   3.554 -1.0946 -0.0538 -0.0993
 9280SOL    HW239300   1.833   1.107   3.693 -1.2670  0.8716  0.4102
 9281SOL     OW39301   4.443   2.826   3.221 -0.0909  0.7929 -0.2222
 9281SOL    HW139302   4.377   2.839   3.153 -0.9464  0.0124  0.4589
 9281SOL    HW239303   4.386   2.790   3.290 -0.5802  1.8024 -0.1021
 9282SOL     OW39304   0.486   3.961   5.027  0.6777 -0.3621 -0.4909
 9282SOL    HW139305   0.500   4.040   4.975 -0.1898 -0.9163 -1.5446
 9282SOL    HW239306   0.467   3.893   4.963 -1.4284  0.4258 -0.6735
 9283SOL     OW39307   1.918   2.660   6.734 -0.5326  0.7746  0.3516
 9283SOL    HW139308   1.901   2.726   6.667 -2.3658 -1.1527 -1.0940
 9283SOL    HW239309   1.845   2.598   6.723 -1.4311  1.8192  0.4125
 9284SOL     OW39310   4.255   1.064   9.439 -0.1487 -0.6787 -0.8452
 9284SOL    HW139311   4.180   1.123   9.439 -1.5285 -2.4493 -4.6237
 9284SOL    HW239312   4.216   0.979   9.421  0.4555 -1.5073  1.6545
 9285SOL     OW39313   1.948   4.296   7.352 -0.1717  0.1215  0.0557
 9285SOL    HW139314   2.020   4.281   7.413  0.4447  0.4810 -0.5890
 9285SOL    HW239315   1.947   4.391   7.359 -0.1414  0.0923  0.4711
 9286SOL     OW39316   3.643   1.531   7.140  0.0895 -0.4913 -0.1448
 9286SOL    HW139317   3.604   1.504   7.057 -2.9761  0.5860  0.9450
 9286SOL    HW239318   3.724   1.481   7.153  1.4207  1.3709 -1.2074
 9287SOL     OW39319   2.612   1.261   4.357  0.2440 -0.4687  0.1944
 9287SOL    HW139320   2.533   1.221   4.394  0.3540 -0.3698  0.5358
 9287SOL    HW239321   2.645   1.186   4.307  1.0433 -0.8772  1.3441
 9288SOL     OW39322   2.366   0.127   6.741  0.3953 -0.1412  0.3383
 9288SOL    HW139323   2.308   0.180   6.686  0.6175  2.6844  2.7936
 9288SOL    HW239324   2.319   0.044   6.736  0.9902 -0.4056 -0.8008
 9289SOL     OW39325   2.243   2.503   3.472 -0.2665 -0.1079  0.6116
 9289SOL    HW139326   2.205   2.422   3.506 -0.4321  0.5478  1.9693
 9289SOL    HW239327   2.275   2.489   3.383 -0.5627  2.2022  0.1470
 9290SOL     OW39328   1.897   1.546  14.511  0.1523  0.1179  0.6117
 9290SOL    HW139329   1.980   1.568  14.469 -0.6597  0.2610 -0.9564
 9290SOL    HW239330   1.931   1.522  14.597  2.6706 -2.4060 -1.1068
 9291SOL     OW39331   0.261   0.194   8.997  0.2991 -0.5103  0.2713
 9291SOL    HW139332   0.240   0.270   8.942  1.6682 -2.2503 -2.6746
 9291SOL    HW239333   0.279   0.230   9.084 -0.1525 -1.3508  0.6984
 9292SOL     OW39334   4.286   0.718  15.812  0.3134  0.5427  0.1747
 9292SOL    HW139335   4.228   0.785  15.776  1.1318  0.7328 -0.8003
 9292SOL    HW239336   4.323   0.701  15.725  0.6520  2.7520 -0.1185
 9293SOL     OW39337   1.175   0.902  10.138  0.6186 -0.4102  0.0796
 9293SOL    HW139338   1.119   0.970  10.175  1.1717  1.5764 -2.8187
 9293SOL    HW239339   1.171   0.833  10.204  1.4282 -2.4815 -2.0144
 9294SOL     OW39340   0.407   2.224  11.429  0.5435 -0.5508  0.3800
 9294SOL    HW139341   0.355   2.223  11.509 -1.7002  2.9541 -1.0384
 9294SOL    HW239342   0.364   2.293  11.379 -3.1523 -2.4515  0.9854
 9295SOL     OW39343   1.609   4.340  14.313  0.8138 -0.2049  0.9900
 9295SOL    HW139344   1.594   4.434  14.302 -0.8903 -0.5847  0.0825
 9295SOL    HW239345   1.689   4.322  14.263  0.9369  1.9183  0.4305
 9296SOL     OW39346   1.480   4.249  17.561 -0.1621 -0.0994  0.1575
 9296SOL    HW139347   1.475   4.184  17.631  1.2064 -2.2418 -1.7378
 9296SOL    HW239348   1.431   4.200  17.495 -1.9026  1.9675 -0.0538
 9297SOL     OW39349   2.968   1.896   0.735 -0.0574 -0.5509  0.1929
 9297SOL    HW139350   3.053   1.852   0.735 -0.6083 -1.6239 -0.0015
 9297SOL    HW239351   2.928   1.850   0.661  0.4456 -0.3947 -0.1763
 9298SOL     OW39352   0.483   1.383   6.867  0.1949  0.7176  0.0028
 9298SOL    HW139353   0.511   1.293   6.854  0.9749  0.8217  1.0312
 9298SOL    HW239354   0.565   1.432   6.861  2.0378 -2.4160 -0.1445
 9299SOL     OW39355   1.931   0.427   1.433 -0.6973 -0.5578  0.0704
 9299SOL    HW139356   1.881   0.346   1.422 -0.9293 -0.2654 -0.9631
 9299SOL    HW239357   2.005   0.402   1.489  0.9336  0.7740 -1.4889
 9300SOL     OW39358   0.121   3.772   8.004  0.1530 -0.3891  0.1292
 9300SOL    HW139359   0.128   3.765   7.909  0.6815  1.0633  0.0604
 9300SOL    HW239360   0.191   3.713   8.032  0.1321 -0.7150 -0.5187
 9301SOL     OW39361   4.543   2.158  13.210 -0.0304  0.0396  0.5781
 9301SOL    HW139362   4.631   2.189  13.192 -0.3669 -0.5488 -2.0837
 9301SOL    HW239363   4.517   2.239  13.254 -1.3456 -0.9249  1.6092
 9302SOL     OW39364   3.463   1.836   4.495  0.1271  0.0787 -0.7918
 9302SOL    HW139365   3.543   1.827   4.444  1.5339 -1.6909  1.7127
 9302SOL    HW239366   3.434   1.745   4.496 -2.1713  0.8062 -1.0777
 9303SOL     OW39367   1.583   3.398  11.835  0.0949  0.1872 -0.1019
 9303SOL    HW139368   1.521   3.403  11.763  0.4631 -0.1186 -0.4412
 9303SOL    HW239369   1.540   3.443  11.908 -0.8940 -0.2622 -0.3985
 9304SOL     OW39370   4.361   0.256   0.412  0.3812  0.6145  0.4367
 9304SOL    HW139371   4.391   0.228   0.326 -1.2234 -0.8237  0.3674
 9304SOL    HW239372   4.357   0.175   0.462  1.3966  0.5721  0.4492
 9305SOL     OW39373   0.286   2.270  16.168 -0.4539  0.5225 -0.0872
 9305SOL    HW139374   0.294   2.347  16.224 -0.6054  0.5527 -0.1072
 9305SOL    HW239375   0.357   2.214  16.199 -0.4078  0.0617 -1.0141
 9306SOL     OW39376   0.284   3.015   4.009  0.2143  0.2043 -0.4483
 9306SOL    HW139377   0.368   3.023   4.054 -1.2788  0.0142  2.4073
 9306SOL    HW239378   0.290   2.922   3.984  1.2153 -0.0994  0.9309
 9307SOL     OW39379   0.590   3.405   9.110 -0.2415  0.7623 -0.3800
 9307SOL    HW139380   0.662   3.435   9.165  1.3035 -1.3213 -1.2680
 9307SOL    HW239381   0.545   3.359   9.181  0.1062 -0.2478 -0.8076
 9308SOL     OW39382   3.367   1.031   7.079  0.4758 -0.7961  1.0415
 9308SOL    HW139383   3.381   1.072   6.993  1.9249  0.6431  1.9599
 9308SOL    HW239384   3.332   1.111   7.117 -0.0778  0.7438 -2.7420
 9309SOL     OW39385   4.611   2.350   2.698  0.0869 -0.0625  0.0544
 9309SOL    HW139386   4.669   2.352   2.774 -1.5266  0.4160  1.2746
 9309SOL    HW239387   4.677   2.338   2.629  0.5249  2.6572 -0.0096
 9310SOL     OW39388   3.154   4.446   6.681 -0.5165  0.1813  0.3769
 9310SOL    HW139389   3.096   4.432   6.606 -0.1253  1.5016 -0.1649
 9310SOL    HW239390   3.113   4.390   6.747  1.1892 -0.3962  0.9585
 9311SOL     OW39391   3.014   1.143   5.407 -0.2539 -0.1842  0.0591
 9311SOL    HW139392   3.006   1.125   5.501  1.7003  1.4914  0.5360
 9311SOL    HW239393   3.067   1.221   5.420 -1.1335  0.4619 -0.1982
 9312SOL     OW39394   3.889   2.497  10.520 -0.3251 -0.2718 -0.1939
 9312SOL    HW139395   3.879   2.458  10.433  1.2897 -0.7502 -0.1647
 9312SOL    HW239396   3.984   2.498  10.526 -0.4322  0.6077  1.2314
 9313SOL     OW39397   2.740   4.164   2.169  0.0730 -0.2972  0.5027
 9313SOL    HW139398   2.674   4.143   2.103  1.6799 -0.9300 -0.8745
 9313SOL    HW239399   2.822   4.136   2.130  0.6111  0.1472  1.3020
 9314SOL     OW39400   0.847   1.509  15.646 -1.1049 -0.0527  0.0079
 9314SOL    HW139401   0.926   1.551  15.680  0.2075 -2.5711  0.0794
 9314SOL    HW239402   0.809   1.462  15.721 -1.5135  2.6682  1.4990
 9315SOL     OW39403   3.090   0.754   4.051 -0.3648 -0.7109 -0.1848
 9315SOL    HW139404   3.120   0.714   4.132 -0.1597 -0.7405 -0.2741
 9315SOL    HW239405   3.152   0.826   4.036 -3.7073  2.1261 -0.1914
 9316SOL     OW39406   3.120   3.597  11.839  0.2558 -0.8281 -0.1163
 9316SOL    HW139407   3.149   3.663  11.776 -0.1097 -0.1039  0.4675
 9316SOL    HW239408   3.127   3.651  11.918  0.1799 -2.0182  0.6956
 9317SOL     OW39409   0.519   0.941   3.953 -0.3964  0.2746  0.6703
 9317SOL    HW139410   0.542   0.921   4.044  0.2800 -1.1117  0.1835
 9317SOL    HW239411   0.468   0.864   3.929  1.1089 -0.6336  0.4460
 9318SOL     OW39412   4.245   2.927   4.372 -0.0757 -0.2943  0.7847
 9318SOL    HW139413   4.242   2.848   4.426 -1.2729  0.2555  1.5290
 9318SOL    HW239414   4.338   2.946   4.377 -0.0844 -0.3754  1.2275
 9319SOL     OW39415   3.892   2.100   9.210  0.4737 -0.2427 -0.5367
 9319SOL    HW139416   3.800   2.074   9.216  0.1730  0.9949  0.2960
 9319SOL    HW239417   3.893   2.155   9.132  2.3172  1.1195  0.4459
 9320SOL     OW39418   3.930   2.065   4.402  0.3198 -0.5987  0.3545
 9320SOL    HW139419   3.985   1.999   4.360 -0.7851 -1.2410 -0.0808
 9320SOL    HW239420   3.916   2.022   4.486 -2.3802 -0.4817 -0.0426
 9321SOL     OW39421   3.568   2.124   2.567 -0.2363  0.3538 -0.7926
 9321SOL    HW139422   3.555   2.041   2.614 -0.3442  1.5633  1.3355
 9321SOL    HW239423   3.660   2.110   2.547 -1.1033 -3.0037 -2.5875
 9322SOL     OW39424   4.079   4.426  12.721 -0.2712  0.1355  0.3999
 9322SOL    HW139425   4.063   4.468  12.806 -1.0904  1.7182 -0.5489
 9322SOL    HW239426   3.998   4.434  12.672 -0.5015 -1.1116  0.5852
 9323SOL     OW39427   0.267   2.321  10.734 -0.0771  0.1515  0.0905
 9323SOL    HW139428   0.249   2.251  10.797  0.3199  0.3900  0.4676
 9323SOL    HW239429   0.202   2.386  10.760 -0.4816  1.1408 -3.4006
 9324SOL     OW39430   1.115   2.591   4.754  0.1046  0.1951 -0.4671
 9324SOL    HW139431   1.068   2.508   4.752  1.1203 -0.3949  0.2215
 9324SOL    HW239432   1.205   2.559   4.749 -0.1166 -0.6758  0.9843
 9325SOL     OW39433   3.274   1.686   7.976 -1.1223 -0.1793 -0.6324
 9325SOL    HW139434   3.198   1.653   8.023 -0.5950 -1.8627 -0.9581
 9325SOL    HW239435   3.253   1.656   7.887 -0.4918  2.3475 -1.6583
 9326SOL     OW39436   4.630   1.794   2.636 -0.4022  0.2481 -0.1389
 9326SOL    HW139437   4.679   1.876   2.630 -2.0675  1.0195 -2.8525
 9326SOL    HW239438   4.549   1.811   2.588  0.2047 -0.5848 -1.4390
 9327SOL     OW39439   2.889   2.225  10.599  0.2840  0.2333 -0.0716
 9327SOL    HW139440   2.908   2.290  10.667  1.7128 -2.8846  2.5039
 9327SOL    HW239441   2.895   2.143  10.647  1.4168 -0.1752 -0.9144
 9328SOL     OW39442   0.491   1.010   6.372 -0.0124 -0.4524  0.1376
 9328SOL    HW139443   0.469   0.920   6.346  0.2279 -0.5978  0.4273
 9328SOL    HW239444   0.466   1.029   6.462 -0.2963 -0.5836  0.0843
 9329SOL     OW39445   4.668   0.904  14.962 -0.1795  0.0478  0.0300
 9329SOL    HW139446   0.015   0.872  15.019 -0.0278  0.7625  0.2463
 9329SOL    HW239447   4.629   0.969  15.019 -0.4595 -0.4123  0.3594
 9330SOL     OW39448   1.589   4.257   3.261 -0.1800 -0.5162 -0.0753
 9330SOL    HW139449   1.633   4.218   3.186 -1.4691  0.4989 -1.3655
 9330SOL    HW239450   1.519   4.302   3.214 -0.0411  0.4768  0.6552
 9331SOL     OW39451   1.387   4.650   7.956 -0.0840  0.7287 -0.0431
 9331SOL    HW139452   1.421   4.620   8.040 -2.1987  0.0733  0.5794
 9331SOL    HW239453   1.439   4.595   7.898  0.6862 -0.7720  2.0664
 9332SOL     OW39454   4.636   4.263   5.681  0.5107 -0.0799  0.1540
 9332SOL    HW139455   4.665   4.345   5.642 -0.9927  0.2162 -0.3527
 9332SOL    HW239456   4.642   4.209   5.602 -3.5145  0.8078 -0.7654
 9333SOL     OW39457   1.516   3.688  10.801  0.2083 -0.6218  0.3119
 9333SOL    HW139458   1.606   3.720  10.805 -0.4254  1.4791 -2.1791
 9333SOL    HW239459   1.526   3.612  10.743  0.0597 -1.6338  1.6130
 9334SOL     OW39460   2.454   3.552   2.507  0.2002 -0.2725  0.3537
 9334SOL    HW139461   2.393   3.569   2.435 -0.9721 -1.5959  1.0580
 9334SOL    HW239462   2.493   3.639   2.520 -0.8473  0.0617  1.2185
 9335SOL     OW39463   4.589   3.480   3.693  0.1702  0.1720  0.4258
 9335SOL    HW139464   4.500   3.480   3.730 -0.3837  1.1130 -0.8958
 9335SOL    HW239465   4.606   3.388   3.678 -0.0339  0.0508  0.9340
 9336SOL     OW39466   0.105   2.585   1.787  0.2112  0.2849 -0.5944
 9336SOL    HW139467   0.196   2.576   1.760  1.1938  1.1336  2.4666
 9336SOL    HW239468   0.048   2.531   1.732  0.2055 -0.2749 -0.0447
 9337SOL     OW39469   2.837   4.565  16.619 -0.2913 -0.0745 -1.0312
 9337SOL    HW139470   2.859   4.577  16.526  1.5337  0.9226 -0.4820
 9337SOL    HW239471   2.742   4.555  16.613 -0.3702 -1.6071  2.6429
 9338SOL     OW39472   4.415   3.121  16.480  0.0369  0.0556  0.3382
 9338SOL    HW139473   4.388   3.030  16.467 -1.2649  0.2261  1.7851
 9338SOL    HW239474   4.398   3.124  16.575  0.7686  0.2711  0.4625
 9339SOL     OW39475   0.960   4.227  12.460  0.2742  0.1592 -0.4990
 9339SOL    HW139476   0.992   4.302  12.510  0.4220  0.5202 -1.1356
 9339SOL    HW239477   0.894   4.266  12.403 -1.0125 -1.0240  0.1808
 9340SOL     OW39478   3.088   4.350   2.086 -0.4736 -0.6440  0.1734
 9340SOL    HW139479   3.140   4.285   2.133 -2.0939 -0.5294  2.1370
 9340SOL    HW239480   3.119   4.427   2.135  1.3693  0.0661 -2.1115
 9341SOL     OW39481   3.196   1.145   0.658 -1.3775  0.2573  0.2253
 9341SOL    HW139482   3.227   1.182   0.575 -1.3011  2.5192  1.2695
 9341SOL    HW239483   3.105   1.132   0.630 -0.3934  1.5096 -3.5391
 9342SOL     OW39484   2.258   1.660   4.661  0.0225  0.2061  0.5841
 9342SOL    HW139485   2.319   1.638   4.731 -0.4812 -0.9174  0.6680
 9342SOL    HW239486   2.233   1.576   4.622 -0.7680  1.1080 -0.8732
 9343SOL     OW39487   1.705   3.512   2.572 -0.3007  0.2729  0.0830
 9343SOL    HW139488   1.672   3.592   2.613  0.6709  0.7350 -0.0380
 9343SOL    HW239489   1.645   3.447   2.608 -2.3111  1.4497 -1.1322
 9344SOL     OW39490   0.680   1.123   3.862  1.1144  0.2680 -0.0147
 9344SOL    HW139491   0.615   1.056   3.885  0.2142  1.4557  0.8593
 9344SOL    HW239492   0.759   1.100   3.911  0.5426 -1.9220 -0.1103
 9345SOL     OW39493   0.873   3.535   8.829  0.4397 -0.3362  0.5302
 9345SOL    HW139494   0.911   3.447   8.829 -0.3627 -0.6892  0.7123
 9345SOL    HW239495   0.901   3.555   8.919  1.0259 -0.8182  0.4536
 9346SOL     OW39496   1.108   2.661   4.038  0.0474  0.2564  0.2861
 9346SOL    HW139497   1.036   2.608   4.071 -1.9271  1.9507 -1.3559
 9346SOL    HW239498   1.097   2.645   3.945  1.8784 -0.1443  0.1369
 9347SOL     OW39499   3.422   1.618   9.211 -0.1558 -0.8855 -0.7369
 9347SOL    HW139500   3.356   1.659   9.267  1.5266 -0.3484  0.8573
 9347SOL    HW239501   3.398   1.526   9.206  3.2649 -1.8717  0.5385
 9348SOL     OW39502   2.976   1.459   2.399 -0.1532  0.2640 -0.4027
 9348SOL    HW139503   3.027   1.397   2.348  1.0744 -0.6495  1.8980
 9348SOL    HW239504   2.939   1.399   2.464  1.5499 -1.3946 -0.9710
 9349SOL     OW39505   4.355   3.722   7.148 -0.0182  0.2328 -0.9240
 9349SOL    HW139506   4.380   3.630   7.164 -1.7059  0.0938  0.9479
 9349SOL    HW239507   4.438   3.769   7.141  0.4560  0.0863  3.4495
 9350SOL     OW39508   0.823   3.777   2.798 -0.0243  0.1688  0.2147
 9350SOL    HW139509   0.819   3.801   2.890  1.0782  0.4992  0.1751
 9350SOL    HW239510   0.900   3.720   2.791 -0.1816  0.3206 -2.7007
 9351SOL     OW39511   0.694   4.453   9.693  0.4772  0.0694  0.6702
 9351SOL    HW139512   0.685   4.545   9.720 -3.4463 -0.5474  1.5532
 9351SOL    HW239513   0.786   4.432   9.708  0.8206  0.3999 -0.9585
 9352SOL     OW39514   3.727   0.629   6.131 -0.2128  0.3234 -0.3486
 9352SOL    HW139515   3.687   0.621   6.217  0.0828  0.4022 -0.2038
 9352SOL    HW239516   3.810   0.675   6.144  0.2460 -0.4487 -0.4930
 9353SOL     OW39517   1.646   0.623   4.397 -0.2166  0.0685 -0.2449
 9353SOL    HW139518   1.701   0.694   4.430  0.5466 -1.3355  1.5644
 9353SOL    HW239519   1.711   0.570   4.351  0.1241  0.9357 -0.7496
 9354SOL     OW39520   2.536   0.182   0.257 -0.1319  0.1729 -0.6205
 9354SOL    HW139521   2.448   0.218   0.260 -0.0812  0.3403 -1.1318
 9354SOL    HW239522   2.586   0.250   0.302  0.2113  0.3813 -1.3089
 9355SOL     OW39523   2.495   2.186   5.292 -0.2226 -0.7281 -0.0604
 9355SOL    HW139524   2.460   2.192   5.204 -0.9966 -3.6769  0.0630
 9355SOL    HW239525   2.501   2.280   5.311 -0.0857 -0.1257 -3.1407
 9356SOL     OW39526   1.666   2.180   6.445 -0.3082  0.5840  0.4185
 9356SOL    HW139527   1.734   2.240   6.415  0.3051 -0.1815  0.2811
 9356SOL    HW239528   1.716   2.098   6.441 -1.3216  0.1498 -4.0525
 9357SOL     OW39529   4.583   3.459   6.093 -0.0089 -0.5542  0.6741
 9357SOL    HW139530   4.527   3.453   6.169  1.8704  0.2684  2.1245
 9357SOL    HW239531   4.578   3.555   6.083 -2.1783 -0.8498 -1.1863
 9358SOL     OW39532   1.727   0.774   6.110  0.2510  0.2129 -0.1352
 9358SOL    HW139533   1.764   0.771   6.199 -1.2966  0.7440  0.5237
 9358SOL    HW239534   1.809   0.773   6.061  0.3254  1.7669 -0.0484
 9359SOL     OW39535   4.028   3.305   1.697  0.2523 -0.1634 -0.2070
 9359SOL    HW139536   4.086   3.238   1.661 -0.7068  0.1143 -2.2517
 9359SOL    HW239537   3.970   3.323   1.623  0.3150 -0.4859 -0.3334
 9360SOL     OW39538   2.937   1.967   2.245 -0.1374  0.0773 -0.5718
 9360SOL    HW139539   2.851   1.925   2.240  1.2119 -2.6523 -0.5454
 9360SOL    HW239540   2.922   2.050   2.291  0.8111 -0.6978  1.1375
 9361SOL     OW39541   4.136   0.013   2.899  0.3974  0.3225  0.4440
 9361SOL    HW139542   4.078   0.042   2.969  1.3743 -0.0983  1.4220
 9361SOL    HW239543   4.153   0.091   2.846 -1.2529 -0.7490 -1.6762
 9362SOL     OW39544   3.529   2.087   3.524 -0.0319 -0.2516 -0.0113
 9362SOL    HW139545   3.482   2.083   3.607 -0.1657 -2.5308 -0.1955
 9362SOL    HW239546   3.482   2.147   3.465  0.0613 -2.7443 -2.6278
 9363SOL     OW39547   2.494   1.205   1.469  0.0841  0.4055  1.1183
 9363SOL    HW139548   2.500   1.301   1.463  1.2247  0.3961  2.0991
 9363SOL    HW239549   2.408   1.200   1.510 -0.4451 -1.0360 -0.1615
 9364SOL     OW39550   1.771   1.203   6.124 -1.1044 -0.4042 -0.8596
 9364SOL    HW139551   1.840   1.204   6.057  0.3117 -0.4698  0.6015
 9364SOL    HW239552   1.728   1.286   6.103  1.6518  1.3614  0.4494
 9365SOL     OW39553   4.433   4.440  12.718  0.7135  0.3027 -0.1691
 9365SOL    HW139554   4.501   4.492  12.676  1.0613  0.3292  0.4341
 9365SOL    HW239555   4.434   4.491  12.799  0.6366  2.3418 -1.4499
 9366SOL     OW39556   2.647   3.006   1.426 -0.0356  0.3882  0.6694
 9366SOL    HW139557   2.572   3.028   1.480 -1.2257 -1.2063 -0.3359
 9366SOL    HW239558   2.720   3.036   1.481  0.0303  3.1603 -0.9029
 9367SOL     OW39559   4.526   3.461   1.054  0.0534 -0.3702  0.1885
 9367SOL    HW139560   4.433   3.477   1.036  0.3784  1.6976  0.4035
 9367SOL    HW239561   4.545   3.408   0.976  1.1753 -1.2554  1.0680
 9368SOL     OW39562   1.394   2.078   7.076  0.4493 -0.3585 -0.2749
 9368SOL    HW139563   1.327   2.029   7.125  1.9344  0.6163  2.7462
 9368SOL    HW239564   1.457   2.098   7.146 -1.1584  0.9209  0.8256
 9369SOL     OW39565   4.344   2.507  15.020 -0.1231  0.9594 -0.1727
 9369SOL    HW139566   4.373   2.416  15.013 -1.5694  0.3666  1.4827
 9369SOL    HW239567   4.314   2.514  15.111 -1.6185 -0.5507 -0.5545
 9370SOL     OW39568   1.165   3.648  13.732 -1.0891  0.4395 -0.3095
 9370SOL    HW139569   1.126   3.730  13.700  0.2095  0.1387 -2.6703
 9370SOL    HW239570   1.244   3.636  13.679 -2.5216 -3.0570 -1.6538
 9371SOL     OW39571   0.719   2.193   9.595 -0.2313 -0.3395  0.3399
 9371SOL    HW139572   0.741   2.230   9.681  2.0031  0.4452 -0.5756
 9371SOL    HW239573   0.768   2.250   9.536  1.0940  0.4053  2.1483
 9372SOL     OW39574   2.746   0.704  13.489  0.2867  0.5030  0.5088
 9372SOL    HW139575   2.818   0.653  13.526  0.0820  1.0055  1.5976
 9372SOL    HW239576   2.677   0.683  13.551 -0.4190  0.3665 -0.3165
 9373SOL     OW39577   1.841   1.680   7.096  0.4058 -0.5671 -0.3088
 9373SOL    HW139578   1.890   1.758   7.069 -0.4551  0.6186  1.5235
 9373SOL    HW239579   1.764   1.712   7.144  1.2616 -2.6642  2.4788
 9374SOL     OW39580   0.877   0.841   7.882  0.2836  0.3016 -0.1580
 9374SOL    HW139581   0.950   0.900   7.863  0.6516 -0.5180 -1.3316
 9374SOL    HW239582   0.899   0.767   7.825  0.2906  0.1594  0.0316
 9375SOL     OW39583   0.020   2.744   5.932  0.1990 -0.2703 -0.1751
 9375SOL    HW139584   4.685   2.725   6.005 -0.3344  0.3812 -0.4329
 9375SOL    HW239585   0.109   2.741   5.968  0.8436 -1.3393 -1.8325
 9376SOL     OW39586   0.597   2.916  17.144 -0.5130 -0.0309  0.6667
 9376SOL    HW139587   0.614   2.989  17.203  2.0968 -0.9291  0.9872
 9376SOL    HW239588   0.504   2.932  17.127 -0.2600  1.1342  0.3759
 9377SOL     OW39589   3.361   2.860   6.880 -0.7024  0.3765  0.0586
 9377SOL    HW139590   3.447   2.902   6.889 -1.9817  3.2627 -1.1361
 9377SOL    HW239591   3.353   2.831   6.790  2.3904  1.1448 -0.4700
 9378SOL     OW39592   4.390   0.160   8.942  0.9020  0.0351 -0.4616
 9378SOL    HW139593   4.407   0.160   8.848 -1.5058  1.1347 -0.8847
 9378SOL    HW239594   4.451   0.226   8.976 -1.4449  1.3010  1.3175
 9379SOL     OW39595   0.822   1.877  15.540  0.2092  0.0319  0.5456
 9379SOL    HW139596   0.745   1.911  15.494  0.8044  0.1528 -0.3584
 9379SOL    HW239597   0.862   1.822  15.472 -0.9970 -0.6623  0.4030
 9380SOL     OW39598   1.268   0.552   0.951 -0.2028 -0.7120 -0.6423
 9380SOL    HW139599   1.337   0.503   0.995 -0.8030 -1.5640 -0.6416
 9380SOL    HW239600   1.217   0.482   0.910 -1.3714 -0.5226  0.4810
 9381SOL     OW39601   1.407   1.150  14.483  0.0168 -0.5045 -0.6461
 9381SOL    HW139602   1.365   1.202  14.414 -0.8023  1.5378  1.3592
 9381SOL    HW239603   1.453   1.225  14.521 -0.9137 -0.0088 -0.4965
 9382SOL     OW39604   2.017   2.630   2.370  0.4281  0.3571 -0.0146
 9382SOL    HW139605   2.059   2.662   2.450 -0.8671  1.1771  0.3344
 9382SOL    HW239606   2.027   2.702   2.308 -0.0377  0.2559 -0.2073
 9383SOL     OW39607   3.516   2.219   6.428  0.0508  0.7009  0.1090
 9383SOL    HW139608   3.600   2.186   6.395  0.5506  1.7981  0.3178
 9383SOL    HW239609   3.522   2.199   6.521 -1.3945 -0.1481  0.0245
 9384SOL     OW39610   1.458   3.325  15.750  0.3547  0.3700  0.0657
 9384SOL    HW139611   1.520   3.359  15.685  1.5210 -0.1348  0.9151
 9384SOL    HW239612   1.446   3.402  15.807 -0.1893 -0.8978  1.6473
 9385SOL     OW39613   2.206   0.549   6.048  0.2930  0.3363  0.2471
 9385SOL    HW139614   2.181   0.478   5.989  0.7598 -0.5725  1.1435
 9385SOL    HW239615   2.301   0.545   6.055  0.5293 -0.8229 -3.3961
 9386SOL     OW39616   3.988   4.492   3.115 -0.3292 -0.4411 -0.3481
 9386SOL    HW139617   4.031   4.469   3.032  0.5087  2.3728 -0.7067
 9386SOL    HW239618   3.949   4.579   3.110 -1.2456 -0.7875  0.9337
 9387SOL     OW39619   2.360   0.552   4.797  0.1793 -0.1154 -0.3464
 9387SOL    HW139620   2.453   0.560   4.814 -0.2560  1.6016  1.1819
 9387SOL    HW239621   2.331   0.496   4.869 -0.9936  0.0913 -0.6453
 9388SOL     OW39622   4.638   4.178  11.603  0.1630 -0.6921  0.1878
 9388SOL    HW139623   4.634   4.083  11.592 -2.2675 -0.6132  0.4219
 9388SOL    HW239624   4.596   4.206  11.522 -0.7132 -1.5553  0.3410
 9389SOL     OW39625   2.322   2.903  11.277 -0.0283 -0.5790 -0.0545
 9389SOL    HW139626   2.268   2.882  11.200  0.2660  4.0486 -1.5396
 9389SOL    HW239627   2.271   2.975  11.315 -2.0353 -0.1186 -3.5524
 9390SOL     OW39628   3.472   0.499   2.313  0.0892 -0.0401 -0.4425
 9390SOL    HW139629   3.545   0.459   2.358 -0.5985 -1.9919 -1.0626
 9390SOL    HW239630   3.424   0.559   2.370 -0.5051 -1.6433  0.7423
 9391SOL     OW39631   4.212   3.741  14.217 -0.4501  0.1865  0.2966
 9391SOL    HW139632   4.167   3.660  14.191  0.9354 -0.7547  0.8509
 9391SOL    HW239633   4.269   3.762  14.143 -1.9658 -1.0902 -1.2467
 9392SOL     OW39634   1.690   2.893  15.304  0.4283 -0.5903  0.2733
 9392SOL    HW139635   1.757   2.924  15.364 -0.0528  2.5033 -0.7638
 9392SOL    HW239636   1.654   2.810  15.336 -1.0411 -0.3758 -0.8121
 9393SOL     OW39637   1.540   3.768  14.274 -0.4147 -0.2802  0.2005
 9393SOL    HW139638   1.463   3.713  14.259 -0.0440 -1.1528  1.5585
 9393SOL    HW239639   1.512   3.791  14.362  1.8471  0.6069  0.6800
 9394SOL     OW39640   3.354   2.730  12.511 -0.2021 -0.0542 -0.0980
 9394SOL    HW139641   3.378   2.823  12.506 -2.0424  0.5398  1.8406
 9394SOL    HW239642   3.438   2.689  12.493  0.2558  0.9337 -0.2156
 9395SOL     OW39643   0.713   4.342  15.194 -0.1536 -0.0281  0.3074
 9395SOL    HW139644   0.757   4.311  15.272  0.0104 -2.2149 -0.6437
 9395SOL    HW239645   0.770   4.414  15.168 -1.4980  0.6902 -0.6693
 9396SOL     OW39646   1.758   0.601   2.532 -0.3607 -1.0817 -0.5727
 9396SOL    HW139647   1.674   0.583   2.574 -0.2587  1.8525  0.8879
 9396SOL    HW239648   1.755   0.697   2.530  1.7837 -0.9482  1.1004
 9397SOL     OW39649   1.426   1.422  10.569  0.5229  0.1513  0.0590
 9397SOL    HW139650   1.395   1.499  10.521  3.5618  1.5959  0.4515
 9397SOL    HW239651   1.364   1.355  10.539  1.3016 -0.9187  0.8084
 9398SOL     OW39652   3.087   3.998   5.394 -0.3827  0.3335 -0.3282
 9398SOL    HW139653   3.102   3.982   5.300 -0.0787  0.4447 -0.2980
 9398SOL    HW239654   3.068   4.092   5.399  2.8516  1.0636 -1.8333
 9399SOL     OW39655   2.144   1.847  13.991  0.0152 -0.0075  0.6558
 9399SOL    HW139656   2.138   1.938  13.962 -0.0263  0.2096  1.3540
 9399SOL    HW239657   2.051   1.823  13.991 -0.2945  1.2058  0.9149
 9400SOL     OW39658   1.620   4.475  11.787  0.2637 -0.0260  0.5711
 9400SOL    HW139659   1.551   4.412  11.763 -0.2194  1.4642 -2.0190
 9400SOL    HW239660   1.600   4.495  11.878 -0.3182  1.1552  0.1853
 9401SOL     OW39661   3.266   2.169   0.720  0.7606  0.1764 -0.2951
 9401SOL    HW139662   3.319   2.112   0.776 -0.2971 -0.6542 -0.1516
 9401SOL    HW239663   3.253   2.251   0.768 -0.0340  0.0144 -0.2339
 9402SOL     OW39664   0.174   2.060  10.828  0.4657  0.1219 -0.6977
 9402SOL    HW139665   0.147   1.985  10.774  0.4502  0.2040 -0.8029
 9402SOL    HW239666   0.260   2.018  10.839 -0.1574 -1.0179 -0.1594
 9403SOL     OW39667   2.113   1.951   1.259  0.2548  0.4434 -0.7866
 9403SOL    HW139668   2.167   1.897   1.316  0.6121  1.7203  0.0785
 9403SOL    HW239669   2.024   1.917   1.269  0.0971  0.0949 -3.2036
 9404SOL     OW39670   2.488   1.892   4.421  0.5428  0.3505 -0.0310
 9404SOL    HW139671   2.577   1.857   4.425 -0.2218 -1.6854 -0.8196
 9404SOL    HW239672   2.483   1.939   4.338 -0.8623 -0.7487 -0.5573
 9405SOL     OW39673   0.566   2.789   3.784 -0.0910  0.6240  0.7358
 9405SOL    HW139674   0.574   2.704   3.739 -2.0767  0.2931  0.9748
 9405SOL    HW239675   0.653   2.828   3.785 -0.4475  1.4412 -0.2505
 9406SOL     OW39676   4.634   1.976  16.012  0.2838 -0.7168  1.0477
 9406SOL    HW139677   4.663   2.064  15.989  3.6491 -1.1696  3.6255
 9406SOL    HW239678   4.703   1.922  15.972  0.0962 -0.1741 -0.0169
 9407SOL     OW39679   2.582   0.991   6.094 -0.1639 -0.3736  0.3261
 9407SOL    HW139680   2.659   0.954   6.051 -0.3985 -1.6369  0.9744
 9407SOL    HW239681   2.519   0.974   6.024  0.7183  1.8420 -0.9696
 9408SOL     OW39682   2.492   2.159  16.692 -0.6654  0.1949  0.6725
 9408SOL    HW139683   2.448   2.127  16.613 -2.5071  2.2867  0.8640
 9408SOL    HW239684   2.443   2.239  16.709 -0.2625  0.4900  0.4291
 9409SOL     OW39685   1.495   3.351   9.204 -0.2065 -0.3757  0.1631
 9409SOL    HW139686   1.493   3.314   9.292 -0.1786 -0.0409  0.3069
 9409SOL    HW239687   1.466   3.441   9.223 -1.2728 -0.4034 -1.3345
 9410SOL     OW39688   0.816   4.517   6.365 -0.1853  0.3199 -0.3939
 9410SOL    HW139689   0.880   4.564   6.311  0.4671  1.0612  1.0406
 9410SOL    HW239690   0.758   4.486   6.295  1.4779  0.5428 -1.8815
 9411SOL     OW39691   3.911   0.324   6.804  0.3674  0.5589 -0.1145
 9411SOL    HW139692   3.981   0.383   6.775  1.3086  0.0363  1.0730
 9411SOL    HW239693   3.956   0.241   6.791  2.9032  1.7024  1.2609
 9412SOL     OW39694   2.596   3.773   9.817  0.4055 -0.3636 -0.2290
 9412SOL    HW139695   2.540   3.717   9.871 -1.5486  2.9111  1.1498
 9412SOL    HW239696   2.640   3.810   9.894 -2.3150  3.1279 -0.3136
 9413SOL     OW39697   1.332   2.607   4.208  0.4393 -0.0423  0.1617
 9413SOL    HW139698   1.354   2.692   4.247  0.2995  0.4437 -0.8062
 9413SOL    HW239699   1.263   2.628   4.145 -1.5745 -2.4404  1.5751
 9414SOL     OW39700   2.019   1.855  13.707 -0.7204  0.0696 -0.0844
 9414SOL    HW139701   2.100   1.809  13.683  0.4368  1.1882  1.6394
 9414SOL    HW239702   2.050   1.945  13.717 -0.5422 -0.2053  1.8603
 9415SOL     OW39703   1.543   3.126   6.642  0.2232 -0.5123  0.3129
 9415SOL    HW139704   1.525   3.046   6.692 -0.5963 -0.9405 -0.6414
 9415SOL    HW239705   1.630   3.140   6.678  0.4169 -2.4446  0.6321
 9416SOL     OW39706   1.212   4.643   1.275 -0.0477 -0.2258  0.3404
 9416SOL    HW139707   1.195   4.719   1.219 -0.8566 -1.2365 -0.7787
 9416SOL    HW239708   1.151   4.656   1.348  1.0452  1.4704  0.9378
 9417SOL     OW39709   2.237   1.660   8.561 -0.0473  0.1599  0.3151
 9417SOL    HW139710   2.198   1.630   8.643 -2.5892  0.1622 -0.8889
 9417SOL    HW239711   2.316   1.605   8.563  0.0318  0.2502 -0.2460
 9418SOL     OW39712   0.952   2.389  14.562 -0.4138 -0.0340 -0.7951
 9418SOL    HW139713   0.995   2.348  14.637 -0.0661 -1.7621 -1.9366
 9418SOL    HW239714   1.023   2.397  14.499  1.5080  0.9912  1.5137
 9419SOL     OW39715   2.717   3.531   3.050 -0.3144  0.4813 -0.4187
 9419SOL    HW139716   2.777   3.544   2.976  1.0771  1.6090  0.9059
 9419SOL    HW239717   2.742   3.607   3.102 -1.9145  1.4101 -1.0272
 9420SOL     OW39718   1.070   3.928   2.891  0.0548  0.7512  0.2642
 9420SOL    HW139719   1.055   4.007   2.839  2.0670 -0.4853 -2.1338
 9420SOL    HW239720   1.143   3.883   2.849 -1.2093 -1.7556  0.7774
 9421SOL     OW39721   3.815   3.096   8.294  0.5144 -0.0153 -0.7343
 9421SOL    HW139722   3.758   3.049   8.233 -1.4059  0.7490  0.4959
 9421SOL    HW239723   3.861   3.019   8.329 -2.1272 -1.1992  0.0668
 9422SOL     OW39724   2.758   4.288   3.267 -0.4133 -0.0163  0.1389
 9422SOL    HW139725   2.819   4.359   3.246 -0.3521  0.2448  1.1774
 9422SOL    HW239726   2.747   4.237   3.187  1.6307 -0.4720  0.1397
 9423SOL     OW39727   1.939   2.086   2.028  0.1118 -0.0019 -0.4065
 9423SOL    HW139728   1.864   2.146   2.023  0.0023 -0.1208 -0.1827
 9423SOL    HW239729   1.914   2.022   1.961 -0.6092  1.2163 -1.3073
 9424SOL     OW39730   1.182   2.135   0.733  0.0862 -0.6940 -0.2012
 9424SOL    HW139731   1.261   2.125   0.785 -0.5575  0.1311  0.9151
 9424SOL    HW239732   1.217   2.207   0.681 -3.3474  1.9648  1.1262
 9425SOL     OW39733   4.340   2.547  11.391  0.4315  0.3991 -0.2569
 9425SOL    HW139734   4.369   2.601  11.465 -2.3084  1.9397 -0.3254
 9425SOL    HW239735   4.248   2.524  11.407  0.3861  0.4970 -0.3797
 9426SOL     OW39736   2.600   0.758   5.856 -0.4288 -0.3358  0.3479
 9426SOL    HW139737   2.592   0.676   5.904  0.0191 -0.6749 -0.1575
 9426SOL    HW239738   2.584   0.729   5.766 -2.3181  0.2729  0.4798
 9427SOL     OW39739   2.850   4.368   9.574 -0.3160  0.4038  0.2354
 9427SOL    HW139740   2.870   4.422   9.497 -1.5997 -0.1449 -0.4845
 9427SOL    HW239741   2.936   4.339   9.603 -0.1714  1.6132  1.0173
 9428SOL     OW39742   2.667   0.927   4.377  0.2327  0.2556  0.2553
 9428SOL    HW139743   2.687   0.835   4.392  1.5198  0.9070  2.4361
 9428SOL    HW239744   2.757   0.959   4.369  0.7717 -1.2392  0.3320
 9429SOL     OW39745   3.076   2.202   7.421 -0.3611 -0.0057 -0.3402
 9429SOL    HW139746   3.046   2.284   7.459  0.1954  0.3780 -0.7352
 9429SOL    HW239747   3.073   2.141   7.494  0.9902 -0.5633 -0.7384
 9430SOL     OW39748   1.099   4.651   2.199 -0.1531  0.2249 -0.1583
 9430SOL    HW139749   1.148   4.619   2.123  1.7563  2.7639  0.0310
 9430SOL    HW239750   1.008   4.655   2.169  0.2963 -0.5384 -1.6638
 9431SOL     OW39751   3.365   2.073   6.938 -0.0639 -0.2678  0.4621
 9431SOL    HW139752   3.282   2.092   6.981  0.1952  0.5444  0.6028
 9431SOL    HW239753   3.375   1.978   6.951 -1.1616 -0.3669  0.5521
 9432SOL     OW39754   2.120   1.933   2.158  0.1641 -0.2625 -0.2646
 9432SOL    HW139755   2.058   1.995   2.119  0.7388  0.6406  0.2387
 9432SOL    HW239756   2.070   1.914   2.238  0.5449  2.5096  0.6360
 9433SOL     OW39757   3.855   1.663   8.549  0.2967 -0.0028 -0.2953
 9433SOL    HW139758   3.842   1.570   8.530  0.5730 -0.3962  1.4431
 9433SOL    HW239759   3.948   1.679   8.530  0.1245 -0.3573 -1.4495
 9434SOL     OW39760   2.911   0.238  11.664  0.0524  0.4081 -0.1784
 9434SOL    HW139761   2.886   0.329  11.682  1.8436  1.1845 -1.5631
 9434SOL    HW239762   2.843   0.205  11.722 -0.8973  0.3445 -1.3238
 9435SOL     OW39763   3.192   1.629  11.603 -0.0658  0.2383 -0.4758
 9435SOL    HW139764   3.136   1.584  11.540 -0.2827 -1.0771  0.6362
 9435SOL    HW239765   3.140   1.704  11.631  0.6641  1.4919 -2.5016
 9436SOL     OW39766   4.627   2.779   6.771  0.4970  0.3029 -0.5853
 9436SOL    HW139767   4.647   2.858   6.722  1.1522  0.2225 -0.4575
 9436SOL    HW239768   4.709   2.732   6.754  0.6739 -0.3104  1.8761
 9437SOL     OW39769   3.641   1.579  11.837  0.5746 -0.2140 -0.4671
 9437SOL    HW139770   3.563   1.573  11.783  1.8439  2.9817 -2.6546
 9437SOL    HW239771   3.668   1.665  11.805  3.4183 -0.9423 -0.0698
 9438SOL     OW39772   1.500   2.810   5.061  0.2416 -0.4384 -0.2899
 9438SOL    HW139773   1.554   2.869   5.113 -0.3499  0.5026 -0.7359
 9438SOL    HW239774   1.464   2.877   5.003  1.8080  0.3122 -0.3894
 9439SOL     OW39775   2.133   2.356   8.148 -0.5146  0.0238 -0.1299
 9439SOL    HW139776   2.104   2.340   8.238 -1.5531 -0.0242 -0.4730
 9439SOL    HW239777   2.069   2.423   8.122  1.0528  0.8574 -1.8081
 9440SOL     OW39778   3.129   3.752   7.539  0.1991 -0.2082 -0.5423
 9440SOL    HW139779   3.186   3.680   7.565  0.9833 -0.3836 -2.7476
 9440SOL    HW239780   3.103   3.731   7.449 -1.1385 -2.0005  0.2473
 9441SOL     OW39781   1.171   4.282   0.376  0.2053  0.3737  0.5309
 9441SOL    HW139782   1.086   4.281   0.332 -0.0561  2.9956  0.9627
 9441SOL    HW239783   1.224   4.343   0.324 -1.0580 -0.0410 -1.2487
 9442SOL     OW39784   0.948   2.014  17.396  0.7401  0.3498 -0.1995
 9442SOL    HW139785   1.023   2.073  17.395  1.2009 -0.3095 -3.1372
 9442SOL    HW239786   0.971   1.969  17.478 -0.0017 -0.1553 -0.2643
 9443SOL     OW39787   2.594   4.128  10.406 -0.0047  0.9391 -0.0174
 9443SOL    HW139788   2.550   4.055  10.362  3.4623  0.7524 -3.1559
 9443SOL    HW239789   2.675   4.086  10.433  0.1815  0.1703 -1.7370
 9444SOL     OW39790   4.701   2.665   2.565 -0.5977 -0.1184  0.0781
 9444SOL    HW139791   0.024   2.611   2.631  0.5096  1.2282  0.4040
 9444SOL    HW239792   0.010   2.754   2.577  2.1409 -1.4333  2.6593
 9445SOL     OW39793   3.345   4.414   2.453 -0.0767 -1.0406  0.6927
 9445SOL    HW139794   3.357   4.504   2.422  0.3117 -1.5600 -0.6593
 9445SOL    HW239795   3.270   4.392   2.399 -1.3877  0.1699  2.0331
 9446SOL     OW39796   1.256   3.893   6.296 -0.2603  0.0418 -1.0064
 9446SOL    HW139797   1.187   3.828   6.314  1.7350 -1.6113  0.6643
 9446SOL    HW239798   1.335   3.841   6.310  0.2782  0.4595 -2.5449
 9447SOL     OW39799   1.035   3.651   7.861 -0.5466 -0.1962 -0.0752
 9447SOL    HW139800   1.063   3.704   7.935  3.9611  2.1502 -3.4352
 9447SOL    HW239801   1.060   3.569   7.903 -0.1282  0.3951  0.8317
 9448SOL     OW39802   0.416   3.258  14.656 -0.3743 -0.1729  0.6512
 9448SOL    HW139803   0.383   3.261  14.746 -0.4782 -1.1273  0.6396
 9448SOL    HW239804   0.481   3.327  14.668  0.1612 -0.5452 -0.0878
 9449SOL     OW39805   3.065   0.789  13.479 -0.0788  0.3547 -0.5153
 9449SOL    HW139806   3.127   0.804  13.550  1.5682  0.5103 -1.9958
 9449SOL    HW239807   3.006   0.863  13.497  0.2129  0.5330 -0.2924
 9450SOL     OW39808   2.287   0.070   7.667  0.4526  0.0229 -0.2197
 9450SOL    HW139809   2.314   4.710   7.629  0.8145  0.5356 -1.0908
 9450SOL    HW239810   2.252   0.115   7.590 -2.0313 -1.0241  0.2942
 9451SOL     OW39811   0.172   1.747   7.308 -0.1963  0.0214 -0.0598
 9451SOL    HW139812   0.116   1.714   7.239 -1.5493  1.7407  0.2101
 9451SOL    HW239813   0.233   1.677   7.332 -2.1521 -0.8578  2.3283
 9452SOL     OW39814   3.694   4.117  11.089  0.1864  0.1870  0.1122
 9452SOL    HW139815   3.731   4.111  11.001 -0.6299  0.5562 -0.2637
 9452SOL    HW239816   3.763   4.167  11.134  0.7686 -0.5566  0.0269
 9453SOL     OW39817   1.369   2.723   9.002 -0.2460  0.8396  0.1922
 9453SOL    HW139818   1.440   2.778   9.035 -0.1219  0.2885  0.8485
 9453SOL    HW239819   1.310   2.714   9.077 -0.2621  1.6028  0.2733
 9454SOL     OW39820   4.126   1.682  10.980  0.7534  0.2037 -0.0682
 9454SOL    HW139821   4.044   1.725  11.003  0.7797  0.3318 -0.2139
 9454SOL    HW239822   4.126   1.621  11.054 -1.2068  1.1520  0.6981
 9455SOL     OW39823   4.016   0.475  16.137  0.0719 -0.3253 -0.5029
 9455SOL    HW139824   4.031   0.568  16.123  0.0479 -0.3071 -0.4083
 9455SOL    HW239825   3.925   0.461  16.162 -0.3410  1.0977 -1.2246
 9456SOL     OW39826   4.670   2.995  10.690 -0.0172  0.1723  0.1963
 9456SOL    HW139827   4.649   3.089  10.694 -1.4342 -0.2749  3.0003
 9456SOL    HW239828   0.041   3.014  10.693  0.6751 -3.3722  0.6058
 9457SOL     OW39829   3.076   0.527  13.577  0.0166 -0.2178 -0.1811
 9457SOL    HW139830   3.054   0.614  13.542  1.2029 -0.5498 -1.7361
 9457SOL    HW239831   3.062   0.537  13.671  0.5361 -3.2521  0.2067
 9458SOL     OW39832   3.165   3.896   7.751  0.8358 -0.1366  0.4870
 9458SOL    HW139833   3.234   3.947   7.708  2.6590 -1.1780  2.1834
 9458SOL    HW239834   3.131   3.842   7.680 -0.5254  1.2733  0.0820
 9459SOL     OW39835   0.096   0.531   8.565  0.4651 -0.0189 -0.3603
 9459SOL    HW139836   0.126   0.622   8.571 -0.0816  0.1382 -0.0132
 9459SOL    HW239837   0.141   0.497   8.488 -2.2900  0.8102 -2.3142
 9460SOL     OW39838   2.626   0.525   6.913  0.5734 -0.3690  0.1733
 9460SOL    HW139839   2.617   0.498   6.822  0.0354 -0.4917  0.2642
 9460SOL    HW239840   2.533   0.525   6.937  0.0315 -1.5096 -1.9112
 9461SOL     OW39841   0.517   3.748   4.593  0.3377 -0.2473  0.5846
 9461SOL    HW139842   0.497   3.837   4.562 -0.0815 -0.6755 -0.3729
 9461SOL    HW239843   0.432   3.707   4.608  0.2191 -0.5404 -0.9343
 9462SOL     OW39844   0.770   2.489  11.054  0.8765 -0.5342  0.3294
 9462SOL    HW139845   0.678   2.478  11.082  1.1698 -3.1918  0.2554
 9462SOL    HW239846   0.756   2.445  10.970 -1.0109  0.7287 -0.0212
 9463SOL     OW39847   0.701   1.201   3.553  0.0610 -0.4409 -0.1969
 9463SOL    HW139848   0.788   1.170   3.525  0.0636  0.1085 -0.7973
 9463SOL    HW239849   0.652   1.126   3.586 -0.4146  0.0393  0.1895
 9464SOL     OW39850   0.820   4.063   8.960  0.1942  0.0082 -0.7068
 9464SOL    HW139851   0.883   4.060   9.033  0.4064 -0.1550 -0.8974
 9464SOL    HW239852   0.750   4.116   8.999 -0.7193 -2.6759  1.2766
 9465SOL     OW39853   4.588   0.906   6.063 -0.6269  0.1315  0.2870
 9465SOL    HW139854   4.674   0.875   6.034 -0.3365  1.0470  0.1578
 9465SOL    HW239855   4.525   0.865   6.004  0.3736 -0.9005 -0.0578
 9466SOL     OW39856   2.822   0.244  17.606  0.3559 -0.0670  0.4174
 9466SOL    HW139857   2.788   0.314  17.661  2.2287 -0.0828  1.5803
 9466SOL    HW239858   2.759   0.175  17.628  1.5429 -1.5805 -0.8802
 9467SOL     OW39859   4.630   2.784  13.606  0.2362  0.3082 -0.5129
 9467SOL    HW139860   0.003   2.781  13.615  0.3182 -0.2901 -1.6704
 9467SOL    HW239861   4.618   2.857  13.668  2.2479  1.4075 -1.4394
 9468SOL     OW39862   4.113   0.514   3.351 -0.0755 -0.9254  0.3027
 9468SOL    HW139863   4.184   0.484   3.407  0.2752 -0.0132  0.3486
 9468SOL    HW239864   4.046   0.491   3.415  0.1980  0.5882  1.1370
 9469SOL     OW39865   1.841   4.639   1.577  0.2882  0.3570  0.5592
 9469SOL    HW139866   1.852   4.556   1.531  0.3040  1.1032 -0.7907
 9469SOL    HW239867   1.756   4.627   1.619  0.8164  1.5306  1.9902
 9470SOL     OW39868   1.747   2.016   3.469 -0.0924  0.2325 -0.3121
 9470SOL    HW139869   1.818   2.072   3.499  0.4695 -1.5575  1.6801
 9470SOL    HW239870   1.785   1.949   3.412 -0.0196  0.0983 -0.1058
 9471SOL     OW39871   3.601   1.958   7.886  0.3270 -0.2577  0.5130
 9471SOL    HW139872   3.587   1.874   7.930  0.3088 -0.7023 -0.3429
 9471SOL    HW239873   3.652   2.003   7.953 -0.7642 -0.0631  1.2220
 9472SOL     OW39874   2.684   3.324  15.944  0.0413 -0.0863  0.1543
 9472SOL    HW139875   2.598   3.360  15.962 -1.3455 -1.8195 -3.0004
 9472SOL    HW239876   2.691   3.336  15.849  0.5413  0.3734  0.2480
 9473SOL     OW39877   3.161   2.654   6.079  0.3496  0.3756 -0.0635
 9473SOL    HW139878   3.181   2.640   6.171  2.3988 -1.0472 -0.7139
 9473SOL    HW239879   3.165   2.561   6.058  0.0333  0.3334  0.0774
 9474SOL     OW39880   1.713   2.716   4.422 -0.1558  0.6603  0.2864
 9474SOL    HW139881   1.752   2.701   4.336 -2.1484  1.2979 -0.7374
 9474SOL    HW239882   1.766   2.660   4.479  1.7406  1.2878 -0.8699
 9475SOL     OW39883   1.152   0.469   3.137 -0.3712 -0.1896  0.6232
 9475SOL    HW139884   1.189   0.512   3.060 -0.7807 -1.7609 -0.4523
 9475SOL    HW239885   1.145   0.542   3.200  0.3997  0.4883 -0.0822
 9476SOL     OW39886   2.341   0.389   7.851 -0.7866  0.4906  0.0246
 9476SOL    HW139887   2.309   0.438   7.775 -1.0295  0.5788  0.1867
 9476SOL    HW239888   2.338   0.305   7.805  1.5071  0.7591 -0.6351
 9477SOL     OW39889   3.472   1.389   6.102 -0.3109  0.2746  0.2703
 9477SOL    HW139890   3.391   1.440   6.109 -0.5923 -0.1092 -0.1952
 9477SOL    HW239891   3.501   1.419   6.016  0.1646  0.5856  0.5355
 9478SOL     OW39892   2.767   3.331   5.890 -0.4009 -0.0745  0.3955
 9478SOL    HW139893   2.861   3.313   5.895 -0.1558  0.7357 -1.3250
 9478SOL    HW239894   2.743   3.295   5.975 -1.7600 -0.2678 -0.0768
 9479SOL     OW39895   4.155   4.715   8.074  0.2560  0.4759 -0.0617
 9479SOL    HW139896   4.237   0.029   8.108 -0.9651 -0.2794  3.6483
 9479SOL    HW239897   4.109   4.721   8.157  2.2751  0.0911  1.1005
 9480SOL     OW39898   4.478   3.139  10.252 -0.5578 -0.0018 -0.4707
 9480SOL    HW139899   4.567   3.138  10.217  0.2274 -0.7209  1.5567
 9480SOL    HW239900   4.469   3.048  10.280 -0.2038 -0.0846 -0.6290
 9481SOL     OW39901   3.168   3.276  10.415 -0.0787 -0.4680  0.5942
 9481SOL    HW139902   3.150   3.269  10.321  2.7529 -0.9954  0.0992
 9481SOL    HW239903   3.205   3.364  10.419  0.1418 -0.3963 -2.7743
 9482SOL     OW39904   4.634   3.340   7.788  0.5160  0.7708  0.0026
 9482SOL    HW139905   4.696   3.408   7.761  1.7298  0.2147  1.4042
 9482SOL    HW239906   4.636   3.353   7.883 -1.5887  0.3350  0.1114
 9483SOL     OW39907   1.736   3.864   0.158  0.4915  0.1870 -0.8249
 9483SOL    HW139908   1.807   3.927   0.174  0.0616  0.1843  1.1673
 9483SOL    HW239909   1.698   3.852   0.246 -1.2957 -0.1252 -1.6460
 9484SOL     OW39910   3.642   0.742  10.508 -0.5316 -0.4395  0.4324
 9484SOL    HW139911   3.616   0.670  10.449 -0.2401  0.6438 -1.0113
 9484SOL    HW239912   3.561   0.791  10.519  0.4323  0.9685  1.2346
 9485SOL     OW39913   3.340   2.342  14.135 -0.3328 -0.2629 -0.0545
 9485SOL    HW139914   3.265   2.340  14.075 -1.1741 -2.0934  1.0786
 9485SOL    HW239915   3.359   2.249  14.139  0.7062 -0.1498 -2.4395
 9486SOL     OW39916   2.678   1.791   5.068  0.6885 -0.8289 -0.2605
 9486SOL    HW139917   2.634   1.707   5.062 -0.2518 -0.4728  1.6603
 9486SOL    HW239918   2.633   1.838   5.138  0.9016 -2.8892  1.2464
 9487SOL     OW39919   2.504   1.759   6.009 -0.1590 -0.0825  0.2579
 9487SOL    HW139920   2.578   1.814   6.033  0.1259  0.1441 -1.1861
 9487SOL    HW239921   2.528   1.712   5.929  2.9319  0.3976  0.9037
 9488SOL     OW39922   1.651   1.696   8.281  0.0118  0.3236  0.5728
 9488SOL    HW139923   1.731   1.668   8.325  0.5746  0.0457 -0.6140
 9488SOL    HW239924   1.668   1.669   8.191 -0.7795  0.4314  0.3870
 9489SOL     OW39925   3.101   4.469   7.247  0.6995 -0.8023  0.3311
 9489SOL    HW139926   3.163   4.399   7.226 -0.9398 -2.4246  0.8736
 9489SOL    HW239927   3.052   4.434   7.322  0.1478  1.3031  0.9374
 9490SOL     OW39928   1.605   2.090   6.133 -0.2954  0.0234 -0.2544
 9490SOL    HW139929   1.539   2.023   6.113 -0.9118  0.7172 -0.5342
 9490SOL    HW239930   1.541   2.160   6.142 -1.9082 -1.3435 -1.1845
 9491SOL     OW39931   0.186   4.250   6.167  0.0692  0.3435  0.5569
 9491SOL    HW139932   0.197   4.315   6.236 -1.5930  1.6471 -0.4030
 9491SOL    HW239933   0.093   4.264   6.148 -0.0671  0.5098  1.3589
 9492SOL     OW39934   2.761   3.206   6.851 -0.2577  0.1281 -0.2277
 9492SOL    HW139935   2.758   3.122   6.806 -0.3560  0.1565 -0.2752
 9492SOL    HW239936   2.741   3.258   6.773  1.5296 -1.0248 -1.4600
 9493SOL     OW39937   4.426   3.345   9.859 -0.4551  0.0135 -0.3361
 9493SOL    HW139938   4.518   3.368   9.876 -0.7207 -0.0390  1.1840
 9493SOL    HW239939   4.439   3.256   9.825  0.5547  0.7444 -1.8388
 9494SOL     OW39940   4.498   0.228   2.274 -0.0810  0.1849 -0.7191
 9494SOL    HW139941   4.538   0.314   2.255 -0.4508  1.1877  3.1397
 9494SOL    HW239942   4.430   0.220   2.207  0.6557  0.0926 -1.4595
 9495SOL     OW39943   2.222   0.193   8.436  0.4131 -0.1817 -0.2223
 9495SOL    HW139944   2.312   0.182   8.405  1.1474  1.4974  1.3424
 9495SOL    HW239945   2.172   0.180   8.355 -0.4519  0.8740  0.1480
 9496SOL     OW39946   0.609   3.026   4.353 -0.3125  0.0733 -0.2505
 9496SOL    HW139947   0.667   2.976   4.411  2.1633  0.5846 -2.2588
 9496SOL    HW239948   0.595   3.101   4.411 -1.5501 -0.3037 -0.0783
 9497SOL     OW39949   0.373   0.369   6.146  0.2513 -0.1561  0.4295
 9497SOL    HW139950   0.439   0.366   6.215 -0.4956 -2.2811  1.0421
 9497SOL    HW239951   0.385   0.284   6.103  0.0804 -1.1542  2.3652
 9498SOL     OW39952   1.865   2.350   0.632 -0.1847  1.0697 -0.0410
 9498SOL    HW139953   1.840   2.396   0.552 -0.4417 -1.1142 -1.2310
 9498SOL    HW239954   1.955   2.333   0.606  0.4820  2.5242  1.3338
 9499SOL     OW39955   1.006   0.861   6.072 -0.5099  0.3446 -0.5036
 9499SOL    HW139956   1.101   0.862   6.084 -0.3355  0.1479 -1.9128
 9499SOL    HW239957   0.987   0.816   6.155 -1.2845 -0.6898 -1.2452
 9500SOL     OW39958   2.945   2.421   2.458 -0.1201  0.3974 -0.0347
 9500SOL    HW139959   2.950   2.486   2.387  0.9556  0.1689 -0.1701
 9500SOL    HW239960   3.034   2.388   2.468  0.3135  0.9427 -2.1588
 9501SOL     OW39961   2.771   1.867   4.082 -0.0717  0.3886 -0.2933
 9501SOL    HW139962   2.829   1.895   4.011  1.3546  2.2614  1.6298
 9501SOL    HW239963   2.725   1.804   4.025  0.1667 -1.6873  1.8155
 9502SOL     OW39964   3.940   3.446   5.513 -0.1419 -0.0209 -0.2299
 9502SOL    HW139965   3.951   3.368   5.568 -0.0227 -0.6158 -1.1038
 9502SOL    HW239966   3.871   3.486   5.567 -1.1780 -0.5227 -1.1770
 9503SOL     OW39967   3.027   0.371   3.768  0.2051 -0.1008 -0.8282
 9503SOL    HW139968   3.058   0.368   3.859 -3.1220  0.6928  0.3395
 9503SOL    HW239969   2.989   0.283   3.762 -1.0014  0.3510  0.0988
 9504SOL     OW39970   4.579   4.010  16.241  0.1523  1.0102 -0.2023
 9504SOL    HW139971   4.612   4.085  16.290 -0.5078  0.8884  0.4326
 9504SOL    HW239972   4.495   4.014  16.286  0.2666 -0.3756  0.1326
 9505SOL     OW39973   0.102   3.188   5.156 -0.0941  0.0856  0.1159
 9505SOL    HW139974   0.094   3.281   5.179 -0.0728 -0.1788  1.1984
 9505SOL    HW239975   0.061   3.194   5.070  2.7546  1.0324 -1.1932
 9506SOL     OW39976   0.955   1.660  15.383  0.3172 -0.3976 -0.8333
 9506SOL    HW139977   1.048   1.654  15.404  0.6097  2.9507 -1.1580
 9506SOL    HW239978   0.918   1.621  15.463  1.7498  0.6311  0.3221
 9507SOL     OW39979   4.609   0.564   3.371  0.5457  0.2686  0.2359
 9507SOL    HW139980   4.666   0.573   3.294  0.7656  0.9675  0.4767
 9507SOL    HW239981   4.628   0.475   3.399  0.1954  0.0463 -0.2358
 9508SOL     OW39982   4.697   0.362  15.337  0.1295 -0.0821 -0.3793
 9508SOL    HW139983   4.671   0.276  15.368  2.2228 -1.8008 -3.3539
 9508SOL    HW239984   4.700   0.411  15.419  0.5641  0.9587 -1.0190
 9509SOL     OW39985   2.611   3.515   5.248  0.3459  0.2580  0.1786
 9509SOL    HW139986   2.660   3.481   5.173  2.3442  4.4282 -0.3875
 9509SOL    HW239987   2.631   3.455   5.319 -0.5079 -0.0033  0.2062
 9510SOL     OW39988   1.568   3.138   3.619 -0.4824  0.4296  0.4798
 9510SOL    HW139989   1.527   3.176   3.697 -2.1062 -0.5822  0.1208
 9510SOL    HW239990   1.591   3.215   3.567  0.9544  0.2099  0.7836
 9511SOL     OW39991   1.925   1.334   5.896  0.0830 -0.2060  0.5114
 9511SOL    HW139992   1.994   1.397   5.881  0.0266 -0.0585  0.8643
 9511SOL    HW239993   1.872   1.361   5.821  3.8240  1.3264 -1.5472
 9512SOL     OW39994   2.711   2.159   7.150  0.7588  0.1555  1.1589
 9512SOL    HW139995   2.622   2.134   7.126  0.9498  0.7013 -0.1275
 9512SOL    HW239996   2.710   2.126   7.240 -0.6172  0.7577  1.3664
 9513SOL     OW39997   1.667   3.789   5.308 -0.1372  0.5100 -0.4849
 9513SOL    HW139998   1.643   3.706   5.351 -0.2104  0.7071 -0.1407
 9513SOL    HW239999   1.641   3.850   5.377 -0.1285 -1.0276  0.9047
 9514SOL     OW40000   3.551   3.074   8.702  0.2476 -0.0570 -0.6292
 9514SOL    HW140001   3.473   3.069   8.756  0.1110 -3.6291 -1.1073
 9514SOL    HW240002   3.523   3.128   8.628 -1.9677  2.2049  1.9094
 9515SOL     OW40003   3.944   3.709   8.811 -0.4021 -0.3025  0.3372
 9515SOL    HW140004   3.925   3.746   8.724 -0.4393 -1.6808 -0.2435
 9515SOL    HW240005   3.934   3.615   8.796  0.3188 -0.3411  0.0435
 9516SOL     OW40006   4.383   4.536   6.369 -0.1781  0.4498  0.3541
 9516SOL    HW140007   4.381   4.624   6.331 -1.6850  0.9306  1.5353
 9516SOL    HW240008   4.469   4.539   6.412  0.6383 -0.7607 -1.1978
 9517SOL     OW40009   1.753   4.433  12.811  0.0178  0.8314  0.0648
 9517SOL    HW140010   1.804   4.352  12.817  0.4052  1.0880  0.2226
 9517SOL    HW240011   1.818   4.500  12.831 -0.5764  0.9588  1.5310
 9518SOL     OW40012   1.945   1.076   5.328  0.6103  0.3756 -0.0968
 9518SOL    HW140013   1.885   1.121   5.388 -0.3925  2.3510 -2.5723
 9518SOL    HW240014   2.000   1.043   5.400 -1.2849 -2.5848  0.0107
 9519SOL     OW40015   3.256   3.191   6.174 -0.2835 -0.4346 -0.3185
 9519SOL    HW140016   3.295   3.106   6.152 -2.7910 -1.7862  0.3902
 9519SOL    HW240017   3.334   3.244   6.158  0.0309 -0.9583 -0.5441
 9520SOL     OW40018   2.920   2.010   0.361  0.3037  0.0856  0.1539
 9520SOL    HW140019   2.853   2.077   0.377  0.5114  0.4838 -0.6361
 9520SOL    HW240020   2.898   1.947   0.430  1.1313  0.3620  0.6656
 9521SOL     OW40021   3.336   0.631   8.245 -0.3087  0.3383 -0.6822
 9521SOL    HW140022   3.328   0.555   8.302  0.4604  0.9942  0.2937
 9521SOL    HW240023   3.409   0.668   8.295 -1.1884 -2.7051  2.8940
 9522SOL     OW40024   2.351   0.964   1.171  0.0911  0.2726  0.0744
 9522SOL    HW140025   2.389   0.880   1.198 -1.5650 -0.5735 -0.2351
 9522SOL    HW240026   2.299   0.969   1.250  0.5694  2.9128  0.2024
 9523SOL     OW40027   3.063   0.185   0.052 -0.6908 -0.1840 -0.7677
 9523SOL    HW140028   3.017   0.194  17.662 -0.0471 -1.3016 -1.2523
 9523SOL    HW240029   3.084   0.091   0.055  0.4068  0.0716 -0.7236
 9524SOL     OW40030   1.778   3.859   6.045  0.2621 -0.6865  0.0871
 9524SOL    HW140031   1.697   3.822   6.080 -0.4947  0.4951 -0.3882
 9524SOL    HW240032   1.737   3.925   5.989 -1.4062 -2.0092 -0.2566
 9525SOL     OW40033   0.889   4.284   6.077  0.0354 -0.4432  0.3869
 9525SOL    HW140034   0.976   4.303   6.112 -0.4556  0.5285  1.0828
 9525SOL    HW240035   0.901   4.196   6.042  0.6857 -0.3986  0.4919
 9526SOL     OW40036   3.955   2.087   8.209 -0.2853  0.2208  0.5051
 9526SOL    HW140037   3.941   2.064   8.117 -0.2095 -1.6189  0.9639
 9526SOL    HW240038   3.878   2.054   8.254 -0.1937 -1.8551 -0.8429
 9527SOL     OW40039   1.320   4.515  12.486 -0.0172  0.1379  0.5362
 9527SOL    HW140040   1.387   4.452  12.511  2.0922  1.9219 -0.6289
 9527SOL    HW240041   1.331   4.586  12.550  0.2512  1.7801 -1.3569
 9528SOL     OW40042   1.819   3.006   3.325 -0.3517 -0.1543 -0.6032
 9528SOL    HW140043   1.760   2.986   3.253 -0.3284  0.3107 -0.7535
 9528SOL    HW240044   1.894   3.041   3.275 -1.2799  0.2842 -1.6936
 9529SOL     OW40045   1.193   1.723   3.620  0.1926 -0.1993  0.1377
 9529SOL    HW140046   1.160   1.812   3.610 -1.0374 -0.5539  1.0499
 9529SOL    HW240047   1.117   1.676   3.585  0.0043  0.2760 -0.0925
 9530SOL     OW40048   0.590   3.762   9.416 -0.4037 -0.2791  0.2793
 9530SOL    HW140049   0.508   3.712   9.415 -1.0124  0.7126  0.9725
 9530SOL    HW240050   0.602   3.807   9.333  0.1314 -1.9290 -0.5411
 9531SOL     OW40051   1.838   3.522   3.341 -0.2086 -0.5329 -0.0009
 9531SOL    HW140052   1.854   3.496   3.431 -1.2484  1.4288  0.7511
 9531SOL    HW240053   1.920   3.569   3.324 -2.0416  3.0000  0.9911
 9532SOL     OW40054   4.458   3.722   3.883  0.0629 -0.5767 -0.2893
 9532SOL    HW140055   4.513   3.775   3.941 -1.1271  0.6705 -0.3171
 9532SOL    HW240056   4.462   3.776   3.804  0.9306 -2.8459 -1.8035
 9533SOL     OW40057   2.268   4.372  12.895  0.5835 -0.0674  0.2761
 9533SOL    HW140058   2.302   4.284  12.879 -3.6432 -1.0979 -2.9442
 9533SOL    HW240059   2.273   4.383  12.990  2.2445  0.2572  0.1648
 9534SOL     OW40060   1.649   0.276   9.064 -0.0899  0.0179  0.8137
 9534SOL    HW140061   1.618   0.194   9.101 -1.0549 -0.1994 -0.4925
 9534SOL    HW240062   1.628   0.338   9.135  1.1819  0.0560  1.1649
 9535SOL     OW40063   4.533   1.516   7.758  0.3129 -0.0797 -0.4067
 9535SOL    HW140064   4.455   1.569   7.775  0.8531  0.7720 -0.5646
 9535SOL    HW240065   4.498   1.433   7.726 -2.4772  0.8225  0.3036
 9536SOL     OW40066   4.561   3.869  13.043  0.0200 -0.7547  0.9866
 9536SOL    HW140067   4.641   3.878  12.992 -1.7709  0.9371 -1.5238
 9536SOL    HW240068   4.537   3.777  13.038 -1.7688 -0.3672  2.4804
 9537SOL     OW40069   3.433   2.516  16.132  0.2102  0.2955  0.4298
 9537SOL    HW140070   3.418   2.521  16.037 -1.1816  0.9583  0.6831
 9537SOL    HW240071   3.488   2.438  16.138 -1.3929 -0.6791  2.1428
 9538SOL     OW40072   2.723   0.779   5.410 -0.1923  0.6053 -0.5662
 9538SOL    HW140073   2.740   0.863   5.367  1.5920 -0.0385 -1.0994
 9538SOL    HW240074   2.739   0.724   5.333  0.1293 -1.6786  1.1314
 9539SOL     OW40075   0.077   3.782   9.149 -0.6886 -0.3035  0.1658
 9539SOL    HW140076   0.073   3.721   9.222 -1.0682 -2.7035 -1.8408
 9539SOL    HW240077   0.158   3.755   9.106  0.2743  0.6362  1.4042
 9540SOL     OW40078   2.344   2.289   5.064 -0.1191 -0.2663 -0.0366
 9540SOL    HW140079   2.389   2.266   4.982  0.1490  1.3348 -0.3493
 9540SOL    HW240080   2.279   2.219   5.069  1.0703 -1.4532 -1.1946
 9541SOL     OW40081   0.654   1.748  12.711  0.6770 -0.3353 -0.0266
 9541SOL    HW140082   0.586   1.706  12.762 -0.8863  1.1864 -0.8593
 9541SOL    HW240083   0.609   1.748  12.627  0.8434  1.2789 -0.1300
 9542SOL     OW40084   1.429   0.912  10.001 -0.1160 -0.0628 -0.1346
 9542SOL    HW140085   1.483   0.919  10.080  0.7644 -1.8318 -0.5727
 9542SOL    HW240086   1.341   0.937  10.028  0.1152  0.4431  0.1543
 9543SOL     OW40087   0.980   2.726   8.492 -0.3369 -0.4036 -0.4778
 9543SOL    HW140088   0.982   2.631   8.479 -1.3516 -0.1267 -2.7161
 9543SOL    HW240089   0.895   2.744   8.533  0.3500 -1.2840  1.3158
 9544SOL     OW40090   1.068   0.722   2.899 -0.1629 -0.0600 -0.0843
 9544SOL    HW140091   1.033   0.711   2.987 -1.8036 -1.2414 -0.8671
 9544SOL    HW240092   1.081   0.816   2.906  0.0745 -0.0912 -0.1117
 9545SOL     OW40093   0.362   1.128  13.109 -0.5665 -0.4542  0.3369
 9545SOL    HW140094   0.310   1.050  13.088  0.4774 -0.6262 -1.5870
 9545SOL    HW240095   0.446   1.114  13.066 -0.8216 -0.1939 -0.2466
 9546SOL     OW40096   1.427   1.337   5.889  0.0171  0.2422 -0.6707
 9546SOL    HW140097   1.485   1.354   5.814  1.3868 -1.7319 -0.0647
 9546SOL    HW240098   1.341   1.351   5.850  0.3184 -1.1104 -1.8286
 9547SOL     OW40099   0.248   3.971   1.376  0.3149  0.0760 -0.2547
 9547SOL    HW140100   0.223   3.886   1.412 -0.7033 -0.1654 -1.5373
 9547SOL    HW240101   0.164   4.012   1.355 -0.1364 -0.0076  1.3663
 9548SOL     OW40102   4.453   3.411   2.045  0.1476  0.5996 -0.0958
 9548SOL    HW140103   4.485   3.471   2.112 -0.7508  1.5414 -0.5056
 9548SOL    HW240104   4.524   3.398   1.982  1.4403 -0.8875  1.6766
 9549SOL     OW40105   1.014   4.499  12.549 -0.2008  0.0060 -0.3178
 9549SOL    HW140106   1.092   4.535  12.506 -1.7070  3.8384  0.2118
 9549SOL    HW240107   0.970   4.583  12.560  1.8110  1.0989 -0.6261
 9550SOL     OW40108   2.032   2.998   8.752 -0.3048 -0.3649 -0.4176
 9550SOL    HW140109   2.024   3.060   8.679  4.8549  1.4513  0.5836
 9550SOL    HW240110   2.122   2.967   8.743 -0.8827 -1.8266 -1.1949
 9551SOL     OW40111   1.273   4.511   2.353  0.1931 -0.1838 -0.3307
 9551SOL    HW140112   1.202   4.562   2.315  1.2088 -0.2590 -2.2956
 9551SOL    HW240113   1.252   4.420   2.334  1.6289 -0.8841  1.4144
 9552SOL     OW40114   1.943   2.158   7.050 -0.2599  0.1346  0.0569
 9552SOL    HW140115   1.916   2.226   7.112 -0.6159  1.2211 -1.2783
 9552SOL    HW240116   1.903   2.189   6.968 -0.4858 -0.6971 -0.1507
 9553SOL     OW40117   4.538   0.193   4.336  0.0825  0.3314  1.0091
 9553SOL    HW140118   4.566   0.103   4.317  1.3498  1.3635 -2.0155
 9553SOL    HW240119   4.445   0.187   4.356  0.4896 -3.5003  1.6208
 9554SOL     OW40120   0.260   2.587  11.283 -1.0591 -0.3340 -0.1533
 9554SOL    HW140121   0.218   2.566  11.199 -0.5715  1.3136 -0.7971
 9554SOL    HW240122   0.228   2.511  11.333 -1.9299 -0.0766 -0.3185
 9555SOL     OW40123   3.261   1.449   5.678  0.5023  0.1539  0.0887
 9555SOL    HW140124   3.201   1.507   5.725 -1.5184 -1.7824 -0.0828
 9555SOL    HW240125   3.340   1.452   5.732  1.3756 -1.7872 -1.0943
 9556SOL     OW40126   4.067   2.289   8.337  0.4655 -0.7268 -0.3212
 9556SOL    HW140127   4.031   2.351   8.273 -2.0203 -0.8470  0.9762
 9556SOL    HW240128   4.032   2.212   8.293  0.4161 -0.6489 -0.4191
 9557SOL     OW40129   1.365   4.015   4.979  0.2772  0.5160 -0.1323
 9557SOL    HW140130   1.415   3.934   4.985  0.1697  0.4106 -0.7228
 9557SOL    HW240131   1.416   4.050   4.906 -0.2308  0.0546 -0.7079
 9558SOL     OW40132   3.401   2.723   7.442  0.4615  0.1942 -0.1256
 9558SOL    HW140133   3.407   2.707   7.348 -1.2887  1.4124 -0.4389
 9558SOL    HW240134   3.493   2.733   7.467  0.3847 -2.8440  1.3396
 9559SOL     OW40135   2.533   2.169  15.579 -0.4449 -0.0373  0.7592
 9559SOL    HW140136   2.601   2.234  15.566 -0.0611 -0.2134  1.9409
 9559SOL    HW240137   2.549   2.098  15.517 -0.6392 -1.1478  1.9766
 9560SOL     OW40138   0.650   3.739   7.001 -0.0458 -0.1718 -0.1374
 9560SOL    HW140139   0.606   3.809   6.953  0.5033 -0.7713 -1.5192
 9560SOL    HW240140   0.599   3.666   6.967  0.6419 -2.8102  4.6323
 9561SOL     OW40141   1.563   4.606  14.285  0.0230  0.0385 -0.5937
 9561SOL    HW140142   1.575   4.634  14.194 -1.3996 -0.2182 -0.8598
 9561SOL    HW240143   1.507   4.674  14.324 -0.6061 -0.7539 -0.1053
 9562SOL     OW40144   0.194   3.334   9.363 -0.5082 -0.1826 -0.2559
 9562SOL    HW140145   0.193   3.279   9.441  0.2312  0.2683  0.0661
 9562SOL    HW240146   0.287   3.330   9.344 -0.8684 -0.3619 -2.0823
 9563SOL     OW40147   3.077   2.046   4.642  0.9303  0.4072  0.5663
 9563SOL    HW140148   2.995   2.086   4.611  0.0779 -0.6738  1.4209
 9563SOL    HW240149   3.069   1.959   4.602 -0.7283  0.1398  1.4781
 9564SOL     OW40150   2.706   2.515  10.082 -0.2727  0.2003 -0.2055
 9564SOL    HW140151   2.668   2.490  10.165  1.3522 -0.4129  0.3558
 9564SOL    HW240152   2.658   2.463  10.018 -2.5771  1.9230  0.1152
 9565SOL     OW40153   4.643   1.768  17.507 -0.0844  0.0083  0.0954
 9565SOL    HW140154   4.585   1.706  17.461 -1.0877  0.9564  0.0830
 9565SOL    HW240155   4.668   1.823  17.433 -1.9668  1.3684  0.4547
   4.72294   4.72294  17.69368
