Membrane in water
40155
    1TCq1    O1    1   2.603   3.102  10.211 -0.1574  0.5165 -0.4543
    1TCq1    C1    2   2.671   3.015  10.282  0.0809  0.1747 -0.2370
    1TCq1    O2    3   2.790   3.023  10.313 -0.6331 -0.1155 -0.4890
    1TCq1    C2    4   2.572   2.945  10.362  0.1973  0.0736  0.1301
    1TCq1    C3    5   2.451   2.932  10.311 -1.2312 -0.0319  0.6859
    1TCq1    C4    6   2.359   2.866  10.394 -0.0981  0.0033 -0.4182
    1TCq1    C5    7   2.384   2.842  10.523 -0.2928  0.2577 -0.4250
    1TCq1    C6    8   2.499   2.890  10.568  0.0414 -0.2968 -0.2404
    1TCq1    C7    9   2.598   2.934  10.494  0.0255  0.9025 -0.3486
    1TCq1    C8   10   2.536   2.833  10.693  0.5071 -0.4130 -0.1849
    1TCq1    O4   11   2.447   2.845  10.779  0.2159 -0.2029  0.2764
    1TCq1    C9   12   2.232   2.841  10.343  1.4887 -0.0935 -0.3874
    1TCq1    O5   13   2.200   2.907  10.244 -0.0998  0.5043  0.0820
    1TCq1    O6   14   2.151   2.759  10.398  0.5490 -0.6287 -0.1763
    1TCq1    H1   15   2.507   3.090  10.194 -0.5724  0.4941  1.8685
    1TCq1    H2   16   2.422   2.948  10.208  0.4994  2.6178  0.6224
    1TCq1    H3   17   2.306   2.800  10.587  0.2456 -0.3981 -0.2010
    1TCq1    H4   18   2.697   2.946  10.537 -0.1174  1.2673 -0.1301
    2MPD2     C   19   2.812   2.545  11.008 -0.8907 -0.3640 -0.5014
    2MPD2    C1   20   2.718   2.641  11.038 -0.5522  0.0236 -0.4491
    2MPD2    C2   21   2.668   2.718  10.935 -0.0078  0.8966  0.4613
    2MPD2    C3   22   2.727   2.711  10.809  0.1800 -0.9366  0.2893
    2MPD2    C4   23   2.843   2.637  10.786 -0.5677  0.4471  0.1777
    2MPD2    C5   24   2.878   2.544  10.885  0.5821  0.2641  0.3773
    2MPD2     H   25   2.588   2.789  10.952 -0.6327  0.3885 -0.3186
    2MPD2    H1   26   2.899   2.637  10.693 -1.5439 -1.4004 -0.4036
    2MPD2    H2   27   2.859   2.479  11.079  0.5360 -1.1668 -2.1937
    2MPD2    H3   28   2.963   2.477  10.876  0.1516 -0.4324  1.5316
    2MPD2     N   29   2.665   2.772  10.695 -0.6799 -0.3442  0.4605
    2MPD2    H5   30   2.711   2.761  10.605  0.5141  0.9590  0.9092
    2MPD2    N1   31   2.675   2.659  11.168  0.0411  0.2149 -0.5695
    2MPD2    H7   32   2.716   2.594  11.234 -1.0887  1.1692  1.0654
    3TCq1    O1   33   2.189   3.634  10.064 -0.3394 -0.6314 -0.2782
    3TCq1    C1   34   2.087   3.544  10.068 -0.7749  0.4604  0.3649
    3TCq1    O2   35   2.038   3.492   9.969 -0.5765  0.5703  0.0798
    3TCq1    C2   36   2.042   3.539  10.206 -0.1621  0.0222 -0.3250
    3TCq1    C3   37   2.126   3.590  10.302 -0.1324  0.2909 -0.1247
    3TCq1    C4   38   2.071   3.656  10.406 -0.4982 -0.3306  0.3627
    3TCq1    C5   39   1.934   3.674  10.417  0.3581  0.1445 -0.4796
    3TCq1    C6   40   1.856   3.630  10.318  0.4724  0.1665 -0.5598
    3TCq1    C7   41   1.907   3.571  10.212 -0.3960 -0.6381  0.1996
    3TCq1    C8   42   1.712   3.644  10.317 -0.2462  0.3082 -0.0766
    3TCq1    O4   43   1.663   3.561  10.244  0.7598 -0.7283 -0.0369
    3TCq1    C9   44   2.158   3.699  10.506 -0.5448 -0.1055  0.5683
    3TCq1    O5   45   2.269   3.636  10.505  0.0493  0.0209  0.4148
    3TCq1    O6   46   2.107   3.773  10.596 -0.1667  0.3547  0.3097
    3TCq1    H1   47   2.209   3.677  10.149  2.6902  0.0533 -1.3216
    3TCq1    H2   48   2.233   3.580  10.291  0.2209  0.6441  2.8240
    3TCq1    H3   49   1.890   3.725  10.502 -1.2147  0.7443 -1.6654
    3TCq1    H4   50   1.839   3.550  10.130 -0.3694 -0.6988  0.1928
    4MPD2     C   51   1.268   3.829  10.468 -0.4636 -0.6951 -0.9713
    4MPD2    C1   52   1.362   3.926  10.484 -0.2571  0.1192  0.4776
    4MPD2    C2   53   1.494   3.899  10.459  0.1881  0.3655 -0.3583
    4MPD2    C3   54   1.536   3.773  10.427  0.4374  0.3475 -0.8865
    4MPD2    C4   55   1.439   3.675  10.408  0.5025 -0.1262  0.1647
    4MPD2    C5   56   1.306   3.709  10.418 -0.0318  0.4325 -0.2818
    4MPD2     H   57   1.580   3.963  10.473 -0.1780  0.9786 -0.9056
    4MPD2    H1   58   1.464   3.571  10.388  2.0197  0.3464 -0.3858
    4MPD2    H2   59   1.162   3.845  10.482 -0.0448  1.5709 -0.3801
    4MPD2    H3   60   1.236   3.634  10.383  0.8917 -2.7528  4.8235
    4MPD2     N   61   1.670   3.744  10.398  0.1793 -0.0141  0.1950
    4MPD2    H5   62   1.737   3.813  10.430  0.2012 -0.1543  0.4495
    4MPD2    N1   63   1.335   4.053  10.545 -0.5485 -0.5868  0.4599
    4MPD2    H7   64   1.404   4.127  10.539 -1.4180  0.4961  3.9762
    5TCq1    O1   65   1.170   0.751  10.807 -0.2918  0.0956  0.0037
    5TCq1    C1   66   1.144   0.622  10.831 -0.1446 -0.4619 -0.0326
    5TCq1    O2   67   1.044   0.558  10.845  0.5222  0.3306 -0.3547
    5TCq1    C2   68   1.275   0.556  10.840 -0.4399 -0.7730  0.0963
    5TCq1    C3   69   1.278   0.444  10.916  0.8547 -0.6145  0.7186
    5TCq1    C4   70   1.403   0.398  10.940 -0.2758 -0.2529 -0.1763
    5TCq1    C5   71   1.516   0.461  10.900 -0.0467  0.1645  0.5239
    5TCq1    C6   72   1.513   0.567  10.818  0.1998 -0.0022  0.0848
    5TCq1    C7   73   1.386   0.617  10.786 -0.4660  0.3774 -0.2390
    5TCq1    C8   74   1.642   0.617  10.771 -0.3479 -0.3236  0.5102
    5TCq1    O4   75   1.747   0.564  10.806  0.0300  0.0528 -0.0330
    5TCq1    C9   76   1.418   0.276  11.013  0.5534  0.0169  0.4499
    5TCq1    O5   77   1.517   0.273  11.097  0.8634 -0.0659  0.0842
    5TCq1    O6   78   1.326   0.189  10.997 -0.4633 -0.3064  0.2428
    5TCq1    H1   79   1.258   0.781  10.836  0.0942 -0.0519 -1.0198
    5TCq1    H2   80   1.188   0.397  10.954  1.0260  0.8858  2.9907
    5TCq1    H3   81   1.607   0.412  10.933  0.4358  1.5848  1.3510
    5TCq1    H4   82   1.377   0.704  10.722 -0.6198 -2.6051 -4.2894
    6MPD2     C   83   1.733   0.888  10.534 -0.2201  0.0541  0.3201
    6MPD2    C1   84   1.741   0.773  10.611 -0.0187  0.4222  0.1493
    6MPD2    C2   85   1.862   0.702  10.597  0.0567 -0.0790  0.3895
    6MPD2    C3   86   1.964   0.738  10.513 -0.4126 -0.6368 -0.0443
    6MPD2    C4   87   1.959   0.857  10.447 -0.2796 -0.6165  0.0489
    6MPD2    C5   88   1.843   0.927  10.463  0.4531  0.3975  0.4957
    6MPD2     H   89   1.881   0.611  10.654 -0.4787 -0.4874 -0.0870
    6MPD2    H1   90   2.040   0.905  10.394  0.3280 -1.2357  0.4207
    6MPD2    H2   91   1.644   0.950  10.539 -0.5858 -0.4120 -0.4282
    6MPD2    H3   92   1.849   1.024  10.416 -2.8420  0.4503  0.1942
    6MPD2     N   93   2.072   0.653  10.498 -0.1323 -0.3994 -0.1126
    6MPD2    H5   94   2.074   0.575  10.563 -0.8756 -2.4136 -2.5099
    6MPD2    N1   95   1.630   0.728  10.689 -0.5695 -0.2896 -0.1794
    6MPD2    H7   96   1.541   0.775  10.682  0.5329  1.4318 -2.8017
    7TCq1    O1   97   0.081   0.558  12.902 -0.0420  0.0686  0.2038
    7TCq1    C1   98   0.183   0.637  12.936 -0.3167  0.9321 -0.3760
    7TCq1    O2   99   0.251   0.698  12.855 -0.0274  0.3163  0.3377
    7TCq1    C2  100   0.177   0.671  13.080  0.7862 -0.5143 -0.5801
    7TCq1    C3  101   0.236   0.789  13.124 -0.1125 -0.4497  0.0732
    7TCq1    C4  102   0.225   0.830  13.257  0.1229 -0.5491 -0.6855
    7TCq1    C5  103   0.161   0.744  13.344  0.6327 -0.1693  0.6188
    7TCq1    C6  104   0.100   0.630  13.293  0.4650 -0.1274 -0.7825
    7TCq1    C7  105   0.115   0.585  13.163 -0.2035 -0.0462  0.2508
    7TCq1    C8  106   0.047   0.534  13.385  0.2262  0.5804  0.5557
    7TCq1    O4  107   4.724   0.434  13.337 -0.2383 -0.0237  0.3260
    7TCq1    C9  108   0.299   0.944  13.315  0.3287  0.0077  0.3474
    7TCq1    O5  109   0.324   1.044  13.237 -0.2095  0.0367 -0.0282
    7TCq1    O6  110   0.321   0.947  13.440  0.2095 -0.3864 -0.5156
    7TCq1    H1  111   0.033   0.509  12.972  2.7904 -1.3376  1.1398
    7TCq1    H2  112   0.302   0.848  13.060 -1.0115  0.0143 -0.4189
    7TCq1    H3  113   0.144   0.780  13.445  0.3493 -1.2980  0.9738
    7TCq1    H4  114   0.064   0.494  13.131  1.9173 -0.5442 -1.7494
    8MPD2     C  115   0.066   0.269  13.826 -0.1380  0.1221  0.1683
    8MPD2    C1  116   0.041   0.229  13.699 -0.7821  0.2885 -0.3123
    8MPD2    C2  117   0.050   0.318  13.591 -0.0182  0.4253  0.1173
    8MPD2    C3  118   0.081   0.453  13.615 -0.0285  0.5551  0.2208
    8MPD2    C4  119   0.100   0.496  13.746  0.2511  0.0208  0.4994
    8MPD2    C5  120   0.104   0.402  13.846  0.0112  0.1345 -0.1670
    8MPD2     H  121   0.030   0.285  13.489 -0.6097  0.6825  0.1501
    8MPD2    H1  122   0.136   0.595  13.770 -2.3550  1.0475  0.1660
    8MPD2    H2  123   0.056   0.202  13.910  1.5544  1.3069  1.3057
    8MPD2    H3  124   0.137   0.447  13.939  1.0007  0.7387 -0.8001
    8MPD2     N  125   0.091   0.549  13.512 -0.4250 -0.4002  0.2883
    8MPD2    H5  126   0.145   0.634  13.529  0.2796 -0.5909 -0.9712
    8MPD2    N1  127   4.723   0.091  13.689 -0.0980  0.3471 -1.1653
    8MPD2    H7  128   4.714   0.035  13.773  0.2499  1.7346 -0.2135
    9TCq1    O1  129   1.323   4.115  11.339  0.4357  0.5971 -0.6427
    9TCq1    C1  130   1.264   4.233  11.319 -0.2210  0.4519 -0.3768
    9TCq1    O2  131   1.150   4.250  11.279 -0.1249 -0.8307 -0.6847
    9TCq1    C2  132   1.372   4.331  11.294 -0.0837 -0.1762  0.8556
    9TCq1    C3  133   1.346   4.407  11.181  0.0844 -0.1359  0.3675
    9TCq1    C4  134   1.443   4.490  11.135 -0.1416  0.2770 -0.4840
    9TCq1    C5  135   1.569   4.492  11.178  0.7374  0.4984 -0.1902
    9TCq1    C6  136   1.597   4.398  11.277 -0.0252  0.0892  0.3069
    9TCq1    C7  137   1.501   4.320  11.335  0.1054  0.6333  0.3951
    9TCq1    C8  138   1.734   4.401  11.326 -0.3826 -0.5821 -0.0483
    9TCq1    O4  139   1.797   4.502  11.298 -0.4634  0.0494  0.1036
    9TCq1    C9  140   1.404   4.587  11.032 -0.4723  0.0144 -0.3989
    9TCq1    O5  141   1.282   4.610  11.004 -0.0883  0.0495  0.5665
    9TCq1    O6  142   1.495   4.638  10.959 -0.5561  0.2094  0.9201
    9TCq1    H1  143   1.421   4.119  11.341  0.4644  0.6049 -2.0727
    9TCq1    H2  144   1.247   4.422  11.139 -0.2746 -2.9806  0.2421
    9TCq1    H3  145   1.642   4.560  11.135 -0.2945  1.3758 -0.5502
    9TCq1    H4  146   1.530   4.262  11.422  0.7660 -1.6482 -1.3231
   10MPD2     C  147   1.979   4.380  11.498 -0.5954 -0.3639  0.4799
   10MPD2    C1  148   1.886   4.275  11.474 -0.0271 -0.1765 -0.5372
   10MPD2    C2  149   1.907   4.154  11.536  0.0586 -0.9958  0.1502
   10MPD2    C3  150   2.008   4.135  11.633 -0.0406  0.2916  0.1866
   10MPD2    C4  151   2.081   4.244  11.667 -0.4548 -0.1983 -0.3616
   10MPD2    C5  152   2.072   4.365  11.599 -0.0995  0.3108  0.4245
   10MPD2     H  153   1.853   4.069  11.496  1.0272 -1.8456  0.6547
   10MPD2    H1  154   2.171   4.230  11.727 -0.7514  1.4384  0.4744
   10MPD2    H2  155   1.992   4.470  11.439 -2.3403 -0.2613  0.2363
   10MPD2    H3  156   2.151   4.439  11.601  1.2339 -1.1536  1.2746
   10MPD2     N  157   2.032   4.011  11.697 -0.7866 -0.6677  0.6600
   10MPD2    H5  158   2.105   4.019  11.767  0.5772  1.2433 -0.9733
   10MPD2    N1  159   1.772   4.287  11.391  0.0327 -0.1047 -0.4179
   10MPD2    H7  160   1.696   4.220  11.392 -0.6368  0.6416 -0.9716
   11TCq1    O1  161   2.298   4.197  14.176  0.0615  0.6454  0.3378
   11TCq1    C1  162   2.333   4.156  14.049 -0.3051 -1.4741 -0.0424
   11TCq1    O2  163   2.260   4.160  13.956  0.1089  0.5163 -0.1169
   11TCq1    C2  164   2.469   4.126  14.045  0.8693  0.4656  0.3501
   11TCq1    C3  165   2.536   4.177  13.940  0.0242  0.1680 -0.1025
   11TCq1    C4  166   2.671   4.158  13.936 -0.3776 -0.3016  0.9824
   11TCq1    C5  167   2.739   4.098  14.034 -0.6623 -0.6545  0.8132
   11TCq1    C6  168   2.660   4.052  14.137 -0.5002  0.0097  0.6700
   11TCq1    C7  169   2.527   4.064  14.151  0.0483 -0.2889 -0.4204
   11TCq1    C8  170   2.723   3.945  14.201  1.0341  0.1086  0.3687
   11TCq1    O4  171   2.692   3.913  14.314  0.2243 -0.3332 -0.0833
   11TCq1    C9  172   2.747   4.212  13.831 -0.4986 -0.0108 -0.0512
   11TCq1    O5  173   2.688   4.274  13.738 -0.3217  0.1714  0.2043
   11TCq1    O6  174   2.869   4.189  13.842  0.5910  0.0632  0.6639
   11TCq1    H1  175   2.368   4.198  14.245  0.4670 -0.7047 -0.0524
   11TCq1    H2  176   2.482   4.228  13.861  0.9585  0.2048 -0.7132
   11TCq1    H3  177   2.847   4.106  14.045 -0.6182 -0.4863  0.2745
   11TCq1    H4  178   2.481   4.020  14.239  1.9300  0.4856  0.9553
   12MPD2     C  179   2.907   3.718  14.255 -0.7958  0.1205 -0.2158
   12MPD2    C1  180   2.837   3.737  14.134  0.4003 -0.2057 -0.4023
   12MPD2    C2  181   2.820   3.637  14.043  0.0625 -0.6910 -0.3564
   12MPD2    C3  182   2.871   3.509  14.064  0.0553  0.1230 -0.3628
   12MPD2    C4  183   2.939   3.497  14.182  0.7280  0.2138 -0.8414
   12MPD2    C5  184   2.961   3.595  14.273 -0.3382  0.3129 -0.0240
   12MPD2     H  185   2.752   3.645  13.959 -0.9364  0.5962  0.5650
   12MPD2    H1  186   2.963   3.402  14.230  2.3994 -0.0602 -2.2418
   12MPD2    H2  187   2.930   3.792  14.330 -0.1923 -0.2156 -0.0643
   12MPD2    H3  188   3.010   3.584  14.369  0.9054 -0.3275 -0.7308
   12MPD2     N  189   2.858   3.395  13.971 -0.3747 -0.5843 -0.7264
   12MPD2    H5  190   2.907   3.308  13.989 -0.8118 -0.9735 -1.4367
   12MPD2    N1  191   2.784   3.865  14.106  0.4863 -0.4614 -0.3648
   12MPD2    H7  192   2.761   3.874  14.008 -0.8906 -1.1434 -0.1032
   13TCq1    O1  193   2.440   3.458  10.634  0.0886  0.2376  0.3933
   13TCq1    C1  194   2.457   3.330  10.594  0.1145 -0.2020 -0.2618
   13TCq1    O2  195   2.555   3.260  10.604 -0.2022 -0.0120  0.3410
   13TCq1    C2  196   2.328   3.297  10.527  0.2476  0.1000 -0.6324
   13TCq1    C3  197   2.331   3.256  10.394 -0.5098  0.5857  0.2570
   13TCq1    C4  198   2.215   3.235  10.325 -0.3517  0.7900 -0.3705
   13TCq1    C5  199   2.095   3.265  10.384 -0.2494 -0.2186  0.5314
   13TCq1    C6  200   2.103   3.312  10.515 -1.0424  0.4443 -0.2163
   13TCq1    C7  201   2.214   3.336  10.589 -0.0350  0.2754  0.0386
   13TCq1    C8  202   1.981   3.340  10.586 -0.1683  0.3241 -0.0226
   13TCq1    O4  203   1.990   3.389  10.698 -0.3776 -0.0242 -0.4553
   13TCq1    C9  204   2.224   3.192  10.190 -0.1837  0.3039 -0.5637
   13TCq1    O5  205   2.122   3.195  10.116  0.5263 -0.3534  0.1930
   13TCq1    O6  206   2.329   3.144  10.148 -0.4475 -1.0232 -0.0143
   13TCq1    H1  207   2.361   3.496  10.591 -1.1769 -0.8420  1.7825
   13TCq1    H2  208   2.423   3.227  10.346 -1.9855 -0.9610 -1.6478
   13TCq1    H3  209   2.001   3.263  10.329 -0.3356  1.9079  0.6146
   13TCq1    H4  210   2.222   3.361  10.694  1.0247  0.1608 -0.0102
   14MPD2     C  211   1.645   3.222  10.501  0.8901  0.6221  0.8083
   14MPD2    C1  212   1.740   3.296  10.557  0.2992 -0.8229  0.6416
   14MPD2    C2  213   1.698   3.399  10.644 -0.2435  0.1108  0.0825
   14MPD2    C3  214   1.567   3.417  10.678 -0.4475 -0.5040 -0.0630
   14MPD2    C4  215   1.474   3.334  10.618  0.5152 -0.2698 -0.1671
   14MPD2    C5  216   1.514   3.243  10.527 -0.0465  0.1452  0.0322
   14MPD2     H  217   1.770   3.471  10.683 -1.2541  0.0578  2.0520
   14MPD2    H1  218   1.366   3.345  10.626 -0.1739 -4.8414 -3.4434
   14MPD2    H2  219   1.668   3.145  10.428 -0.1991  0.2641  0.8467
   14MPD2    H3  220   1.444   3.172  10.485  0.2880 -0.2507  0.1500
   14MPD2     N  221   1.529   3.520  10.773  0.3147 -0.4520 -0.6398
   14MPD2    H5  222   1.597   3.592  10.795 -0.3183  0.1589 -0.7008
   14MPD2    N1  223   1.877   3.280  10.524  0.3220  0.1754  0.1574
   14MPD2    H7  224   1.899   3.220  10.445 -1.1288 -0.6060  0.3549
   15TCq1    O1  225   3.516   2.982   2.446 -0.0128 -0.3351  0.0964
   15TCq1    C1  226   3.419   3.078   2.470  0.0878 -0.2360  0.5025
   15TCq1    O2  227   3.395   3.143   2.573 -0.5348 -0.6859  0.0263
   15TCq1    C2  228   3.318   3.063   2.367  1.2079 -0.4835  0.5049
   15TCq1    C3  229   3.194   3.077   2.418  0.2808  0.7978  0.2745
   15TCq1    C4  230   3.087   3.051   2.333  0.6166 -0.9625 -0.4350
   15TCq1    C5  231   3.107   3.040   2.199  0.3063  0.2398 -0.6020
   15TCq1    C6  232   3.234   3.030   2.153 -0.4509  0.1698  0.4223
   15TCq1    C7  233   3.345   3.037   2.237 -0.1237 -0.3426 -0.0339
   15TCq1    C8  234   3.261   3.000   2.017 -0.2460  0.6960  0.5724
   15TCq1    O4  235   3.365   2.943   1.984 -0.3757  0.3802  0.2931
   15TCq1    C9  236   2.957   3.047   2.383 -0.3656  0.3816 -0.5813
   15TCq1    O5  237   2.942   3.071   2.504 -0.1227  0.0755  0.0601
   15TCq1    O6  238   2.869   2.996   2.309  0.1323 -0.3865 -0.0654
   15TCq1    H1  239   3.498   2.923   2.369 -0.8060  0.2818 -0.1977
   15TCq1    H2  240   3.183   3.087   2.526  0.1933  1.2780  0.2195
   15TCq1    H3  241   3.022   3.028   2.133 -0.2056  0.4067  0.0245
   15TCq1    H4  242   3.446   3.038   2.198  0.7817  2.8657  2.2955
   16MPD2     C  243   3.042   3.104   1.744  0.3551  0.4551 -0.2082
   16MPD2    C1  244   3.147   3.046   1.807 -0.9519  1.1685 -0.7145
   16MPD2    C2  245   3.247   2.985   1.730  0.1956 -0.4114  0.0921
   16MPD2    C3  246   3.246   2.996   1.592  0.1987 -0.1417  0.2517
   16MPD2    C4  247   3.139   3.061   1.535  0.6301  0.0366 -0.5928
   16MPD2    C5  248   3.042   3.119   1.612  0.2449 -0.4219 -0.7462
   16MPD2     H  249   3.327   2.925   1.773  1.7775  0.9096 -1.0103
   16MPD2    H1  250   3.121   3.069   1.428  0.0804  2.8747 -0.2754
   16MPD2    H2  251   2.957   3.137   1.803  0.6423  0.4312  0.2172
   16MPD2    H3  252   2.966   3.171   1.555  0.6953 -0.3980 -1.3290
   16MPD2     N  253   3.343   2.921   1.518 -0.1794  0.6239  0.7756
   16MPD2    H5  254   3.409   2.865   1.571 -1.2262  0.6879  2.1331
   16MPD2    N1  255   3.157   3.042   1.945  0.3665  0.3143  0.9093
   16MPD2    H7  256   3.069   3.068   1.988 -0.0008 -1.2659  1.1244
   17TCq1    O1  257   2.085   2.754  11.296 -0.3787 -0.1056  0.5095
   17TCq1    C1  258   2.120   2.619  11.284  0.3585 -0.4577 -0.1044
   17TCq1    O2  259   2.126   2.533  11.371 -0.6722 -0.2598  0.1255
   17TCq1    C2  260   2.184   2.618  11.150 -0.2336  0.4339  0.0914
   17TCq1    C3  261   2.114   2.650  11.041 -0.6846 -0.0973  0.0376
   17TCq1    C4  262   2.166   2.620  10.918 -0.1092  0.0152 -0.6346
   17TCq1    C5  263   2.288   2.561  10.902 -1.0264 -0.6263 -0.1656
   17TCq1    C6  264   2.359   2.529  11.013 -0.0340 -0.2394 -0.2613
   17TCq1    C7  265   2.296   2.541  11.137 -0.0702  0.1755  0.1937
   17TCq1    C8  266   2.463   2.429  11.005  0.6953 -0.2822  0.3690
   17TCq1    O4  267   2.518   2.397  11.112 -0.0443 -0.1109  0.0472
   17TCq1    C9  268   2.080   2.652  10.802  0.1613 -0.5622  0.2304
   17TCq1    O5  269   1.978   2.720  10.817 -0.2731 -0.0704 -0.3835
   17TCq1    O6  270   2.120   2.645  10.683  0.2598 -0.1923 -0.1070
   17TCq1    H1  271   2.106   2.811  11.218 -1.5498  0.4311  0.5828
   17TCq1    H2  272   2.015   2.694  11.054  0.2916  1.3918  2.5376
   17TCq1    H3  273   2.325   2.556  10.800  1.1285  0.8579  0.5537
   17TCq1    H4  274   2.353   2.498  11.219 -0.8347 -0.3198  0.4670
   18MPD2     C  275   2.615   2.171  10.925  0.2290 -0.4702  0.2773
   18MPD2    C1  276   2.534   2.247  10.844 -0.9360  0.1609  0.1885
   18MPD2    C2  277   2.531   2.218  10.709  0.3680  0.1919  0.2108
   18MPD2    C3  278   2.609   2.114  10.652 -0.3539 -0.8463 -0.1822
   18MPD2    C4  279   2.685   2.033  10.743 -1.8648  0.5272 -0.5309
   18MPD2    C5  280   2.678   2.057  10.878 -0.4577 -0.7967 -0.4314
   18MPD2     H  281   2.463   2.273  10.645 -0.6877 -0.9648  0.3409
   18MPD2    H1  282   2.755   1.955  10.715 -1.8976  0.5520 -0.6825
   18MPD2    H2  283   2.614   2.199  11.029  1.3421 -1.3303  0.5134
   18MPD2    H3  284   2.734   1.996  10.948 -1.0618 -1.4915 -0.5613
   18MPD2     N  285   2.629   2.103  10.513 -0.5411  0.3566  0.1092
   18MPD2    H5  286   2.702   2.041  10.480 -0.2744  1.3915 -1.2450
   18MPD2    N1  287   2.462   2.363  10.886 -0.3376 -0.2456 -0.9590
   18MPD2    H7  288   2.399   2.404  10.818 -1.6775 -1.3117 -0.3591
   19TMC2    C1  289   3.719   3.388  14.117 -0.1493 -0.1714 -0.3348
   19TMC2    C2  290   3.663   3.429  13.998 -0.1511 -0.0589 -0.0915
   19TMC2    C3  291   3.561   3.348  13.948 -0.2667 -0.3644 -0.6210
   19TMC2    C4  292   3.698   3.264  14.177  0.2775  0.2248  0.2089
   19TMC2    C5  293   3.601   3.187  14.124  0.8849 -0.1516 -0.4043
   19TMC2    C6  294   3.526   3.229  14.014 -0.7165  0.8065 -0.9497
   19TMC2     C  295   3.816   3.477  14.171 -0.1692 -0.3493  1.1517
   19TMC2     O  296   3.830   3.587  14.115 -0.1725 -0.2327  0.0860
   19TMC2     H  297   3.682   3.526  13.953  0.4656  0.7968  2.0315
   19TMC2    H1  298   3.770   3.227  14.249  0.9444  0.3165 -0.4127
   19TMC2    H2  299   3.456   3.167  13.960 -1.0007  1.6019 -1.4934
   19TMC2    C7  300   3.582   3.050  14.164 -0.5123 -0.1588  0.1066
   19TMC2    C8  301   3.551   3.340  13.807 -0.2002 -0.3293 -0.3907
   19TMC2    O1  302   3.498   2.986  14.100 -0.3852  0.3987  0.1930
   19TMC2    O2  303   3.579   3.224  13.764 -0.1791 -0.4479  0.2806
   19TMC2    O5  304   3.597   3.460  13.763  0.6070  0.0853 -0.4376
   19TMC2    H5  305   3.555   3.535  13.809  0.8998  0.4601 -0.7836
   20MPD2     C  306   4.079   3.592  14.290  0.8941 -0.2584  0.0916
   20MPD2    C1  307   4.022   3.473  14.318 -0.1025  0.0551  0.0820
   20MPD2    C2  308   4.082   3.391  14.404 -0.0529 -0.2805 -0.2323
   20MPD2    C3  309   4.190   3.413  14.483 -0.7276  0.5027 -0.3930
   20MPD2    C4  310   4.245   3.532  14.460 -0.4717 -0.1525  0.0679
   20MPD2    C5  311   4.201   3.611  14.357  0.3547 -0.2452  0.8140
   20MPD2     H  312   4.033   3.294  14.412 -0.7987 -0.0258 -1.7385
   20MPD2    H1  313   4.330   3.567  14.516  1.0493 -0.9689 -1.7263
   20MPD2    H2  314   4.043   3.675  14.230 -0.1812 -1.2292 -0.5947
   20MPD2    H3  315   4.264   3.692  14.322 -1.6486  1.4376  1.1300
   20MPD2     N  316   4.234   3.331  14.590 -0.0170 -0.6016  0.2050
   20MPD2    H5  317   4.319   3.363  14.634  0.0757 -1.8880  0.9714
   20MPD2    N1  318   3.901   3.418  14.261 -0.2908  0.5638  0.0685
   20MPD2    H7  319   3.871   3.326  14.292  4.1091 -0.1376  2.2857
   21MPD2     C  320   1.958   3.849  14.176  0.2969 -0.2004 -0.6805
   21MPD2    C1  321   1.989   3.719  14.200  0.6694  0.5025 -0.1344
   21MPD2    C2  322   1.891   3.640  14.256  0.1771 -0.1433 -0.2623
   21MPD2    C3  323   1.763   3.696  14.292 -0.0225 -0.3367  0.3411
   21MPD2    C4  324   1.732   3.832  14.266 -0.1370 -0.3110  0.2776
   21MPD2    C5  325   1.834   3.903  14.208 -0.3406 -0.0467 -0.5053
   21MPD2     H  326   1.906   3.534  14.274  0.1612 -0.4021 -1.7571
   21MPD2    H1  327   1.640   3.882  14.294  0.1010  1.1212 -1.4788
   21MPD2    H2  328   2.028   3.922  14.137  0.9630  0.7877  2.3267
   21MPD2    H3  329   1.808   4.003  14.174  1.8407  1.1540  1.4047
   21MPD2     N  330   1.658   3.618  14.346  0.0649  0.1621  1.0221
   21MPD2    H5  331   1.577   3.673  14.370 -1.2542 -0.0992 -2.8781
   21MPD2    N1  332   2.120   3.669  14.181  0.7271  0.4023 -0.1309
   21MPD2    H7  333   2.125   3.571  14.206  0.7955  0.4436  0.0189
   22TCq2    C1  334   1.670   3.482  14.384 -0.0626  0.2448  0.5968
   22TCq2    O2  335   1.770   3.410  14.373 -0.3980  0.5476 -0.2601
   22TCq2    C2  336   1.551   3.424  14.450  0.3165 -0.4111 -0.5125
   22TCq2    C3  337   1.570   3.292  14.467 -0.0258  0.0128 -0.2145
   22TCq2    C4  338   1.492   3.229  14.557 -0.1056  0.8191  0.2832
   22TCq2    C5  339   1.414   3.304  14.635 -0.1291 -0.5341  0.1602
   22TCq2    C6  340   1.393   3.432  14.601 -0.4523  0.1185  0.5443
   22TCq2    C7  341   1.460   3.500  14.514  0.4648  0.5297  0.5498
   22TCq2    C8  342   1.293   3.500  14.678 -0.3957 -0.1312  0.0188
   22TCq2    O4  343   1.271   3.455  14.790 -0.6496  0.0136 -0.3376
   22TCq2    C9  344   1.496   3.087  14.596  0.4571  0.0904 -0.2103
   22TCq2    O5  345   1.575   3.014  14.534 -0.3236 -0.0212 -0.3511
   22TCq2    O6  346   1.433   3.057  14.704  0.2587  0.0789 -0.0131
   22TCq2    H2  347   1.640   3.231  14.411  1.3214  2.6121 -1.3047
   22TCq2    H3  348   1.352   3.261  14.714  0.3383 -0.7511  0.4086
   22TCq2    H4  349   1.450   3.606  14.495 -0.4495  0.3711  0.1403
   23MPD2     C  350   2.777   0.070  15.005 -0.4526 -1.2281  0.5554
   23MPD2    C1  351   2.681   0.023  15.094  0.2006  0.4603  0.2598
   23MPD2    C2  352   2.554   0.065  15.079 -0.0291  0.4185 -0.2660
   23MPD2    C3  353   2.521   0.147  14.964 -0.1645 -0.3367  0.0841
   23MPD2    C4  354   2.610   0.177  14.865 -0.2686 -0.8634  0.4761
   23MPD2    C5  355   2.738   0.130  14.887  0.3373 -0.4053 -0.7634
   23MPD2     H  356   2.481   0.032  15.153 -0.3262  2.0086  0.1425
   23MPD2    H1  357   2.573   0.225  14.775  2.3457 -1.9367 -1.1634
   23MPD2    H2  358   2.882   0.050  15.025 -0.6744 -3.3611 -0.4139
   23MPD2    H3  359   2.810   0.157  14.810 -1.2111  0.8639 -1.7600
   23MPD2     N  360   2.389   0.184  14.938  0.3137  1.0049 -0.0868
   23MPD2    H5  361   2.365   0.197  14.841  0.4774 -1.0134 -0.4115
   23MPD2    N1  362   2.718   4.690  15.218  0.3230  0.3787  0.2486
   23MPD2    H7  363   2.642   4.669  15.282 -1.5551 -0.4945 -2.2740
   24TCq2    C1  364   2.282   0.175  15.027 -1.3361  0.4083 -0.2546
   24TCq2    O2  365   2.287   0.172  15.150 -0.0063  0.2762  0.9106
   24TCq2    C2  366   2.163   0.220  14.958  0.2486 -0.3847 -0.1168
   24TCq2    C3  367   2.058   0.277  15.029  1.0865 -0.4947  0.0335
   24TCq2    C4  368   1.930   0.272  14.971  0.3928 -1.2074 -0.2399
   24TCq2    C5  369   1.908   0.210  14.846 -0.2202  0.3651 -0.2619
   24TCq2    C6  370   2.023   0.172  14.775 -0.3597  0.1100 -0.5538
   24TCq2    C7  371   2.145   0.180  14.826  0.8077 -0.9023  0.1580
   24TCq2    C8  372   2.017   0.100  14.649  0.3575 -0.0715  0.5171
   24TCq2    O4  373   2.107   0.020  14.633 -0.4396 -0.1901  0.2341
   24TCq2    C9  374   1.824   0.345  15.041  0.1396 -0.2168 -0.3723
   24TCq2    O5  375   1.710   0.361  14.990 -0.0782 -0.2852  0.2230
   24TCq2    O6  376   1.870   0.406  15.146 -0.3257 -0.0429  0.5297
   24TCq2    H2  377   2.080   0.327  15.122 -1.9656  0.6396  0.1307
   24TCq2    H3  378   1.808   0.205  14.807 -0.5172  2.0222  0.2687
   24TCq2    H4  379   2.233   0.140  14.778  1.1239 -0.4290  0.3353
   25TMC2    C1  380   2.088   2.212  11.091  1.0428  0.0641  0.1639
   25TMC2    C2  381   2.223   2.191  11.098  0.5557  0.6482  0.2067
   25TMC2    C3  382   2.284   2.176  11.217 -0.6928 -0.6499  0.2574
   25TMC2    C4  383   2.012   2.230  11.203  0.1580  0.3786  0.0306
   25TMC2    C5  384   2.075   2.209  11.325  0.0230  0.7574  1.4962
   25TMC2    C6  385   2.211   2.181  11.329  1.4121  0.8987  0.2972
   25TMC2     C  386   2.030   2.256  10.959 -0.8109  0.3201  0.1376
   25TMC2     O  387   2.101   2.273  10.857 -0.0268  0.4621  0.1752
   25TMC2     H  388   2.279   2.169  11.008  0.3605  0.5775  0.1046
   25TMC2    H1  389   1.904   2.239  11.206  0.2368  1.1405  0.4811
   25TMC2    H2  390   2.262   2.175  11.425  2.8929  0.4608 -0.5289
   25TMC2    C7  391   1.999   2.240  11.444 -0.9686 -0.1186 -0.0146
   25TMC2    C8  392   2.402   2.095  11.223 -0.0060 -0.3944  0.4124
   25TMC2    O1  393   2.024   2.174  11.542 -0.1395 -0.0008  1.1351
   25TMC2    O2  394   2.404   1.993  11.158 -0.5909  0.5014 -0.3854
   25TMC2    O5  395   2.459   2.104  11.348 -0.5375  0.6436 -0.4104
   25TMC2    H5  396   2.460   2.196  11.383 -1.6424  0.0778  1.1148
   26MPD2     C  397   1.619   2.311  10.674 -0.0150 -0.0704 -0.2970
   26MPD2    C1  398   1.589   2.208  10.769  0.5482  0.3891  0.0183
   26MPD2    C2  399   1.684   2.174  10.863  0.8079 -0.0970  1.1432
   26MPD2    C3  400   1.800   2.244  10.856  0.6195  0.1808  0.3249
   26MPD2    C4  401   1.828   2.343  10.762 -0.4920  0.4655  0.2493
   26MPD2    C5  402   1.738   2.373  10.668  0.5077  0.6786 -0.1604
   26MPD2     H  403   1.676   2.088  10.928 -1.2033 -1.5469 -1.0238
   26MPD2    H1  404   1.925   2.391  10.751 -0.3345  0.4998  1.7921
   26MPD2    H2  405   1.543   2.330  10.599 -1.3177 -1.4093  0.6950
   26MPD2    H3  406   1.761   2.440  10.586  3.3497  2.3057  1.9387
   26MPD2     N  407   1.894   2.218  10.959  0.9620 -0.7239  0.7614
   26MPD2    H5  408   1.856   2.154  11.028  1.4531  1.1757  2.8059
   26MPD2    N1  409   1.473   2.133  10.743  0.4424 -0.0374  0.5163
   26MPD2    H7  410   1.408   2.178  10.679 -2.8377 -2.0934  2.4221
   27TMC2    C1  411   0.535   4.056  12.011  0.4947  0.3373 -0.6065
   27TMC2    C2  412   0.477   4.088  11.894 -0.9984  0.7346  0.0257
   27TMC2    C3  413   0.497   4.217  11.847 -0.2566  0.7657  0.9178
   27TMC2    C4  414   0.621   4.141  12.074  0.1985 -0.0781 -0.0883
   27TMC2    C5  415   0.631   4.266  12.025  0.2906 -0.1345 -0.7349
   27TMC2    C6  416   0.581   4.301  11.908 -0.4669 -0.6859 -0.8973
   27TMC2     C  417   0.479   3.966  12.111 -0.0609 -0.2025 -0.1397
   27TMC2     O  418   0.557   3.912  12.186 -0.3196 -0.0753 -0.0722
   27TMC2     H  419   0.412   4.019  11.841  0.1772  0.6866 -1.3507
   27TMC2    H1  420   0.657   4.125  12.175  2.0265 -0.8470 -0.8564
   27TMC2    H2  421   0.601   4.401  11.871  0.4286  0.2974  2.2449
   27TMC2    C7  422   0.603   4.361  12.125 -0.3972 -0.5545 -0.0179
   27TMC2    C8  423   0.482   4.247  11.703 -0.3924  0.5331 -0.5432
   27TMC2    O1  424   0.668   4.361  12.231  0.2790  0.1068 -0.0958
   27TMC2    O2  425   0.567   4.305  11.631  0.0871  0.3184 -0.3284
   27TMC2    O5  426   0.352   4.224  11.677  0.4941 -0.2435 -0.3539
   27TMC2    H5  427   0.302   4.200  11.758 -0.0523 -0.0272 -0.6292
   28MPD2     C  428   0.120   3.819  12.430  0.1410 -0.5318  0.0365
   28MPD2    C1  429   0.071   3.930  12.367  0.4589 -0.1155  0.5402
   28MPD2    C2  430   0.142   3.978  12.254  0.5888 -0.1956  0.7265
   28MPD2    C3  431   0.262   3.920  12.224  0.0290  0.9566  0.3716
   28MPD2    C4  432   0.307   3.805  12.294 -0.3340 -0.6882 -0.4596
   28MPD2    C5  433   0.238   3.766  12.402  0.0931  0.2554 -0.0819
   28MPD2     H  434   0.109   4.065  12.199  2.0024  0.0768  0.2853
   28MPD2    H1  435   0.405   3.758  12.287 -1.0603 -2.1642 -0.7806
   28MPD2    H2  436   0.062   3.776  12.511 -0.3528 -1.9539 -1.0730
   28MPD2    H3  437   0.284   3.694  12.470  1.3076  1.3966  0.3063
   28MPD2     N  438   0.340   3.982  12.121 -0.2700 -0.2986 -0.6293
   28MPD2    H5  439   0.294   4.035  12.048 -0.6909 -0.1391 -0.2450
   28MPD2    N1  440   4.689   3.990  12.429 -0.5107 -0.3142  0.2403
   28MPD2    H7  441   4.650   3.958  12.517  2.8144 -1.3828  1.3032
   29MPD2     C  442   4.531   1.420  14.096 -0.2195  0.5920  0.6611
   29MPD2    C1  443   4.667   1.439  14.074  0.1613 -0.3284  0.1286
   29MPD2    C2  444   4.713   1.568  14.039 -0.4643  0.4214  0.0523
   29MPD2    C3  445   4.620   1.672  14.022 -0.3656  0.2050 -0.4930
   29MPD2    C4  446   4.485   1.654  14.056 -0.0866 -0.7796  0.1131
   29MPD2    C5  447   4.449   1.530  14.088  0.5620 -0.3386 -0.2013
   29MPD2     H  448   0.091   1.592  14.025 -0.0431 -2.5141 -1.9446
   29MPD2    H1  449   4.405   1.727  14.066  0.0636 -0.5431 -0.4000
   29MPD2    H2  450   4.479   1.330  14.128  0.0071  0.2202 -0.0176
   29MPD2    H3  451   4.348   1.511  14.120  0.6675 -2.0860 -0.9482
   29MPD2     N  452   4.663   1.810  13.998  0.0020 -0.0957  1.2761
   29MPD2    H5  453   4.586   1.876  13.992 -0.8098 -1.0988  0.5517
   29MPD2    N1  454   0.043   1.344  14.091 -0.1003  0.5635  0.0348
   29MPD2    H7  455   0.136   1.376  14.068  0.9334 -1.2293  1.6968
   30TCq2    C1  456   0.064   1.861  13.989  0.0962  0.3570 -0.2430
   30TCq2    O2  457   0.167   1.793  13.974 -0.2443 -0.5671 -0.1543
   30TCq2    C2  458   0.075   2.007  13.985 -0.0757  0.6905 -0.1490
   30TCq2    C3  459   4.712   2.079  14.065 -0.1729 -0.3987 -0.1542
   30TCq2    C4  460   0.028   2.200  14.103 -0.4711  0.2519 -0.4089
   30TCq2    C5  461   0.152   2.248  14.070  0.2649 -0.9617  0.1540
   30TCq2    C6  462   0.245   2.162  14.013 -0.1192  0.5130  0.3076
   30TCq2    C7  463   0.207   2.037  13.979 -0.3220  0.3813 -0.0556
   30TCq2    C8  464   0.385   2.198  13.983 -0.2545 -0.5294 -0.0275
   30TCq2    O4  465   0.428   2.168  13.872 -0.2734 -0.2838 -0.3228
   30TCq2    C9  466   4.668   2.286  14.174 -0.5031 -0.2070 -0.9750
   30TCq2    O5  467   4.568   2.236  14.233  0.1401  0.6695 -0.3601
   30TCq2    O6  468   4.691   2.409  14.185 -0.1711 -0.2738 -0.5155
   30TCq2    H2  469   4.610   2.044  14.081 -0.7355  0.1024 -2.7151
   30TCq2    H3  470   0.177   2.348  14.103 -0.6638 -0.6409 -0.1170
   30TCq2    H4  471   0.281   1.976  13.928  0.8770  1.8552 -0.0952
   31MPD2     C  472   2.777   0.335  15.245  0.0180 -0.0903  0.0568
   31MPD2    C1  473   2.664   0.406  15.208  0.2222 -0.5306  0.1657
   31MPD2    C2  474   2.565   0.430  15.310  0.6673 -0.0806  0.1760
   31MPD2    C3  475   2.583   0.372  15.443 -0.3477  0.1946  0.4864
   31MPD2    C4  476   2.695   0.298  15.463  0.7794 -0.1278 -0.3164
   31MPD2    C5  477   2.788   0.275  15.367  0.2342  0.5376  0.3813
   31MPD2     H  478   2.485   0.497  15.280  0.3522 -0.3852  0.3484
   31MPD2    H1  479   2.711   0.255  15.561 -1.6451  3.8504  1.8361
   31MPD2    H2  480   2.850   0.307  15.170 -1.3099  0.7387 -1.5578
   31MPD2    H3  481   2.872   0.212  15.394  0.0310  1.0703  2.2673
   31MPD2     N  482   2.493   0.387  15.550 -0.3029  0.4122  0.1655
   31MPD2    H5  483   2.511   0.326  15.630 -0.9099  0.0705  0.0412
   31MPD2    N1  484   2.650   0.443  15.073 -0.7045 -0.6413 -0.8492
   31MPD2    H7  485   2.724   0.410  15.012  1.3271  3.3244 -0.4849
   32TCq2    C1  486   2.380   0.460  15.553  0.5748  0.2641 -0.2212
   32TCq2    O2  487   2.343   0.533  15.464  0.5839 -0.3334 -0.4241
   32TCq2    C2  488   2.318   0.468  15.683  0.3227  0.3152  0.2604
   32TCq2    C3  489   2.180   0.494  15.678 -0.3054 -0.6694  0.1650
   32TCq2    C4  490   2.109   0.490  15.788  0.5092 -0.1962 -0.2825
   32TCq2    C5  491   2.171   0.459  15.906 -0.4143  0.6452 -0.6331
   32TCq2    C6  492   2.309   0.439  15.909 -0.2311  0.0183 -0.0414
   32TCq2    C7  493   2.389   0.440  15.797 -0.1465 -0.4602  0.8414
   32TCq2    C8  494   2.386   0.395  16.025 -0.2037 -0.3535 -0.1885
   32TCq2    O4  495   2.496   0.342  16.014 -0.2276  0.1569  0.0599
   32TCq2    C9  496   1.968   0.522  15.792 -0.3619 -0.1944  0.6847
   32TCq2    O5  497   1.902   0.450  15.874  0.0992 -0.6493 -0.0052
   32TCq2    O6  498   1.922   0.598  15.704 -0.2057  0.1968  0.0586
   32TCq2    H2  499   2.133   0.523  15.584 -1.3062 -1.9707  0.2584
   32TCq2    H3  500   2.106   0.433  15.989 -0.2300 -0.3858 -0.8153
   32TCq2    H4  501   2.497   0.431  15.796 -0.1190 -0.0543 -0.6101
   33MPD2     C  502   2.957   2.629  10.167 -0.7608 -0.1870  0.0029
   33MPD2    C1  503   2.838   2.610  10.099  0.2490  0.7893  0.2537
   33MPD2    C2  504   2.770   2.716  10.036 -0.1897 -0.2181  0.1200
   33MPD2    C3  505   2.835   2.840  10.024 -0.5405  0.9598  0.4476
   33MPD2    C4  506   2.962   2.860  10.095  0.4135  0.6864 -0.5154
   33MPD2    C5  507   3.010   2.753  10.174 -0.8281 -0.0856 -0.2317
   33MPD2     H  508   2.681   2.695   9.979  0.7934 -3.4277 -0.2700
   33MPD2    H1  509   3.007   2.959  10.104 -1.0487  1.1488  1.7868
   33MPD2    H2  510   3.004   2.550  10.224 -0.3342 -1.0378 -1.5258
   33MPD2    H3  511   3.106   2.759  10.224  0.1222 -2.3931 -1.7785
   33MPD2     N  512   2.783   2.947   9.943  0.1408  0.7986 -0.5900
   33MPD2    H5  513   2.829   3.037   9.953 -1.1880  1.6131 -1.8400
   33MPD2    N1  514   2.792   2.479  10.108  0.3542 -0.1494 -0.7100
   33MPD2    H7  515   2.861   2.417  10.149  0.1479 -0.7044 -1.2149
   34TCq2    C1  516   2.655   2.948   9.881  0.5213  0.2589 -1.0404
   34TCq2    O2  517   2.568   2.866   9.883  0.1136  0.2186  0.1765
   34TCq2    C2  518   2.622   3.060   9.792 -0.6567 -0.8333 -0.1522
   34TCq2    C3  519   2.521   3.043   9.705  0.1391 -0.0368  0.8101
   34TCq2    C4  520   2.487   3.146   9.623 -0.3962 -0.1036  0.0429
   34TCq2    C5  521   2.535   3.274   9.642 -0.3255  0.0383  1.1494
   34TCq2    C6  522   2.629   3.290   9.737 -0.1281 -0.3919 -0.3049
   34TCq2    C7  523   2.683   3.183   9.810 -0.3933  0.2486 -0.0814
   34TCq2    C8  524   2.698   3.416   9.752 -0.6866 -0.2517 -0.5185
   34TCq2    O4  525   2.806   3.415   9.813 -0.0955 -0.0447 -1.0483
   34TCq2    C9  526   2.374   3.135   9.527  0.0737 -0.4518 -0.5469
   34TCq2    O5  527   2.287   3.050   9.566 -0.2093 -0.1565  0.0703
   34TCq2    O6  528   2.363   3.207   9.426 -0.4455 -0.0235  0.1983
   34TCq2    H2  529   2.476   2.945   9.691 -1.4608  0.4788  2.3540
   34TCq2    H3  530   2.498   3.356   9.581 -2.5764 -2.3825 -0.7588
   34TCq2    H4  531   2.762   3.209   9.879  2.4095 -3.8547 -1.7863
   35MPD2     C  532   4.400   4.667  11.681 -0.3420 -0.8793 -0.4513
   35MPD2    C1  533   4.303   4.581  11.737  0.3245 -0.2222 -0.7328
   35MPD2    C2  534   4.201   4.545  11.657  0.2285  0.2224 -0.1111
   35MPD2    C3  535   4.188   4.590  11.523 -0.6653  0.1006 -0.7464
   35MPD2    C4  536   4.280   4.674  11.475  0.0185 -0.3254 -0.5119
   35MPD2    C5  537   4.379   4.717  11.555 -0.0895  0.2333  0.5586
   35MPD2     H  538   4.118   4.480  11.681  1.6117 -0.6528  2.2825
   35MPD2    H1  539   4.278   4.706  11.371  1.5148 -0.8582 -0.7098
   35MPD2    H2  540   4.487   4.699  11.739  0.0301  0.3457 -1.6929
   35MPD2    H3  541   4.448   0.053  11.499  0.1686 -0.4381  0.1152
   35MPD2     N  542   4.076   4.545  11.444 -0.2815  0.1275 -0.3062
   35MPD2    H5  543   3.997   4.503  11.492 -1.2648 -0.0170 -2.0611
   35MPD2    N1  544   4.310   4.541  11.872 -0.0959  0.4761 -0.3084
   35MPD2    H7  545   4.247   4.463  11.893 -1.2211  1.6005  0.5103
   36TCq2    C1  546   4.050   4.567  11.308 -0.2211  0.2117  0.0404
   36TCq2    O2  547   4.121   4.594  11.214  0.3995 -0.3091  0.5687
   36TCq2    C2  548   3.912   4.521  11.279  0.3473 -0.8958 -0.7284
   36TCq2    C3  549   3.844   4.584  11.183  0.1793  0.0345  0.9572
   36TCq2    C4  550   3.717   4.535  11.163 -0.0926 -1.2000  0.2163
   36TCq2    C5  551   3.657   4.436  11.232 -0.4312  0.5524  0.5643
   36TCq2    C6  552   3.728   4.380  11.334  0.4414 -0.7533 -0.2222
   36TCq2    C7  553   3.856   4.417  11.355  0.3250 -0.1209 -0.9315
   36TCq2    C8  554   3.668   4.258  11.387 -0.6642  0.0552 -0.3586
   36TCq2    O4  555   3.558   4.227  11.349 -0.1096  0.3519  0.1387
   36TCq2    C9  556   3.642   4.595  11.048 -0.1667 -0.8197 -0.1494
   36TCq2    O5  557   3.541   4.533  11.001 -0.2419 -0.7879  0.3642
   36TCq2    O6  558   3.703   4.691  10.988 -0.2167 -0.0263 -0.3443
   36TCq2    H2  559   3.885   4.659  11.116  0.8521 -1.2168 -0.0226
   36TCq2    H3  560   3.562   4.393  11.202  0.0589  1.1872 -1.9015
   36TCq2    H4  561   3.920   4.373  11.430 -0.4400  2.0696  0.9991
   37TMC2    C1  562   1.324   4.523  11.585 -0.3625 -0.8382 -0.1791
   37TMC2    C2  563   1.295   4.607  11.477  0.6123  0.0228  0.3208
   37TMC2    C3  564   1.395   4.689  11.439 -0.1859  0.6763 -0.0325
   37TMC2    C4  565   1.444   4.520  11.639  0.5038  0.1075  0.4667
   37TMC2    C5  566   1.536   4.615  11.602 -0.8470 -0.3093  0.2451
   37TMC2    C6  567   1.515   4.703  11.500 -0.1724  0.5767 -0.7279
   37TMC2     C  568   1.215   4.447  11.648  0.4862 -0.1030  0.3048
   37TMC2     O  569   1.114   4.431  11.577  0.4611  0.8232  0.2701
   37TMC2     H  570   1.201   4.602  11.423  0.4038 -0.8045  0.7634
   37TMC2    H1  571   1.475   4.439  11.704  0.2681  0.5558  1.1376
   37TMC2    H2  572   1.584   0.057  11.481 -0.4859  1.2152  0.8628
   37TMC2    C7  573   1.655   4.614  11.680  0.5230 -0.8862  0.6660
   37TMC2    C8  574   1.363   0.063  11.341  0.1621  0.3549  0.1792
   37TMC2    O1  575   1.648   4.554  11.789  0.0588  0.0536 -0.5299
   37TMC2    O2  576   1.265   0.050  11.266  0.6907 -0.2798 -0.0647
   37TMC2    O5  577   1.473   0.136  11.304  0.0256  0.0964  0.0275
   37TMC2    H5  578   1.468   0.188  11.221  0.2726  1.3947  0.8339
   38MPD2     C  579   0.984   4.166  12.008  0.8659  0.2454  1.0601
   38MPD2    C1  580   1.105   4.202  12.055 -0.8317  0.6080 -0.1835
   38MPD2    C2  581   1.191   4.273  11.971  0.0600  0.5656 -0.0554
   38MPD2    C3  582   1.150   4.323  11.850  0.1055  0.3662  0.4823
   38MPD2    C4  583   1.024   4.288  11.808 -0.1605 -0.8484 -0.3275
   38MPD2    C5  584   0.951   4.201  11.879  0.3850 -0.4941  0.5614
   38MPD2     H  585   1.289   4.303  12.006  0.4229  1.4407 -1.8435
   38MPD2    H1  586   0.989   4.318  11.709 -0.0845 -0.4916 -0.2441
   38MPD2    H2  587   0.919   4.097  12.061 -0.7057  0.9619  0.0502
   38MPD2    H3  588   0.853   4.174  11.842  0.4821 -0.3988  0.2367
   38MPD2     N  589   1.241   4.394  11.777  1.1695  0.3227  0.2483
   38MPD2    H5  590   1.336   4.406  11.812  1.1873  0.2345  0.2301
   38MPD2    N1  591   1.157   4.155  12.183 -0.0717 -1.1134 -0.5247
   38MPD2    H7  592   1.253   4.180  12.202 -1.1194  2.6811 -0.3808
   39MPD2     C  593   4.213   2.257   1.006  0.7551  0.1633 -0.6504
   39MPD2    C1  594   4.154   2.319   1.114  0.7412  0.1352 -0.2378
   39MPD2    C2  595   4.025   2.379   1.102  0.1387  0.0708 -0.0007
   39MPD2    C3  596   3.953   2.356   0.985  0.8568  0.6226 -0.0320
   39MPD2    C4  597   4.015   2.287   0.878 -0.3049 -0.1610 -0.1003
   39MPD2    C5  598   4.144   2.240   0.890  0.3720 -0.1482 -0.2789
   39MPD2     H  599   3.985   2.441   1.181  3.3005  1.4963  0.4869
   39MPD2    H1  600   3.973   2.290   0.779  1.1424  0.2207 -0.7086
   39MPD2    H2  601   4.315   2.220   1.013  0.4380 -0.8174 -1.2600
   39MPD2    H3  602   4.187   2.191   0.804  0.4039  0.4214 -0.5857
   39MPD2     N  603   3.810   2.393   0.979 -0.0580 -0.0118 -0.4677
   39MPD2    H5  604   3.769   2.349   0.897  1.1143 -0.8351 -0.6150
   39MPD2    N1  605   4.219   2.321   1.240  0.0488 -0.3049 -0.3105
   39MPD2    H7  606   4.309   2.275   1.244  0.5441  0.7911  0.9551
   40TCq2    C1  607   4.156   2.370   1.352  0.2151 -0.7804  0.0631
   40TCq2    O2  608   4.040   2.377   1.382  0.0960  0.2693  0.5434
   40TCq2    C2  609   4.250   2.392   1.463  0.7035  0.4080 -0.1282
   40TCq2    C3  610   4.190   2.395   1.590 -0.1817  0.5635  0.2928
   40TCq2    C4  611   4.278   2.403   1.694 -0.2969 -0.2719  0.2945
   40TCq2    C5  612   4.413   2.400   1.682  0.3028 -0.2893  0.4080
   40TCq2    C6  613   4.468   2.393   1.555 -0.3726 -0.3222  0.3538
   40TCq2    C7  614   4.383   2.397   1.442 -0.4551 -0.8907  0.2038
   40TCq2    C8  615   4.601   2.444   1.522 -0.3622  0.5259  0.8657
   40TCq2    O4  616   4.645   2.430   1.411  0.3902 -0.0649 -0.1172
   40TCq2    C9  617   4.229   2.446   1.827  0.2789 -0.0127 -0.4144
   40TCq2    O5  618   4.111   2.413   1.849 -0.1709  0.1350  0.3887
   40TCq2    O6  619   4.299   2.525   1.893  0.3034 -0.1620 -0.3158
   40TCq2    H2  620   4.084   2.394   1.611 -0.6799 -0.3003 -2.3312
   40TCq2    H3  621   4.475   2.420   1.768  0.3553  0.3107  0.2347
   40TCq2    H4  622   4.422   2.412   1.342 -0.0052  1.2567  0.7001
   41TMC2    C1  623   2.915   4.711  13.710  0.1196  0.9003  0.2910
   41TMC2    C2  624   3.048   4.677  13.716  0.3423 -0.6586  0.3127
   41TMC2    C3  625   3.120   4.682  13.604 -0.2523  0.4101  0.2596
   41TMC2    C4  626   2.859   0.029  13.600 -0.1463  0.0596 -0.5545
   41TMC2    C5  627   2.943   0.035  13.488 -0.5396 -0.2996  0.2973
   41TMC2    C6  628   3.077   4.726  13.485 -0.1923  0.1391  0.2149
   41TMC2     C  629   2.819   4.676  13.816  0.1908 -0.6384  0.0595
   41TMC2     O  630   2.701   4.668  13.780 -0.2544 -0.1321 -0.0567
   41TMC2     H  631   3.103   4.646  13.804  1.8386 -1.1068 -0.7811
   41TMC2    H1  632   2.752   0.041  13.584  0.2668  2.2170 -1.7667
   41TMC2    H2  633   3.142   0.007  13.399 -1.3003 -0.4805 -0.6853
   41TMC2    C7  634   2.878   0.062  13.359  0.2533 -0.2083  0.0183
   41TMC2    C8  635   3.262   4.654  13.608 -0.1636 -0.3951 -0.7476
   41TMC2    O1  636   2.753   0.066  13.355 -0.2939  0.0427  0.0516
   41TMC2    O2  637   3.345   4.712  13.679 -0.5054  0.5069 -0.5703
   41TMC2    O5  638   3.282   4.540  13.547  0.2562  0.4276  0.1876
   41TMC2    H5  639   3.204   4.500  13.503 -1.2473 -0.1926  3.3943
   42MPD2     C  640   2.692   4.541  14.036  0.0633  0.4500 -0.0756
   42MPD2    C1  641   2.824   4.577  14.036  0.3106 -0.3336  0.1989
   42MPD2    C2  642   2.899   4.542  14.150  0.2333 -0.3918  0.3384
   42MPD2    C3  643   2.840   4.478  14.259 -0.4242 -0.8695  0.2265
   42MPD2    C4  644   2.706   4.432  14.256  0.0420  0.4637  0.5832
   42MPD2    C5  645   2.634   4.471  14.143  0.5546 -0.0097  0.1369
   42MPD2     H  646   2.999   4.583  14.142  0.5561 -1.7299 -2.5172
   42MPD2    H1  647   2.649   4.392  14.339  0.0058 -2.4949 -0.8911
   42MPD2    H2  648   2.621   4.585  13.968  2.2207  0.3499 -2.3833
   42MPD2    H3  649   2.529   4.446  14.142  0.4769  0.3088  0.3628
   42MPD2     N  650   2.915   4.450  14.379  0.0667  0.1903 -0.4312
   42MPD2    H5  651   2.866   4.405  14.456 -0.4747  0.6944 -0.4762
   42MPD2    N1  652   2.883   4.647  13.935 -0.3449 -0.3840  0.6306
   42MPD2    H7  653   2.979   4.679  13.944 -0.4746  1.1498 -3.7419
   43MPD2     C  654   0.470   3.512   0.518  0.2309  0.0118  0.0680
   43MPD2    C1  655   0.521   3.518   0.648  0.4715 -0.1328 -0.6407
   43MPD2    C2  656   0.471   3.617   0.729  0.2942 -0.7401  0.1412
   43MPD2    C3  657   0.378   3.713   0.692 -0.4154  0.1579  0.3573
   43MPD2    C4  658   0.312   3.685   0.569  0.0039  0.6269  0.0367
   43MPD2    C5  659   0.357   3.577   0.493 -0.5277 -0.4261  0.1386
   43MPD2     H  660   0.521   3.615   0.825 -2.9399 -1.1043  1.8022
   43MPD2    H1  661   0.238   3.752   0.526 -1.5219  1.1446  3.5511
   43MPD2    H2  662   0.510   3.442   0.446  0.2780  1.6796 -1.5380
   43MPD2    H3  663   0.301   3.542   0.407 -1.1477  0.0458  0.3452
   43MPD2     N  664   0.328   3.815   0.772 -0.5372 -0.2265  0.5700
   43MPD2    H5  665   0.241   3.858   0.741 -0.4178 -0.0908  0.4238
   43MPD2    N1  666   0.632   3.445   0.703  0.1675  0.2354 -0.0538
   43MPD2    H7  667   0.649   3.466   0.801 -0.4741  0.3711  0.0286
   44TCq2    C1  668   0.013   4.152   0.909 -0.0865 -0.2438  0.2114
   44TCq2    O2  669   4.710   4.138   0.790  0.3279 -0.9844  0.0886
   44TCq2    C2  670   0.154   4.147   0.937  0.3699 -0.0223 -0.1357
   44TCq2    C3  671   0.198   4.188   1.058 -0.9485  0.9974 -0.3820
   44TCq2    C4  672   0.304   4.131   1.115 -0.2212  0.0146  0.1455
   44TCq2    C5  673   0.367   4.028   1.054  0.1096  0.5446 -0.5694
   44TCq2    C6  674   0.324   3.988   0.932 -0.1549 -0.1086  0.8099
   44TCq2    C7  675   0.224   4.049   0.862  0.3289 -0.1096 -0.0146
   44TCq2    C8  676   0.383   3.856   0.886 -0.2032 -0.5156 -0.4416
   44TCq2    O4  677   0.492   3.826   0.935 -0.1815  0.1715 -0.0478
   44TCq2    C9  678   0.327   4.158   1.254 -0.6129 -0.2188  0.2431
   44TCq2    O5  679   0.263   4.252   1.306  0.2197  0.2841 -0.3390
   44TCq2    O6  680   0.378   4.064   1.318  0.6680  0.2014 -0.4536
   44TCq2    H2  681   0.139   4.246   1.128 -0.4523  1.2774 -0.1928
   44TCq2    H3  682   0.448   3.978   1.106  0.2965  0.7913 -0.6218
   44TCq2    H4  683   0.193   4.017   0.763 -0.6761  0.0526  0.2453
   45TMC2    C1  684   0.860   4.557   9.808  0.3679  0.0264  0.3818
   45TMC2    C2  685   0.953   4.548   9.911 -0.6381  0.6375  0.0933
   45TMC2    C3  686   1.019   4.657   9.948  0.3312  0.8177 -0.0519
   45TMC2    C4  687   0.841   4.676   9.742 -0.4219  0.3406 -0.4648
   45TMC2    C5  688   0.916   0.057   9.777 -0.2168  0.6561  0.0274
   45TMC2    C6  689   1.011   0.049   9.878 -0.6481  0.2019  0.4400
   45TMC2     C  690   0.787   4.438   9.766  0.0365 -0.1018 -0.1917
   45TMC2     O  691   0.837   4.330   9.789  0.2416  0.3140 -0.4626
   45TMC2     H  692   0.979   4.456   9.961 -1.5731  0.3513  0.0609
   45TMC2    H1  693   0.798   4.678   9.643 -0.2851 -1.1610 -0.5496
   45TMC2    H2  694   1.067   0.133   9.917 -1.5930  1.9994 -2.0916
   45TMC2    C7  695   0.917   0.170   9.691  0.2732  0.1113 -0.2760
   45TMC2    C8  696   1.156   4.628   9.991 -0.2645 -0.2009 -0.0032
   45TMC2    O1  697   0.848   0.166   9.591 -0.0572  0.0372 -0.2338
   45TMC2    O2  698   1.223   4.530   9.966 -0.3317  0.4872  0.2761
   45TMC2    O5  699   1.198   0.002  10.076  0.7601  0.5528  0.4084
   45TMC2    H5  700   1.134   0.076  10.087  0.3022 -0.1320  2.2726
   46MPD2     C  701   0.589   4.242   9.632 -0.6035 -0.5325 -0.9141
   46MPD2    C1  702   0.602   4.379   9.604  0.6219  0.0648  0.4399
   46MPD2    C2  703   0.513   4.441   9.522  0.3174  0.3768  0.9708
   46MPD2    C3  704   0.406   4.373   9.473  0.2730  0.5551  0.1755
   46MPD2    C4  705   0.404   4.235   9.483  0.2820 -0.2745  0.4276
   46MPD2    C5  706   0.493   4.170   9.567  0.1225 -0.7865 -0.3133
   46MPD2     H  707   0.526   4.547   9.506 -0.0667  0.9320  4.2851
   46MPD2    H1  708   0.327   4.168   9.446  0.3722  0.6455 -1.4136
   46MPD2    H2  709   0.653   4.197   9.707 -1.9110 -2.4191 -0.9592
   46MPD2    H3  710   0.492   4.064   9.588 -0.2002 -0.4491  1.4029
   46MPD2     N  711   0.291   4.446   9.425  0.1395 -0.2441 -0.2092
   46MPD2    H5  712   0.305   4.547   9.426  1.2966 -0.3871 -1.3145
   46MPD2    N1  713   0.685   4.471   9.676  0.1284 -0.5537  0.0515
   46MPD2    H7  714   0.672   4.571   9.662  0.9200 -0.4583  0.0070
   47TMC2    C1  715   2.900   0.938   9.696  0.1226 -0.3735  0.4526
   47TMC2    C2  716   2.877   1.050   9.772 -0.1524  0.4141 -0.5290
   47TMC2    C3  717   2.756   1.068   9.820  0.7819 -0.1264 -1.0376
   47TMC2    C4  718   2.811   0.832   9.713  0.7080  0.3462 -0.3017
   47TMC2    C5  719   2.690   0.847   9.787 -0.1363  0.1031 -0.1978
   47TMC2    C6  720   2.661   0.968   9.837  0.3370 -0.6167 -0.3478
   47TMC2     C  721   2.972   0.947   9.573  0.2364 -0.0918  0.2056
   47TMC2     O  722   2.987   1.059   9.534 -0.8259  0.4966  0.1155
   47TMC2     H  723   2.927   1.145   9.754  0.6488 -0.0934 -0.9645
   47TMC2    H1  724   2.834   0.747   9.649  1.7192  0.5319 -0.1755
   47TMC2    H2  725   2.575   0.986   9.901 -0.2938  0.3946 -1.4843
   47TMC2    C7  726   2.582   0.787   9.704 -0.3338  0.3218  0.9059
   47TMC2    C8  727   2.754   1.168   9.928 -0.5124 -0.4325  0.5663
   47TMC2    O1  728   2.605   0.777   9.585  0.6496  0.1482  0.2517
   47TMC2    O2  729   2.669   1.255   9.943 -0.0337  0.1503  0.0196
   47TMC2    O5  730   2.840   1.120  10.025 -0.3061 -0.0857  0.0228
   47TMC2    H5  731   2.884   1.034  10.010  0.0559  0.6386 -3.0616
   48MPD2     C  732   3.125   0.909   9.329 -0.2209 -0.3004 -0.2886
   48MPD2    C1  733   3.120   0.821   9.433 -0.3722 -0.6535 -0.1022
   48MPD2    C2  734   3.196   0.703   9.420 -0.6249 -0.2002 -0.0680
   48MPD2    C3  735   3.289   0.684   9.317 -0.5475 -0.0078 -0.5105
   48MPD2    C4  736   3.303   0.780   9.227 -0.3196 -0.2213  0.1830
   48MPD2    C5  737   3.220   0.894   9.227  0.8641  0.3768  0.1916
   48MPD2     H  738   3.167   0.619   9.482 -0.4962 -0.8375 -0.8922
   48MPD2    H1  739   3.375   0.765   9.147 -1.0383  0.9976 -0.7022
   48MPD2    H2  740   3.068   1.001   9.322  1.0963  0.5961  0.8985
   48MPD2    H3  741   3.230   0.976   9.157 -1.3361 -0.6920 -1.3635
   48MPD2     N  742   3.352   0.557   9.306  0.6554 -0.4185 -0.0514
   48MPD2    H5  743   3.312   0.492   9.373  0.1666 -0.5681 -0.4982
   48MPD2    N1  744   3.040   0.837   9.544 -0.1106  0.2787  0.2069
   48MPD2    H7  745   3.023   0.755   9.601  0.9853  0.3165  0.6041
   49MPD2     C  746   1.157   2.247   9.914 -0.8408  0.1256  0.3537
   49MPD2    C1  747   1.145   2.214  10.048  0.0487 -0.5230  0.5917
   49MPD2    C2  748   1.210   2.286  10.145  0.1089 -0.2676  0.5950
   49MPD2    C3  749   1.296   2.391  10.106  0.6344  0.8241  0.0389
   49MPD2    C4  750   1.306   2.423   9.971 -0.4105  0.2739 -0.1447
   49MPD2    C5  751   1.239   2.346   9.878 -0.0117  0.4303 -0.1790
   49MPD2     H  752   1.189   2.264  10.249  1.0429 -1.8620  0.4425
   49MPD2    H1  753   1.370   2.503   9.937  3.2476 -2.8661 -0.7838
   49MPD2    H2  754   1.102   2.200   9.833  0.4585 -1.4021  0.3495
   49MPD2    H3  755   1.244   2.372   9.773  0.3062 -0.8413 -0.4748
   49MPD2     N  756   1.360   2.470  10.204 -0.3821 -0.6471  0.4825
   49MPD2    H5  757   1.425   2.543  10.177 -1.8062  0.4766  0.0906
   49MPD2    N1  758   1.068   2.103  10.088 -0.2772 -0.2175  0.0261
   49MPD2    H7  759   1.063   2.097  10.189 -0.4090  0.6637  0.0752
   50TCq2    C1  760   1.012   2.011  10.007  0.2056 -0.1559 -0.1125
   50TCq2    O2  761   0.990   2.014   9.888  0.3765 -0.6587 -0.0947
   50TCq2    C2  762   0.946   1.906  10.079  0.0960 -0.0237 -0.1693
   50TCq2    C3  763   0.934   1.784  10.013 -0.0771 -0.2904 -0.4096
   50TCq2    C4  764   0.891   1.678  10.087 -0.3334  0.6088  0.1954
   50TCq2    C5  765   0.854   1.686  10.214 -0.1154 -0.1567  0.1296
   50TCq2    C6  766   0.860   1.807  10.272  0.3996 -0.0044  0.2734
   50TCq2    C7  767   0.910   1.924  10.208  0.4212  0.0265 -0.1410
   50TCq2    C8  768   0.762   1.828  10.378 -0.2931 -0.3370  0.1400
   50TCq2    O4  769   0.728   1.941  10.390  0.0154 -0.2234 -0.0018
   50TCq2    C9  770   0.860   1.550  10.015  0.4265  0.4494 -0.1719
   50TCq2    O5  771   0.809   1.457  10.082  0.2062 -0.2575  0.4498
   50TCq2    O6  772   0.870   1.552   9.891 -0.0407  0.3397 -0.1464
   50TCq2    H2  773   0.970   1.765   9.913 -3.1965 -1.6531 -1.2601
   50TCq2    H3  774   0.799   1.604  10.258 -0.7917 -0.4602 -1.2639
   50TCq2    H4  775   0.906   2.027  10.242 -1.9574 -0.3340  0.6750
   51MPD2     C  776   1.946   1.616   1.514 -0.0383  0.0523 -0.6233
   51MPD2    C1  777   1.820   1.578   1.490 -0.3648  0.0216 -0.0970
   51MPD2    C2  778   1.717   1.641   1.557  0.2922 -0.7121  0.4785
   51MPD2    C3  779   1.735   1.735   1.648  0.7352  0.3505  0.2833
   51MPD2    C4  780   1.870   1.782   1.664 -0.5690 -0.2264 -0.4632
   51MPD2    C5  781   1.973   1.720   1.599  0.0990  0.3137  0.0591
   51MPD2     H  782   1.615   1.618   1.529  0.1086  1.6172 -0.7272
   51MPD2    H1  783   1.895   1.855   1.740 -1.0285 -0.5760  0.0261
   51MPD2    H2  784   2.034   1.585   1.458 -1.0241  0.6273 -2.5084
   51MPD2    H3  785   2.076   1.751   1.613 -0.1346  0.8853  0.5097
   51MPD2     N  786   1.640   1.796   1.727 -0.3878 -0.1723  0.3378
   51MPD2    H5  787   1.668   1.866   1.794  0.0263  1.4714 -1.5522
   51MPD2    N1  788   1.789   1.485   1.389 -0.9631  0.2480  0.0109
   51MPD2    H7  789   1.693   1.452   1.387 -1.9157  2.9192  2.1674
   52TCq2    C1  790   1.513   1.763   1.735 -0.0814  0.4771  0.3751
   52TCq2    O2  791   1.453   1.662   1.696  0.2801  0.1580 -0.6270
   52TCq2    C2  792   1.434   1.851   1.822 -0.0839 -0.2010  0.7994
   52TCq2    C3  793   1.305   1.803   1.837 -0.3114  0.7647 -0.4969
   52TCq2    C4  794   1.193   1.875   1.810  0.4079 -0.2306 -0.1552
   52TCq2    C5  795   1.208   2.012   1.785 -0.7930  0.3322  0.0895
   52TCq2    C6  796   1.339   2.059   1.766 -0.2450  0.6209 -0.1880
   52TCq2    C7  797   1.447   1.984   1.784  0.3215 -0.4418 -0.4643
   52TCq2    C8  798   1.355   2.200   1.727  0.0287 -0.3480  0.2579
   52TCq2    O4  799   1.466   2.244   1.767  0.7484  0.5215 -0.4058
   52TCq2    C9  800   1.064   1.814   1.841  0.3022  0.0663 -0.1352
   52TCq2    O5  801   1.073   1.688   1.864 -0.7749  0.8020  0.1969
   52TCq2    O6  802   0.955   1.874   1.816  0.2809  0.5749 -0.1257
   52TCq2    H2  803   1.292   1.699   1.866 -0.9264  0.7696 -0.7590
   52TCq2    H3  804   1.123   2.080   1.786 -3.3010 -2.7696 -1.8356
   52TCq2    H4  805   1.545   2.030   1.784 -0.2806  0.8297 -1.7248
   53TMC2    C1  806   2.251   4.553  12.121  0.1990  0.3231 -0.5387
   53TMC2    C2  807   2.335   4.611  12.214  0.3041 -0.0396 -0.0805
   53TMC2    C3  808   2.303   4.613  12.349 -0.4644  1.6384 -0.0187
   53TMC2    C4  809   2.139   4.487  12.166 -0.1091 -0.7068  0.0960
   53TMC2    C5  810   2.102   4.499  12.298 -0.0546  0.1488 -0.6706
   53TMC2    C6  811   2.179   4.570  12.389  1.2460 -0.2771 -0.5225
   53TMC2     C  812   2.256   4.594  11.986 -0.6475 -1.1913  0.0966
   53TMC2     O  813   2.363   4.625  11.937  0.0288 -0.1963 -0.2650
   53TMC2     H  814   2.423   4.663  12.179  0.3950 -1.0712 -1.3834
   53TMC2    H1  815   2.087   4.420  12.098 -0.2348  1.2680 -1.7533
   53TMC2    H2  816   2.149   4.610  12.486  2.8784  0.0682 -0.1557
   53TMC2    C7  817   1.966   4.470  12.325  0.3926  0.1143 -0.6800
   53TMC2    C8  818   2.388   4.679  12.444  0.8997  0.3362 -0.0620
   53TMC2    O1  819   1.905   4.421  12.231 -0.4780 -0.6720  0.3515
   53TMC2    O2  820   2.350   4.722  12.551 -0.5697  0.2418  1.0213
   53TMC2    O5  821   2.508   4.618  12.425 -0.4779 -0.2334 -0.2946
   53TMC2    H5  822   2.504   4.541  12.364 -0.4105 -0.2521 -0.2757
   54MPD2     C  823   2.162   0.001  11.737  0.1164  0.0359  0.1377
   54MPD2    C1  824   2.075   4.647  11.813 -0.0280  0.2674  0.1625
   54MPD2    C2  825   1.943   4.634  11.778 -0.4905 -0.1282  0.3356
   54MPD2    C3  826   1.892   4.691  11.664  0.1989  0.3822 -0.1774
   54MPD2    C4  827   1.980   0.016  11.575  0.3718 -0.1786 -0.1554
   54MPD2    C5  828   2.111   0.052  11.623  0.2859 -0.7575  0.4111
   54MPD2     H  829   1.875   4.573  11.836  1.1179 -0.7902  1.5533
   54MPD2    H1  830   1.962   0.047  11.472  0.8780  0.4703 -0.0469
   54MPD2    H2  831   2.266   0.021  11.760 -0.0092  0.9428 -0.0839
   54MPD2    H3  832   2.179   0.114  11.566  0.0854 -1.5621 -0.7226
   54MPD2     N  833   1.758   4.685  11.624 -0.7061 -0.1093  0.2732
   54MPD2    H5  834   1.749   4.724  11.531 -2.0527  0.3507  0.5932
   54MPD2    N1  835   2.124   4.591  11.933 -0.1501  0.4129 -0.0031
   54MPD2    H7  836   2.048   4.558  11.992  1.4932 -0.9977  1.3301
   55MPD2     C  837   2.292   3.021   1.256  0.0034  0.4653 -0.9871
   55MPD2    C1  838   2.248   2.891   1.234  0.8704  0.2304 -0.1806
   55MPD2    C2  839   2.107   2.870   1.218 -0.1979 -0.1212 -0.6395
   55MPD2    C3  840   2.021   2.977   1.215 -0.2486  0.3451 -0.4743
   55MPD2    C4  841   2.071   3.108   1.216  0.0301 -0.4643 -0.5075
   55MPD2    C5  842   2.207   3.128   1.238 -0.0787 -0.5591  0.4780
   55MPD2     H  843   2.061   2.773   1.206 -1.6600  0.5846 -0.7583
   55MPD2    H1  844   2.016   3.201   1.200 -1.8203 -1.3348  0.7631
   55MPD2    H2  845   2.396   3.049   1.272 -0.1884  0.6578 -0.1155
   55MPD2    H3  846   2.231   3.233   1.238 -0.2504 -0.5147 -0.3844
   55MPD2     N  847   1.888   2.956   1.189 -0.7205  0.0590 -0.2817
   55MPD2    H5  848   1.865   2.857   1.191  1.6956 -0.4909 -0.0372
   55MPD2    N1  849   2.338   2.782   1.233 -1.0651  0.4082 -0.1272
   55MPD2    H7  850   2.437   2.803   1.229 -1.1184  0.5231 -0.8599
   56TCq2    C1  851   2.305   2.650   1.247  0.5311 -0.0261  0.4569
   56TCq2    O2  852   2.191   2.598   1.255 -0.2103  0.1732  0.3931
   56TCq2    C2  853   2.421   2.561   1.261 -0.3954 -0.2954  0.0394
   56TCq2    C3  854   2.544   2.617   1.281 -0.3141  0.2458  0.0054
   56TCq2    C4  855   2.651   2.535   1.306 -0.3828  0.4454 -0.4002
   56TCq2    C5  856   2.635   2.399   1.328 -0.3460  0.2863  0.2768
   56TCq2    C6  857   2.507   2.353   1.322  0.3512  0.1800 -0.5644
   56TCq2    C7  858   2.395   2.429   1.291 -0.1657  0.8341 -0.6258
   56TCq2    C8  859   2.497   2.205   1.317 -0.2240 -0.7712 -0.2569
   56TCq2    O4  860   2.592   2.142   1.281  0.7826 -0.2021  0.1095
   56TCq2    C9  861   2.780   2.588   1.331 -0.0163  0.4494 -0.0723
   56TCq2    O5  862   2.879   2.511   1.320 -0.3993  0.1409  0.1708
   56TCq2    O6  863   2.789   2.711   1.308  0.2766 -0.0205 -0.4059
   56TCq2    H2  864   2.574   2.721   1.273  1.8034 -0.4246 -1.0903
   56TCq2    H3  865   2.720   2.336   1.354  0.5284  1.3414 -0.0528
   56TCq2    H4  866   2.299   2.388   1.260  0.4833 -0.9668 -0.2535
   57TMC2    C1  867   2.247   3.470  13.701 -0.2805  0.0797 -0.7551
   57TMC2    C2  868   2.263   3.340  13.668 -0.1121  0.3813  0.0275
   57TMC2    C3  869   2.319   3.316  13.548  0.9449 -0.6395 -0.0794
   57TMC2    C4  870   2.286   3.575  13.617 -0.6291  0.5320  0.5890
   57TMC2    C5  871   2.342   3.539  13.496  0.0906 -1.1797 -0.3076
   57TMC2    C6  872   2.363   3.412  13.463 -0.1220  0.2110  0.0551
   57TMC2     C  873   2.174   3.502  13.825  0.4555 -0.0114 -0.2884
   57TMC2     O  874   2.093   3.594  13.829 -0.2555 -0.2669  0.5578
   57TMC2     H  875   2.226   3.259  13.730 -1.4857 -0.4769 -1.9180
   57TMC2    H1  876   2.268   3.679  13.640  1.8310  0.9817  0.4413
   57TMC2    H2  877   2.404   3.379  13.368 -0.1837 -0.3124  0.2061
   57TMC2    C7  878   2.404   3.641  13.414 -0.6141 -0.7088  0.0251
   57TMC2    C8  879   2.325   3.177  13.511  0.1039 -0.1742 -1.3708
   57TMC2    O1  880   2.413   3.757  13.454 -0.8896 -0.2229  0.8164
   57TMC2    O2  881   2.318   3.085  13.595  0.4366 -0.0500  0.0094
   57TMC2    O5  882   2.256   3.170  13.395  0.0236 -0.0344 -0.5283
   57TMC2    H5  883   2.260   3.256  13.348  0.2673  1.1742  1.7071
   58MPD2     C  884   1.911   3.180  14.125 -0.4821 -0.0378 -0.0604
   58MPD2    C1  885   1.860   3.281  14.049  0.3207 -0.0217 -1.1204
   58MPD2    C2  886   1.952   3.358  13.985 -0.1455  0.2689  0.6883
   58MPD2    C3  887   2.090   3.337  13.991  0.3391 -0.1128 -0.8318
   58MPD2    C4  888   2.136   3.227  14.064  0.2488 -0.1827 -0.0808
   58MPD2    C5  889   2.044   3.151  14.126 -0.2130 -0.0884 -0.1784
   58MPD2     H  890   1.917   3.441  13.924 -0.3665 -1.4146 -1.4504
   58MPD2    H1  891   2.241   3.198  14.073  1.2198  3.2259 -0.5588
   58MPD2    H2  892   1.847   3.115  14.184 -0.7830  0.0142 -0.3247
   58MPD2    H3  893   2.083   3.070  14.186  1.5672  1.0544  0.2396
   58MPD2     N  894   2.192   3.398  13.911  0.6994 -0.4240 -0.2060
   58MPD2    H5  895   2.283   3.353  13.912  2.1951  2.5922 -0.7021
   58MPD2    N1  896   1.724   3.323  14.050 -0.0620 -0.2087 -0.1920
   58MPD2    H7  897   1.701   3.409  14.001 -2.4797  0.2127  1.6518
   59MPD2     C  898   4.576   3.968  13.042 -0.3338 -0.0741  0.1287
   59MPD2    C1  899   4.641   3.840  13.039 -0.5812  0.3834 -0.1284
   59MPD2    C2  900   4.708   3.799  13.152  0.0386 -0.4995  0.6398
   59MPD2    C3  901   4.726   3.886  13.260 -0.0097 -0.0551 -0.1507
   59MPD2    C4  902   4.660   4.002  13.265 -0.8203  0.6413 -0.0256
   59MPD2    C5  903   4.580   4.033  13.163  0.3481 -0.2748  0.2741
   59MPD2     H  904   0.019   3.697  13.159  0.6334 -0.3009  0.2134
   59MPD2    H1  905   4.685   4.071  13.345  2.4827 -2.5562  1.6974
   59MPD2    H2  906   4.521   4.020  12.964  0.3954  0.2688 -0.1548
   59MPD2    H3  907   4.521   4.123  13.157 -0.4068 -0.8106 -0.3894
   59MPD2     N  908   0.105   3.862  13.355  0.0025  0.4620  0.8038
   59MPD2    H5  909   0.128   3.943  13.412 -1.2063 -0.2565  2.3031
   59MPD2    N1  910   4.632   3.753  12.921  0.4181  0.1869  0.1913
   59MPD2    H7  911   4.678   3.663  12.928 -0.4760 -0.3898 -1.4375
   60TCq2    C1  912   4.587   3.791  12.798 -0.1285 -0.6328 -0.2648
   60TCq2    O2  913   4.544   3.899  12.757 -0.4226  0.1469 -0.9575
   60TCq2    C2  914   4.579   3.676  12.708 -0.1601  0.0617  0.2446
   60TCq2    C3  915   4.623   3.556  12.746 -0.4159 -0.5830 -0.0590
   60TCq2    C4  916   4.615   3.463  12.644  0.0812 -0.7772  0.5310
   60TCq2    C5  917   4.571   3.478  12.515 -0.1352 -0.5677  0.3275
   60TCq2    C6  918   4.509   3.594  12.491 -0.4333  0.5617  0.5815
   60TCq2    C7  919   4.517   3.695  12.586 -0.0022  0.0186 -0.0461
   60TCq2    C8  920   4.479   3.619  12.350  0.0974 -0.2096  0.6683
   60TCq2    O4  921   4.560   3.565  12.277 -0.5591 -0.9269  0.4220
   60TCq2    C9  922   4.663   3.327  12.670 -0.9048 -0.2704 -0.6189
   60TCq2    O5  923   4.640   3.279  12.787  0.3164 -0.4571  0.4429
   60TCq2    O6  924   4.701   3.265  12.568  0.3597 -0.1657 -0.2132
   60TCq2    H2  925   4.661   3.526  12.843  1.4302  1.8204 -0.0522
   60TCq2    H3  926   4.571   3.392  12.450 -3.9869 -1.2968  1.2543
   60TCq2    H4  927   4.466   3.786  12.559  1.9293  1.2127  0.2980
   61MPD2     C  928   4.353   0.170  15.222 -0.2705  1.1007  0.4527
   61MPD2    C1  929   4.228   0.129  15.172  0.4440 -0.3983  0.0262
   61MPD2    C2  930   4.219   0.100  15.036 -0.5778  0.1912 -0.3531
   61MPD2    C3  931   4.326   0.114  14.947  0.7492  0.2515 -0.0750
   61MPD2    C4  932   4.449   0.145  14.999 -0.6093  0.2108  0.0300
   61MPD2    C5  933   4.463   0.175  15.137 -0.3047  0.1187 -0.1678
   61MPD2     H  934   4.118   0.069  15.011 -0.3255 -1.2014  0.3282
   61MPD2    H1  935   4.533   0.175  14.938  0.0210  1.2654  1.4135
   61MPD2    H2  936   4.371   0.205  15.323 -0.2797 -1.8964  1.4769
   61MPD2    H3  937   4.552   0.229  15.169  0.3390 -0.3435 -1.1998
   61MPD2     N  938   4.308   0.120  14.808  0.3971  0.8135 -0.1837
   61MPD2    H5  939   4.376   0.177  14.757  0.8551  0.8836  0.5036
   61MPD2    N1  940   4.107   0.120  15.243 -0.5235 -0.3779 -0.5290
   61MPD2    H7  941   4.026   0.086  15.191  1.0796 -4.9698  0.0306
   62TCq2    C1  942   4.097   0.191  15.359  0.3806 -0.0607 -0.1214
   62TCq2    O2  943   4.166   0.270  15.419  0.8075  0.1901  0.1324
   62TCq2    C2  944   3.954   0.215  15.385 -0.4766 -0.0813 -0.4901
   62TCq2    C3  945   3.860   0.118  15.373  0.3249  0.4017 -0.4271
   62TCq2    C4  946   3.733   0.167  15.372 -0.1770 -0.4316  0.9139
   62TCq2    C5  947   3.699   0.298  15.360  0.5191 -0.4088 -0.4378
   62TCq2    C6  948   3.794   0.391  15.387  0.4219  0.9030 -0.4403
   62TCq2    C7  949   3.921   0.348  15.398  0.6034  0.3528  0.0690
   62TCq2    C8  950   3.777   0.521  15.309  0.5618 -0.5321 -0.2439
   62TCq2    O4  951   3.876   0.558  15.243 -0.5888 -0.1701  0.2116
   62TCq2    C9  952   3.619   0.075  15.375  0.2513 -0.1683 -0.2683
   62TCq2    O5  953   3.643   4.685  15.348 -0.3650 -0.3256  0.4041
   62TCq2    O6  954   3.504   0.119  15.409 -0.5132 -0.4890  0.2766
   62TCq2    H2  955   3.880   0.012  15.360  2.9484  1.0978 -2.0733
   62TCq2    H3  956   3.595   0.326  15.366  0.4494 -1.6281  3.7400
   62TCq2    H4  957   3.999   0.422  15.414  1.0572  0.1198 -1.0184
   63TMC2    C1  958   3.464   0.183  10.864 -0.4124  0.1529 -1.1097
   63TMC2    C2  959   3.536   0.212  10.978  0.1138 -0.1948  0.1757
   63TMC2    C3  960   3.650   0.286  10.956 -0.5382  0.4005 -0.4024
   63TMC2    C4  961   3.501   0.233  10.734 -0.3782 -0.2302  0.4110
   63TMC2    C5  962   3.609   0.311  10.726 -0.2040 -0.4153 -1.0400
   63TMC2    C6  963   3.685   0.340  10.840 -0.8931  0.2365 -0.1792
   63TMC2     C  964   3.334   0.135  10.874  0.0358 -0.1590  0.1279
   63TMC2     O  965   3.282   0.129  10.986  0.1226 -0.3284  0.3455
   63TMC2     H  966   3.509   0.173  11.076 -0.7906  1.4200  0.5866
   63TMC2    H1  967   3.440   0.210  10.647  0.0655  0.3839 -0.0627
   63TMC2    H2  968   3.774   0.402  10.836 -0.8095  0.2318  1.6383
   63TMC2    C7  969   3.634   0.366  10.595  0.1426 -0.1499 -0.4918
   63TMC2    C8  970   3.731   0.325  11.072 -0.2707 -0.7135  0.0577
   63TMC2    O1  971   3.551   0.340  10.512 -0.1496 -0.2961  0.8194
   63TMC2    O2  972   3.768   0.432  11.105  0.0968 -0.4335 -0.5441
   63TMC2    O5  973   3.799   0.212  11.083 -0.6160  0.0750  0.3053
   63TMC2    H5  974   3.751   0.136  11.044  1.3914  1.0669 -4.0300
   64MPD2     C  975   2.970   4.549  10.685 -0.2416 -0.2756 -0.4088
   64MPD2    C1  976   3.085   4.549  10.601  0.8631  0.2940  0.2259
   64MPD2    C2  977   3.195   4.627  10.632 -0.0409  0.2838  0.0803
   64MPD2    C3  978   3.199   4.705  10.741  0.5683 -0.2034 -0.2431
   64MPD2    C4  979   3.088   4.704  10.823 -0.0019  0.3014  0.1200
   64MPD2    C5  980   2.977   4.627  10.798 -0.6089 -0.1736 -0.1159
   64MPD2     H  981   3.285   4.625  10.571 -0.2157  0.3036 -0.1788
   64MPD2    H1  982   3.078   0.033  10.915  4.1910  1.4495 -0.1239
   64MPD2    H2  983   2.881   4.491  10.664  1.2348 -2.3444 -0.9589
   64MPD2    H3  984   2.886   4.642  10.855 -1.2413 -0.8848 -0.9338
   64MPD2     N  985   3.311   0.057  10.761  0.3766 -0.4670 -0.5995
   64MPD2    H5  986   3.387   0.046  10.694  1.1546  0.8530  0.0694
   64MPD2    N1  987   3.096   4.482  10.475  0.1156  0.2633 -0.6455
   64MPD2    H7  988   3.187   4.485  10.429 -0.2815  1.4556 -1.3787
   65MPD2     C  989   0.030   4.318  15.607 -0.2536 -0.0088  0.6143
   65MPD2    C1  990   0.006   4.414  15.514 -0.0766  0.2483  0.0444
   65MPD2    C2  991   4.598   4.436  15.482  0.0972  0.5213  0.0729
   65MPD2    C3  992   4.497   4.359  15.540  0.1284 -0.1971  0.0123
   65MPD2    C4  993   4.532   4.254  15.628  0.1742 -0.4100  0.1553
   65MPD2    C5  994   4.665   4.232  15.659 -0.3308  0.0628  0.0374
   65MPD2     H  995   4.576   4.502  15.399 -1.2286 -0.4925 -0.3731
   65MPD2    H1  996   4.456   4.192  15.673  0.4592 -0.5314  0.4663
   65MPD2    H2  997   0.127   4.309  15.654  0.3198  0.9369 -0.3975
   65MPD2    H3  998   4.695   4.147  15.718  2.0191  0.0336 -1.2276
   65MPD2     N  999   4.359   4.375  15.507  0.0273 -0.0422  0.0936
   65MPD2    H5 1000   4.291   4.322  15.561  0.4305 -0.9682 -0.2908
   65MPD2    N1 1001   0.099   4.495  15.447 -0.2032  0.4714  0.1004
   65MPD2    H7 1002   0.074   4.552  15.367 -1.1063 -0.7161 -0.4518
   66TCq2    C1 1003   0.235   4.515  15.474 -0.2477  0.5335 -0.3388
   66TCq2    O2 1004   0.314   4.462  15.554  0.6048  0.3120  0.1624
   66TCq2    C2 1005   0.284   4.637  15.418  0.1262  0.0951 -0.0057
   66TCq2    C3 1006   0.418   4.652  15.392 -0.0080 -0.1585 -0.4234
   66TCq2    C4 1007   0.456   0.044  15.348 -0.3650 -0.5636 -0.6258
   66TCq2    C5 1008   0.374   0.150  15.338 -0.9030 -0.3069  0.5478
   66TCq2    C6 1009   0.245   0.133  15.372 -0.4135  0.5866  0.5431
   66TCq2    C7 1010   0.196   0.011  15.408  1.1044  0.9814 -0.4874
   66TCq2    C8 1011   0.162   0.250  15.379  0.0942 -0.5300  0.8497
   66TCq2    O4 1012   0.189   0.339  15.298  0.4734 -0.5965 -0.1342
   66TCq2    C9 1013   0.593   0.060  15.310 -0.3419 -0.1201  0.1707
   66TCq2    O5 1014   0.635   0.179  15.287  0.3945 -0.1727  0.5505
   66TCq2    O6 1015   0.672   4.692  15.326  0.5074  0.4216 -0.5042
   66TCq2    H2 1016   0.490   4.571  15.390 -1.5690 -1.5559 -0.8017
   66TCq2    H3 1017   0.421   0.245  15.315  0.0115 -0.6559  0.9623
   66TCq2    H4 1018   0.090   4.722  15.420  1.0727  0.5823 -1.2851
   67MPD2     C 1019   4.358   4.201  13.970  0.1353  0.2955  0.4726
   67MPD2    C1 1020   4.399   4.328  13.979 -0.3651 -0.3839 -0.3767
   67MPD2    C2 1021   4.363   4.422  13.885  0.2222  0.1200 -0.8048
   67MPD2    C3 1022   4.293   4.385  13.765  0.1527  0.5060 -0.1469
   67MPD2    C4 1023   4.257   4.250  13.756 -0.7330  0.8045  0.2060
   67MPD2    C5 1024   4.289   4.164  13.856 -0.2150 -0.0923  0.3876
   67MPD2     H 1025   4.398   4.523  13.904  0.5016 -0.2577  0.6880
   67MPD2    H1 1026   4.207   4.211  13.669 -1.3093 -3.0780  2.2613
   67MPD2    H2 1027   4.377   4.120  14.040 -0.6227 -0.1842  0.1319
   67MPD2    H3 1028   4.251   4.063  13.849  2.1202 -1.0054  1.0143
   67MPD2     N 1029   4.275   4.470  13.651  1.1119  0.2030 -0.1453
   67MPD2    H5 1030   4.232   4.424  13.571  1.1680 -0.9532  0.4790
   67MPD2    N1 1031   4.479   4.366  14.099 -0.1583 -0.6626 -0.2939
   67MPD2    H7 1032   4.511   4.460  14.121 -0.4513 -1.2475  2.6602
   68TCq2    C1 1033   4.528   4.269  14.184 -0.1648  0.2543  0.3203
   68TCq2    O2 1034   4.551   4.150  14.166  0.2372 -0.1369  0.2007
   68TCq2    C2 1035   4.586   4.325  14.299 -0.5978 -0.1219  0.3676
   68TCq2    C3 1036   4.492   4.385  14.373  0.2658 -0.4164 -0.1439
   68TCq2    C4 1037   4.545   4.417  14.498 -0.4847  0.1493 -0.2202
   68TCq2    C5 1038   4.657   4.360  14.546  0.4026 -0.3682  0.8438
   68TCq2    C6 1039   0.012   4.287  14.471  0.3177  0.7013 -0.2276
   68TCq2    C7 1040   4.710   4.280  14.337 -0.0591  0.3771  0.2306
   68TCq2    C8 1041   0.130   4.220  14.522  0.1226  0.1685  0.4328
   68TCq2    O4 1042   0.190   4.137  14.456  0.4644 -0.2671  0.0034
   68TCq2    C9 1043   4.467   4.496  14.593  0.1539  0.4481 -0.3113
   68TCq2    O5 1044   4.488   4.474  14.716  0.4295  0.2732 -0.1603
   68TCq2    O6 1045   4.356   4.527  14.547  0.6958 -0.2116 -0.2765
   68TCq2    H2 1046   4.393   4.413  14.339  0.5008  2.0034  1.0949
   68TCq2    H3 1047   4.663   4.374  14.654 -1.4367  0.7773  0.7930
   68TCq2    H4 1048   0.039   4.212  14.274  0.6191  2.4226 -1.3542
   69TMC2    C1 1049   1.277   0.474  12.025 -0.3770 -0.1812 -0.3116
   69TMC2    C2 1050   1.169   0.404  11.975 -0.0648 -0.6289 -0.3064
   69TMC2    C3 1051   1.130   0.437  11.844  0.9169  0.0520  0.8230
   69TMC2    C4 1052   1.328   0.585  11.961  0.6037 -0.1768  0.0891
   69TMC2    C5 1053   1.301   0.608  11.828 -0.2976 -0.6119 -0.2374
   69TMC2    C6 1054   1.199   0.533  11.769 -0.3940  0.3901  0.6651
   69TMC2     C 1055   1.349   0.419  12.137  0.1992  0.3801 -0.5047
   69TMC2     O 1056   1.274   0.355  12.217 -0.2177 -0.1759  0.1327
   69TMC2     H 1057   1.115   0.322  12.022  1.2224 -1.0397  0.4434
   69TMC2    H1 1058   1.400   0.646  12.013  0.5018  1.1960 -1.3934
   69TMC2    H2 1059   1.162   0.548  11.668  0.4483 -0.7491  0.1872
   69TMC2    C7 1060   1.425   0.641  11.758  0.2968  0.0885 -0.3291
   69TMC2    C8 1061   1.012   0.376  11.787 -0.2946  0.1734 -0.1820
   69TMC2    O1 1062   1.524   0.602  11.818 -0.1111  0.5967 -0.4872
   69TMC2    O2 1063   0.982   0.263  11.820 -0.2366 -0.2125  0.3389
   69TMC2    O5 1064   0.921   0.478  11.762  0.2048 -0.8727 -0.1534
   69TMC2    H5 1065   0.951   0.570  11.772 -0.8626 -0.4771 -0.6051
   70MPD2     C 1066   1.719   0.379  12.160  0.5129 -0.3724 -0.0594
   70MPD2    C1 1067   1.586   0.370  12.201  0.2437 -0.4439 -0.6799
   70MPD2    C2 1068   1.559   0.291  12.314  0.0103 -0.4426 -0.7806
   70MPD2    C3 1069   1.663   0.220  12.374 -0.1420 -0.2375  0.1932
   70MPD2    C4 1070   1.791   0.240  12.336 -0.0867 -0.0499 -0.1733
   70MPD2    C5 1071   1.821   0.320  12.231  0.2346  0.1310  0.2114
   70MPD2     H 1072   1.456   0.277  12.348 -0.5611 -0.2250 -2.4225
   70MPD2    H1 1073   1.871   0.182  12.382 -0.2449  0.4101  0.6735
   70MPD2    H2 1074   1.746   0.443  12.077 -0.4902  1.3864  0.9797
   70MPD2    H3 1075   1.920   0.348  12.198  0.5759  1.1550  2.1056
   70MPD2     N 1076   1.648   0.132  12.487 -0.4253 -0.5099  0.7080
   70MPD2    H5 1077   1.735   0.105  12.532  0.5790  0.3698 -0.6825
   70MPD2    N1 1078   1.488   0.443  12.128 -0.2479  0.4227 -0.2465
   70MPD2    H7 1079   1.519   0.492  12.045  0.9309  2.1113  1.1876
   71TMC2    C1 1080   4.470   1.588   0.579  0.4827 -0.3325 -0.3199
   71TMC2    C2 1081   4.545   1.506   0.507 -0.5760  0.5243  0.6714
   71TMC2    C3 1082   4.602   1.397   0.573  0.4414  0.3152  0.2656
   71TMC2    C4 1083   4.452   1.573   0.718  1.1759  0.3607 -0.0335
   71TMC2    C5 1084   4.506   1.460   0.778  0.4217  0.0211  0.0918
   71TMC2    C6 1085   4.578   1.363   0.706 -0.0296  0.1479 -0.3146
   71TMC2     C 1086   4.400   1.703   0.522  0.0146  0.1327 -0.4339
   71TMC2     O 1087   4.309   1.753   0.580  0.1331 -0.5027  0.1016
   71TMC2     H 1088   4.550   1.514   0.399 -1.4661  0.0008  0.5912
   71TMC2    H1 1089   4.419   1.656   0.780 -0.9822  0.9527 -1.9675
   71TMC2    H2 1090   4.608   1.271   0.756  0.6287  0.0164 -0.9359
   71TMC2    C7 1091   4.501   1.441   0.921 -0.5018  0.2312 -0.2049
   71TMC2    C8 1092   4.676   1.302   0.489  0.3220  0.5593 -0.3882
   71TMC2    O1 1093   4.573   1.356   0.970 -0.2306 -0.2191 -0.2543
   71TMC2    O2 1094   4.723   1.203   0.545 -0.0678  1.2596 -0.1126
   71TMC2    O5 1095   0.016   1.374   0.391 -0.0610  0.0010 -0.0715
   71TMC2    H5 1096   0.021   1.469   0.413  1.7554  0.0221 -0.5543
   72MPD2     C 1097   4.351   2.107   0.215  0.4745  1.0003 -0.3541
   72MPD2    C1 1098   4.261   2.041   0.296  0.0724 -0.2283 -0.0732
   72MPD2    C2 1099   4.295   1.921   0.348 -0.8501 -0.4815  1.0983
   72MPD2    C3 1100   4.417   1.859   0.335 -0.4516  0.4658  0.5007
   72MPD2    C4 1101   4.499   1.920   0.244 -0.1522 -0.7574 -0.4652
   72MPD2    C5 1102   4.463   2.039   0.176 -0.0468  0.0831 -0.3432
   72MPD2     H 1103   4.218   1.865   0.399  0.9281 -1.7225  2.4241
   72MPD2    H1 1104   4.593   1.880   0.210  0.3790  1.2337 -1.3795
   72MPD2    H2 1105   4.318   2.199   0.168 -1.4661  0.5133  0.0613
   72MPD2    H3 1106   4.511   2.079   0.087  2.2510 -0.7215  0.5415
   72MPD2     N 1107   4.453   1.739   0.402 -1.0316  0.0641  0.2210
   72MPD2    H5 1108   4.537   1.691   0.369 -0.9331  0.3125  0.1104
   72MPD2    N1 1109   4.135   2.097   0.332 -0.1321 -0.1427 -0.6239
   72MPD2    H7 1110   4.071   2.027   0.366 -0.0532  0.6367  1.1075
   73TMC2    C1 1111   3.995   2.844  14.341  0.9668 -0.9904 -0.2628
   73TMC2    C2 1112   4.031   2.714  14.336 -0.1495  0.1201 -0.1618
   73TMC2    C3 1113   4.160   2.686  14.372  0.4694  0.3423 -0.4292
   73TMC2    C4 1114   4.071   2.942  14.398  0.1402  0.1629 -0.9839
   73TMC2    C5 1115   4.206   2.914  14.421  0.0057 -0.1526  0.0813
   73TMC2    C6 1116   4.253   2.786  14.400 -0.3942 -0.5003  0.2145
   73TMC2     C 1117   3.949   2.903  14.218  0.0455 -0.1245 -0.5901
   73TMC2     O 1118   3.966   3.023  14.208 -0.1142  0.0311 -0.2892
   73TMC2     H 1119   3.964   2.632  14.315 -1.7312  1.2131  0.6248
   73TMC2    H1 1120   4.037   3.043  14.419  0.0006  0.3375 -2.0336
   73TMC2    H2 1121   4.359   2.762  14.401 -0.2006  0.3472  0.2462
   73TMC2    C7 1122   4.294   3.020  14.381  0.4699 -0.3648 -0.1715
   73TMC2    C8 1123   4.220   2.566  14.324  0.3899 -0.2499 -0.5173
   73TMC2    O1 1124   4.407   3.016  14.427 -0.2726  0.3078  0.2012
   73TMC2    O2 1125   4.322   2.566  14.255 -0.4204 -0.2454  0.2946
   73TMC2    O5 1126   4.120   2.471  14.320 -0.5769  0.1914 -0.1890
   73TMC2    H5 1127   4.045   2.484  14.381 -1.8898 -1.5978 -1.4242
   74MPD2     C 1128   3.844   2.897  13.722 -0.0745  0.1173 -0.1747
   74MPD2    C1 1129   3.866   3.009  13.801  0.3677 -0.4410  0.3950
   74MPD2    C2 1130   3.889   2.985  13.939  0.2060  0.3476 -0.1173
   74MPD2    C3 1131   3.888   2.849  13.989  0.1374 -1.0123  0.0907
   74MPD2    C4 1132   3.868   2.743  13.906  0.5444 -0.4287 -0.2797
   74MPD2    C5 1133   3.852   2.767  13.771 -0.4892 -0.4660 -0.2370
   74MPD2     H 1134   3.904   3.069  14.005  0.3348 -0.5655  1.0136
   74MPD2    H1 1135   3.851   2.644  13.947 -1.1323 -0.8036 -1.8578
   74MPD2    H2 1136   3.822   2.918  13.618  1.2933  1.5999 -0.1719
   74MPD2    H3 1137   3.827   2.690  13.699 -0.3528 -0.4977 -0.2494
   74MPD2     N 1138   3.915   2.817  14.121  0.6949  0.2784  0.1562
   74MPD2    H5 1139   3.901   2.719  14.143  0.6561  0.4193  0.7520
   74MPD2    N1 1140   3.873   3.141  13.739  0.1499  0.6080  0.4433
   74MPD2    H7 1141   3.871   3.140  13.637  0.6209 -2.9376  0.4460
   75TCq2    C1 1142   4.297   4.607  13.647  0.0902 -0.6887 -0.6331
   75TCq2    O2 1143   4.359   4.671  13.729  0.1149  0.0957 -0.1408
   75TCq2    C2 1144   4.256   4.656  13.515  0.4227 -0.2114 -0.5048
   75TCq2    C3 1145   4.309   0.050  13.475  0.4835  0.0425  0.0755
   75TCq2    C4 1146   4.289   0.095  13.348  0.0161  0.0825  0.3958
   75TCq2    C5 1147   4.196   0.033  13.261  1.1475  0.2275 -0.1314
   75TCq2    C6 1148   4.130   4.647  13.312 -0.0794 -0.2927 -0.1232
   75TCq2    C7 1149   4.169   4.586  13.432  0.5048 -0.1708  0.0361
   75TCq2    C8 1150   4.019   4.586  13.248 -0.0461 -0.0878 -0.3546
   75TCq2    O4 1151   3.975   4.485  13.299 -0.1250 -0.8836 -0.1084
   75TCq2    C9 1152   4.353   0.215  13.297 -0.4250 -0.2419 -0.1002
   75TCq2    O5 1153   4.454   0.261  13.353  0.0841  0.9613  0.4494
   75TCq2    O6 1154   4.301   0.267  13.191  0.3220 -0.3677  0.5844
   75TCq2    H2 1155   4.370   0.115  13.536 -0.5068  0.8390  0.2230
   75TCq2    H3 1156   4.171   0.090  13.173 -0.3039  0.2609  0.2902
   75TCq2    H4 1157   4.111   4.504  13.473  2.1930 -0.0344  2.6769
   76MPD2     C 1158   2.622   0.450  11.868  0.1334  0.7752 -0.3651
   76MPD2    C1 1159   2.570   0.348  11.791  0.2344  0.2521 -0.2905
   76MPD2    C2 1160   2.637   0.225  11.773  0.1552 -0.3815 -0.4197
   76MPD2    C3 1161   2.747   0.193  11.850  0.1355 -0.0923 -0.1848
   76MPD2    C4 1162   2.792   0.291  11.939  1.1266 -0.3730  0.5162
   76MPD2    C5 1163   2.740   0.420  11.934 -0.6465  1.0232 -0.0458
   76MPD2     H 1164   2.616   0.160  11.689  1.3084 -0.1179 -0.9070
   76MPD2    H1 1165   2.877   0.271  12.003  1.4401  1.1635  0.5672
   76MPD2    H2 1166   2.580   0.550  11.873  3.1375  1.9926  0.3185
   76MPD2    H3 1167   2.784   0.494  12.000  1.4567  0.0777 -0.3563
   76MPD2     N 1168   2.809   0.067  11.854 -0.6325 -0.3067  0.4009
   76MPD2    H5 1169   2.872   0.049  11.931  2.0732 -0.8407 -1.9214
   76MPD2    N1 1170   2.450   0.365  11.711  0.6178  0.3050 -0.1801
   76MPD2    H7 1171   2.428   0.287  11.649 -1.0293 -0.2363  1.0780
   77TCq2    C1 1172   2.788   4.685  11.773 -0.0148  0.2394  0.0596
   77TCq2    O2 1173   2.703   4.673  11.689 -0.3556  0.4274 -0.1993
   77TCq2    C2 1174   2.872   4.570  11.806 -0.2844  0.1597 -0.0686
   77TCq2    C3 1175   2.836   4.444  11.778  0.2287  0.5446  0.4933
   77TCq2    C4 1176   2.929   4.346  11.784  0.4101 -0.0110  0.3123
   77TCq2    C5 1177   3.061   4.371  11.817 -0.0602  0.1612  0.3252
   77TCq2    C6 1178   3.092   4.500  11.849  0.3376 -0.1166 -0.1245
   77TCq2    C7 1179   3.000   4.594  11.843 -0.3417 -0.4522  1.0213
   77TCq2    C8 1180   3.228   4.539  11.869  0.1450  0.1619  0.6612
   77TCq2    O4 1181   3.310   4.483  11.803 -0.0464 -0.4969 -0.1201
   77TCq2    C9 1182   2.878   4.224  11.749 -0.0102  0.1643  0.5173
   77TCq2    O5 1183   2.961   4.136  11.706  0.4554 -0.5769 -0.5228
   77TCq2    O6 1184   2.758   4.199  11.797 -0.5291  0.1623  0.3842
   77TCq2    H2 1185   2.735   4.437  11.737 -0.0099  2.3849  0.7824
   77TCq2    H3 1186   3.137   4.294  11.830 -0.9174 -0.6039  0.8519
   77TCq2    H4 1187   3.028   4.699  11.841 -1.3806 -0.2271 -1.0333
   78MPD1     C 1188   3.778   1.722   2.666 -0.8742 -0.3368 -0.0480
   78MPD1    C1 1189   3.862   1.649   2.584  0.1260 -0.4665 -0.4291
   78MPD1    C2 1190   3.804   1.597   2.470 -0.0702 -0.5684 -0.0196
   78MPD1    C3 1191   3.680   1.636   2.429  0.1911 -0.0068  0.4951
   78MPD1    C4 1192   3.612   1.736   2.498 -0.4551  0.4017 -0.1520
   78MPD1    C5 1193   3.655   1.763   2.626 -0.1127  0.3380  0.1364
   78MPD1     H 1194   3.856   1.528   2.405  2.1731 -0.1198  1.3370
   78MPD1    H1 1195   3.522   1.783   2.460 -0.5685  0.5182  0.2644
   78MPD1    H2 1196   3.807   1.744   2.768  1.0525 -0.0308 -0.6777
   78MPD1    H3 1197   3.600   1.837   2.684 -0.3654  0.5664 -0.3881
   78MPD1     N 1198   3.636   1.600   2.298 -0.5827 -0.0197  0.1631
   78MPD1    H5 1199   3.571   1.665   2.257 -1.4425 -0.5418  0.7126
   78MPD1    N1 1200   3.977   1.581   2.634 -0.0139 -0.5592  0.0082
   78MPD1    H6 1201   4.043   1.552   2.562  0.3775  0.8125 -0.2021
   78MPD1    H7 1202   4.028   1.645   2.694 -3.3127  1.0790  1.0865
   79TCq2    C1 1203   3.675   1.503   2.211 -0.2678  1.1960  0.0280
   79TCq2    O2 1204   3.764   1.425   2.219 -0.3534 -0.2005  0.3424
   79TCq2    C2 1205   3.599   1.485   2.093  0.0233  0.0732 -0.6356
   79TCq2    C3 1206   3.477   1.551   2.089  0.0426 -0.4275 -0.4430
   79TCq2    C4 1207   3.416   1.576   1.970  0.3518 -0.0950 -0.0509
   79TCq2    C5 1208   3.470   1.523   1.854 -0.8053 -0.3314  0.6336
   79TCq2    C6 1209   3.594   1.466   1.858 -0.4774  0.1170 -0.5773
   79TCq2    C7 1210   3.660   1.444   1.979  0.4712 -0.7767  0.0837
   79TCq2    C8 1211   3.651   1.407   1.735 -0.0275  0.0211  0.7126
   79TCq2    O4 1212   3.772   1.391   1.711 -0.3402 -0.8759  0.2786
   79TCq2    C9 1213   3.298   1.666   1.975 -0.9229  0.3423 -0.0056
   79TCq2    O5 1214   3.251   1.693   2.088 -0.3568 -0.1575  0.0888
   79TCq2    O6 1215   3.256   1.724   1.873 -0.3342 -0.7537  0.0125
   79TCq2    H2 1216   3.438   1.607   2.173  1.1773 -1.6267  0.8924
   79TCq2    H3 1217   3.422   1.546   1.759  0.6118  0.1514  0.0227
   79TCq2    H4 1218   3.763   1.412   1.978  0.4459 -0.8657  0.4577
   80MPD2     C 1219   1.950   4.110  12.760  0.6220 -0.8991 -1.1350
   80MPD2    C1 1220   1.916   4.105  12.627  0.0710  0.4456 -0.9958
   80MPD2    C2 1221   1.780   4.093  12.596  0.3870  0.0770  0.4006
   80MPD2    C3 1222   1.679   4.100  12.692 -0.4607  0.1949 -1.1006
   80MPD2    C4 1223   1.720   4.090  12.826 -0.2899 -0.1917  0.5613
   80MPD2    C5 1224   1.856   4.098  12.863  0.1938 -0.2854 -0.2674
   80MPD2     H 1225   1.743   4.104  12.495  0.1603 -2.0171  0.2596
   80MPD2    H1 1226   1.638   4.086  12.897 -2.7582 -0.1828 -2.2519
   80MPD2    H2 1227   2.056   4.121  12.782  0.3442 -1.7983  0.6535
   80MPD2    H3 1228   1.890   4.106  12.965 -0.3262  0.3548 -0.1446
   80MPD2     N 1229   1.543   4.087  12.662  0.4044 -0.7973  1.1581
   80MPD2    H5 1230   1.490   4.067  12.746 -0.7482 -1.2289  0.3198
   80MPD2    N1 1231   2.007   4.113  12.517 -0.6474 -0.0796  0.0623
   80MPD2    H7 1232   1.961   4.095  12.429 -0.7970  0.2942  0.0645
   81TCq2    C1 1233   2.135   4.155  12.525  0.0763  0.4838 -0.1590
   81TCq2    O2 1234   2.189   4.217  12.618 -0.4070  0.1070  0.3481
   81TCq2    C2 1235   2.206   4.143  12.398  0.6512  0.0066 -0.2990
   81TCq2    C3 1236   2.309   4.228  12.365  0.3780 -0.1067  0.1283
   81TCq2    C4 1237   2.360   4.232  12.238  0.5271 -0.1285  0.0245
   81TCq2    C5 1238   2.311   4.159  12.132  0.3626  0.5923 -0.0258
   81TCq2    C6 1239   2.198   4.090  12.169  0.1951 -0.5343 -0.3386
   81TCq2    C7 1240   2.143   4.072  12.298 -0.2789  0.4401 -0.3806
   81TCq2    C8 1241   2.112   4.049  12.060  0.1742 -0.4473 -0.7922
   81TCq2    O4 1242   2.086   4.134  11.972 -0.3001 -0.3018 -0.4039
   81TCq2    C9 1243   2.472   4.319  12.211 -0.1086 -0.2010 -0.6660
   81TCq2    O5 1244   2.485   4.347  12.086  0.5274  0.5740  0.5578
   81TCq2    O6 1245   2.518   4.388  12.306 -0.2720  0.4742  0.6540
   81TCq2    H2 1246   2.353   4.287  12.444  0.9224  2.8357 -2.3556
   81TCq2    H3 1247   2.341   4.174  12.029 -2.8134 -2.6055 -1.3993
   81TCq2    H4 1248   2.049   4.019  12.307  0.3766 -0.4236  1.3468
   82MPD2     C 1249   0.227   4.056  10.367 -0.1382 -0.6102 -0.2663
   82MPD2    C1 1250   0.156   3.937  10.357 -0.2930  0.3667 -0.8421
   82MPD2    C2 1251   0.205   3.824  10.425  0.1724  0.0833 -0.3586
   82MPD2    C3 1252   0.318   3.824  10.498  0.8599 -0.0890 -0.0685
   82MPD2    C4 1253   0.385   3.947  10.508  0.3845  0.1876  0.3012
   82MPD2    C5 1254   0.339   4.058  10.446  0.2020  0.4345 -0.2785
   82MPD2     H 1255   0.154   3.728  10.420  2.1114 -1.0782  1.9425
   82MPD2    H1 1256   0.474   3.957  10.569 -0.4639 -0.3876  1.6434
   82MPD2    H2 1257   0.189   4.148  10.325 -0.5090 -1.0091 -0.8234
   82MPD2    H3 1258   0.398   4.148  10.461  0.5790  0.2852 -0.8659
   82MPD2     N 1259   0.374   3.711  10.557  0.5333 -0.4465 -0.6307
   82MPD2    H5 1260   0.466   3.731  10.595  0.1022 -0.0441  0.1880
   82MPD2    N1 1261   0.039   3.942  10.278 -0.4008  0.5290  0.7086
   82MPD2    H7 1262   0.007   4.029  10.238  1.6105  0.4823 -1.0117
   83TCq2    C1 1263   0.305   3.592  10.584  1.3317  0.3292  0.8016
   83TCq2    O2 1264   0.188   3.566  10.584  0.1732  0.0074 -0.3516
   83TCq2    C2 1265   0.391   3.479  10.627  0.4298 -0.4117  0.6036
   83TCq2    C3 1266   0.528   3.479  10.626 -0.0095 -0.0980 -0.6206
   83TCq2    C4 1267   0.590   3.359  10.659  0.3661 -0.0406  0.1727
   83TCq2    C5 1268   0.525   3.245  10.701  0.2667 -0.4960  0.3340
   83TCq2    C6 1269   0.389   3.253  10.704 -0.7304 -0.2296 -0.0630
   83TCq2    C7 1270   0.320   3.361  10.659  0.2856  0.3216  0.2366
   83TCq2    C8 1271   0.311   3.148  10.767 -0.2487 -0.1216 -0.3874
   83TCq2    O4 1272   0.349   3.100  10.873  0.0706 -0.0704 -0.0440
   83TCq2    C9 1273   0.735   3.365  10.665 -0.0538  0.1894  0.5444
   83TCq2    O5 1274   0.799   3.284  10.743 -0.1314 -0.5081  0.2800
   83TCq2    O6 1275   0.799   3.447  10.591  0.0508  0.2090 -0.4280
   83TCq2    H2 1276   0.590   3.558  10.585 -0.5918 -0.2961 -1.9083
   83TCq2    H3 1277   0.572   3.156  10.740  1.9422  0.7523  1.1921
   83TCq2    H4 1278   0.212   3.358  10.670  0.3581  2.0654  1.4154
   84TCq2    C1 1279   1.349   2.465  10.342  0.3005 -0.2658 -0.2766
   84TCq2    O2 1280   1.280   2.397  10.411 -0.2324 -0.2690  0.1210
   84TCq2    C2 1281   1.445   2.549  10.405 -0.3289  0.5612 -0.1716
   84TCq2    C3 1282   1.558   2.591  10.338 -0.3048 -0.7083 -0.1483
   84TCq2    C4 1283   1.637   2.691  10.397  0.3291  0.4574  0.4311
   84TCq2    C5 1284   1.597   2.757  10.517  0.5510 -0.1191  0.2508
   84TCq2    C6 1285   1.482   2.715  10.574 -0.4720  0.7111  0.3493
   84TCq2    C7 1286   1.408   2.609  10.531  0.4495  0.0355  0.4635
   84TCq2    C8 1287   1.434   2.776  10.703  0.7683 -0.1612  0.3127
   84TCq2    O4 1288   1.331   2.729  10.752 -0.2768 -0.0697 -0.4111
   84TCq2    C9 1289   1.771   2.721  10.342 -1.0648  0.2863  0.0729
   84TCq2    O5 1290   1.811   2.650  10.241 -0.1340 -0.1681  0.0758
   84TCq2    O6 1291   1.841   2.811  10.394  0.1100  0.3766  0.2611
   84TCq2    H2 1292   1.602   2.545  10.250 -0.1870  0.7202 -0.8419
   84TCq2    H3 1293   1.664   2.835  10.552 -1.0135  2.6913 -3.0533
   84TCq2    H4 1294   1.327   2.566  10.588  1.4397 -0.4427  1.5119
   85MPD2     C 1295   1.409   0.724  16.072  0.4013 -0.3871 -0.6085
   85MPD2    C1 1296   1.517   0.638  16.076 -0.2114 -0.1740  0.2679
   85MPD2    C2 1297   1.651   0.689  16.069 -0.6923  0.9752  0.3593
   85MPD2    C3 1298   1.669   0.826  16.069 -0.5507  0.3165  0.1896
   85MPD2    C4 1299   1.566   0.910  16.081 -0.4735 -0.1616 -0.6479
   85MPD2    C5 1300   1.434   0.865  16.077 -0.7403 -0.0206  0.5325
   85MPD2     H 1301   1.727   0.611  16.065  0.2550  1.7927  2.1411
   85MPD2    H1 1302   1.595   1.014  16.084 -1.3887  0.1024 -0.7226
   85MPD2    H2 1303   1.309   0.683  16.066  0.5177 -1.0858  2.0621
   85MPD2    H3 1304   1.350   0.933  16.068  0.4476  1.4456  0.6932
   85MPD2     N 1305   1.801   0.872  16.066  0.3746  0.4056  0.7621
   85MPD2    H5 1306   1.861   0.792  16.049  1.3907  1.0896  1.1176
   85MPD2    N1 1307   1.498   0.498  16.076  0.6535  0.1938  0.5895
   85MPD2    H7 1308   1.575   0.434  16.061 -1.3965 -2.5753  1.8809
   86TCq2    C1 1309   1.850   0.999  16.076 -1.1633  0.1723  0.0810
   86TCq2    O2 1310   1.791   1.109  16.073  0.1066 -0.1234 -0.1568
   86TCq2    C2 1311   1.995   1.002  16.066  0.3663 -0.7495 -0.3637
   86TCq2    C3 1312   2.067   0.893  16.112  0.1425 -0.0489 -0.1836
   86TCq2    C4 1313   2.199   0.883  16.070 -0.2234  0.2320  0.3174
   86TCq2    C5 1314   2.249   0.971  15.975 -0.1636  0.6430  0.6984
   86TCq2    C6 1315   2.176   1.086  15.938  0.2243 -0.2476 -0.3688
   86TCq2    C7 1316   2.042   1.100  15.980  0.3978  0.2462  0.2454
   86TCq2    C8 1317   2.237   1.158  15.828  0.4685  0.3613  1.3177
   86TCq2    O4 1318   2.327   1.095  15.764  1.1731  0.7801 -0.1030
   86TCq2    C9 1319   2.271   0.768  16.112  0.3713  0.6637  0.1969
   86TCq2    O5 1320   2.380   0.746  16.059 -0.5854 -0.3802 -0.0975
   86TCq2    O6 1321   2.208   0.703  16.201 -0.1891  0.3437  0.5960
   86TCq2    H2 1322   2.017   0.831  16.186  1.3097  0.4091  0.9829
   86TCq2    H3 1323   2.354   0.967  15.951  0.0534  3.2594  1.2690
   86TCq2    H4 1324   1.974   1.179  15.952 -0.5511 -0.6314  0.0960
   87MPD2     C 1325   2.929   4.040   0.470 -0.5071 -0.3264 -0.1538
   87MPD2    C1 1326   2.982   4.159   0.426  0.3180  0.2496  0.2173
   87MPD2    C2 1327   2.926   4.227   0.325 -0.1743 -0.2655 -0.0086
   87MPD2    C3 1328   2.806   4.177   0.265 -0.0001  0.2739  0.1295
   87MPD2    C4 1329   2.740   4.071   0.322  0.0962  0.1130 -0.3160
   87MPD2    C5 1330   2.806   3.998   0.412  0.1509 -0.2721 -0.3704
   87MPD2     H 1331   2.963   4.320   0.284  1.7287 -0.5166  1.1365
   87MPD2    H1 1332   2.642   4.046   0.282  1.8138 -3.1545 -2.4977
   87MPD2    H2 1333   2.979   3.979   0.545  0.5004 -0.5235 -0.9847
   87MPD2    H3 1334   2.753   3.912   0.453 -1.1769  0.6417 -0.1524
   87MPD2     N 1335   2.751   4.240   0.158 -0.9722  0.1150 -0.3640
   87MPD2    H5 1336   2.656   4.214   0.131 -1.6364 -0.2849  2.4150
   87MPD2    N1 1337   3.103   4.205   0.480  0.0036 -0.5025  0.7669
   87MPD2    H7 1338   3.143   4.150   0.555 -1.1304 -0.8448  1.1214
   88TCq2    C1 1339   3.158   4.331   0.469  1.2376  0.4252  0.0661
   88TCq2    O2 1340   3.114   4.435   0.417  0.6684  0.1610  0.2200
   88TCq2    C2 1341   3.284   4.351   0.547 -0.3073  0.4557 -0.4646
   88TCq2    C3 1342   3.323   4.481   0.557  0.5102  0.3822  0.0257
   88TCq2    C4 1343   3.442   4.505   0.620 -0.5776  0.0334  0.2724
   88TCq2    C5 1344   3.520   4.404   0.670 -0.4955 -0.0406 -0.2799
   88TCq2    C6 1345   3.488   4.272   0.639  0.3676  0.0807  0.0912
   88TCq2    C7 1346   3.370   4.242   0.572  0.5297 -0.0662 -0.3188
   88TCq2    C8 1347   3.589   4.162   0.635 -0.4889  0.2013 -0.2804
   88TCq2    O4 1348   3.577   4.069   0.554 -0.0112 -0.4541 -0.5774
   88TCq2    C9 1349   3.484   4.635   0.624 -0.4246  0.0824 -0.1046
   88TCq2    O5 1350   3.599   4.656   0.575 -0.6926 -0.6282 -0.0517
   88TCq2    O6 1351   3.394   4.725   0.642  0.1899  0.5822 -0.2848
   88TCq2    H2 1352   3.258   4.565   0.532  2.3243  2.5632  2.6623
   88TCq2    H3 1353   3.618   4.440   0.700 -0.4074 -1.3638  0.9989
   88TCq2    H4 1354   3.347   4.139   0.547 -0.5386  0.2786 -0.7512
   89MPD2     C 1355   0.160   2.535   1.542 -0.5117 -0.4420  0.1365
   89MPD2    C1 1356   0.058   2.577   1.621 -0.2482  0.1051 -0.1883
   89MPD2    C2 1357   0.085   2.684   1.710  0.0301 -0.5335  0.2212
   89MPD2    C3 1358   0.205   2.758   1.691  0.4230 -0.2734 -0.4753
   89MPD2    C4 1359   0.305   2.710   1.610 -0.0085 -1.1396 -0.7118
   89MPD2    C5 1360   0.273   2.599   1.536  0.6322 -0.4101  1.0442
   89MPD2     H 1361   0.012   2.730   1.776  2.0901  3.1395 -0.0229
   89MPD2    H1 1362   0.405   2.752   1.605 -1.7819  3.4547  1.9643
   89MPD2    H2 1363   0.154   2.441   1.487 -2.1826 -0.2469 -0.0293
   89MPD2    H3 1364   0.355   2.559   1.477 -0.4212 -1.4546  0.2677
   89MPD2     N 1365   0.209   2.866   1.780 -0.1545  0.4188 -0.1482
   89MPD2    H5 1366   0.128   2.885   1.838 -1.2654 -0.3944 -1.4232
   89MPD2    N1 1367   4.655   2.513   1.622  0.2382  0.1426  0.2039
   89MPD2    H7 1368   4.594   2.547   1.696 -1.4580  0.1718 -1.2171
   90TCq2    C1 1369   0.309   2.963   1.784  0.0145 -0.2545 -0.2785
   90TCq2    O2 1370   0.395   2.992   1.704 -0.0841  0.2235 -0.4703
   90TCq2    C2 1371   0.296   3.062   1.893  0.0247 -0.5879 -0.2465
   90TCq2    C3 1372   0.194   3.048   1.984 -0.6674 -0.2391 -0.7567
   90TCq2    C4 1373   0.153   3.167   2.045  0.1224 -0.3643  0.2021
   90TCq2    C5 1374   0.216   3.283   2.028  0.1263  0.1051 -0.2888
   90TCq2    C6 1375   0.330   3.294   1.946  0.0476 -0.5243  0.8108
   90TCq2    C7 1376   0.369   3.179   1.874 -0.0143  0.2836  0.4250
   90TCq2    C8 1377   0.379   3.423   1.901 -0.2830  0.0200 -0.5922
   90TCq2    O4 1378   0.318   3.527   1.931  0.5440  0.5395 -0.0101
   90TCq2    C9 1379   0.041   3.152   2.133 -0.3801  0.0158 -0.3369
   90TCq2    O5 1380   0.043   3.057   2.217 -0.0841  0.6132  0.1677
   90TCq2    O6 1381   4.692   3.253   2.139  0.1521  0.5247  0.2911
   90TCq2    H2 1382   0.140   2.957   2.006  0.8282 -0.7995  0.5851
   90TCq2    H3 1383   0.186   3.366   2.090 -0.6803  0.5224 -1.2232
   90TCq2    H4 1384   0.431   3.191   1.786  1.2285 -1.2229  1.0949
   91TMC2    C1 1385   1.954   1.966  16.800  0.2774 -0.3142  0.4798
   91TMC2    C2 1386   1.970   1.953  16.937  0.7030  0.2042  0.3423
   91TMC2    C3 1387   1.851   1.964  17.009  0.3076  0.2251 -0.3926
   91TMC2    C4 1388   1.838   2.000  16.739 -0.4874  0.1744  0.3901
   91TMC2    C5 1389   1.728   2.007  16.815 -0.6332  0.0795  0.9232
   91TMC2    C6 1390   1.727   1.996  16.955 -0.3575 -0.2934  0.2514
   91TMC2     C 1391   2.066   1.943  16.712 -0.2643  0.4798 -0.4856
   91TMC2     O 1392   2.041   1.935  16.590 -0.1276  0.3295 -0.0859
   91TMC2     H 1393   2.059   1.911  16.983 -0.0701 -2.5137 -0.6184
   91TMC2    H1 1394   1.833   2.019  16.632 -2.2524 -0.0794  0.4345
   91TMC2    H2 1395   1.643   2.003  17.024  0.8020  1.3206  1.4933
   91TMC2    C7 1396   1.600   2.042  16.760 -0.3497 -0.1085 -0.2952
   91TMC2    C8 1397   1.864   1.932  17.152  0.3160 -0.1084 -0.1549
   91TMC2    O1 1398   1.536   2.105  16.842  0.2747 -0.2360  0.6393
   91TMC2    O2 1399   1.969   1.962  17.209 -0.2344  0.1711 -0.5823
   91TMC2    O5 1400   1.755   1.881  17.203  0.1131  0.5735  0.1995
   91TMC2    H5 1401   1.686   1.855  17.139  0.1558  0.9194  0.0099
   92MPD2     C 1402   2.332   1.856  16.622 -0.3205  0.0013  0.2586
   92MPD2    C1 1403   2.311   1.927  16.736 -0.4642 -0.3836  0.3074
   92MPD2    C2 1404   2.418   1.962  16.816 -0.4145  0.5813 -0.4798
   92MPD2    C3 1405   2.543   1.918  16.786 -0.2597  0.3509  0.6952
   92MPD2    C4 1406   2.566   1.839  16.673  0.0331 -0.2920 -0.2876
   92MPD2    C5 1407   2.455   1.803  16.601 -0.0922 -0.1871 -0.1525
   92MPD2     H 1408   2.399   2.021  16.905  2.5329  0.0405  0.5184
   92MPD2    H1 1409   2.663   1.802  16.642 -0.9763 -1.3969 -2.1333
   92MPD2    H2 1410   2.250   1.819  16.562  0.5235 -1.3702 -0.0762
   92MPD2    H3 1411   2.468   1.730  16.522 -1.2319  0.3737 -0.8707
   92MPD2     N 1412   2.641   1.963  16.867 -0.3775 -0.1289  0.2673
   92MPD2    H5 1413   2.611   2.016  16.948 -2.2159 -0.1911 -0.3633
   92MPD2    N1 1414   2.184   1.966  16.782 -0.0490 -0.6478  0.0999
   92MPD2    H7 1415   2.169   1.998  16.877 -1.8027 -0.1827 -0.3345
   93MPD2     C 1416   3.662   1.582  14.100 -0.1773 -0.5248 -0.5744
   93MPD2    C1 1417   3.617   1.712  14.109 -0.3922 -0.7807  0.5981
   93MPD2    C2 1418   3.484   1.738  14.100  0.0851  0.3777 -0.0895
   93MPD2    C3 1419   3.393   1.636  14.070  0.5230 -0.4326  0.3364
   93MPD2    C4 1420   3.441   1.503  14.064 -0.5054  0.6768 -0.2974
   93MPD2    C5 1421   3.575   1.475  14.076 -0.0712  0.4059  0.1944
   93MPD2     H 1422   3.458   1.843  14.108 -1.1701  0.0860 -0.3174
   93MPD2    H1 1423   3.371   1.422  14.052  0.6992 -0.3348 -0.5347
   93MPD2    H2 1424   3.765   1.555  14.119 -0.6005 -0.3849  1.9589
   93MPD2    H3 1425   3.616   1.377  14.054 -1.7497 -0.5545  1.4612
   93MPD2     N 1426   3.255   1.660  14.038 -0.8202  0.4972 -0.4843
   93MPD2    H5 1427   3.196   1.579  14.028 -0.3476  0.2357 -1.1556
   93MPD2    N1 1428   3.705   1.817  14.140  0.4826 -0.5117 -0.2882
   93MPD2    H7 1429   3.664   1.909  14.157  0.0959 -1.0706  1.7571
   94TCq2    C1 1430   3.843   1.811  14.146 -0.3226 -0.3661 -0.4305
   94TCq2    O2 1431   3.918   1.738  14.080  0.8807  0.6926 -0.2870
   94TCq2    C2 1432   3.905   1.921  14.218  0.4190 -0.2977  0.1061
   94TCq2    C3 1433   3.816   2.002  14.278  0.0638  0.1467  0.2168
   94TCq2    C4 1434   3.844   2.134  14.277  0.8357 -0.6749 -0.2084
   94TCq2    C5 1435   3.953   2.181  14.208 -0.1913  0.3575  0.6152
   94TCq2    C6 1436   4.034   2.093  14.139  0.5754 -0.2146 -0.2051
   94TCq2    C7 1437   4.017   1.959  14.152  0.5821 -0.9090  0.2410
   94TCq2    C8 1438   4.163   2.145  14.091  0.0529  0.0577  0.2195
   94TCq2    O4 1439   4.249   2.064  14.070 -0.2677  0.4154  0.5030
   94TCq2    C9 1440   3.765   2.227  14.354  0.9844  0.2836  0.2261
   94TCq2    O5 1441   3.757   2.349  14.320  0.0796  0.6916  0.7895
   94TCq2    O6 1442   3.718   2.178  14.459 -0.3133  0.1619 -0.1084
   94TCq2    H2 1443   3.746   1.965  14.352  0.7041 -1.3050  0.0911
   94TCq2    H3 1444   3.960   2.290  14.209 -0.0999  0.3543  0.4017
   94TCq2    H4 1445   4.089   1.890  14.111 -0.6430 -2.1638  0.2097
   95TMC2    C1 1446   3.653   3.601  15.643 -0.0342  0.4328  0.8042
   95TMC2    C2 1447   3.694   3.473  15.646 -0.0854  0.1439 -0.4703
   95TMC2    C3 1448   3.658   3.388  15.753  0.1238  0.0985 -0.3894
   95TMC2    C4 1449   3.576   3.649  15.739  0.5440 -0.6300 -0.0046
   95TMC2    C5 1450   3.548   3.575  15.849  0.5012 -0.1940 -0.8681
   95TMC2    C6 1451   3.582   3.443  15.856  0.8012 -0.0974  0.7699
   95TMC2     C 1452   3.734   3.693  15.569 -0.2089 -0.4709  0.4210
   95TMC2     O 1453   3.699   3.810  15.582  0.1699 -0.3206  0.4447
   95TMC2     H 1454   3.745   3.420  15.567  0.5730 -1.3868  0.9815
   95TMC2    H1 1455   3.551   3.754  15.730  1.1666 -0.5315 -0.5820
   95TMC2    H2 1456   3.538   3.379  15.932 -0.8151 -0.6734 -0.6499
   95TMC2    C7 1457   3.464   3.637  15.946 -0.2278 -0.0856  0.5225
   95TMC2    C8 1458   3.703   3.251  15.766 -0.4653 -0.8170  0.5988
   95TMC2    O1 1459   3.435   3.755  15.923 -0.2590  0.4128 -0.2633
   95TMC2    O2 1460   3.712   3.190  15.872 -0.3221  0.3570  0.2052
   95TMC2    O5 1461   3.667   3.195  15.647  0.4963  0.3778  0.0465
   95TMC2    H5 1462   3.627   3.243  15.572 -0.5958 -0.8227 -0.1328
   96MPD2     C 1463   4.177   3.809  15.360  0.8891 -0.7929  0.3864
   96MPD2    C1 1464   4.061   3.890  15.364  0.1084  0.1152 -0.4126
   96MPD2    C2 1465   3.941   3.832  15.403 -1.0436  0.3577  0.4650
   96MPD2    C3 1466   3.941   3.696  15.440 -0.0475  0.5636 -0.4304
   96MPD2    C4 1467   4.056   3.621  15.431  0.5200 -0.6692  0.6912
   96MPD2    C5 1468   4.177   3.678  15.399  0.0269  0.0737 -0.4440
   96MPD2     H 1469   3.851   3.892  15.417 -0.1602  1.6085  0.8487
   96MPD2    H1 1470   4.051   3.515  15.454 -2.6856 -1.6052 -4.2687
   96MPD2    H2 1471   4.264   3.858  15.317 -0.4162  1.7124  0.6333
   96MPD2    H3 1472   4.267   3.618  15.391  0.3777  0.4652  0.7205
   96MPD2     N 1473   3.841   3.633  15.517 -0.2478  0.0142  0.2721
   96MPD2    H5 1474   3.852   3.537  15.549 -2.4421 -1.3946 -3.2046
   96MPD2    N1 1475   4.071   4.029  15.336 -0.1068  0.3157 -0.5140
   96MPD2    H7 1476   4.164   4.065  15.319  1.2658 -3.4676 -1.0653
   97MPD2     C 1477   0.324   2.299   0.451  0.0872  0.6582  0.1449
   97MPD2    C1 1478   0.269   2.178   0.420  0.0794  0.2867 -0.2300
   97MPD2    C2 1479   0.329   2.109   0.314  0.4756 -0.1768  0.1476
   97MPD2    C3 1480   0.432   2.162   0.241  0.1166 -0.1234  0.1161
   97MPD2    C4 1481   0.474   2.288   0.263 -0.1168 -0.2147 -0.2260
   97MPD2    C5 1482   0.432   2.341   0.382 -0.5213  0.3438  0.4886
   97MPD2     H 1483   0.301   2.006   0.295 -0.3529 -0.2635  1.7914
   97MPD2    H1 1484   0.549   2.339   0.204 -0.2671 -0.3359 -0.5230
   97MPD2    H2 1485   0.278   2.361   0.527  1.0741  0.0374  1.2536
   97MPD2    H3 1486   0.472   2.439   0.407  0.4906  0.5196 -1.7821
   97MPD2     N 1487   0.509   2.090   0.146 -0.5663 -0.2058  0.3991
   97MPD2    H5 1488   0.570   2.142   0.084 -0.3690 -1.6270 -0.5907
   97MPD2    N1 1489   0.166   2.125   0.498 -0.7743 -0.5081 -0.4431
   97MPD2    H7 1490   0.141   2.190   0.572 -1.9507 -1.7885  0.2777
   98TCq2    C1 1491   0.479   1.966   0.103  0.0933 -0.1887 -0.4168
   98TCq2    O2 1492   0.388   1.892   0.137 -0.6138 -0.4230  0.1500
   98TCq2    C2 1493   0.574   1.919   0.001 -0.3255  0.4799  0.2482
   98TCq2    C3 1494   0.567   1.793  17.652  0.4372  0.2687 -0.1589
   98TCq2    C4 1495   0.664   1.738  17.576 -0.2244  0.5654 -0.4333
   98TCq2    C5 1496   0.768   1.811  17.543 -0.6246 -0.3303 -0.2093
   98TCq2    C6 1497   0.787   1.929  17.607  0.0049 -0.0741  0.3237
   98TCq2    C7 1498   0.694   1.983  17.686 -0.1877  0.3304 -0.2190
   98TCq2    C8 1499   0.919   1.990  17.609  1.0402  0.2077 -0.4974
   98TCq2    O4 1500   0.958   2.039   0.008  0.1519 -0.2833 -0.5494
   98TCq2    C9 1501   0.661   1.607  17.521  0.3113 -0.4638 -0.6650
   98TCq2    O5 1502   0.571   1.531  17.574  0.8333 -0.1095 -0.3497
   98TCq2    O6 1503   0.750   1.565  17.444 -0.1935  0.7185  0.2710
   98TCq2    H2 1504   0.482   1.729  17.671  1.2891  0.6552  5.0126
   98TCq2    H3 1505   0.845   1.768  17.480 -0.2100  1.3298 -0.8370
   98TCq2    H4 1506   0.730   2.067   0.034 -1.5673  0.3589  0.5831
   99MPD2     C 1507   4.253   4.279   0.980  0.4189  0.2075  0.6207
   99MPD2    C1 1508   4.319   4.334   1.086  0.5037 -0.3336  0.0615
   99MPD2    C2 1509   4.453   4.312   1.097 -0.3093 -0.5677  0.1354
   99MPD2    C3 1510   4.522   4.239   1.000 -0.9312  0.3377 -0.2199
   99MPD2    C4 1511   4.448   4.182   0.897  0.0096  0.6625  0.1300
   99MPD2    C5 1512   4.316   4.206   0.883 -0.3333  0.2108 -0.1548
   99MPD2     H 1513   4.506   4.353   1.182 -1.8047 -0.6553  1.0863
   99MPD2    H1 1514   4.499   4.109   0.834 -2.4706 -0.3332 -0.7198
   99MPD2    H2 1515   4.145   4.279   0.973  0.5691  1.0086 -1.6330
   99MPD2    H3 1516   4.262   4.158   0.802  0.3666  0.1373 -0.5718
   99MPD2     N 1517   4.662   4.210   1.013 -0.2120  0.6276 -0.2143
   99MPD2    H5 1518   4.708   4.241   1.098 -1.3197  2.0455 -0.1263
   99MPD2    N1 1519   4.251   4.412   1.187  0.1178 -0.0181 -0.0818
   99MPD2    H7 1520   4.311   4.448   1.261  0.2795  2.4665 -1.4021
  100TCq2    C1 1521   4.123   4.453   1.181 -0.1734  0.2951  0.6487
  100TCq2    O2 1522   4.033   4.419   1.103 -0.2923 -0.1411  0.6630
  100TCq2    C2 1523   4.086   4.564   1.273  0.2803 -0.2377 -0.1029
  100TCq2    C3 1524   4.198   4.642   1.325 -0.6319 -0.6180  0.0290
  100TCq2    C4 1525   4.165   0.038   1.373 -0.1587  0.0325 -0.2474
  100TCq2    C5 1526   4.033   0.080   1.387 -0.3269 -0.3329 -0.9470
  100TCq2    C6 1527   3.936   0.006   1.331 -0.5508  0.3410 -0.6240
  100TCq2    C7 1528   3.960   4.617   1.270  0.1205  0.6296 -0.1895
  100TCq2    C8 1529   3.799   0.044   1.366 -0.0897  1.2927  0.3856
  100TCq2    O4 1530   3.774   0.160   1.383 -0.7074  0.2051  0.4896
  100TCq2    C9 1531   4.262   0.113   1.440 -0.1621 -0.3855  0.4098
  100TCq2    O5 1532   4.352   0.048   1.504 -0.1007 -0.5453  0.6039
  100TCq2    O6 1533   4.262   0.236   1.419 -0.1203 -0.0744  0.3917
  100TCq2    H2 1534   4.304   4.621   1.318 -0.5186  0.4721 -1.5636
  100TCq2    H3 1535   4.022   0.174   1.440 -0.1106 -0.9867  0.2638
  100TCq2    H4 1536   3.883   4.556   1.225  0.6791 -1.2133  1.3600
  101MPD2     C 1537   0.598   4.227  12.721 -0.0365  0.3933  0.2134
  101MPD2    C1 1538   0.518   4.302  12.805  0.3152  0.2825  0.7583
  101MPD2    C2 1539   0.502   4.264  12.939 -0.1665 -0.0215  0.5086
  101MPD2    C3 1540   0.561   4.148  12.984 -0.2453 -0.3336 -0.2831
  101MPD2    C4 1541   0.638   4.078  12.894  0.7991  0.3422  0.1936
  101MPD2    C5 1542   0.657   4.112  12.763 -0.0061 -0.3925  0.0047
  101MPD2     H 1543   0.441   4.327  13.004 -0.2949  0.0365  0.3342
  101MPD2    H1 1544   0.680   3.981  12.920  0.3628  0.4642  1.3483
  101MPD2    H2 1545   0.621   4.251  12.617 -1.1381 -1.9498 -0.5680
  101MPD2    H3 1546   0.734   4.058  12.709  0.6735 -0.6561  1.2297
  101MPD2     N 1547   0.532   4.100  13.111  0.3236 -0.6066  0.1248
  101MPD2    H5 1548   0.469   4.160  13.162  0.9096 -1.5472  1.9432
  101MPD2    N1 1549   0.468   4.423  12.747 -0.0198  0.5147  0.5988
  101MPD2    H7 1550   0.497   4.440  12.652 -0.1615 -1.2684  0.2381
  102TCq2    C1 1551   0.482   0.031  12.415  0.1099 -0.4471 -0.2098
  102TCq2    O2 1552   0.596   0.035  12.454 -0.1943  0.2678 -0.4522
  102TCq2    C2 1553   0.392   0.014  12.519  0.1916  0.2848 -0.2192
  102TCq2    C3 1554   0.259   0.020  12.483  0.6876  0.2437 -0.2401
  102TCq2    C4 1555   0.163   4.707  12.576  0.0250 -0.2425  0.3254
  102TCq2    C5 1556   0.203   4.634  12.685  0.7675 -0.2488 -0.3250
  102TCq2    C6 1557   0.340   4.610  12.709 -0.1455  0.4757  0.2484
  102TCq2    C7 1558   0.436   4.667  12.633 -0.8365 -0.2145  0.7339
  102TCq2    C8 1559   0.376   4.505  12.800  0.4512 -0.1637 -0.3963
  102TCq2    O4 1560   0.297   4.490  12.889  0.6070  0.1116 -0.3327
  102TCq2    C9 1561   0.028   0.033  12.573  0.2153  0.3068 -0.1694
  102TCq2    O5 1562   4.688   0.023  12.681  0.1815  0.6194  0.3771
  102TCq2    O6 1563   4.723   0.099  12.472 -0.2107  0.0189 -0.7076
  102TCq2    H2 1564   0.218   0.068  12.395  1.5367  0.2487 -0.6251
  102TCq2    H3 1565   0.128   4.599  12.755  2.0493 -1.8280  0.2514
  102TCq2    H4 1566   0.542   4.647  12.646 -0.9368 -1.2178  0.0133
  103TMC2    C1 1567   3.331   0.311  12.486  0.3946 -0.3783 -0.3665
  103TMC2    C2 1568   3.465   0.341  12.506  0.4201 -0.1499 -0.7564
  103TMC2    C3 1569   3.525   0.346  12.624 -0.0976  0.6941 -0.9054
  103TMC2    C4 1570   3.251   0.279  12.596 -0.3483 -0.0326  0.5537
  103TMC2    C5 1571   3.316   0.267  12.719 -0.9071  0.3955 -0.7250
  103TMC2    C6 1572   3.453   0.297  12.734 -1.1221  0.2767 -0.6190
  103TMC2     C 1573   3.299   0.247  12.363  0.2151  0.1606  0.0010
  103TMC2     O 1574   3.186   0.225  12.332  0.2809 -0.0196 -0.0574
  103TMC2     H 1575   3.528   0.367  12.421 -0.0937  3.6170  0.0443
  103TMC2    H1 1576   3.152   0.242  12.575  0.3172 -0.9372 -0.9288
  103TMC2    H2 1577   3.510   0.272  12.822 -1.0877 -0.8334 -0.9526
  103TMC2    C7 1578   3.255   0.200  12.832 -0.0335  0.0001  0.3832
  103TMC2    C8 1579   3.664   0.317  12.636 -0.8148 -0.0627 -0.6488
  103TMC2    O1 1580   3.310   0.202  12.941 -0.2758 -0.1510 -0.4977
  103TMC2    O2 1581   3.731   0.289  12.536  0.6416  0.0122  0.5859
  103TMC2    O5 1582   3.730   0.353  12.745  0.1284  0.1002 -0.6035
  103TMC2    H5 1583   3.665   0.386  12.812 -0.4792 -0.1687 -1.0608
  104MPD2     C 1584   3.548   0.028  12.208 -0.6948 -0.3459 -0.0339
  104MPD2    C1 1585   3.422   0.087  12.221 -0.0874 -0.6931  0.4617
  104MPD2    C2 1586   3.323   0.053  12.135  0.6755 -0.4501 -0.4154
  104MPD2    C3 1587   3.346   4.684  12.035 -0.5273  0.3788 -0.4447
  104MPD2    C4 1588   3.474   4.616  12.027 -0.1317  0.6707 -0.0204
  104MPD2    C5 1589   3.569   4.655  12.121  0.0398 -0.0292 -0.2179
  104MPD2     H 1590   3.236   0.117  12.133 -0.6526 -2.3228 -1.9775
  104MPD2    H1 1591   3.499   4.530  11.966 -0.8794  0.8555 -0.5896
  104MPD2    H2 1592   3.629   0.042  12.278 -2.5579 -0.3196  2.1056
  104MPD2    H3 1593   3.658   4.594  12.128 -0.2187 -0.5424 -1.2813
  104MPD2     N 1594   3.230   4.641  11.964 -0.1263 -0.6736  0.0902
  104MPD2    H5 1595   3.139   4.669  11.999 -1.0145 -2.9416 -0.4066
  104MPD2    N1 1596   3.408   0.179  12.326 -0.1254  0.2380 -0.4103
  104MPD2    H7 1597   3.486   0.193  12.389 -0.7754 -0.7542  0.6243
  105MPD2     C 1598   0.040   3.453  17.611 -0.3967  0.3239  0.0382
  105MPD2    C1 1599   4.662   3.505  17.542  0.5241  0.2802  0.2843
  105MPD2    C2 1600   4.535   3.519  17.600 -0.6349 -0.2027 -0.1831
  105MPD2    C3 1601   4.515   3.481   0.023 -0.1814 -0.1485 -0.0430
  105MPD2    C4 1602   4.620   3.438   0.098  0.1748 -0.2145  0.1382
  105MPD2    C5 1603   0.013   3.424   0.032 -0.2327 -0.9142 -0.1463
  105MPD2     H 1604   4.454   3.560  17.540  0.0741 -0.5615 -1.3745
  105MPD2    H1 1605   4.620   3.410   0.203 -1.3538 -1.3514 -0.1566
  105MPD2    H2 1606   0.142   3.438  17.579  0.2901  1.4705  1.6544
  105MPD2    H3 1607   0.099   3.387   0.087  1.1553  1.4033 -0.7614
  105MPD2     N 1608   4.397   3.532   0.082  0.3414 -0.3303  0.1885
  105MPD2    H5 1609   4.328   3.577   0.023  0.9036  2.7492  1.9273
  105MPD2    N1 1610   4.691   3.568  17.418 -0.0432 -0.0294  0.1517
  105MPD2    H7 1611   4.618   3.628  17.382  0.6121  1.8389  1.9982
  106TCq2    C1 1612   4.368   3.532   0.217 -0.2224  0.0620  0.2827
  106TCq2    O2 1613   4.442   3.507   0.311 -0.0561 -0.3842 -0.1077
  106TCq2    C2 1614   4.235   3.573   0.242 -0.5981  0.2745  0.1452
  106TCq2    C3 1615   4.134   3.580   0.145  0.0089  0.4657  0.2215
  106TCq2    C4 1616   4.023   3.639   0.182  0.1699  0.3312  0.1984
  106TCq2    C5 1617   4.009   3.699   0.301  0.8130  0.0805 -0.3900
  106TCq2    C6 1618   4.110   3.699   0.387  0.0526  0.1124  0.2477
  106TCq2    C7 1619   4.225   3.634   0.364  0.4642 -0.2219  0.2378
  106TCq2    C8 1620   4.091   3.764   0.516  0.1399 -0.6373  0.2136
  106TCq2    O4 1621   4.184   3.753   0.593 -0.1741  0.5863 -0.3863
  106TCq2    C9 1622   3.918   3.659   0.081  0.7339  0.2656  0.8581
  106TCq2    O5 1623   3.806   3.702   0.125  1.0941 -0.1466 -0.1479
  106TCq2    O6 1624   3.939   3.610  17.677  0.1418 -0.4949  0.7000
  106TCq2    H2 1625   4.143   3.536   0.046  0.6727  0.4544  0.2896
  106TCq2    H3 1626   3.914   3.748   0.317  0.6088 -0.5395  0.2667
  106TCq2    H4 1627   4.288   3.626   0.452 -0.3274  0.2646  0.8471
  107TMC2    C1 1628   1.172   2.983  11.568  0.4755 -0.0407  0.6706
  107TMC2    C2 1629   1.167   2.859  11.634  0.0578 -0.1231 -0.3120
  107TMC2    C3 1630   1.199   2.751  11.562 -0.4331 -0.1477  1.2352
  107TMC2    C4 1631   1.213   2.994  11.437 -0.5232 -0.5103  0.5139
  107TMC2    C5 1632   1.235   2.874  11.367 -0.8077 -0.6666 -0.0884
  107TMC2    C6 1633   1.236   2.750  11.429 -0.4536 -0.1176  0.1489
  107TMC2     C 1634   1.089   3.095  11.621 -0.0497 -0.6996 -0.1839
  107TMC2     O 1635   1.027   3.063  11.720 -0.0471  0.3865 -0.4250
  107TMC2     H 1636   1.114   2.841  11.726 -1.0395 -0.7117 -1.0631
  107TMC2    H1 1637   1.186   3.081  11.380  0.5879 -0.6238 -0.2020
  107TMC2    H2 1638   1.244   2.663  11.364 -1.1520 -1.1845  1.5114
  107TMC2    C7 1639   1.286   2.880  11.235  0.2893 -0.5844 -0.3226
  107TMC2    C8 1640   1.132   2.633  11.615 -0.4065  0.3992 -0.2602
  107TMC2    O1 1641   1.269   2.775  11.172  0.7206  0.0852 -0.0206
  107TMC2    O2 1642   1.027   2.640  11.679  0.1167 -0.4112  0.0803
  107TMC2    O5 1643   1.212   2.522  11.603  0.6292  0.0977 -0.0251
  107TMC2    H5 1644   1.299   2.520  11.557  1.5019  0.8943  1.5948
  108MPD2     C 1645   1.008   3.430  11.499 -0.3305  0.4104  0.0956
  108MPD2    C1 1646   0.989   3.323  11.580  0.3688  0.5545 -0.8502
  108MPD2    C2 1647   0.895   3.336  11.685  0.1154 -0.2228 -0.4622
  108MPD2    C3 1648   0.804   3.438  11.684  0.1084  0.3607  0.0910
  108MPD2    C4 1649   0.810   3.536  11.593 -0.5814 -0.2822  0.4381
  108MPD2    C5 1650   0.919   3.540  11.509 -0.2522 -0.2109  0.4605
  108MPD2     H 1651   0.892   3.256  11.758  2.0666 -0.2624 -0.4044
  108MPD2    H1 1652   0.750   3.625  11.599  1.9328  1.5916 -2.3041
  108MPD2    H2 1653   1.094   3.440  11.434  0.8857 -1.3736  1.4243
  108MPD2    H3 1654   0.929   3.633  11.454 -2.6308  0.3369  0.9255
  108MPD2     N 1655   0.695   3.445  11.778 -0.6310  0.1746  0.2203
  108MPD2    H5 1656   0.636   3.527  11.770 -0.5907  0.2754  0.9705
  108MPD2    N1 1657   1.077   3.217  11.554 -0.3134  0.3534 -0.1466
  108MPD2    H7 1658   1.140   3.231  11.475 -0.7835  1.0880 -0.3935
  109MPD2     C 1659   4.479   0.911   1.588  0.2997  0.9432 -0.1729
  109MPD2    C1 1660   4.485   1.001   1.480 -0.0497 -0.3903 -0.3844
  109MPD2    C2 1661   4.595   1.088   1.471 -0.8530  0.2422  0.5086
  109MPD2    C3 1662   4.689   1.093   1.575  0.8439  0.1718 -0.3015
  109MPD2    C4 1663   4.669   1.008   1.687  0.6711  0.2379 -0.5336
  109MPD2    C5 1664   4.576   0.909   1.682  0.2960  0.3250 -1.1320
  109MPD2     H 1665   4.597   1.173   1.403  0.0384  0.7404  1.1524
  109MPD2    H1 1666   0.012   0.999   1.769 -1.4089 -0.7315  1.1356
  109MPD2    H2 1667   4.396   0.842   1.598  0.3699  0.7345 -1.0699
  109MPD2    H3 1668   4.570   0.841   1.766  0.6250 -0.1488 -1.4891
  109MPD2     N 1669   0.067   1.185   1.568 -0.2394 -0.3533 -0.3630
  109MPD2    H5 1670   0.069   1.242   1.484 -0.2070 -1.6245 -1.2166
  109MPD2    N1 1671   4.384   1.003   1.392 -0.2192  0.1745 -0.3935
  109MPD2    H7 1672   4.303   0.945   1.411 -0.5192  0.8977  0.5204
  110TCq2    C1 1673   0.151   1.215   1.671 -0.0077  0.1630  0.1457
  110TCq2    O2 1674   0.142   1.202   1.794  0.1396  0.2785  0.0637
  110TCq2    C2 1675   0.244   1.314   1.635  0.1579 -0.1427 -0.7214
  110TCq2    C3 1676   0.270   1.407   1.734 -0.1484 -0.7461  0.4616
  110TCq2    C4 1677   0.323   1.531   1.691  0.3972  0.9394  0.1889
  110TCq2    C5 1678   0.325   1.565   1.557 -0.5281  0.6610  0.1757
  110TCq2    C6 1679   0.302   1.468   1.463 -0.8596 -0.2682  0.2292
  110TCq2    C7 1680   0.258   1.342   1.502 -0.4291 -0.4868  0.0446
  110TCq2    C8 1681   0.297   1.508   1.322 -0.8939  0.7008  0.0338
  110TCq2    O4 1682   0.257   1.622   1.296  0.5006  0.1213 -0.3884
  110TCq2    C9 1683   0.376   1.625   1.789  0.1388 -0.2620 -0.8375
  110TCq2    O5 1684   0.387   1.582   1.908  0.2209  0.0358  0.3798
  110TCq2    O6 1685   0.441   1.728   1.743  0.2046  0.3182  0.2697
  110TCq2    H2 1686   0.284   1.379   1.838 -1.8845 -0.3582  0.7926
  110TCq2    H3 1687   0.358   1.664   1.528  0.7498 -0.2045 -1.3280
  110TCq2    H4 1688   0.251   1.269   1.422  1.1643 -1.3855  0.7234
  111TMC2    C1 1689   1.341   0.604  11.229  0.5571  1.1504 -1.6563
  111TMC2    C2 1690   1.471   0.620  11.185 -0.4252  0.4831 -0.1130
  111TMC2    C3 1691   1.577   0.557  11.246  0.0261  0.2915  0.0337
  111TMC2    C4 1692   1.325   0.519  11.340 -0.0173 -0.4361 -0.2280
  111TMC2    C5 1693   1.435   0.462  11.400 -0.5266 -0.5496  0.3567
  111TMC2    C6 1694   1.561   0.471  11.350  0.4465  0.2211  0.1672
  111TMC2     C 1695   1.246   0.705  11.205 -0.1991 -0.3514  0.6160
  111TMC2     O 1696   1.132   0.661  11.211  0.0720  0.0981 -0.0036
  111TMC2     H 1697   1.482   0.691  11.104 -0.3254  2.4223  1.6155
  111TMC2    H1 1698   1.223   0.498  11.371  0.5532 -1.8701  0.6623
  111TMC2    H2 1699   1.648   0.410  11.374  0.4557 -0.8487 -2.6032
  111TMC2    C7 1700   1.425   0.381  11.520 -0.1184  0.5107  0.1191
  111TMC2    C8 1701   1.702   0.561  11.175 -1.0861 -0.4964 -0.7244
  111TMC2    O1 1702   1.315   0.353  11.561 -0.1859  0.5208 -0.4931
  111TMC2    O2 1703   1.733   0.652  11.097 -0.4483 -0.2396 -0.3239
  111TMC2    O5 1704   1.729   0.431  11.148 -0.0331 -0.4106 -0.6547
  111TMC2    H5 1705   1.645   0.381  11.160 -1.7838  2.2657 -1.6597
  112MPD2     C 1706   1.099   1.182  11.088  0.1419  0.2337 -0.5996
  112MPD2    C1 1707   1.033   1.062  11.086  0.6017 -0.5883  0.0521
  112MPD2    C2 1708   1.096   0.946  11.117 -0.6928  0.0113 -0.7903
  112MPD2    C3 1709   1.233   0.949  11.147  0.4909  0.3321  0.0446
  112MPD2    C4 1710   1.302   1.066  11.147  0.2424  0.0132  0.1191
  112MPD2    C5 1711   1.230   1.179  11.115 -0.1153  0.7045 -0.1578
  112MPD2     H 1712   1.036   0.856  11.104 -2.9776  1.3119  0.8775
  112MPD2    H1 1713   1.408   1.081  11.166  0.3316  1.0389 -1.2500
  112MPD2    H2 1714   1.057   1.281  11.073  1.0338  0.7394  0.2746
  112MPD2    H3 1715   1.282   1.273  11.126  2.8974 -0.6855 -2.2865
  112MPD2     N 1716   1.300   0.831  11.178  1.0283  0.2915  0.1984
  112MPD2    H5 1717   1.401   0.833  11.194  0.9790  1.5923  0.3377
  112MPD2    N1 1718   0.900   1.051  11.056  0.1520 -0.0744 -0.2477
  112MPD2    H7 1719   0.865   0.957  11.071  0.7906 -0.1973  0.4825
  113MPD2     C 1720   3.034   3.875   1.270 -0.6872 -0.7164  0.3954
  113MPD2    C1 1721   2.944   3.962   1.213 -0.9918  0.3950  0.4074
  113MPD2    C2 1722   2.825   3.899   1.162  0.6148  0.3007 -0.3324
  113MPD2    C3 1723   2.809   3.760   1.155 -0.6474 -0.6092 -0.4665
  113MPD2    C4 1724   2.900   3.681   1.216  0.3561 -0.0218 -0.5886
  113MPD2    C5 1725   3.025   3.739   1.262 -0.3200 -0.5622  0.6651
  113MPD2     H 1726   2.768   3.964   1.097 -0.7278 -0.6395 -0.0796
  113MPD2    H1 1727   2.888   3.573   1.220  0.2608 -0.0053 -0.4224
  113MPD2    H2 1728   3.121   3.915   1.320 -0.6029 -2.4813  1.6665
  113MPD2    H3 1729   3.101   3.678   1.310 -0.0525  0.1249  1.0995
  113MPD2     N 1730   2.697   3.692   1.095  0.2342  0.1928  0.1310
  113MPD2    H5 1731   2.689   3.593   1.117  1.0494  0.0214 -0.3657
  113MPD2    N1 1732   2.956   4.101   1.214 -0.0631  0.3283  0.0451
  113MPD2    H7 1733   2.872   4.148   1.183 -0.1853  1.3218  1.9125
  114TCq2    C1 1734   2.596   3.754   1.028 -0.1179 -0.1082  0.0589
  114TCq2    O2 1735   2.592   3.868   0.982  0.2929 -0.2556  0.0730
  114TCq2    C2 1736   2.503   3.664   0.958  0.8283 -0.1065  0.0208
  114TCq2    C3 1737   2.382   3.716   0.923 -0.3982  0.6664  0.0833
  114TCq2    C4 1738   2.288   3.631   0.875 -0.1735  0.9457  0.1740
  114TCq2    C5 1739   2.319   3.512   0.827  0.3677 -0.4879  0.0649
  114TCq2    C6 1740   2.444   3.461   0.852  0.5114  0.2680 -0.0134
  114TCq2    C7 1741   2.536   3.538   0.918 -0.7947  0.7457  0.5435
  114TCq2    C8 1742   2.468   3.320   0.853 -0.0990 -0.0486 -0.0533
  114TCq2    O4 1743   2.419   3.247   0.767  0.1201  0.1855  0.3143
  114TCq2    C9 1744   2.150   3.683   0.863  0.3304 -0.2978  0.4260
  114TCq2    O5 1745   2.132   3.792   0.924 -0.2200 -0.4800 -0.2079
  114TCq2    O6 1746   2.064   3.617   0.800  0.1587 -0.2993 -0.1295
  114TCq2    H2 1747   2.363   3.821   0.938 -1.7261  0.8062 -2.6654
  114TCq2    H3 1748   2.246   3.453   0.773 -0.0874 -1.1800  1.4503
  114TCq2    H4 1749   2.639   3.507   0.929 -1.0913 -0.9174 -1.2738
  115TMC2    C1 1750   4.295   1.129  17.561 -0.5332 -0.6893  0.5218
  115TMC2    C2 1751   4.417   1.077  17.570 -0.1525 -0.1925  0.1714
  115TMC2    C3 1752   4.525   1.151  17.563  0.0124  0.5837  0.0239
  115TMC2    C4 1753   4.276   1.264  17.552  0.0476  0.4793  1.0609
  115TMC2    C5 1754   4.394   1.334  17.540  0.6474 -0.2096  0.8278
  115TMC2    C6 1755   4.518   1.286  17.542  0.3106  0.0822  0.3157
  115TMC2     C 1756   4.187   1.044  17.517 -0.5251 -0.1607 -0.7418
  115TMC2     O 1757   4.209   0.931  17.483  0.8310  0.3137  0.0777
  115TMC2     H 1758   4.424   0.970  17.554 -1.7395 -0.5301  1.7312
  115TMC2    H1 1759   4.182   1.314  17.535  0.6338  0.8602 -1.1073
  115TMC2    H2 1760   4.605   1.350  17.530  0.0136  0.1000 -1.7269
  115TMC2    C7 1761   4.366   1.477  17.532 -0.0807 -0.0868 -0.0348
  115TMC2    C8 1762   4.652   1.104  17.520 -0.2922  0.1392 -0.6629
  115TMC2    O1 1763   4.256   1.522  17.568  0.0806 -0.1306 -0.0789
  115TMC2    O2 1764   0.020   1.177  17.499 -0.4035  0.1552 -0.3170
  115TMC2    O5 1765   4.661   0.969  17.551 -0.0088 -0.6456  0.7421
  115TMC2    H5 1766   4.586   0.909  17.573 -0.6558 -0.0390  0.2020
  116MPD2     C 1767   3.701   0.982  17.381 -0.4808  0.1455  0.1626
  116MPD2    C1 1768   3.818   0.908  17.352  0.1144 -0.7470  0.8284
  116MPD2    C2 1769   3.938   0.957  17.396  0.3775 -0.4390  0.8119
  116MPD2    C3 1770   3.945   1.064  17.484  0.1246 -0.0355  0.6879
  116MPD2    C4 1771   3.826   1.133  17.507 -0.4463 -0.0777 -0.4869
  116MPD2    C5 1772   3.710   1.093  17.460  0.2995 -0.0241  0.3529
  116MPD2     H 1773   4.026   0.899  17.369  0.4903  0.3443 -0.4994
  116MPD2    H1 1774   3.820   1.226  17.563 -0.5905  0.3557 -1.2223
  116MPD2    H2 1775   3.607   0.945  17.342  0.7981  0.3926 -3.2125
  116MPD2    H3 1776   3.620   1.144  17.492 -0.5651 -0.0745 -1.9814
  116MPD2     N 1777   4.067   1.114  17.531  0.0231  0.0148 -0.0289
  116MPD2    H5 1778   4.066   1.205  17.576 -0.7851  0.8986 -1.8359
  116MPD2    N1 1779   3.796   0.799  17.263 -0.4168  0.3149  0.3906
  116MPD2    H7 1780   3.700   0.781  17.236  0.5454  0.4590 -3.0596
  117TMC2    C1 1781   3.188   2.314  14.083  0.2893  0.3831 -0.3253
  117TMC2    C2 1782   3.275   2.220  14.034 -0.0640  0.5692  0.1680
  117TMC2    C3 1783   3.406   2.224  14.069  0.3839 -0.0869  0.8368
  117TMC2    C4 1784   3.239   2.417  14.154 -0.0102  0.4535 -0.7787
  117TMC2    C5 1785   3.361   2.401  14.215  0.8966  0.9311  0.4426
  117TMC2    C6 1786   3.449   2.306  14.169 -0.0964 -0.0689  0.7008
  117TMC2     C 1787   3.050   2.323  14.022 -0.3128  0.1612  0.1469
  117TMC2     O 1788   3.009   2.215  13.978  0.1684  0.0549  0.5634
  117TMC2     H 1789   3.239   2.148  13.962  0.9372 -0.2310  0.4710
  117TMC2    H1 1790   3.180   2.494  14.203 -0.0562 -1.0484  1.5585
  117TMC2    H2 1791   3.554   2.313  14.192  0.2964  2.2228 -1.8865
  117TMC2    C7 1792   3.428   2.533  14.212 -0.3829 -0.4514 -0.2328
  117TMC2    C8 1793   3.484   2.111  14.045  0.5523 -0.0005  0.3586
  117TMC2    O1 1794   3.370   2.618  14.143  0.0631  0.4540 -0.1268
  117TMC2    O2 1795   3.582   2.078  14.115 -0.0180 -0.7752 -0.1673
  117TMC2    O5 1796   3.479   2.101  13.913 -0.6597 -0.3410 -0.2749
  117TMC2    H5 1797   3.422   2.151  13.851  1.6556 -1.0195 -2.9895
  118MPD2     C 1798   3.663   2.643  14.456 -0.2459 -0.4682 -0.8051
  118MPD2    C1 1799   3.591   2.655  14.343 -0.6337 -0.2463 -0.9532
  118MPD2    C2 1800   3.580   2.783  14.289  0.2161  0.0770  0.0468
  118MPD2    C3 1801   3.641   2.891  14.349 -0.0165 -0.0803 -0.7603
  118MPD2    C4 1802   3.705   2.880  14.471  0.4203  0.3493 -0.1475
  118MPD2    C5 1803   3.714   2.754  14.524 -0.0016 -1.0520 -0.3629
  118MPD2     H 1804   3.517   2.790  14.200  0.3247  0.4944  0.0052
  118MPD2    H1 1805   3.749   2.968  14.516  1.4801 -1.4910  2.3742
  118MPD2    H2 1806   3.672   2.549  14.510  2.7997  0.7942  0.8573
  118MPD2    H3 1807   3.762   2.735  14.619  1.9012 -3.1900 -1.7263
  118MPD2     N 1808   3.640   3.020  14.286 -0.2922  0.7010  0.1456
  118MPD2    H5 1809   3.700   3.092  14.324 -0.8732  1.2712 -0.0047
  118MPD2    N1 1810   3.523   2.537  14.312 -0.5342 -0.3246  0.4791
  118MPD2    H7 1811   3.531   2.457  14.375 -0.1102 -0.5989  0.0787
  119MPD2     C 1812   1.649   3.008  13.486  0.2624  0.7377  0.3209
  119MPD2    C1 1813   1.542   3.098  13.512 -0.6176 -0.2817 -0.7582
  119MPD2    C2 1814   1.451   3.111  13.413  0.0530  0.2503 -0.2076
  119MPD2    C3 1815   1.462   3.043  13.294 -0.1022 -0.2963 -0.2986
  119MPD2    C4 1816   1.563   2.954  13.276  0.5896 -0.1453 -0.0041
  119MPD2    C5 1817   1.666   2.943  13.370  0.6096  0.5226 -0.2813
  119MPD2     H 1818   1.365   3.176  13.421  1.2059  1.7989 -0.5508
  119MPD2    H1 1819   1.575   2.889  13.190  0.4723  1.1082 -0.9872
  119MPD2    H2 1820   1.725   2.991  13.561  0.6581 -0.4123 -0.3507
  119MPD2    H3 1821   1.744   2.871  13.348 -0.0257  0.2594 -1.6278
  119MPD2     N 1822   1.352   3.055  13.202  0.8415 -0.0219 -0.5367
  119MPD2    H5 1823   1.287   3.129  13.228 -0.8874 -1.6376 -0.3300
  119MPD2    N1 1824   1.532   3.169  13.631 -0.6201  0.8030 -0.2115
  119MPD2    H7 1825   1.605   3.152  13.699  0.5938  0.6584 -1.5519
  120TCq2    C1 1826   1.334   2.969  13.093 -0.2096 -0.2176  1.0194
  120TCq2    O2 1827   1.386   2.864  13.069  0.0719 -0.7002 -0.1353
  120TCq2    C2 1828   1.226   2.994  12.998  0.0182  0.0296 -0.4351
  120TCq2    C3 1829   1.158   2.890  12.954  0.2310 -1.0245  0.1250
  120TCq2    C4 1830   1.027   2.904  12.951  0.5637  0.4408 -0.2069
  120TCq2    C5 1831   0.959   3.018  12.970 -0.9853  0.4701  1.1702
  120TCq2    C6 1832   1.036   3.128  12.995  0.5903 -0.0451  0.8068
  120TCq2    C7 1833   1.167   3.115  13.006  0.5182 -0.7193 -0.2558
  120TCq2    C8 1834   0.975   3.241  13.060  0.8723 -0.1326 -0.1776
  120TCq2    O4 1835   0.853   3.238  13.084 -0.3256 -0.0507 -0.2646
  120TCq2    C9 1836   0.952   2.776  12.948  0.5036 -0.0263 -0.1959
  120TCq2    O5 1837   0.827   2.783  12.929  0.2473  0.3075 -0.2245
  120TCq2    O6 1838   1.010   2.669  12.969  0.3929 -1.0116  0.7684
  120TCq2    H2 1839   1.193   2.787  12.964  1.7041 -0.7646 -2.3681
  120TCq2    H3 1840   0.851   3.027  12.980 -1.2799  0.6850 -2.0788
  120TCq2    H4 1841   1.220   3.201  13.046  0.2928 -1.2053  1.0852
  121TMC2    C1 1842   2.704   0.651  14.281 -0.0891 -0.1355  0.9048
  121TMC2    C2 1843   2.828   0.607  14.332 -0.3403  0.9207 -0.5350
  121TMC2    C3 1844   2.826   0.487  14.405  0.0758  0.6047 -0.2772
  121TMC2    C4 1845   2.587   0.577  14.310 -0.0543 -0.1921  0.4819
  121TMC2    C5 1846   2.596   0.454  14.373  0.1376  0.1289 -0.2809
  121TMC2    C6 1847   2.718   0.404  14.421 -0.4965  0.4643 -1.0308
  121TMC2     C 1848   2.679   0.792  14.261 -0.1505  0.0421 -0.0242
  121TMC2     O 1849   2.566   0.836  14.259  0.1127  0.4984  0.2466
  121TMC2     H 1850   2.926   0.645  14.307 -0.0122 -0.4075 -1.3173
  121TMC2    H1 1851   2.491   0.625  14.298  0.2682 -0.0158 -1.4647
  121TMC2    H2 1852   2.717   0.310  14.475  0.2038  0.7139 -0.5739
  121TMC2    C7 1853   2.476   0.404  14.447 -0.2564  0.3976 -0.4320
  121TMC2    C8 1854   2.950   0.434  14.458  0.1003 -0.6571  0.1203
  121TMC2    O1 1855   2.495   0.328  14.540 -0.4115 -0.2027  0.3606
  121TMC2    O2 1856   2.952   0.354  14.547 -0.0539 -0.4137  0.7512
  121TMC2    O5 1857   3.028   0.429  14.353  0.6171  0.1758 -0.3004
  121TMC2    H5 1858   3.101   0.368  14.377 -0.7673 -0.7437  1.5181
  122MPD2     C 1859   2.689   1.087  14.218  0.4916  0.3407 -0.0678
  122MPD2    C1 1860   2.797   1.010  14.185  0.5227  0.6594  0.1752
  122MPD2    C2 1861   2.899   1.062  14.105  0.1978  0.1170 -0.6054
  122MPD2    C3 1862   2.884   1.179  14.037  0.1986  0.0121  0.7027
  122MPD2    C4 1863   2.775   1.252  14.068  0.3460 -0.1264 -0.4149
  122MPD2    C5 1864   2.683   1.210  14.158 -0.2012  0.5050  0.1390
  122MPD2     H 1865   2.982   0.998  14.078  0.6551 -0.0386  1.1534
  122MPD2    H1 1866   2.758   1.342  14.010  0.1136  0.3366  0.3681
  122MPD2    H2 1867   2.600   1.060  14.273  0.1582  0.4246 -0.5676
  122MPD2    H3 1868   2.592   1.267  14.167  0.0670  0.7480  1.2477
  122MPD2     N 1869   2.976   1.225  13.943 -0.0706  0.4051  0.6495
  122MPD2    H5 1870   2.945   1.312  13.901  0.6896 -0.1168 -0.9843
  122MPD2    N1 1871   2.788   0.871  14.216  0.3603 -0.1043  0.2929
  122MPD2    H7 1872   2.866   0.817  14.181  1.1222  2.2957 -1.7314
  123MPD2     C 1873   1.116   3.084   9.861  0.1479 -0.2755 -0.0550
  123MPD2    C1 1874   1.092   3.174   9.759  0.0446 -0.6112  1.2003
  123MPD2    C2 1875   1.200   3.252   9.712 -0.0832  0.2742 -0.0995
  123MPD2    C3 1876   1.328   3.244   9.768  1.1297 -0.2176 -0.5688
  123MPD2    C4 1877   1.343   3.156   9.876  0.1783  0.3273 -0.9951
  123MPD2    C5 1878   1.235   3.088   9.928 -0.0794 -0.0336  0.4639
  123MPD2     H 1879   1.189   3.321   9.629 -0.2561 -0.9269 -1.0804
  123MPD2    H1 1880   1.440   3.144   9.923 -0.1976  2.7676  0.3941
  123MPD2    H2 1881   1.038   3.022   9.902 -1.2578  2.4344  1.3854
  123MPD2    H3 1882   1.249   3.024  10.014 -1.5457 -0.1064  0.6595
  123MPD2     N 1883   1.424   3.324   9.705  0.1996  0.0587 -0.5291
  123MPD2    H5 1884   1.394   3.364   9.617  2.0265  2.5103 -0.0368
  123MPD2    N1 1885   0.959   3.163   9.697  0.1966  0.2297  0.7466
  123MPD2    H7 1886   0.888   3.110   9.746  0.2354 -1.1217 -0.6741
  124TCq2    C1 1887   1.558   3.326   9.753  0.4531 -0.2787  0.0851
  124TCq2    O2 1888   1.599   3.284   9.865  0.2242 -0.4023 -0.1332
  124TCq2    C2 1889   1.657   3.369   9.648  1.0210  0.2844 -0.4234
  124TCq2    C3 1890   1.786   3.355   9.678  0.3356  0.2582 -0.0955
  124TCq2    C4 1891   1.885   3.360   9.585 -0.0694  0.4244  0.4975
  124TCq2    C5 1892   1.847   3.367   9.454 -0.6316  0.2043  0.2970
  124TCq2    C6 1893   1.712   3.391   9.418  0.1356  0.2253 -0.5328
  124TCq2    C7 1894   1.616   3.399   9.519 -0.4781  0.3220 -0.3860
  124TCq2    C8 1895   1.670   3.418   9.277 -0.0902  0.1947  0.6673
  124TCq2    O4 1896   1.758   3.462   9.201  0.3886  0.2498 -0.3789
  124TCq2    C9 1897   2.024   3.325   9.606 -0.4691  0.0740  0.0003
  124TCq2    O5 1898   2.094   3.288   9.511  0.3273 -0.1219 -0.3495
  124TCq2    O6 1899   2.043   3.282   9.724  0.0002  0.1822 -1.2887
  124TCq2    H2 1900   1.813   3.343   9.783 -1.4281 -0.8372  0.2419
  124TCq2    H3 1901   1.929   3.363   9.383 -1.1802  0.1250 -0.3276
  124TCq2    H4 1902   1.515   3.423   9.488  0.4571  2.5993 -1.6709
  125TMC2    C1 1903   2.197   0.855   8.988 -0.5986  0.2310  0.0831
  125TMC2    C2 1904   2.097   0.812   8.902  0.1546  0.3599 -0.4679
  125TMC2    C3 1905   2.006   0.727   8.952  0.2944  0.4204 -0.0481
  125TMC2    C4 1906   2.178   0.829   9.121 -0.1129  0.4309 -0.3402
  125TMC2    C5 1907   2.088   0.744   9.167 -0.1281  0.0424 -1.0024
  125TMC2    C6 1908   1.995   0.692   9.079  0.3753  0.6038  0.5655
  125TMC2     C 1909   2.307   0.932   8.928 -0.1602  0.3517 -0.5309
  125TMC2     O 1910   2.299   0.948   8.807 -0.1277  0.0790  0.0562
  125TMC2     H 1911   2.104   0.810   8.794  0.4040  0.6621 -0.4581
  125TMC2    H1 1912   2.239   0.884   9.192 -0.7226  1.3348 -0.5250
  125TMC2    H2 1913   1.907   0.637   9.109  0.1467  1.2570  1.1006
  125TMC2    C7 1914   2.072   0.712   9.308  0.9388 -0.8404 -0.2865
  125TMC2    C8 1915   1.886   0.724   8.875  0.7414 -0.0828 -0.1074
  125TMC2    O1 1916   1.988   0.633   9.345  0.0263 -0.2666 -0.2756
  125TMC2    O2 1917   1.831   0.621   8.846 -0.0276  0.2017 -0.3962
  125TMC2    O5 1918   1.819   0.819   8.937  0.2812 -0.0924  0.3252
  125TMC2    H5 1919   1.873   0.889   8.979  1.5281  1.4405 -3.8631
  126MPD1     C 1920   2.711   1.242   8.987  0.0293  0.4193 -0.3465
  126MPD1    C1 1921   2.669   1.197   9.109 -0.1340  0.0947 -0.0110
  126MPD1    C2 1922   2.572   1.104   9.115  0.5202 -0.3681  0.3854
  126MPD1    C3 1923   2.505   1.070   9.000  0.0821  0.3151 -0.5506
  126MPD1    C4 1924   2.526   1.136   8.878  0.6968  0.3459  0.2637
  126MPD1    C5 1925   2.637   1.218   8.871  0.1421 -0.8168 -0.2603
  126MPD1     H 1926   2.547   1.062   9.212 -0.9499 -0.1139  0.1128
  126MPD1    H1 1927   2.466   1.113   8.790  2.5734 -0.0223 -0.9032
  126MPD1    H2 1928   2.802   1.301   8.988  1.0939 -1.1641 -2.6864
  126MPD1    H3 1929   2.667   1.272   8.782 -0.3023 -1.5401 -0.8527
  126MPD1     N 1930   2.410   0.970   9.020  0.0335  0.2769 -0.7061
  126MPD1    H5 1931   2.413   0.923   9.110  2.1671 -0.5504 -1.2034
  126MPD1    N1 1932   2.745   1.237   9.220 -0.5652 -0.1227  1.2726
  126MPD1    H6 1933   2.780   1.333   9.220 -0.9730  0.0290 -0.5435
  126MPD1    H7 1934   2.713   1.212   9.313 -1.0510  1.6010  1.5694
  127MPD2     C 1935   3.011   4.416   9.455  0.6234  0.0269  0.0084
  127MPD2    C1 1936   3.139   4.402   9.509  0.2637  0.6799 -0.0872
  127MPD2    C2 1937   3.239   4.505   9.494  0.0586  0.5094  0.5471
  127MPD2    C3 1938   3.212   4.614   9.411 -0.8744  0.2579  0.3961
  127MPD2    C4 1939   3.081   4.621   9.356  0.3189  0.2609  0.4898
  127MPD2    C5 1940   2.986   4.533   9.386  0.1530  0.6038  0.7030
  127MPD2     H 1941   3.343   4.496   9.522  0.2887  0.2788 -0.3705
  127MPD2    H1 1942   3.064   4.699   9.283  1.6431 -0.6967 -0.8580
  127MPD2    H2 1943   2.929   4.346   9.463 -0.1365  0.5935 -2.8683
  127MPD2    H3 1944   2.888   4.557   9.347  0.0824  1.2647  1.2751
  127MPD2     N 1945   3.310   4.711   9.393 -0.5818  0.1037  0.5779
  127MPD2    H5 1946   3.388   4.710   9.457  0.1981  0.7757 -0.3646
  127MPD2    N1 1947   3.157   4.283   9.580 -0.1499 -0.4529  0.3727
  127MPD2    H7 1948   3.069   4.242   9.608 -0.7491  0.8769  0.4585
  128TCq2    C1 1949   3.276   4.239   9.628  0.1704 -0.3830 -0.6836
  128TCq2    O2 1950   3.389   4.286   9.624 -0.4857  0.3177  0.4419
  128TCq2    C2 1951   3.269   4.112   9.698  1.1422  0.2312  0.2503
  128TCq2    C3 1952   3.377   4.074   9.773  0.6463 -0.0334  0.1573
  128TCq2    C4 1953   3.375   3.953   9.834 -0.5549  0.1091  0.5553
  128TCq2    C5 1954   3.265   3.877   9.835  0.2523 -0.2364  0.0569
  128TCq2    C6 1955   3.151   3.921   9.766 -0.1055 -0.0337  0.3931
  128TCq2    C7 1956   3.154   4.040   9.699 -0.2295 -0.5615  0.0677
  128TCq2    C8 1957   3.033   3.831   9.766 -0.7093  0.0114 -0.3473
  128TCq2    O4 1958   3.052   3.718   9.804 -0.0636  0.0859  0.4017
  128TCq2    C9 1959   3.469   3.923   9.935 -0.3337  0.2334  0.4143
  128TCq2    O5 1960   3.434   3.860  10.035  0.5978  0.0777  0.2480
  128TCq2    O6 1961   3.592   3.938   9.911  0.0463  0.8288 -0.4506
  128TCq2    H2 1962   3.462   4.143   9.775  0.2103  0.5147 -0.2039
  128TCq2    H3 1963   3.262   3.793   9.904 -0.6001  0.2036  0.5660
  128TCq2    H4 1964   3.073   4.077   9.638 -1.8268 -0.5376  2.2220
  129MPD2     C 1965   1.037   1.558   0.990  0.7478 -0.0368 -0.7689
  129MPD2    C1 1966   1.070   1.500   1.115  0.1475  0.3579  0.2971
  129MPD2    C2 1967   1.202   1.469   1.148 -0.9243 -0.5498  0.0246
  129MPD2    C3 1968   1.296   1.490   1.048  0.6083 -0.2949 -0.6158
  129MPD2    C4 1969   1.257   1.542   0.924  0.2970 -0.1388 -0.6277
  129MPD2    C5 1970   1.128   1.581   0.894  0.4612  0.2407  0.8216
  129MPD2     H 1971   1.232   1.425   1.242 -1.0405 -0.6852 -0.0005
  129MPD2    H1 1972   1.332   1.558   0.847  1.2863  1.0279  0.5975
  129MPD2    H2 1973   0.938   1.600   0.980  0.7794  0.2187 -0.0347
  129MPD2    H3 1974   1.102   1.603   0.791 -1.7553 -0.8978  1.1362
  129MPD2     N 1975   1.432   1.451   1.066 -0.8423  0.0166 -0.9091
  129MPD2    H5 1976   1.472   1.439   1.158 -2.8000 -0.8518 -0.1739
  129MPD2    N1 1977   0.965   1.480   1.214 -0.7290 -0.5668  0.5144
  129MPD2    H7 1978   0.983   1.449   1.309 -0.7791 -0.7404  0.4675
  130TCq2    C1 1979   0.827   1.462   1.174  0.0030 -0.0634  0.8417
  130TCq2    O2 1980   0.776   1.477   1.065  0.6149 -0.1244 -0.3151
  130TCq2    C2 1981   0.743   1.448   1.291  0.3308  0.2822  0.7377
  130TCq2    C3 1982   0.785   1.515   1.404  0.6748 -0.1811 -0.1554
  130TCq2    C4 1983   0.727   1.473   1.521  0.1454  0.5655 -0.1263
  130TCq2    C5 1984   0.640   1.370   1.529  0.4017  0.5012  0.3974
  130TCq2    C6 1985   0.603   1.297   1.412 -0.3535 -0.1648 -0.3776
  130TCq2    C7 1986   0.645   1.348   1.290  0.1998 -0.3479  0.2359
  130TCq2    C8 1987   0.510   1.183   1.429  0.1949  0.4605  0.0616
  130TCq2    O4 1988   0.439   1.157   1.333  0.3805  0.2979 -0.2076
  130TCq2    C9 1989   0.772   1.537   1.644  0.0255 -0.4703 -0.8021
  130TCq2    O5 1990   0.774   1.476   1.753  0.0529  0.2151  0.3656
  130TCq2    O6 1991   0.808   1.655   1.635 -0.2570  0.5742 -0.1896
  130TCq2    H2 1992   0.859   1.594   1.401 -0.8449  1.2161 -1.0299
  130TCq2    H3 1993   0.589   1.345   1.622  0.5364  0.2490  0.4022
  130TCq2    H4 1994   0.625   1.294   1.198 -1.2778  0.3586  0.1413
  131MPD2     C 1995   0.314   3.844   9.421 -0.4828 -0.2445 -0.0701
  131MPD2    C1 1996   0.432   3.820   9.363  0.4307 -0.7095  0.2613
  131MPD2    C2 1997   0.483   3.697   9.373 -0.3099 -0.2377  0.2037
  131MPD2    C3 1998   0.428   3.593   9.443  0.2672 -0.3430 -0.5386
  131MPD2    C4 1999   0.303   3.617   9.496  0.9407  0.1125  0.6151
  131MPD2    C5 2000   0.249   3.742   9.486  0.3203  0.2225  0.4369
  131MPD2     H 2001   0.575   3.672   9.320 -1.1864  0.2786 -1.5544
  131MPD2    H1 2002   0.251   3.542   9.554  0.9750  0.8557  1.6144
  131MPD2    H2 2003   0.258   3.936   9.412  0.1338 -0.0116 -1.5038
  131MPD2    H3 2004   0.158   3.752   9.545  0.2776  0.1169  0.3888
  131MPD2     N 2005   0.508   3.477   9.462 -0.3947  0.0242 -0.2480
  131MPD2    H5 2006   0.590   3.476   9.401  0.2141  3.8521  0.5153
  131MPD2    N1 2007   0.505   3.926   9.303 -0.5749 -0.8539  0.5316
  131MPD2    H7 2008   0.458   4.013   9.280  0.5175 -0.2032  0.8007
  132TCq2    C1 2009   0.899   4.296   9.408 -0.2487 -0.1938  0.5079
  132TCq2    O2 2010   0.943   4.222   9.498 -0.0685  0.1809 -0.0172
  132TCq2    C2 2011   0.804   4.249   9.313  0.3069 -0.1041 -0.2709
  132TCq2    C3 2012   0.709   4.326   9.249 -0.2518 -0.1096 -0.8572
  132TCq2    C4 2013   0.607   4.271   9.182  0.3732  0.4115 -0.3880
  132TCq2    C5 2014   0.593   4.133   9.177  0.1071  0.3323 -0.7308
  132TCq2    C6 2015   0.691   4.052   9.230  0.0145  0.0055 -0.9328
  132TCq2    C7 2016   0.783   4.109   9.316  0.4117 -0.4349 -0.1455
  132TCq2    C8 2017   0.645   3.924   9.282 -0.0713 -0.3621  0.4637
  132TCq2    O4 2018   0.723   3.845   9.337  0.0524  0.0117  0.2734
  132TCq2    C9 2019   0.509   4.357   9.122 -0.2716  0.5836  0.2540
  132TCq2    O5 2020   0.405   4.303   9.078 -0.2410 -0.1456  0.2562
  132TCq2    O6 2021   0.545   4.481   9.110  0.1329 -0.1121 -0.4740
  132TCq2    H2 2022   0.712   4.434   9.260  0.9735 -0.2734  0.4123
  132TCq2    H3 2023   0.517   4.086   9.116  1.1160 -0.8709 -1.0602
  132TCq2    H4 2024   0.845   4.036   9.365 -1.3283 -2.1740 -0.5296
  133MPD2     C 2025   0.247   0.553   9.495 -0.0623  0.3521  0.2202
  133MPD2    C1 2026   0.114   0.533   9.482 -0.2631  0.2460 -0.3747
  133MPD2    C2 2027   0.071   0.400   9.451 -0.1036 -0.3299 -0.0380
  133MPD2    C3 2028   0.162   0.295   9.433  0.0657  0.4578 -0.4428
  133MPD2    C4 2029   0.294   0.316   9.449  0.4776 -0.7535  0.1606
  133MPD2    C5 2030   0.330   0.446   9.480  0.0872 -0.5969 -0.1739
  133MPD2     H 2031   4.693   0.384   9.434 -0.5281  1.2231  1.1823
  133MPD2    H1 2032   0.366   0.238   9.430 -1.1711 -2.2846  0.1354
  133MPD2    H2 2033   0.283   0.649   9.530 -1.3573  0.5265  1.0542
  133MPD2    H3 2034   0.436   0.473   9.481 -0.3397  1.1297 -0.7827
  133MPD2     N 2035   0.121   0.165   9.395  0.3910  0.0257  0.3526
  133MPD2    H5 2036   0.186   0.089   9.410  1.4756  0.9363  0.2219
  133MPD2    N1 2037   0.029   0.637   9.509  0.2084  0.1459 -0.8499
  133MPD2    H7 2038   0.074   0.720   9.546  1.9860 -1.5279  0.7460
  134TCq2    C1 2039   4.618   0.635   9.507 -0.6677 -0.6000 -1.4799
  134TCq2    O2 2040   4.540   0.547   9.471  0.3568  0.1053  0.1295
  134TCq2    C2 2041   4.564   0.770   9.504 -0.2270  0.0787 -0.1507
  134TCq2    C3 2042   4.653   0.870   9.460 -0.3262  0.3491  0.3769
  134TCq2    C4 2043   4.585   0.991   9.443  0.1649 -0.2711  0.2832
  134TCq2    C5 2044   4.456   1.018   9.479  0.6872  0.4037  0.6606
  134TCq2    C6 2045   4.378   0.915   9.522 -0.7402 -0.7667 -0.2847
  134TCq2    C7 2046   4.428   0.791   9.531 -0.4735 -0.2121  0.3665
  134TCq2    C8 2047   4.232   0.931   9.521 -0.3412 -0.0474 -0.1955
  134TCq2    O4 2048   4.166   0.856   9.591 -0.6544 -0.2588 -0.2581
  134TCq2    C9 2049   4.672   1.097   9.403 -0.4817  0.0134  0.2154
  134TCq2    O5 2050   4.622   1.210   9.388  0.8759  0.3359 -0.5696
  134TCq2    O6 2051   0.064   1.073   9.369  0.3174  0.0881  0.3968
  134TCq2    H2 2052   0.029   0.854   9.429 -0.9438  1.8429 -2.4250
  134TCq2    H3 2053   4.414   1.119   9.481 -1.4346 -0.4965  2.0786
  134TCq2    H4 2054   4.371   0.701   9.552  0.7343 -1.3871 -1.4336
  135MPD2     C 2055   2.444   1.714   8.814  0.0267 -0.2114  0.7475
  135MPD2    C1 2056   2.502   1.591   8.838  0.6390 -0.4995  0.1083
  135MPD2    C2 2057   2.625   1.574   8.791 -0.0186 -0.3385  0.2113
  135MPD2    C3 2058   2.695   1.675   8.729 -0.4092 -0.3160 -0.2014
  135MPD2    C4 2059   2.637   1.798   8.704  0.6588  0.1038  0.1527
  135MPD2    C5 2060   2.509   1.812   8.744  0.2125  0.3560 -0.3552
  135MPD2     H 2061   2.667   1.476   8.812  0.1337 -0.4004 -0.3999
  135MPD2    H1 2062   2.695   1.875   8.656  1.0633  0.4301  1.1707
  135MPD2    H2 2063   2.342   1.743   8.835  0.3604  2.6889 -1.7494
  135MPD2    H3 2064   2.446   1.897   8.722 -1.1462  0.1658  2.8502
  135MPD2     N 2065   2.824   1.641   8.672  0.0707 -0.4876  0.5921
  135MPD2    H5 2066   2.864   1.710   8.610  2.1204 -1.4490  0.8437
  135MPD2    N1 2067   2.436   1.488   8.910  0.1952  0.4326 -0.0422
  135MPD2    H7 2068   2.489   1.406   8.939 -1.0883  0.3541  2.0718
  136TCq2    C1 2069   2.299   1.485   8.938 -0.6513 -0.2711  0.0681
  136TCq2    O2 2070   2.210   1.560   8.892 -0.1396 -0.4651 -0.1325
  136TCq2    C2 2071   2.260   1.356   8.998  0.0213 -0.1085 -0.2775
  136TCq2    C3 2072   2.147   1.297   8.954  0.8144  1.1474 -0.6009
  136TCq2    C4 2073   2.088   1.199   9.024 -0.6231  0.4848 -0.3887
  136TCq2    C5 2074   2.128   1.174   9.149  0.3715  0.0519 -0.0580
  136TCq2    C6 2075   2.243   1.232   9.194 -0.2809  0.3764  0.0633
  136TCq2    C7 2076   2.316   1.319   9.115 -0.8936  0.0209  0.1621
  136TCq2    C8 2077   2.296   1.215   9.324  0.2212  0.2103  0.5007
  136TCq2    O4 2078   2.398   1.273   9.356  0.0533 -0.3176  0.5246
  136TCq2    C9 2079   1.967   1.134   8.975 -0.0072 -0.2840  1.0851
  136TCq2    O5 2080   1.916   1.175   8.867 -0.7761  0.3268  0.5024
  136TCq2    O6 2081   1.924   1.045   9.047 -0.1208 -0.1133  0.0775
  136TCq2    H2 2082   2.111   1.314   8.853 -1.5153  3.3720  0.6185
  136TCq2    H3 2083   2.070   1.104   9.208  0.3941 -0.2237 -0.3616
  136TCq2    H4 2084   2.405   1.372   9.147 -2.9505  1.8754  2.8753
  137MPD2     C 2085   2.513   0.654   8.818  0.5957 -0.4615 -0.2294
  137MPD2    C1 2086   2.396   0.576   8.830 -0.3396  0.2727  0.0698
  137MPD2    C2 2087   2.374   0.525   8.958 -0.7828 -0.0060 -0.0478
  137MPD2    C3 2088   2.457   0.545   9.068  0.4827  0.8952 -0.1814
  137MPD2    C4 2089   2.579   0.615   9.046  0.1620  0.2338 -0.2099
  137MPD2    C5 2090   2.606   0.662   8.916  0.0028 -1.2530 -0.2829
  137MPD2     H 2091   2.279   0.476   8.976 -0.9159  0.1190 -0.4176
  137MPD2    H1 2092   2.663   0.630   9.113 -0.8494  1.9663  0.6584
  137MPD2    H2 2093   2.540   0.706   8.726  4.1037 -0.8347  0.5617
  137MPD2    H3 2094   2.707   0.698   8.899 -0.6043  1.5805  2.0742
  137MPD2     N 2095   2.415   0.493   9.190  0.4462 -0.2777 -0.0342
  137MPD2    H5 2096   2.339   0.425   9.191 -1.4112  1.7657 -4.3150
  137MPD2    N1 2097   2.303   0.583   8.721  0.1360  0.2521  0.1748
  137MPD2    H7 2098   2.337   0.627   8.636  1.5262  2.0544  1.6655
  138TCq2    C1 2099   2.181   0.523   8.720  0.4417 -0.8790  0.2323
  138TCq2    O2 2100   2.127   0.470   8.817  0.0988 -0.2324 -0.0249
  138TCq2    C2 2101   2.106   0.513   8.593 -0.0930  0.1514  0.6750
  138TCq2    C3 2102   2.165   0.539   8.472  0.1251  0.5952  0.1205
  138TCq2    C4 2103   2.090   0.528   8.360  0.0912 -0.0134  0.3458
  138TCq2    C5 2104   1.956   0.506   8.370  0.0846  0.1832 -0.1722
  138TCq2    C6 2105   1.907   0.479   8.485 -0.6271  0.1477  0.8330
  138TCq2    C7 2106   1.977   0.473   8.601 -0.2231  0.0683  0.0859
  138TCq2    C8 2107   1.764   0.449   8.483 -1.0323 -0.6088  0.0560
  138TCq2    O4 2108   1.708   0.407   8.379  0.5705  0.0594 -0.4688
  138TCq2    C9 2109   2.159   0.539   8.233 -0.7463 -0.4249 -0.1650
  138TCq2    O5 2110   2.117   0.464   8.142  0.4282 -0.0145 -0.4183
  138TCq2    O6 2111   2.264   0.607   8.232  0.1828  0.4924  0.5417
  138TCq2    H2 2112   2.271   0.560   8.457  0.0683 -0.0471 -1.1888
  138TCq2    H3 2113   1.902   0.509   8.276  0.2739  0.3807 -0.2748
  138TCq2    H4 2114   1.933   0.447   8.697 -0.6366  1.2965  0.2188
  139TMC2    C1 2115   3.150   3.710  13.536 -0.8442 -0.4163 -0.1370
  139TMC2    C2 2116   3.229   3.765  13.432  0.4213  0.2036  0.0170
  139TMC2    C3 2117   3.205   3.893  13.400 -0.5734 -0.6669  0.0268
  139TMC2    C4 2118   3.045   3.772  13.591 -0.3088  0.1398 -0.2571
  139TMC2    C5 2119   3.006   3.891  13.529 -0.4949 -0.0225  1.3393
  139TMC2    C6 2120   3.088   3.949  13.443 -0.3412  0.4694 -0.5101
  139TMC2     C 2121   3.175   3.574  13.565 -0.4574  0.3089  0.4273
  139TMC2     O 2122   3.238   3.513  13.477  0.3509 -0.9134  0.2231
  139TMC2     H 2123   3.317   3.717  13.391  0.4382 -0.0409  0.3347
  139TMC2    H1 2124   2.976   3.722  13.658  1.5437 -0.5382  1.1438
  139TMC2    H2 2125   3.046   4.029  13.384  2.4956  1.2968 -1.4036
  139TMC2    C7 2126   2.876   3.955  13.550 -0.1626 -0.3555  0.6946
  139TMC2    C8 2127   3.236   3.915  13.257  0.2404 -0.5147  0.2206
  139TMC2    O1 2128   2.862   4.072  13.515  0.2278  0.2909  0.1334
  139TMC2    O2 2129   3.272   3.830  13.178 -0.0859 -0.2812  0.8100
  139TMC2    O5 2130   3.244   4.044  13.241  0.2306 -0.6730  0.0254
  139TMC2    H5 2131   3.254   4.100  13.321  2.2852 -0.0925 -0.6424
  140MPD2     C 2132   3.187   3.414  13.899 -0.4472 -0.2930  0.2384
  140MPD2    C1 2133   3.166   3.423  13.760 -0.4418 -0.2928 -0.1938
  140MPD2    C2 2134   3.168   3.304  13.691  0.3248  0.1653 -0.1614
  140MPD2    C3 2135   3.180   3.178  13.755 -1.4298 -0.0757 -0.0459
  140MPD2    C4 2136   3.198   3.177  13.891 -0.0680 -0.9331  0.0827
  140MPD2    C5 2137   3.198   3.292  13.958  0.2227  0.4868  0.4030
  140MPD2     H 2138   3.160   3.303  13.583  0.3014 -0.7928 -0.1547
  140MPD2    H1 2139   3.229   3.092  13.950  2.8672  0.0484 -0.0140
  140MPD2    H2 2140   3.182   3.507  13.955  0.0590 -1.1158  1.6347
  140MPD2    H3 2141   3.211   3.285  14.066 -1.5701 -1.1034  0.5179
  140MPD2     N 2142   3.177   3.063  13.677 -0.8707 -0.3119 -0.6680
  140MPD2    H5 2143   3.159   3.079  13.578 -1.1756 -0.8335 -0.6967
  140MPD2    N1 2144   3.149   3.544  13.695 -0.0315  0.2983  0.2461
  140MPD2    H7 2145   3.139   3.615  13.767 -0.1455 -0.2711  0.7857
  141TCq2    C1 2146   3.046   4.468  14.393  0.0980  0.1701 -0.1005
  141TCq2    O2 2147   3.125   4.519  14.316  0.2335 -0.2830 -0.3540
  141TCq2    C2 2148   3.093   4.407  14.516  0.7518 -0.1354  0.0204
  141TCq2    C3 2149   3.021   4.306  14.567 -0.7214  0.1380  0.0708
  141TCq2    C4 2150   3.052   4.249  14.687 -0.0247 -1.2800 -0.2948
  141TCq2    C5 2151   3.149   4.305  14.765 -0.3890  0.0233  0.3047
  141TCq2    C6 2152   3.219   4.407  14.708  0.1307  0.4201 -0.0040
  141TCq2    C7 2153   3.200   4.461  14.587  0.2917  0.2633  0.5902
  141TCq2    C8 2154   3.317   4.473  14.802 -0.1627  1.0003  0.1955
  141TCq2    O4 2155   3.286   4.460  14.921  0.6282 -0.1148  0.1480
  141TCq2    C9 2156   2.995   4.122  14.735 -0.4679 -0.6022  0.1653
  141TCq2    O5 2157   3.032   4.077  14.843 -0.5205 -0.3624 -0.3117
  141TCq2    O6 2158   2.913   4.073  14.654 -0.1839  0.1387 -0.1553
  141TCq2    H2 2159   2.947   4.258  14.504  0.8579 -1.5432 -0.4951
  141TCq2    H3 2160   3.165   4.260  14.862  1.2716 -1.7938 -0.7958
  141TCq2    H4 2161   3.250   4.553  14.559  1.5783 -1.0790 -1.5847
  142MPD2     C 2162   1.177   2.860  10.410 -0.1623 -0.1972  0.9094
  142MPD2    C1 2163   1.161   2.772  10.306 -0.0724  0.8962 -0.3801
  142MPD2    C2 2164   1.259   2.774  10.207 -0.1650  0.3246  0.0392
  142MPD2    C3 2165   1.372   2.867  10.214 -0.3951  0.4389  0.8263
  142MPD2    C4 2166   1.386   2.945  10.321  0.0190  0.3978  0.0269
  142MPD2    C5 2167   1.291   2.938  10.416 -0.0439 -0.3165 -0.3249
  142MPD2     H 2168   1.252   2.714  10.118 -1.3961  2.1108 -1.0589
  142MPD2    H1 2169   1.468   3.015  10.335 -0.3750  0.6703  0.9548
  142MPD2    H2 2170   1.110   2.863  10.495 -0.7792  2.0581  0.3583
  142MPD2    H3 2171   1.297   3.004  10.502  1.1801 -2.6432  1.3590
  142MPD2     N 2172   1.473   2.872  10.111 -0.3630 -0.1017  0.3046
  142MPD2    H5 2173   1.550   2.938  10.119 -0.7401  0.2695  0.9171
  142MPD2    N1 2174   1.044   2.692  10.295  0.3553  0.2258 -0.1199
  142MPD2    H7 2175   0.992   2.672  10.380  0.2855 -3.3978 -1.0077
  143TCq2    C1 2176   1.463   2.805   9.994 -0.4335  0.0993  0.3617
  143TCq2    O2 2177   1.362   2.762   9.935  0.3747  0.6342 -0.0159
  143TCq2    C2 2178   1.576   2.845   9.915 -0.0239 -0.0751 -0.1856
  143TCq2    C3 2179   1.694   2.873   9.973 -0.0179 -0.2189 -0.4434
  143TCq2    C4 2180   1.781   2.959   9.909 -0.0289 -0.2788 -0.0162
  143TCq2    C5 2181   1.759   3.001   9.783 -0.3961 -0.1783  0.7901
  143TCq2    C6 2182   1.646   2.956   9.713  0.7450 -0.6505  0.4665
  143TCq2    C7 2183   1.553   2.887   9.784 -0.8363  1.0017  1.3223
  143TCq2    C8 2184   1.633   2.992   9.572 -0.1685 -0.7444  0.1694
  143TCq2    O4 2185   1.739   3.027   9.521  0.5833 -0.2651  0.1104
  143TCq2    C9 2186   1.916   2.980   9.966  0.3601  0.8766  0.2026
  143TCq2    O5 2187   2.002   3.046   9.896  0.3464  0.3364  0.0289
  143TCq2    O6 2188   1.941   2.929  10.084 -0.4066  0.3069 -0.1849
  143TCq2    H2 2189   1.715   2.832  10.071 -5.2273 -0.1520  0.7027
  143TCq2    H3 2190   1.842   3.049   9.732  1.3837 -2.3786  1.6257
  143TCq2    H4 2191   1.469   2.845   9.731 -0.3442  0.2781  1.1120
  144MPD2     C 2192   3.233   3.244   1.135  0.4421  0.3152  0.1149
  144MPD2    C1 2193   3.322   3.163   1.069 -0.5647 -0.2247 -0.0791
  144MPD2    C2 2194   3.455   3.152   1.114 -0.6416 -0.7751  0.2730
  144MPD2    C3 2195   3.498   3.243   1.215  0.0713 -0.4795 -0.0906
  144MPD2    C4 2196   3.410   3.336   1.259 -0.1174 -0.2467  0.0906
  144MPD2    C5 2197   3.276   3.330   1.230 -0.0531 -0.1355 -0.0598
  144MPD2     H 2198   3.525   3.075   1.082 -0.5183 -0.0153 -1.2579
  144MPD2    H1 2199   3.439   3.412   1.330  1.3749 -0.6648 -0.0815
  144MPD2    H2 2200   3.130   3.257   1.106  0.2038 -1.6342  0.0554
  144MPD2    H3 2201   3.208   3.400   1.277  1.0636  0.4564  0.6417
  144MPD2     N 2202   3.633   3.247   1.268 -0.1114 -0.1459  0.2451
  144MPD2    H5 2203   3.639   3.315   1.343  1.8660 -0.6289  0.5187
  144MPD2    N1 2204   3.284   3.087   0.958 -0.6292 -0.1390  0.0690
  144MPD2    H7 2205   3.358   3.047   0.902 -0.7991  0.2085 -0.4026
  145TCq2    C1 2206   3.744   3.181   1.221  0.0269  0.0492 -0.3842
  145TCq2    O2 2207   3.751   3.111   1.119 -0.0343  0.0648 -0.0381
  145TCq2    C2 2208   3.861   3.192   1.302 -0.4676 -1.2588 -0.1835
  145TCq2    C3 2209   3.977   3.144   1.254 -0.2667 -0.4400 -0.4758
  145TCq2    C4 2210   4.090   3.156   1.324 -0.4179  0.0481  0.8398
  145TCq2    C5 2211   4.093   3.220   1.444 -0.9924  0.2262 -0.1129
  145TCq2    C6 2212   3.970   3.258   1.497  0.7505 -0.2169 -0.3236
  145TCq2    C7 2213   3.848   3.247   1.432  0.5846 -0.1778  0.6140
  145TCq2    C8 2214   3.976   3.318   1.630  0.5569 -0.1256 -0.1226
  145TCq2    O4 2215   4.086   3.322   1.687 -0.0866 -0.4702  0.4790
  145TCq2    C9 2216   4.208   3.101   1.278 -0.8257 -0.2174  0.8531
  145TCq2    O5 2217   4.202   3.035   1.175  0.2238 -0.3302 -0.0621
  145TCq2    O6 2218   4.315   3.132   1.343  0.3457 -0.3439 -0.1869
  145TCq2    H2 2219   3.981   3.087   1.162  0.2633 -1.1663 -0.0045
  145TCq2    H3 2220   4.182   3.220   1.506  0.4335 -2.1139 -2.1555
  145TCq2    H4 2221   3.750   3.277   1.469  1.0410  2.5117 -0.3209
  146TMC2    C1 2222   0.809   1.110  12.142  0.3002  0.0601 -0.0693
  146TMC2    C2 2223   0.736   1.176  12.040 -0.1259 -0.5169 -0.0218
  146TMC2    C3 2224   0.667   1.089  11.954 -0.6029 -0.2867 -0.3645
  146TMC2    C4 2225   0.830   0.967  12.139 -0.5770 -0.0577  0.4394
  146TMC2    C5 2226   0.775   0.897  12.033 -0.0142 -0.0553 -0.4531
  146TMC2    C6 2227   0.696   0.959  11.937 -0.2654 -1.1857  0.0051
  146TMC2     C 2228   0.841   1.193  12.262 -0.0008 -0.5748 -0.5892
  146TMC2     O 2229   0.861   1.312  12.251 -0.2589  0.2682 -0.2587
  146TMC2     H 2230   0.723   1.283  12.052  0.1552 -0.6134  1.2255
  146TMC2    H1 2231   0.890   0.916  12.214  1.1011  0.8261 -0.2925
  146TMC2    H2 2232   0.649   0.895  11.864 -0.1432  0.1191 -1.2191
  146TMC2    C7 2233   0.764   0.753  12.035  0.2036  0.3456 -1.6614
  146TMC2    C8 2234   0.611   1.166  11.847  0.0931  0.1048  0.4168
  146TMC2    O1 2235   0.688   0.701  11.954  0.1415 -0.1137  0.2296
  146TMC2    O2 2236   0.636   1.287  11.836  0.3200  0.3295 -0.2616
  146TMC2    O5 2237   0.503   1.103  11.798  0.5191 -0.3327  0.1047
  146TMC2    H5 2238   0.492   1.010  11.828 -1.7977 -0.7543 -2.1172
  147MPD2     C 2239   0.862   0.280  12.241  0.1414 -0.2192 -0.3589
  147MPD2    C1 2240   0.926   0.379  12.319  0.5491  0.3443 -0.2448
  147MPD2    C2 2241   0.912   0.512  12.290 -0.3783  0.1185  0.5356
  147MPD2    C3 2242   0.840   0.547  12.179 -0.6038  0.6180  0.2344
  147MPD2    C4 2243   0.777   0.455  12.097  0.3849  0.2067 -0.6286
  147MPD2    C5 2244   0.796   0.323  12.125 -0.3470 -0.2498  0.2026
  147MPD2     H 2245   0.956   0.590  12.350  0.6553  3.3059 -4.3159
  147MPD2    H1 2246   0.725   0.490  12.008  2.0987 -1.3684 -2.2487
  147MPD2    H2 2247   0.880   0.174  12.259  0.9446  0.2198  1.4420
  147MPD2    H3 2248   0.759   0.254  12.050  1.4434 -0.3368 -0.5885
  147MPD2     N 2249   0.832   0.687  12.141  0.2365 -0.2985 -0.1766
  147MPD2    H5 2250   0.883   0.759  12.192 -0.8391 -1.3883  2.3862
  147MPD2    N1 2251   1.017   0.336  12.422  0.1568  0.4301  0.0829
  147MPD2    H7 2252   1.038   0.237  12.424 -0.0409  0.4148  2.0411
  148MPD2     C 2253   1.335   4.334  10.233  0.2049  0.4221  0.1310
  148MPD2    C1 2254   1.311   4.212  10.170 -0.1651 -1.0382  0.5373
  148MPD2    C2 2255   1.182   4.169  10.135  1.3586  0.0554 -0.6260
  148MPD2    C3 2256   1.077   4.251  10.160 -0.3148  0.6146 -0.7913
  148MPD2    C4 2257   1.094   4.363  10.238  0.4547  0.1616 -0.0686
  148MPD2    C5 2258   1.220   4.417  10.263  0.1831  0.2787  0.0775
  148MPD2     H 2259   1.172   4.083  10.070 -0.6280 -1.9392  2.2969
  148MPD2    H1 2260   1.006   4.424  10.257 -0.1397 -1.1747  1.4219
  148MPD2    H2 2261   1.428   4.382  10.257 -0.2548  0.8971  0.9312
  148MPD2    H3 2262   1.233   4.519  10.298 -0.2717  0.9786 -1.8054
  148MPD2     N 2263   0.950   4.226  10.112 -0.0697 -0.4588  0.1537
  148MPD2    H5 2264   0.886   4.274  10.175 -0.4849  0.7109 -1.1652
  148MPD2    N1 2265   1.413   4.119  10.141  0.1568 -0.8971 -0.1461
  148MPD2    H7 2266   1.381   4.034  10.095 -2.7960 -0.3977  1.0180
  149TCq2    C1 2267   1.546   4.134  10.158 -0.5419 -0.0758  0.0921
  149TCq2    O2 2268   1.611   4.231  10.186 -0.0109  0.4212  0.2121
  149TCq2    C2 2269   1.615   4.015  10.121  0.3685  0.0075 -0.5200
  149TCq2    C3 2270   1.742   4.042  10.070  0.4806  0.2621  0.4320
  149TCq2    C4 2271   1.809   3.938  10.006  0.2287 -0.6166  0.2018
  149TCq2    C5 2272   1.738   3.822   9.976 -0.2954 -0.4527  0.0385
  149TCq2    C6 2273   1.610   3.807  10.030  0.0212  0.6614 -0.1755
  149TCq2    C7 2274   1.548   3.903  10.106 -0.1840 -0.5132  0.0420
  149TCq2    C8 2275   1.512   3.725   9.952  0.0935 -0.2064 -0.0143
  149TCq2    O4 2276   1.416   3.685  10.012 -0.1916  0.4726 -0.6444
  149TCq2    C9 2277   1.915   3.971   9.920  0.4437 -0.2624 -0.0990
  149TCq2    O5 2278   1.959   4.084   9.917 -0.2489 -0.3865 -0.2538
  149TCq2    O6 2279   1.969   3.873   9.852  0.1667  0.2015  0.0479
  149TCq2    H2 2280   1.794   4.137  10.078  0.8833  0.0122  0.7544
  149TCq2    H3 2281   1.786   3.762   9.900 -1.2752 -4.2326  2.4125
  149TCq2    H4 2282   1.450   3.884  10.147 -0.5155  1.7657  0.3476
  150MPD2     C 2283   2.611   3.447  11.995 -0.2320 -0.1058  0.3984
  150MPD2    C1 2284   2.557   3.576  11.978  0.1159  0.0414 -0.1009
  150MPD2    C2 2285   2.639   3.681  12.009  0.0357  0.1393 -0.1692
  150MPD2    C3 2286   2.762   3.661  12.068 -0.3936  0.4276 -0.5763
  150MPD2    C4 2287   2.808   3.534  12.087 -0.2919  0.0538  0.0300
  150MPD2    C5 2288   2.735   3.427  12.047  0.1806  0.5157  0.5770
  150MPD2     H 2289   2.604   3.784  12.006 -0.5238 -0.0484 -0.1107
  150MPD2    H1 2290   2.897   3.511  12.146 -0.0781  0.2417 -0.2197
  150MPD2    H2 2291   2.553   3.357  11.976  1.8367 -1.3578 -0.0613
  150MPD2    H3 2292   2.769   3.328  12.076 -0.0271 -0.5543 -2.9026
  150MPD2     N 2293   2.840   3.765  12.107 -0.0975  0.7709 -0.1130
  150MPD2    H5 2294   2.789   3.852  12.104  0.5227  1.1174 -0.5464
  150MPD2    N1 2295   2.424   3.591  11.937 -0.0248 -0.7098 -0.2055
  150MPD2    H7 2296   2.381   3.507  11.899  1.9282 -1.0468 -1.6727
  151TCq2    C1 2297   2.967   3.766  12.156 -0.4448  0.0417  0.1651
  151TCq2    O2 2298   3.056   3.678  12.165 -0.4432  0.1182  0.1633
  151TCq2    C2 2299   3.003   3.898  12.202 -0.5079 -0.2457  0.1540
  151TCq2    C3 2300   2.910   4.002  12.184  0.3780  0.5414 -0.2012
  151TCq2    C4 2301   2.922   4.113  12.257  0.5588 -0.8809 -0.3366
  151TCq2    C5 2302   3.002   4.113  12.366  0.1464  0.1656 -0.6941
  151TCq2    C6 2303   3.094   4.007  12.383  0.0736 -0.3685 -0.7491
  151TCq2    C7 2304   3.097   3.902  12.297  0.5231 -0.0300 -0.5221
  151TCq2    C8 2305   3.202   4.032  12.479  0.9964 -0.3573 -0.2302
  151TCq2    O4 2306   3.216   4.148  12.506 -0.6617 -0.0509 -0.2900
  151TCq2    C9 2307   2.832   4.226  12.231 -0.7888  0.4844  0.4976
  151TCq2    O5 2308   2.847   4.333  12.298 -0.1647 -0.7364 -0.1661
  151TCq2    O6 2309   2.751   4.218  12.134 -0.2255 -0.0651 -0.4175
  151TCq2    H2 2310   2.856   4.020  12.092  1.0725 -0.4097 -0.7835
  151TCq2    H3 2311   2.992   4.193  12.439 -0.1922  0.2038 -0.7843
  151TCq2    H4 2312   3.169   3.822  12.311 -0.1127 -0.4239  0.5197
  152MPD2     C 2313   2.477   2.911  12.327  0.3257 -0.0551  0.6933
  152MPD2    C1 2314   2.452   3.047  12.328  0.2866  0.0781 -0.2080
  152MPD2    C2 2315   2.323   3.095  12.345  0.3199 -0.0480 -0.6027
  152MPD2    C3 2316   2.215   3.005  12.339 -0.2122 -0.3856 -0.0881
  152MPD2    C4 2317   2.238   2.866  12.341  0.0375 -0.3484 -0.2262
  152MPD2    C5 2318   2.369   2.826  12.330 -0.4001  0.4184  0.0041
  152MPD2     H 2319   2.301   3.201  12.350  1.4100  0.1869 -0.7517
  152MPD2    H1 2320   2.155   2.797  12.336 -0.1812 -0.1370  0.4705
  152MPD2    H2 2321   2.578   2.876  12.307  0.0776 -1.8989  2.6982
  152MPD2    H3 2322   2.387   2.719  12.330  0.4872  0.5579 -0.9956
  152MPD2     N 2323   2.082   3.055  12.347 -0.3230  0.0532 -0.1968
  152MPD2    H5 2324   2.083   3.156  12.358  1.3850 -0.0483  0.5972
  152MPD2    N1 2325   2.570   3.121  12.335 -0.3573 -0.3997 -0.1078
  152MPD2    H7 2326   2.659   3.073  12.326 -1.2197 -1.8069 -1.0928
  153TCq2    C1 2327   2.565   3.258  12.365  0.3590 -0.1992  0.5287
  153TCq2    O2 2328   2.473   3.328  12.396  0.2625 -0.1549 -0.1389
  153TCq2    C2 2329   2.692   3.319  12.378 -0.1113  1.0698  0.4891
  153TCq2    C3 2330   2.814   3.260  12.355  0.8402  0.1364  0.6113
  153TCq2    C4 2331   2.931   3.329  12.390 -0.4323 -0.5587  0.5990
  153TCq2    C5 2332   2.925   3.456  12.426 -0.5710  0.3187 -0.0895
  153TCq2    C6 2333   2.807   3.524  12.425 -0.4434  0.8116 -0.8227
  153TCq2    C7 2334   2.692   3.453  12.407 -0.3765 -0.3931 -0.9631
  153TCq2    C8 2335   2.791   3.661  12.466 -0.1426  0.0824  0.1834
  153TCq2    O4 2336   2.673   3.701  12.468 -0.1367 -0.2694  0.1345
  153TCq2    C9 2337   3.058   3.261  12.382  0.6464  0.1855  0.2620
  153TCq2    O5 2338   3.162   3.339  12.392 -0.4385  0.0663  0.1525
  153TCq2    O6 2339   3.055   3.142  12.347 -0.2253 -0.2175  0.3352
  153TCq2    H2 2340   2.815   3.152  12.341 -1.4823  0.0097  1.4268
  153TCq2    H3 2341   3.019   3.509  12.433  0.7219 -2.3768  2.5046
  153TCq2    H4 2342   2.597   3.500  12.428  0.6285  1.1009  0.2242
  154MPD2     C 2343   2.598   3.527   0.538  0.1893 -0.4988 -0.1497
  154MPD2    C1 2344   2.658   3.641   0.597  1.0032 -0.4285  0.0565
  154MPD2    C2 2345   2.586   3.758   0.618 -0.6063 -0.2985  0.5238
  154MPD2    C3 2346   2.455   3.765   0.583 -0.2713 -0.2715  0.0721
  154MPD2    C4 2347   2.393   3.651   0.531  0.4518 -0.3517 -0.7303
  154MPD2    C5 2348   2.469   3.540   0.494  0.0034  0.3313 -0.0309
  154MPD2     H 2349   2.643   3.839   0.664  0.4295 -1.7607  1.7932
  154MPD2    H1 2350   2.288   3.639   0.511  0.3486  0.8278 -0.8953
  154MPD2    H2 2351   2.646   3.431   0.525  0.8659 -0.4632  2.1133
  154MPD2    H3 2352   2.408   3.458   0.458 -1.0615  0.7990  0.7134
  154MPD2     N 2353   2.379   3.882   0.625  0.3653 -0.8486  0.0737
  154MPD2    H5 2354   2.429   3.952   0.678 -0.1073  0.3882 -1.1195
  154MPD2    N1 2355   2.795   3.632   0.626  0.5246 -0.3558 -0.7253
  154MPD2    H7 2356   2.844   3.546   0.602 -0.3023 -1.2988  0.9767
  155TCq2    C1 2357   2.878   3.726   0.680 -0.5383 -0.3844  0.1280
  155TCq2    O2 2358   2.861   3.827   0.750  0.3366 -0.7697 -0.3533
  155TCq2    C2 2359   3.007   3.708   0.630  0.0302 -0.4077  0.5992
  155TCq2    C3 2360   3.020   3.661   0.504  0.0286 -0.3724 -0.0600
  155TCq2    C4 2361   3.137   3.677   0.443 -0.3203 -0.0742 -0.2950
  155TCq2    C5 2362   3.251   3.733   0.502  0.0438 -0.2000 -0.5707
  155TCq2    C6 2363   3.233   3.777   0.631 -0.7409  0.2177  0.2118
  155TCq2    C7 2364   3.111   3.773   0.695 -0.7247 -0.4204  0.2411
  155TCq2    C8 2365   3.347   3.769   0.720 -0.4191 -0.2433 -0.1478
  155TCq2    O4 2366   3.434   3.688   0.688  0.0783  0.3739  0.0059
  155TCq2    C9 2367   3.140   3.671   0.299  0.3114 -0.3028 -0.1890
  155TCq2    O5 2368   3.052   3.603   0.245  0.0299 -0.1002 -0.3746
  155TCq2    O6 2369   3.240   3.709   0.239  0.1648 -0.9016 -0.1109
  155TCq2    H2 2370   2.948   3.607   0.443 -2.3015  1.9071  0.6809
  155TCq2    H3 2371   3.349   3.737   0.456  0.6462 -0.9849  0.6445
  155TCq2    H4 2372   3.091   3.803   0.798 -0.0276 -0.5375  0.4050
  156MPD2     C 2373   3.493   1.405  12.586 -0.6213 -0.2041 -0.1369
  156MPD2    C1 2374   3.424   1.379  12.471  1.0027 -0.0742  0.2097
  156MPD2    C2 2375   3.289   1.392  12.475  1.0737  0.6365 -0.0058
  156MPD2    C3 2376   3.220   1.419  12.591 -0.7015  0.0615 -0.0659
  156MPD2    C4 2377   3.290   1.438  12.706  0.5444  0.2417  0.1899
  156MPD2    C5 2378   3.429   1.437  12.701 -0.1417  0.1548 -0.0149
  156MPD2     H 2379   3.237   1.362  12.385  1.0109  2.0232 -0.4266
  156MPD2    H1 2380   3.240   1.458  12.800  1.5903  0.7669  0.6268
  156MPD2    H2 2381   3.600   1.393  12.590 -0.6238 -0.0630  0.4398
  156MPD2    H3 2382   3.485   1.465  12.790 -1.4555 -0.2071  0.9333
  156MPD2     N 2383   3.084   1.388  12.586 -0.2653 -0.0203 -0.3172
  156MPD2    H5 2384   3.052   1.346  12.500  0.6345 -1.7849  0.2189
  156MPD2    N1 2385   3.497   1.341  12.353  0.0127  0.2907  0.2914
  156MPD2    H7 2386   3.598   1.331  12.351  0.2316  2.0596  1.8791
  157TCq2    C1 2387   3.435   1.349  12.233  0.0545  0.1958  0.5622
  157TCq2    O2 2388   3.340   1.417  12.203 -0.0054 -0.3032  0.3443
  157TCq2    C2 2389   3.507   1.294  12.120  0.8065 -0.2067  0.6772
  157TCq2    C3 2390   3.613   1.205  12.139 -0.2181  0.6767  0.0327
  157TCq2    C4 2391   3.622   1.090  12.070  0.4040 -0.3318  0.2717
  157TCq2    C5 2392   3.533   1.062  11.971 -0.2482  0.1803 -0.1634
  157TCq2    C6 2393   3.439   1.156  11.956 -0.2773  0.5460  0.0010
  157TCq2    C7 2394   3.427   1.273  12.011 -0.1198  0.3370  0.3368
  157TCq2    C8 2395   3.319   1.125  11.875 -0.2561  0.7027  0.3060
  157TCq2    O4 2396   3.245   1.218  11.841  0.0505 -0.0951 -0.2232
  157TCq2    C9 2397   3.731   0.995  12.093 -0.0049 -0.4180 -0.1192
  157TCq2    O5 2398   3.724   0.878  12.046 -0.7889  0.2579  0.2187
  157TCq2    O6 2399   3.812   1.031  12.183  0.5080 -0.3557  0.7514
  157TCq2    H2 2400   3.685   1.225  12.218 -0.3067  0.3425  0.1976
  157TCq2    H3 2401   3.545   0.977  11.905 -1.3642  0.6345 -0.9446
  157TCq2    H4 2402   3.339   1.333  11.993 -1.1380 -0.9823  0.9366
  158TMC2    C1 2403   2.998   0.470  13.134  0.0935 -0.7579  0.0073
  158TMC2    C2 2404   3.069   0.525  13.026  0.8378  0.2420  0.5636
  158TMC2    C3 2405   2.992   0.565  12.913  0.0739  0.3103  0.2203
  158TMC2    C4 2406   2.870   0.422  13.123 -0.1659 -0.6056  0.0017
  158TMC2    C5 2407   2.810   0.440  13.007  0.5158  0.6988  0.6099
  158TMC2    C6 2408   2.864   0.519  12.903 -0.1419  0.2409  0.3008
  158TMC2     C 2409   3.083   0.427  13.245  0.7392  0.1182  0.6842
  158TMC2     O 2410   3.197   0.395  13.215 -0.0438 -0.2546 -0.1389
  158TMC2     H 2411   3.175   0.545  13.017  0.3672  1.4958 -2.2661
  158TMC2    H1 2412   2.840   0.354  13.201 -1.7994  0.6525  0.4725
  158TMC2    H2 2413   2.807   0.536  12.812  2.6777 -0.0104 -1.5010
  158TMC2    C7 2414   2.711   0.342  12.955 -0.1537 -0.3286 -1.0739
  158TMC2    C8 2415   3.061   0.630  12.805 -0.0670 -0.4954 -0.2707
  158TMC2    O1 2416   2.686   0.347  12.833 -0.3226  0.4851  0.4695
  158TMC2    O2 2417   3.148   0.712  12.826 -0.3326 -0.2539 -0.1340
  158TMC2    O5 2418   3.046   0.553  12.692 -0.1207 -0.1184 -0.1394
  158TMC2    H5 2419   2.991   0.472  12.698 -0.2702 -0.0864 -1.0648
  159MPD2     C 2420   3.196   0.292  13.717 -0.2042  0.1361  0.0560
  159MPD2    C1 2421   3.059   0.314  13.714  0.3461  0.1222 -0.4864
  159MPD2    C2 2422   3.012   0.360  13.602  0.2773  0.2011 -0.2238
  159MPD2    C3 2423   3.081   0.373  13.483 -0.0693 -0.3789  0.4569
  159MPD2    C4 2424   3.216   0.333  13.486 -0.6401 -0.0089  0.4931
  159MPD2    C5 2425   3.272   0.287  13.602  0.5126 -0.6183  0.1958
  159MPD2     H 2426   2.908   0.387  13.592 -0.1816 -1.2795  0.5600
  159MPD2    H1 2427   3.282   0.332  13.400 -2.4741  0.6973 -0.9122
  159MPD2    H2 2428   3.235   0.250  13.809  3.2292  3.3271  0.0352
  159MPD2    H3 2429   3.376   0.260  13.610  0.7860  0.7068  1.1932
  159MPD2     N 2430   3.016   0.415  13.366 -0.3614 -0.3123  0.2860
  159MPD2    H5 2431   2.919   0.437  13.383 -0.9078 -2.7892  0.4484
  159MPD2    N1 2432   2.985   0.292  13.833 -0.9720  0.0327 -0.1321
  159MPD2    H7 2433   3.028   0.230  13.900  1.0213  1.5633  0.0033
  160TMC2    C1 2434   1.489   3.335   1.366 -0.3715  0.8533  0.0503
  160TMC2    C2 2435   1.423   3.220   1.374 -0.3653  0.0491 -0.7196
  160TMC2    C3 2436   1.486   3.110   1.429 -0.8104 -0.0818  0.4527
  160TMC2    C4 2437   1.615   3.351   1.426  0.8531  0.8847 -0.4974
  160TMC2    C5 2438   1.675   3.236   1.478 -0.4441  0.3794 -0.1565
  160TMC2    C6 2439   1.605   3.118   1.492  0.6709 -0.2003  0.5134
  160TMC2     C 2440   1.409   3.441   1.319  0.0880  0.2420  0.8338
  160TMC2     O 2441   1.354   3.420   1.215  0.1080 -0.2544 -0.1317
  160TMC2     H 2442   1.343   3.205   1.303  0.8855  0.3734 -2.2005
  160TMC2    H1 2443   1.663   3.448   1.428 -0.7460  1.6572 -0.2212
  160TMC2    H2 2444   1.651   3.025   1.524 -0.3715 -0.2098  1.9669
  160TMC2    C7 2445   1.815   3.225   1.521 -0.4525 -0.5170 -0.4197
  160TMC2    C8 2446   1.408   2.988   1.423  0.8736 -0.1723 -0.1463
  160TMC2    O1 2447   1.853   3.120   1.568 -0.7231 -0.7214 -0.0237
  160TMC2    O2 2448   1.463   2.879   1.430 -0.7471 -0.2963 -0.4255
  160TMC2    O5 2449   1.279   3.022   1.456  0.3989 -0.3153  0.2142
  160TMC2    H5 2450   1.265   3.113   1.490  3.2249  0.3659 -0.4636
  161MPD2     C 2451   1.302   3.739   1.510  0.3910 -0.3877  0.1321
  161MPD2    C1 2452   1.324   3.661   1.401 -0.0561  0.3194 -0.4282
  161MPD2    C2 2453   1.283   3.702   1.281 -0.4973  0.1068 -0.2875
  161MPD2    C3 2454   1.215   3.822   1.265 -0.0177 -0.3296 -0.6211
  161MPD2    C4 2455   1.187   3.891   1.379 -0.0199 -0.2743 -0.2239
  161MPD2    C5 2456   1.230   3.858   1.500 -0.0086 -0.1441 -0.5661
  161MPD2     H 2457   1.303   3.640   1.194 -0.7543 -2.0686  1.2029
  161MPD2    H1 2458   1.132   3.984   1.378  0.7529  0.2001  2.0498
  161MPD2    H2 2459   1.334   3.703   1.607 -0.6738 -0.1367  0.5748
  161MPD2    H3 2460   1.206   3.910   1.592 -1.5234  2.0083 -2.1961
  161MPD2     N 2461   1.170   3.881   1.146  0.2043  0.6454 -0.1816
  161MPD2    H5 2462   1.127   3.973   1.145  0.6082  0.8359 -0.0039
  161MPD2    N1 2463   1.393   3.534   1.417 -0.5891  0.0704 -0.0937
  161MPD2    H7 2464   1.441   3.515   1.504  0.0710 -0.8988 -0.6779
  162TMC2    C1 2465   4.228   0.785   0.323  0.4967  0.3394  0.1743
  162TMC2    C2 2466   4.175   0.889   0.258 -0.0732 -0.8270  0.7838
  162TMC2    C3 2467   4.080   0.966   0.312 -0.2787 -0.0658 -0.2757
  162TMC2    C4 2468   4.197   0.761   0.454  0.4399 -0.2122 -0.4545
  162TMC2    C5 2469   4.107   0.848   0.509  0.2142  0.2079 -0.4829
  162TMC2    C6 2470   4.033   0.942   0.444 -0.4384  0.0332 -0.0287
  162TMC2     C 2471   4.301   0.690   0.247 -0.4048  0.3582  0.2919
  162TMC2     O 2472   4.343   0.733   0.139  0.4234 -0.0203 -0.0363
  162TMC2     H 2473   4.196   0.908   0.153  1.4431 -2.0990  0.8506
  162TMC2    H1 2474   4.233   0.682   0.519  1.6018  0.4554 -0.2932
  162TMC2    H2 2475   3.969   1.007   0.503 -0.6219 -0.3946  0.2350
  162TMC2    C7 2476   4.053   0.820   0.641  0.4018 -0.1891 -0.2837
  162TMC2    C8 2477   4.037   1.086   0.246  0.7001 -0.8213  0.0260
  162TMC2    O1 2478   3.932   0.830   0.652 -0.6190  0.1737  0.4738
  162TMC2    O2 2479   4.091   1.133   0.143  0.0929 -0.0146 -0.3786
  162TMC2    O5 2480   3.906   1.111   0.275 -0.5226  0.1467  0.6970
  162TMC2    H5 2481   3.869   1.058   0.349 -0.1581 -0.8000  0.1970
  163MPD2     C 2482   4.590   0.273   0.228 -0.8368 -0.4331  1.0696
  163MPD2    C1 2483   4.579   0.369   0.135  0.0181  0.5235  0.1213
  163MPD2    C2 2484   4.498   0.482   0.160 -0.7432 -1.0068 -0.2229
  163MPD2    C3 2485   4.413   0.475   0.274  0.4137 -0.3657 -0.0750
  163MPD2    C4 2486   4.426   0.373   0.366  0.2057 -0.4439  0.3178
  163MPD2    C5 2487   4.522   0.278   0.348 -0.3448 -0.7913 -0.0942
  163MPD2     H 2488   4.492   0.565   0.090  2.1471 -2.2728 -2.0091
  163MPD2    H1 2489   4.364   0.366   0.455 -0.8254 -2.2024 -0.5435
  163MPD2    H2 2490   4.658   0.192   0.205  0.3923  1.1748 -0.8386
  163MPD2    H3 2491   4.532   0.199   0.422  2.4262 -1.9333 -1.6996
  163MPD2     N 2492   4.322   0.578   0.311  0.1617 -0.0161  0.2868
  163MPD2    H5 2493   4.270   0.563   0.397  0.3561  0.1934  0.4416
  163MPD2    N1 2494   4.669   0.352   0.023  0.5571 -0.1968  0.1551
  163MPD2    H7 2495   4.723   0.267   0.016 -1.5426 -1.4671 -0.6934
  164TCq2    C1 2496   1.213   4.101  10.580 -0.8464  0.0140  0.3115
  164TCq2    O2 2497   1.116   4.033  10.604  0.4195 -0.0138 -0.1567
  164TCq2    C2 2498   1.217   4.242  10.612  0.1190  0.0554  0.4003
  164TCq2    C3 2499   1.318   4.323  10.581 -0.3723  0.2264 -0.4459
  164TCq2    C4 2500   1.314   4.447  10.641  0.5028  0.3997 -0.3671
  164TCq2    C5 2501   1.219   4.482  10.731  0.1517  0.1641  0.9422
  164TCq2    C6 2502   1.126   4.391  10.767 -0.8301  0.3831  0.0553
  164TCq2    C7 2503   1.129   4.271  10.713  0.1462  0.0547 -0.1544
  164TCq2    C8 2504   1.005   4.418  10.835 -0.1794 -0.0716  0.2798
  164TCq2    O4 2505   0.911   4.358  10.792 -0.5501 -0.4070  0.0909
  164TCq2    C9 2506   1.392   4.552  10.586 -0.3113  0.1956 -0.2611
  164TCq2    O5 2507   1.409   4.556  10.462 -0.4713 -0.4101  0.4769
  164TCq2    O6 2508   1.408   4.659  10.663  0.3596 -0.5282  0.0195
  164TCq2    H2 2509   1.384   4.307  10.497 -0.4822  0.1312 -0.5155
  164TCq2    H3 2510   1.205   4.584  10.764 -0.1964  0.3617  0.1802
  164TCq2    H4 2511   1.068   4.195  10.762 -1.1994  0.6955 -0.8478
  165MPD2     C 2512   1.120   2.452   1.614 -0.3922 -0.2362 -0.1423
  165MPD2    C1 2513   1.233   2.403   1.672  0.1048 -0.2220 -0.0694
  165MPD2    C2 2514   1.316   2.500   1.729  0.2876  0.4901 -1.1663
  165MPD2    C3 2515   1.282   2.633   1.714  0.4256 -0.2832  0.7090
  165MPD2    C4 2516   1.159   2.672   1.665 -0.0816  0.3099  0.5139
  165MPD2    C5 2517   1.080   2.584   1.607  0.7500 -0.3409  0.9219
  165MPD2     H 2518   1.411   2.478   1.776  0.3265 -1.0517 -1.9784
  165MPD2    H1 2519   1.131   2.777   1.659 -1.2063  0.0995  2.1838
  165MPD2    H2 2520   1.057   2.381   1.561  2.3157 -0.8155 -2.5637
  165MPD2    H3 2521   0.994   2.606   1.545  1.4639  0.1236  0.0924
  165MPD2     N 2522   1.362   2.738   1.758  0.4899  0.2573  0.3639
  165MPD2    H5 2523   1.335   2.832   1.732 -1.3781 -0.8113 -1.5566
  165MPD2    N1 2524   1.244   2.264   1.674  0.2340 -0.8210  0.3287
  165MPD2    H7 2525   1.164   2.209   1.643  1.2059 -1.0928 -1.7218
  166TCq2    C1 2526   1.487   2.728   1.804  0.7354  0.2970 -0.1735
  166TCq2    O2 2527   1.564   2.631   1.811 -0.4020  0.5802 -0.2741
  166TCq2    C2 2528   1.551   2.855   1.815 -0.4032  0.2057 -0.0361
  166TCq2    C3 2529   1.481   2.975   1.821 -0.2909  0.1722  0.6471
  166TCq2    C4 2530   1.551   3.093   1.836 -0.4886 -0.0753 -0.2824
  166TCq2    C5 2531   1.691   3.090   1.846 -0.7018  0.4319  0.3440
  166TCq2    C6 2532   1.756   2.967   1.840 -0.2455  0.7869  0.5019
  166TCq2    C7 2533   1.687   2.852   1.821 -0.0489  0.0711 -0.2952
  166TCq2    C8 2534   1.902   2.963   1.849  0.5989  0.2536  0.2725
  166TCq2    O4 2535   1.964   2.867   1.799 -0.5636  0.1917 -0.0064
  166TCq2    C9 2536   1.490   3.226   1.822 -0.5686  0.8712  0.6476
  166TCq2    O5 2537   1.365   3.239   1.807  0.3725 -0.1746 -0.0583
  166TCq2    O6 2538   1.562   3.325   1.845  0.0103  0.4023  0.5469
  166TCq2    H2 2539   1.376   2.993   1.802 -0.2627  2.1983  2.4664
  166TCq2    H3 2540   1.741   3.186   1.848 -1.6091  0.9300 -0.8622
  166TCq2    H4 2541   1.753   2.767   1.827 -0.1439  0.3090  4.0438
  167TMC2    C1 2542   0.170   4.193  12.701 -0.1121  0.3432  0.4166
  167TMC2    C2 2543   0.116   4.221  12.816 -1.1741  0.0054  0.0737
  167TMC2    C3 2544   0.128   4.135  12.918  0.5750  0.3422  0.5787
  167TMC2    C4 2545   0.238   4.080  12.674 -0.4792  0.0774 -0.1916
  167TMC2    C5 2546   0.264   4.000  12.781 -0.3977  0.1021  0.1687
  167TMC2    C6 2547   0.212   4.026  12.904  0.0893  0.5132 -0.5018
  167TMC2     C 2548   0.137   4.291  12.595  0.3877 -0.7304 -0.1022
  167TMC2     O 2549   0.040   4.363  12.615  0.3628 -0.1346 -0.1990
  167TMC2     H 2550   0.062   4.313  12.837 -0.9746 -0.4235  2.3933
  167TMC2    H1 2551   0.248   4.043  12.573 -2.0050  1.1143 -0.7128
  167TMC2    H2 2552   0.234   3.968  12.993  0.6521 -0.0075 -0.9759
  167TMC2    C7 2553   0.346   3.881  12.764  0.0167  0.3435  0.4719
  167TMC2    C8 2554   0.122   4.176  13.053 -0.1588  0.1314  0.2541
  167TMC2    O1 2555   0.337   3.795  12.855  0.2438 -0.3156  0.5063
  167TMC2    O2 2556   0.216   4.153  13.129 -0.4798 -0.2127  0.1089
  167TMC2    O5 2557   0.030   4.272  13.071 -0.1027  0.5970 -0.0361
  167TMC2    H5 2558   4.681   4.279  13.011 -1.0290 -0.3479  1.0369
  168MPD2     C 2559   0.138   4.442  12.341 -0.5720  0.5217  0.0817
  168MPD2    C1 2560   0.251   4.377  12.390  0.3110 -0.2290 -0.3144
  168MPD2    C2 2561   0.366   4.373  12.313  0.5697  0.3773 -0.5497
  168MPD2    C3 2562   0.372   4.434  12.188 -0.0499 -0.4861 -0.2829
  168MPD2    C4 2563   0.259   4.496  12.133  0.3413 -0.5349  0.3802
  168MPD2    C5 2564   0.148   4.502  12.216  0.2934  0.3243  0.2121
  168MPD2     H 2565   0.448   4.314  12.353 -0.4858 -0.5550  0.2263
  168MPD2    H1 2566   0.269   4.553  12.042  1.5801 -0.8728  0.2956
  168MPD2    H2 2567   0.051   4.463  12.402  0.8851 -0.2243  2.3884
  168MPD2    H3 2568   0.072   4.569  12.177  1.7916  1.7965 -0.1754
  168MPD2     N 2569   0.474   4.409  12.094  0.0394  0.2602 -0.0777
  168MPD2    H5 2570   0.454   4.428  11.996  0.7112  1.3253 -0.0108
  168MPD2    N1 2571   0.249   4.309  12.518  0.1230 -0.8291 -0.3438
  168MPD2    H7 2572   0.332   4.259  12.546  2.2929  2.3464 -1.0920
  169MPD1     C 2573   3.523   2.333   9.822 -0.0610 -0.5648  0.3560
  169MPD1    C1 2574   3.583   2.426   9.742  0.3214 -0.7209 -0.5756
  169MPD1    C2 2575   3.502   2.510   9.667 -0.2554 -0.1130 -0.8323
  169MPD1    C3 2576   3.372   2.484   9.645 -0.4442  0.3254  0.5804
  169MPD1    C4 2577   3.314   2.383   9.720 -0.2391 -0.2737  0.0067
  169MPD1    C5 2578   3.393   2.309   9.808  0.6753  0.6493  0.5700
  169MPD1     H 2579   3.541   2.599   9.619 -0.1135  0.5831  0.5422
  169MPD1    H1 2580   3.207   2.371   9.707 -0.4740  2.1596 -0.2435
  169MPD1    H2 2581   3.583   2.282   9.896 -0.2663 -0.6153  0.4890
  169MPD1    H3 2582   3.351   2.225   9.862  2.5444 -0.9893 -0.5288
  169MPD1     N 2583   3.299   2.573   9.558 -0.0900  0.2211 -0.2798
  169MPD1    H5 2584   3.355   2.647   9.518 -0.3095  0.7844  0.4409
  169MPD1    N1 2585   3.711   2.475   9.766  0.1241  0.1368 -0.1495
  169MPD1    H6 2586   3.747   2.522   9.683 -3.8870  1.6057 -1.0567
  169MPD1    H7 2587   3.768   2.392   9.782 -0.2663 -0.0502  0.2578
  170MPD1     C 2588   2.122   1.414  12.811  0.3151  0.0840  0.1014
  170MPD1    C1 2589   2.003   1.394  12.872  0.7416  0.5918  0.1833
  170MPD1    C2 2590   1.931   1.506  12.885  0.0106 -0.5942 -0.4704
  170MPD1    C3 2591   1.986   1.633  12.862  1.4112  0.6707 -0.4059
  170MPD1    C4 2592   2.113   1.652  12.809  0.3766  0.0312 -0.6178
  170MPD1    C5 2593   2.176   1.530  12.782  0.8159  0.3802  0.6345
  170MPD1     H 2594   1.829   1.498  12.919 -1.0159  2.5368 -2.8042
  170MPD1    H1 2595   2.168   1.745  12.809  0.1971  0.1376  0.2457
  170MPD1    H2 2596   2.184   1.331  12.779 -1.6128 -0.3467 -2.5819
  170MPD1    H3 2597   2.275   1.531  12.737  0.2329  0.8247 -0.6331
  170MPD1     N 2598   1.902   1.745  12.901 -0.6902  0.3774 -0.4067
  170MPD1    H5 2599   1.818   1.722  12.954 -0.6293 -0.3873 -0.6418
  170MPD1    N1 2600   1.944   1.264  12.881  0.3974 -0.3092 -0.4911
  170MPD1    H6 2601   1.879   1.264  12.960 -0.9765  1.1307 -1.5957
  170MPD1    H7 2602   2.017   1.197  12.904  0.6886  0.4941  0.9629
  171MPD1     C 2603   0.212   3.418  15.276 -0.3894 -0.0790 -1.0688
  171MPD1    C1 2604   0.327   3.382  15.209 -0.5357  0.1284 -0.3135
  171MPD1    C2 2605   0.348   3.248  15.197 -0.2662  0.2829  0.3044
  171MPD1    C3 2606   0.276   3.162  15.282  0.2161  0.3048  0.2310
  171MPD1    C4 2607   0.173   3.207  15.364 -0.0287  0.4969  0.6458
  171MPD1    C5 2608   0.137   3.341  15.353  0.3059  0.3704  0.2265
  171MPD1     H 2609   0.430   3.213  15.134 -1.3070 -0.1123 -0.8432
  171MPD1    H1 2610   0.109   3.138  15.418 -0.4807  1.2417  1.0643
  171MPD1    H2 2611   0.167   3.517  15.279 -0.6596 -0.1708 -2.2727
  171MPD1    H3 2612   0.057   3.378  15.416 -0.3792 -1.3040  0.3476
  171MPD1     N 2613   0.295   3.019  15.288 -0.8902 -0.0206  0.0801
  171MPD1    H5 2614   0.227   2.961  15.337 -0.4627 -2.4684 -2.1951
  171MPD1    N1 2615   0.400   3.477  15.145 -0.0258  0.0588 -0.1051
  171MPD1    H6 2616   0.396   3.560  15.203  0.1646  0.2280 -0.3347
  171MPD1    H7 2617   0.496   3.445  15.135  0.8465  2.1057  1.7452
  172MPD1     C 2618   2.977   3.437   0.919  0.1171 -0.5208 -0.0010
  172MPD1    C1 2619   2.953   3.385   0.795  0.3408 -0.5141  0.1932
  172MPD1    C2 2620   3.052   3.392   0.698 -0.6410 -0.3172  0.3616
  172MPD1    C3 2621   3.181   3.425   0.737 -0.3475 -0.2722 -0.2960
  172MPD1    C4 2622   3.210   3.474   0.862 -0.3422  0.1330 -0.3326
  172MPD1    C5 2623   3.104   3.475   0.954  0.1657  0.0833  0.2550
  172MPD1     H 2624   3.025   3.372   0.595  0.4073  1.4320 -0.2486
  172MPD1    H1 2625   3.301   3.523   0.894 -2.2066  1.9607  2.1089
  172MPD1    H2 2626   2.900   3.434   0.995  0.3475  1.1001  0.3080
  172MPD1    H3 2627   3.116   3.530   1.047 -0.6091  1.1936 -0.2954
  172MPD1     N 2628   3.293   3.428   0.646  0.1133 -0.7865 -0.2570
  172MPD1    H5 2629   3.374   3.483   0.674  0.4623 -1.2364 -0.3782
  172MPD1    N1 2630   2.820   3.368   0.752 -0.3352 -1.0353  0.2990
  172MPD1    H6 2631   2.807   3.320   0.663 -0.3435  0.9951 -0.7951
  172MPD1    H7 2632   2.749   3.331   0.815 -1.0014 -0.8774 -0.3640
  173MPD1     C 2633   0.213   1.251  13.528 -0.2378  0.1453 -0.4059
  173MPD1    C1 2634   0.335   1.311  13.504  0.0925  0.3124 -0.1431
  173MPD1    C2 2635   0.393   1.392  13.599 -0.0324 -0.4082  0.5028
  173MPD1    C3 2636   0.322   1.427  13.709 -0.2398 -0.0766 -0.1815
  173MPD1    C4 2637   0.198   1.374  13.728  0.3104  0.2798 -0.3885
  173MPD1    C5 2638   0.142   1.287  13.640  0.0722  0.1457  0.1511
  173MPD1     H 2639   0.500   1.408  13.592 -0.0395 -0.9865 -0.9061
  173MPD1    H1 2640   0.138   1.398  13.815 -2.2426  1.2823 -2.4081
  173MPD1    H2 2641   0.170   1.176  13.462 -1.3710  0.4476 -0.0165
  173MPD1    H3 2642   0.040   1.258  13.665 -0.2437  2.1406  1.1638
  173MPD1     N 2643   0.396   1.510  13.802  0.0957 -0.3118 -0.2290
  173MPD1    H5 2644   0.472   1.568  13.768 -1.2549  0.5267 -1.8042
  173MPD1    N1 2645   0.416   1.257  13.405 -0.3666  0.0167 -0.4594
  173MPD1    H6 2646   0.371   1.200  13.333  0.1815  2.8230 -3.0397
  173MPD1    H7 2647   0.471   1.331  13.361  1.7608 -1.3831 -0.1826
  174MPD1     C 2648   1.128   2.168  13.928 -0.6079  0.2861  0.1278
  174MPD1    C1 2649   1.101   2.055  13.854  0.9342 -0.5274  0.1033
  174MPD1    C2 2650   0.994   1.980  13.893  0.2717 -0.3890  0.0212
  174MPD1    C3 2651   0.899   2.020  13.989 -0.3469 -0.2877 -0.6988
  174MPD1    C4 2652   0.928   2.132  14.059  0.3967 -1.0264  0.0609
  174MPD1    C5 2653   1.039   2.201  14.026  0.5658  0.0157  0.5436
  174MPD1     H 2654   0.972   1.890  13.835  0.1871 -1.1886  1.2970
  174MPD1    H1 2655   0.861   2.172  14.134  1.1555  0.8784 -0.2910
  174MPD1    H2 2656   1.225   2.215  13.918 -0.4353 -0.5128 -1.9774
  174MPD1    H3 2657   1.056   2.291  14.084  0.9202  0.5758 -0.4217
  174MPD1     N 2658   0.794   1.929  14.031  0.6117  0.0151  0.3009
  174MPD1    H5 2659   0.754   1.947  14.123  0.4184 -0.5781  0.3331
  174MPD1    N1 2660   1.205   1.993  13.779 -0.4932 -0.8156  0.3568
  174MPD1    H6 2661   1.163   1.921  13.721 -0.7703 -1.7951  1.7815
  174MPD1    H7 2662   1.253   2.063  13.722 -2.7687  1.4592  1.2438
  175MPD1     C 2663   3.356   2.971  15.228 -0.0568 -0.2220  0.2771
  175MPD1    C1 2664   3.379   2.865  15.308  0.1745  0.1255 -0.3989
  175MPD1    C2 2665   3.396   2.886  15.447  0.5126  0.2252  0.1292
  175MPD1    C3 2666   3.379   3.016  15.503 -1.3787  0.0348  0.1413
  175MPD1    C4 2667   3.345   3.119  15.422  0.1313 -0.1254 -0.2022
  175MPD1    C5 2668   3.337   3.093  15.285  0.7993  0.6060 -0.4784
  175MPD1     H 2669   3.404   2.807  15.521 -1.2778 -0.9333 -0.8970
  175MPD1    H1 2670   3.341   3.221  15.459 -0.3357 -0.1808 -0.0930
  175MPD1    H2 2671   3.339   2.965  15.121  0.2352  1.7010  0.1301
  175MPD1    H3 2672   3.322   3.178  15.220  0.6904  1.4986  0.7177
  175MPD1     N 2673   3.379   3.041  15.645 -0.4856  0.0742  0.4388
  175MPD1    H5 2674   3.339   3.129  15.676 -0.8353 -0.3803  1.2767
  175MPD1    N1 2675   3.385   2.733  15.263 -0.5268  0.2116 -0.1675
  175MPD1    H6 2676   3.359   2.674  15.341 -1.5723  2.2419  1.0263
  175MPD1    H7 2677   3.318   2.716  15.188 -0.0323  1.3650 -0.8750
  176MPD1     C 2678   0.581   4.176  16.197 -0.2770  0.5942  0.3235
  176MPD1    C1 2679   0.485   4.176  16.292  0.1481 -0.0940 -0.2678
  176MPD1    C2 2680   0.470   4.291  16.358 -0.0492  0.1594  0.0733
  176MPD1    C3 2681   0.552   4.401  16.345 -0.3020 -0.7416 -0.4613
  176MPD1    C4 2682   0.657   4.393  16.249  0.1928  0.0994 -0.0381
  176MPD1    C5 2683   0.673   4.277  16.175 -0.3562 -0.2149 -0.1070
  176MPD1     H 2684   0.387   4.312  16.424 -0.0739  1.0849 -0.2439
  176MPD1    H1 2685   0.724   4.477  16.235 -0.1666  0.3107 -0.4784
  176MPD1    H2 2686   0.594   4.087  16.138  2.6893  0.8132  0.6729
  176MPD1    H3 2687   0.758   4.274  16.108 -0.1390  1.6347  0.0808
  176MPD1     N 2688   0.522   4.513  16.430  0.3956 -0.1049 -0.6764
  176MPD1    H5 2689   0.448   4.506  16.498 -0.1889 -1.2302 -1.4287
  176MPD1    N1 2690   0.390   4.074  16.299 -0.1600 -0.1637 -0.1774
  176MPD1    H6 2691   0.353   4.074  16.394  1.2863 -1.0511  0.3796
  176MPD1    H7 2692   0.454   3.995  16.296 -0.9243 -0.7237 -1.9563
  177MPD1     C 2693   3.950   0.084   9.915 -0.0935  0.1094 -0.0665
  177MPD1    C1 2694   3.866   4.708   9.879  0.1116 -0.4468 -0.0775
  177MPD1    C2 2695   3.784   0.012   9.771  0.2081 -0.1783 -0.3574
  177MPD1    C3 2696   3.812   0.116   9.681 -0.4351 -0.5289  0.7752
  177MPD1    C4 2697   3.918   0.203   9.705  0.7273  0.5126 -0.2193
  177MPD1    C5 2698   3.970   0.191   9.832  0.2167 -0.1498 -0.2309
  177MPD1     H 2699   3.705   4.668   9.751 -0.5393  0.9081 -1.3081
  177MPD1    H1 2700   3.930   0.297   9.652 -0.6493  0.9118  0.1738
  177MPD1    H2 2701   4.011   0.074  10.004 -0.8659  0.1543  0.4667
  177MPD1    H3 2702   4.057   0.252   9.856 -0.8536  1.1498  0.3468
  177MPD1     N 2703   3.726   0.135   9.569 -0.0706 -0.4164 -0.4802
  177MPD1    H5 2704   3.652   0.067   9.560 -1.7097  1.1892  0.8719
  177MPD1    N1 2705   3.843   4.598   9.964  0.2798  0.2526  0.1658
  177MPD1    H6 2706   3.916   4.583  10.033  0.7546 -1.1020 -0.6458
  177MPD1    H7 2707   3.823   4.513   9.913 -1.9827  0.8412  0.0442
  178MPD1     C 2708   1.071   1.882  17.016 -0.3464  0.0136  0.2488
  178MPD1    C1 2709   1.198   1.878  16.961  0.3795 -0.1228  0.4477
  178MPD1    C2 2710   1.244   1.756  16.922  0.2691 -0.5667 -0.1685
  178MPD1    C3 2711   1.170   1.645  16.927 -0.2095  0.1930  0.3746
  178MPD1    C4 2712   1.041   1.655  16.974  0.4236  0.3315  0.4761
  178MPD1    C5 2713   0.996   1.772  17.017 -1.0081 -0.1801 -0.6886
  178MPD1     H 2714   1.338   1.764  16.870  0.0733 -1.1864 -0.6192
  178MPD1    H1 2715   0.970   1.573  16.965 -0.9223  1.7197 -1.6287
  178MPD1    H2 2716   1.024   1.975  17.046 -0.3281 -0.0074  0.3434
  178MPD1    H3 2717   0.891   1.781  17.044 -0.6202 -1.3104  1.1890
  178MPD1     N 2718   1.227   1.520  16.892 -0.1428  0.1418  0.2569
  178MPD1    H5 2719   1.160   1.443  16.886  1.1753 -0.7336 -3.4546
  178MPD1    N1 2720   1.291   1.975  16.988 -0.1272 -1.0111 -0.3133
  178MPD1    H6 2721   1.251   2.068  16.975  1.1457 -0.3432  0.6032
  178MPD1    H7 2722   1.366   1.967  16.920 -0.1724  0.5294 -0.5315
  179MPD1     C 2723   1.449   4.081  15.451 -0.1842 -0.5004  0.4747
  179MPD1    C1 2724   1.490   4.033  15.573 -0.4006  0.9570 -0.8046
  179MPD1    C2 2725   1.393   3.980  15.660 -0.1002  0.4216 -0.2953
  179MPD1    C3 2726   1.261   3.977  15.625 -0.3792 -0.0763 -0.0691
  179MPD1    C4 2727   1.222   4.035  15.509 -0.7401 -0.6644  0.1426
  179MPD1    C5 2728   1.318   4.092  15.419  0.2030  0.4211  0.3255
  179MPD1     H 2729   1.426   3.925  15.748 -0.4686  1.1669  0.3034
  179MPD1    H1 2730   1.118   4.051  15.482 -0.1027 -0.4140 -2.1681
  179MPD1    H2 2731   1.522   4.103  15.374 -2.2227 -0.2021 -1.3980
  179MPD1    H3 2732   1.289   4.130  15.322  1.4710  0.7137  0.0630
  179MPD1     N 2733   1.165   3.917  15.703  0.5793 -0.1546 -0.3433
  179MPD1    H5 2734   1.083   3.889  15.650  0.0567  1.7055 -0.5116
  179MPD1    N1 2735   1.628   4.031  15.592 -0.5027 -0.5386  0.0955
  179MPD1    H6 2736   1.653   4.046  15.689 -1.3382 -3.2741  0.7421
  179MPD1    H7 2737   1.664   4.116  15.550 -1.5243  0.2906  0.9153
  180MPD1     C 2738   0.472   0.749  15.088 -0.1859  0.2520  0.8914
  180MPD1    C1 2739   0.361   0.742  15.003 -0.4512  0.8516 -0.2768
  180MPD1    C2 2740   0.381   0.775  14.867 -0.2118 -0.5375 -0.3712
  180MPD1    C3 2741   0.508   0.799  14.822  0.9814 -0.1956  0.1712
  180MPD1    C4 2742   0.617   0.787  14.903 -0.2143 -0.3723  0.9227
  180MPD1    C5 2743   0.596   0.769  15.035  0.2682 -0.3479  0.4105
  180MPD1     H 2744   0.291   0.792  14.808 -1.4520 -0.3907  1.5701
  180MPD1    H1 2745   0.716   0.797  14.859 -0.6072  1.3252  0.4080
  180MPD1    H2 2746   0.470   0.734  15.195 -6.0200 -0.7824  0.6244
  180MPD1    H3 2747   0.681   0.770  15.101  0.0475  0.9978  0.6868
  180MPD1     N 2748   0.513   0.812  14.682  0.3530  0.0032  0.2293
  180MPD1    H5 2749   0.426   0.804  14.632  0.0958 -0.4064  0.7350
  180MPD1    N1 2750   0.234   0.715  15.054  0.1323  0.3773 -0.3604
  180MPD1    H6 2751   0.189   0.660  14.981  0.4288  0.3444 -0.5179
  180MPD1    H7 2752   0.224   0.658  15.138  2.7359  1.6568  0.8184
  181MPD1     C 2753   1.762   2.499   8.950 -0.3789  0.1058  0.1325
  181MPD1    C1 2754   1.822   2.376   8.970  0.1804  0.1078  0.1170
  181MPD1    C2 2755   1.946   2.373   9.035  0.6333 -0.1218  0.3095
  181MPD1    C3 2756   2.019   2.486   9.060 -0.0576  0.1566  0.0399
  181MPD1    C4 2757   1.970   2.605   9.020  0.6629  0.0240 -0.4472
  181MPD1    C5 2758   1.838   2.611   8.979  0.2914  0.8335  0.3299
  181MPD1     H 2759   1.978   2.272   9.056  1.2334 -0.2468 -1.2116
  181MPD1    H1 2760   2.027   2.696   9.036 -0.8923  0.9677 -0.2704
  181MPD1    H2 2761   1.661   2.511   8.915 -0.4724 -1.0121  0.0127
  181MPD1    H3 2762   1.803   2.712   8.961  0.4927  0.6733 -0.9977
  181MPD1     N 2763   2.153   2.486   9.118  0.3626  0.1412  0.6000
  181MPD1    H5 2764   2.198   2.577   9.123  1.1443 -0.0340 -2.9894
  181MPD1    N1 2765   1.749   2.258   8.974 -0.3136 -0.1039  0.2085
  181MPD1    H6 2766   1.811   2.177   8.968  0.4873  0.4688  0.7141
  181MPD1    H7 2767   1.676   2.250   8.904 -0.9858 -0.0516  0.9021
  182MPD1     C 2768   3.849   2.022   1.062 -0.1690  0.1097 -0.4895
  182MPD1    C1 2769   3.754   1.953   0.987  0.3261  0.0814 -0.0968
  182MPD1    C2 2770   3.627   1.970   1.031  1.0167 -0.8591  0.0058
  182MPD1    C3 2771   3.599   2.057   1.136  0.1581  0.2814 -0.4583
  182MPD1    C4 2772   3.696   2.123   1.200  0.1728  0.5171 -0.3186
  182MPD1    C5 2773   3.822   2.113   1.157  0.3114 -0.4034 -0.3965
  182MPD1     H 2774   3.543   1.926   0.977 -0.0828 -1.4262  2.1502
  182MPD1    H1 2775   3.666   2.209   1.258  0.2771 -1.1207  2.1562
  182MPD1    H2 2776   3.952   2.017   1.028  0.1133 -0.5534  0.4397
  182MPD1    H3 2777   3.904   2.162   1.209  0.1103 -0.8331  0.3326
  182MPD1     N 2778   3.466   2.098   1.180 -0.0754  0.1899 -0.0051
  182MPD1    H5 2779   3.455   2.156   1.263 -0.3595  0.3298 -0.1400
  182MPD1    N1 2780   3.783   1.893   0.864 -0.3333  0.0519  0.0969
  182MPD1    H6 2781   3.879   1.859   0.861  0.4769  2.3701 -0.2800
  182MPD1    H7 2782   3.712   1.823   0.842 -0.1916  1.1883 -3.9378
  183MPD1     C 2783   4.286   2.355   9.579  0.0734  0.8406 -0.1473
  183MPD1    C1 2784   4.215   2.257   9.654 -0.3820  0.2633  0.2588
  183MPD1    C2 2785   4.084   2.243   9.618  0.2872  0.1747  0.0588
  183MPD1    C3 2786   4.029   2.334   9.523  0.0986 -0.3277 -0.1212
  183MPD1    C4 2787   4.102   2.432   9.456  0.1214 -0.5443  0.1805
  183MPD1    C5 2788   4.234   2.431   9.477  0.5578 -0.4531 -0.5398
  183MPD1     H 2789   4.022   2.165   9.661  2.6796 -1.2260  0.9141
  183MPD1    H1 2790   4.070   2.502   9.380  0.7303 -1.2047 -0.6951
  183MPD1    H2 2791   4.393   2.364   9.592  0.2958  1.6131 -2.5595
  183MPD1    H3 2792   4.305   2.490   9.420  2.3882 -1.3837  0.7879
  183MPD1     N 2793   3.891   2.306   9.498 -0.2621 -0.3170  0.6720
  183MPD1    H5 2794   3.843   2.248   9.565 -0.6707  1.9303  2.3095
  183MPD1    N1 2795   4.277   2.156   9.726  0.0563 -0.0960 -0.3247
  183MPD1    H6 2796   4.222   2.104   9.794  0.8268  1.8296  1.7646
  183MPD1    H7 2797   4.360   2.194   9.771  1.1418  1.9803 -4.0544
  184MPD1     C 2798   2.954   0.073  10.450 -0.4991 -0.5277  0.8076
  184MPD1    C1 2799   2.864   0.010  10.366 -0.6775  0.6723 -0.1775
  184MPD1    C2 2800   2.891   0.021  10.232 -0.0469 -0.4050  0.5295
  184MPD1    C3 2801   3.006   0.078  10.188  0.4783 -0.6239  0.4545
  184MPD1    C4 2802   3.100   0.128  10.272 -0.0760  0.0157  0.4973
  184MPD1    C5 2803   3.073   0.129  10.404 -0.4913 -0.0692  0.7109
  184MPD1     H 2804   2.830   4.696  10.159  0.9338 -1.2576  0.3315
  184MPD1    H1 2805   3.196   0.161  10.234 -1.9020  1.9448 -2.4535
  184MPD1    H2 2806   2.945   0.079  10.558 -1.7005  1.6906  0.5669
  184MPD1    H3 2807   3.150   0.162  10.473  0.1634  1.1179 -0.5860
  184MPD1     N 2808   3.040   0.101  10.051  0.3397  0.1263  0.5465
  184MPD1    H5 2809   3.116   0.167  10.039  2.3630 -2.1669  0.8648
  184MPD1    N1 2810   2.758   4.665  10.414 -0.4258  0.2683 -0.2756
  184MPD1    H6 2811   2.797   4.574  10.436  0.9580  0.7452 -0.7618
  184MPD1    H7 2812   2.694   4.643  10.338 -1.5266 -0.5326  0.8679
  185MPD1     C 2813   2.372   0.075   9.284 -0.1240  0.1778 -0.0565
  185MPD1    C1 2814   2.483   0.142   9.235  0.0995 -0.8853 -0.3687
  185MPD1    C2 2815   2.603   0.158   9.315 -0.4942  0.0218  1.4955
  185MPD1    C3 2816   2.606   0.100   9.442  0.4477 -0.3568  0.0784
  185MPD1    C4 2817   2.491   0.035   9.482 -0.1646  0.4529  0.0433
  185MPD1    C5 2818   2.380   0.027   9.409 -0.7347  0.3538  0.7242
  185MPD1     H 2819   2.685   0.213   9.272 -0.6105 -1.8142 -1.0851
  185MPD1    H1 2820   2.488   4.722   9.583  0.2717  2.4242  0.8502
  185MPD1    H2 2821   2.287   0.055   9.219 -1.4113 -0.3009  1.7741
  185MPD1    H3 2822   2.296   4.692   9.437 -1.0851  0.7403  0.5193
  185MPD1     N 2823   2.718   0.108   9.531 -0.5794 -0.8698 -0.0571
  185MPD1    H5 2824   2.714   0.072   9.626  0.4160 -0.9329 -0.0371
  185MPD1    N1 2825   2.471   0.209   9.113  0.2954 -0.8679  0.6152
  185MPD1    H6 2826   2.407   0.168   9.045  1.0355 -1.1903  0.1085
  185MPD1    H7 2827   2.565   0.226   9.077 -0.5464 -0.3030 -1.3387
  186MPD1     C 2828   1.458   3.490  16.024 -0.3151 -0.2936 -0.7905
  186MPD1    C1 2829   1.514   3.581  15.937 -0.0251 -0.4846 -0.3248
  186MPD1    C2 2830   1.519   3.713  15.980 -0.4268  0.1564  0.1747
  186MPD1    C3 2831   1.462   3.758  16.099  0.6464  0.5533  0.8778
  186MPD1    C4 2832   1.403   3.655  16.179 -0.8880 -0.0554  0.5255
  186MPD1    C5 2833   1.402   3.523  16.147  0.3883  1.1125 -0.0149
  186MPD1     H 2834   1.576   3.787  15.924  0.0744 -0.0694  0.3877
  186MPD1    H1 2835   1.359   3.677  16.276 -0.7883  1.9075  0.1311
  186MPD1    H2 2836   1.438   3.389  15.991  0.8588 -0.0873 -2.0793
  186MPD1    H3 2837   1.373   3.439  16.208  0.8305  0.6962 -0.3741
  186MPD1     N 2838   1.462   3.888  16.150 -0.5745 -0.1877 -0.1315
  186MPD1    H5 2839   1.400   3.906  16.228  0.7648  0.7768  0.7110
  186MPD1    N1 2840   1.592   3.530  15.831 -0.2845 -0.7310 -0.4657
  186MPD1    H6 2841   1.546   3.457  15.777 -0.3621 -1.2775  0.3248
  186MPD1    H7 2842   1.616   3.598  15.760  3.1599 -0.2745  1.1454
  187MPD1     C 2843   1.167   1.219  17.227  0.1041 -0.3895 -0.2515
  187MPD1    C1 2844   1.104   1.215  17.105  0.4230 -0.5176 -0.1740
  187MPD1    C2 2845   0.995   1.298  17.092  0.3362  0.1571  0.4014
  187MPD1    C3 2846   0.954   1.390  17.191  0.0020  0.4603  0.5595
  187MPD1    C4 2847   1.024   1.399  17.305 -0.2697 -0.0946 -0.4483
  187MPD1    C5 2848   1.129   1.311  17.324  0.0026 -0.2181  0.0266
  187MPD1     H 2849   0.947   1.286  16.996  1.2233 -1.1674  0.1217
  187MPD1    H1 2850   1.003   1.480  17.374  0.1674 -0.7294  0.4310
  187MPD1    H2 2851   1.244   1.144  17.239  1.0360  0.6382  0.1984
  187MPD1    H3 2852   1.177   1.306  17.421 -0.6196 -1.4713  0.2733
  187MPD1     N 2853   0.834   1.470  17.182 -0.3161  0.0516 -0.3117
  187MPD1    H5 2854   0.815   1.530  17.261  0.3708  2.0879 -1.6883
  187MPD1    N1 2855   1.135   1.111  17.014  0.1634  0.0964  0.0948
  187MPD1    H6 2856   1.094   1.118  16.921 -0.9721 -0.8868  0.5108
  187MPD1    H7 2857   1.236   1.102  17.021  0.4459  2.4435 -1.0400
  188MPD1     C 2858   0.565   1.245  10.555  0.0054  0.0033 -0.6626
  188MPD1    C1 2859   0.641   1.151  10.490  0.0028  0.6518  0.2768
  188MPD1    C2 2860   0.583   1.030  10.460 -1.0693 -0.5018 -0.3869
  188MPD1    C3 2861   0.447   1.012  10.481 -0.6759  0.3419  0.0909
  188MPD1    C4 2862   0.367   1.112  10.546 -0.3750 -0.2293  1.0457
  188MPD1    C5 2863   0.426   1.233  10.569  0.4051  0.1665  0.0461
  188MPD1     H 2864   0.650   0.946  10.440 -0.1228  0.5018 -1.4107
  188MPD1    H1 2865   0.260   1.099  10.554 -0.7322  1.8296 -0.5826
  188MPD1    H2 2866   0.612   1.336  10.591 -1.5429  0.5772 -0.0722
  188MPD1    H3 2867   0.368   1.322  10.590 -1.9163 -1.0130 -1.2302
  188MPD1     N 2868   0.395   0.882  10.442 -0.0684  0.5433 -0.1289
  188MPD1    H5 2869   0.467   0.815  10.420  1.3638  1.9211  0.3827
  188MPD1    N1 2870   0.779   1.167  10.481 -0.6059 -0.3185 -0.1532
  188MPD1    H6 2871   0.816   1.112  10.404  0.5515 -0.5861  0.5876
  188MPD1    H7 2872   0.808   1.264  10.471 -1.0213 -0.3429 -1.5306
  189MPD1     C 2873   1.938   1.662   0.683 -0.1703 -0.4924 -0.3262
  189MPD1    C1 2874   1.841   1.616   0.597 -0.4548  0.5675 -0.0506
  189MPD1    C2 2875   1.754   1.705   0.533  0.1457 -0.1509  0.1871
  189MPD1    C3 2876   1.768   1.842   0.553  0.4718 -0.3884 -0.2365
  189MPD1    C4 2877   1.864   1.886   0.640  0.1362 -0.8132  0.1039
  189MPD1    C5 2878   1.940   1.790   0.705  0.1211 -0.1330 -0.0001
  189MPD1     H 2879   1.678   1.661   0.469  0.6567 -1.6060  0.5976
  189MPD1    H1 2880   1.894   1.989   0.655  0.8524 -1.1393  0.8724
  189MPD1    H2 2881   2.010   1.593   0.726  0.4239  0.2972 -0.0500
  189MPD1    H3 2882   2.006   1.827   0.783 -0.1544  1.2382 -0.4192
  189MPD1     N 2883   1.688   1.923   0.471  0.5946  0.4624  0.0543
  189MPD1    H5 2884   1.622   1.872   0.413  0.0027  1.5526 -0.2182
  189MPD1    N1 2885   1.836   1.484   0.558  0.3486 -0.2912  1.0725
  189MPD1    H6 2886   1.744   1.457   0.525  0.6114 -1.5507  1.3712
  189MPD1    H7 2887   1.849   1.419   0.635  2.4557 -2.4061 -1.1103
  190MPD1     C 2888   0.972   4.644  16.154  0.1355 -0.7745 -0.0726
  190MPD1    C1 2889   0.961   0.051  16.158 -0.2644 -0.2752  0.2306
  190MPD1    C2 2890   1.040   0.129  16.071  0.0215  0.1768  0.3831
  190MPD1    C3 2891   1.119   0.069  15.980 -0.2085 -0.1390 -0.2377
  190MPD1    C4 2892   1.132   4.659  15.989 -0.3384  0.0454 -0.0730
  190MPD1    C5 2893   1.065   4.580  16.073  0.0974 -0.5722  0.0201
  190MPD1     H 2894   1.022   0.236  16.071  1.8727  0.4844  0.0607
  190MPD1    H1 2895   1.194   4.604  15.920  0.6303 -0.1024  0.9098
  190MPD1    H2 2896   0.909   4.592  16.226 -0.1161 -1.1610 -0.5751
  190MPD1    H3 2897   1.078   4.473  16.070  0.3007 -0.5690  0.6576
  190MPD1     N 2898   1.173   0.150  15.877  1.0788  0.4768 -0.2770
  190MPD1    H5 2899   1.152   0.249  15.873  0.7959  0.4451  0.4294
  190MPD1    N1 2900   0.873   0.111  16.248  0.3889  0.2683  0.0375
  190MPD1    H6 2901   0.838   0.199  16.211  0.9337  1.1795  1.6950
  190MPD1    H7 2902   0.796   0.051  16.279  0.0111  0.6355 -0.1930
  191MPD1     C 2903   0.044   3.156  12.265  0.2390 -0.2115 -0.2812
  191MPD1    C1 2904   0.155   3.113  12.338  0.1063  0.0850  0.3262
  191MPD1    C2 2905   0.264   3.087  12.262  0.0956 -0.5984  0.6154
  191MPD1    C3 2906   0.273   3.092  12.121  0.0057 -0.5289  0.5905
  191MPD1    C4 2907   0.159   3.124  12.058  0.8151  0.0717 -0.5676
  191MPD1    C5 2908   0.048   3.172  12.126 -0.2698 -0.8863 -0.0899
  191MPD1     H 2909   0.358   3.058  12.308  0.1476 -1.5656 -0.1124
  191MPD1    H1 2910   0.143   3.116  11.951 -1.2818  2.3864 -0.4253
  191MPD1    H2 2911   4.672   3.166  12.307  0.7587 -2.2532  1.4523
  191MPD1    H3 2912   4.694   3.205  12.061  0.2972 -1.1696 -0.9437
  191MPD1     N 2913   0.392   3.054  12.058 -0.3656 -0.2013 -0.1769
  191MPD1    H5 2914   0.476   3.029  12.108  0.6522 -0.4998 -2.0252
  191MPD1    N1 2915   0.160   3.114  12.480 -0.5035 -0.1155 -0.2921
  191MPD1    H6 2916   0.201   3.030  12.521 -3.2168 -1.4653 -0.3990
  191MPD1    H7 2917   0.072   3.129  12.527 -0.1002  1.4458 -0.0129
  192MPD1     C 2918   0.943   2.988  11.106  0.3729 -0.1573 -0.2321
  192MPD1    C1 2919   0.907   3.106  11.163 -0.0918 -0.1404 -0.4634
  192MPD1    C2 2920   0.849   3.099  11.283  0.1032 -0.1023  0.1149
  192MPD1    C3 2921   0.839   2.977  11.350  0.0313  0.7982  0.0996
  192MPD1    C4 2922   0.891   2.864  11.290  0.1535 -0.2537 -0.4171
  192MPD1    C5 2923   0.944   2.869  11.167 -0.1541 -0.2193 -0.0542
  192MPD1     H 2924   0.803   3.188  11.325 -0.4406  0.3766 -1.4662
  192MPD1    H1 2925   0.896   2.770  11.343  1.8008  0.2571  0.3174
  192MPD1    H2 2926   0.990   2.991  11.009  1.1495  0.5329  0.1650
  192MPD1    H3 2927   0.979   2.782  11.113 -0.5690 -0.2973 -0.2023
  192MPD1     N 2928   0.785   2.959  11.476  0.4687  0.4563  0.4318
  192MPD1    H5 2929   0.780   2.862  11.504  2.4501  0.5779  1.2151
  192MPD1    N1 2930   0.903   3.220  11.080  0.2814 -0.2198 -0.6137
  192MPD1    H6 2931   0.987   3.231  11.024  2.6457 -2.1843  2.5400
  192MPD1    H7 2932   0.879   3.309  11.123  1.4521  0.0147 -0.4563
  193MPD1     C 2933   0.033   2.436  15.599  0.2605 -0.5184  0.3685
  193MPD1    C1 2934   0.010   2.550  15.685 -0.2082  0.3495 -0.2494
  193MPD1    C2 2935   0.086   2.559  15.799 -0.4870 -0.0796 -0.2209
  193MPD1    C3 2936   0.190   2.467  15.829  0.0798 -1.2916 -0.7681
  193MPD1    C4 2937   0.220   2.377  15.735  0.1452  0.6570  0.3332
  193MPD1    C5 2938   0.142   2.354  15.628 -0.5347  0.3820 -0.4078
  193MPD1     H 2939   0.071   2.651  15.853 -1.5073 -0.8401  0.7825
  193MPD1    H1 2940   0.302   2.307  15.738 -2.0698 -1.9482 -0.0849
  193MPD1    H2 2941   4.697   2.425  15.512 -0.9468 -1.4354  1.3709
  193MPD1    H3 2942   0.169   2.274  15.559 -0.6134 -0.4615  0.5303
  193MPD1     N 2943   0.261   2.468  15.954  0.0253 -0.1017 -0.0801
  193MPD1    H5 2944   0.329   2.395  15.973  0.2744  0.1543  0.0095
  193MPD1    N1 2945   4.662   2.659  15.650 -0.2560  0.2145 -0.7585
  193MPD1    H6 2946   4.570   2.638  15.611  0.0961  0.4880 -1.7309
  193MPD1    H7 2947   4.664   2.718  15.732  2.1551  1.3830 -1.6642
  194MPD1     C 2948   1.935   0.241  17.520 -0.7609  0.5011 -0.1893
  194MPD1    C1 2949   2.017   0.247  17.408  0.2289 -0.2741 -0.2296
  194MPD1    C2 2950   2.062   0.133  17.349  1.0310 -1.4795 -0.0945
  194MPD1    C3 2951   2.027   0.010  17.396  1.0737  0.3665  0.2971
  194MPD1    C4 2952   1.953   0.002  17.510 -0.2305 -0.1174  0.3473
  194MPD1    C5 2953   1.913   0.116  17.567 -0.0286  0.1912 -0.5844
  194MPD1     H 2954   2.137   0.138  17.271  2.9491 -1.9204  1.7393
  194MPD1    H1 2955   1.923   4.634  17.550  0.0994  0.2300  1.4177
  194MPD1    H2 2956   1.894   0.333  17.562 -1.8067 -1.6608  3.5265
  194MPD1    H3 2957   1.861   0.107  17.662  0.6425 -1.2776 -0.3580
  194MPD1     N 2958   2.069   4.616  17.340 -0.2271 -0.2110 -0.4929
  194MPD1    H5 2959   2.038   4.534  17.391 -4.3287  0.9876 -0.9898
  194MPD1    N1 2960   2.050   0.374  17.350 -0.0819  0.1376  0.6400
  194MPD1    H6 2961   2.139   0.387  17.301 -0.6081 -1.2606 -0.6617
  194MPD1    H7 2962   2.048   0.442  17.426 -0.3881 -0.2445  0.9727
  195MPD1     C 2963   4.353   1.384  17.186 -0.0507  0.5885 -0.1117
  195MPD1    C1 2964   4.477   1.323  17.195 -0.8258  0.0809 -0.5150
  195MPD1    C2 2965   4.484   1.190  17.204  0.4245  0.4288  0.0285
  195MPD1    C3 2966   4.365   1.118  17.217  0.5929 -0.3505  0.6160
  195MPD1    C4 2967   4.243   1.187  17.205  0.2140  0.2987 -0.0454
  195MPD1    C5 2968   4.237   1.323  17.198 -0.1532  0.7727  0.7087
  195MPD1     H 2969   4.583   1.147  17.217  0.4868  0.4333 -0.4463
  195MPD1    H1 2970   4.152   1.129  17.196 -0.4806  1.1860  1.2480
  195MPD1    H2 2971   4.348   1.490  17.164 -1.2083  0.5088 -0.2241
  195MPD1    H3 2972   4.142   1.375  17.189  0.5577  1.8014 -0.9497
  195MPD1     N 2973   4.359   0.974  17.213  0.0218 -0.4590 -0.4943
  195MPD1    H5 2974   4.271   0.927  17.198  0.6322 -1.4769 -0.8678
  195MPD1    N1 2975   4.590   1.406  17.219  0.0527  0.5953  0.3562
  195MPD1    H6 2976   4.676   1.360  17.189 -0.2492  0.1022  0.2485
  195MPD1    H7 2977   4.598   1.491  17.164 -0.8182  1.3041  1.3136
  196MPD1     C 2978   3.389   1.717   0.578  0.1868  0.0410 -0.0921
  196MPD1    C1 2979   3.439   1.736   0.454  0.0709  0.6461 -0.0518
  196MPD1    C2 2980   3.505   1.856   0.431 -0.0771  0.3040  0.2212
  196MPD1    C3 2981   3.541   1.943   0.535  0.9381 -0.0605 -0.1436
  196MPD1    C4 2982   3.491   1.911   0.662  0.4994 -0.2079 -0.4871
  196MPD1    C5 2983   3.409   1.802   0.682 -0.1799  0.1350  0.5083
  196MPD1     H 2984   3.538   1.858   0.328 -1.2186 -1.3364 -0.1836
  196MPD1    H1 2985   3.508   1.975   0.749 -0.7061  2.4353 -2.2029
  196MPD1    H2 2986   3.326   1.632   0.601 -0.7276  0.8365  0.3562
  196MPD1    H3 2987   3.367   1.781   0.780 -2.4429 -0.9306 -0.6895
  196MPD1     N 2988   3.625   2.056   0.517  0.1174 -0.4906 -0.0922
  196MPD1    H5 2989   3.649   2.107   0.601  0.9403  1.5309 -1.5437
  196MPD1    N1 2990   3.409   1.643   0.346  0.5169  0.6910  0.5747
  196MPD1    H6 2991   3.470   1.647   0.265  0.1995 -1.0716  0.2485
  196MPD1    H7 2992   3.395   1.548   0.377  1.8480  0.1687 -0.4491
  197MPD1     C 2993   3.572   4.331  17.242  0.0481  0.4331  0.9731
  197MPD1    C1 2994   3.601   4.195  17.234 -0.1099  0.6450 -0.5217
  197MPD1    C2 2995   3.570   4.128  17.117  0.9772 -0.7658  0.5453
  197MPD1    C3 2996   3.516   4.192  17.006  0.5102 -0.3634  0.1154
  197MPD1    C4 2997   3.478   4.318  17.024  0.5142  0.3011 -0.0084
  197MPD1    C5 2998   3.512   4.385  17.134 -0.1512 -0.5754 -0.0850
  197MPD1     H 2999   3.602   4.025  17.110  2.6004 -0.0981 -1.6088
  197MPD1    H1 3000   3.431   4.370  16.940  0.2868 -0.4732 -0.3617
  197MPD1    H2 3001   3.583   4.387  17.334  4.1237  0.2361  0.5791
  197MPD1    H3 3002   3.487   4.490  17.144  2.0499  0.1302 -2.0572
  197MPD1     N 3003   3.485   4.128  16.889  0.4811 -0.2875 -0.0460
  197MPD1    H5 3004   3.423   4.180  16.827  1.8097 -1.6845 -2.5373
  197MPD1    N1 3005   3.683   4.131  17.333  0.6332 -0.0102 -0.0887
  197MPD1    H6 3006   3.674   4.167  17.427  4.9284  0.6551  0.0824
  197MPD1    H7 3007   3.663   4.031  17.333 -2.2941  0.5851 -1.0396
  198MPD1     C 3008   0.497   1.662  15.744  0.6117  0.0505  0.2571
  198MPD1    C1 3009   0.508   1.771  15.828  0.4887  0.7297  0.2062
  198MPD1    C2 3010   0.630   1.825  15.841  0.4632 -0.2717 -0.2445
  198MPD1    C3 3011   0.743   1.773  15.775 -0.6470  0.7557 -0.5438
  198MPD1    C4 3012   0.734   1.655  15.712 -0.0394 -0.5337  0.1810
  198MPD1    C5 3013   0.608   1.606  15.682  0.2759  0.3253  0.2099
  198MPD1     H 3014   0.631   1.917  15.899 -2.0384 -0.3831 -0.0273
  198MPD1    H1 3015   0.820   1.610  15.664  0.2546 -0.4167  0.6015
  198MPD1    H2 3016   0.397   1.627  15.720  1.2308  0.6719 -3.1957
  198MPD1    H3 3017   0.593   1.533  15.604 -0.1716  0.5738  0.0634
  198MPD1     N 3018   0.864   1.844  15.795  0.2464 -0.1540 -0.0162
  198MPD1    H5 3019   0.862   1.924  15.857 -3.5862 -0.7078  0.5682
  198MPD1    N1 3020   0.389   1.825  15.889  0.3161 -0.2028 -0.5326
  198MPD1    H6 3021   0.323   1.755  15.921  0.4532  0.0891  0.3713
  198MPD1    H7 3022   0.401   1.880  15.973 -0.1256 -0.6728 -0.1630
  199MPD1     C 3023   3.344   1.482   8.967 -0.0051 -0.5588 -0.0328
  199MPD1    C1 3024   3.231   1.407   8.999  0.7347 -0.0943 -0.6581
  199MPD1    C2 3025   3.107   1.468   9.028 -0.0616 -0.4377 -0.0848
  199MPD1    C3 3026   3.094   1.604   9.011  0.3002 -0.0960  0.4172
  199MPD1    C4 3027   3.201   1.676   8.964  0.2850  0.3110 -0.2665
  199MPD1    C5 3028   3.318   1.616   8.950  0.2439 -0.5549 -0.4425
  199MPD1     H 3029   3.025   1.408   9.066 -2.4035  3.2645  0.6914
  199MPD1    H1 3030   3.191   1.778   8.927  1.6839  1.8773  3.5668
  199MPD1    H2 3031   3.445   1.443   8.955  1.0462  1.7372  1.3182
  199MPD1    H3 3032   3.402   1.682   8.933  0.0810 -1.2633 -3.8307
  199MPD1     N 3033   2.973   1.679   9.040 -0.5705 -0.1348  0.0528
  199MPD1    H5 3034   2.987   1.775   9.008 -0.9726  0.1851  0.8545
  199MPD1    N1 3035   3.233   1.265   8.986 -0.0244  0.7727 -0.8812
  199MPD1    H6 3036   3.259   1.230   8.893 -0.7945 -2.2784  0.0472
  199MPD1    H7 3037   3.138   1.234   9.007  0.6320 -0.3464  0.4826
  200MPD1     C 3038   1.704   2.585  14.788  0.1481  0.8170  0.3493
  200MPD1    C1 3039   1.729   2.635  14.662 -0.2325 -0.3621  0.1868
  200MPD1    C2 3040   1.859   2.676  14.625  0.0245 -0.2475 -0.3746
  200MPD1    C3 3041   1.963   2.662  14.710 -0.5536  0.0457  0.3010
  200MPD1    C4 3042   1.943   2.602  14.832  0.1088 -0.5229 -0.2371
  200MPD1    C5 3043   1.814   2.565  14.867  0.4213 -0.4979 -0.7515
  200MPD1     H 3044   1.882   2.725  14.530 -0.7204  0.8902  0.0254
  200MPD1    H1 3045   2.020   2.586  14.906 -0.3005 -0.2003  0.2587
  200MPD1    H2 3046   1.607   2.575  14.835 -0.4154 -1.3309 -1.2458
  200MPD1    H3 3047   1.795   2.530  14.968  0.7987 -0.1881 -0.5743
  200MPD1     N 3048   2.088   2.713  14.675  0.4977 -0.0834 -0.0641
  200MPD1    H5 3049   2.098   2.738  14.577 -2.2148 -0.3960 -0.4107
  200MPD1    N1 3050   1.626   2.651  14.572 -0.0439 -0.3825 -0.1108
  200MPD1    H6 3051   1.562   2.574  14.587 -1.6993  1.2715  1.3244
  200MPD1    H7 3052   1.661   2.634  14.478  1.2257  3.5453 -0.3702
  201MPD1     C 3053   0.749   2.112  12.529  0.3739 -0.4821  0.2444
  201MPD1    C1 3054   0.703   2.122  12.662 -0.5186  0.0421 -0.6673
  201MPD1    C2 3055   0.644   2.010  12.710 -0.5275 -0.0755 -0.1590
  201MPD1    C3 3056   0.642   1.892  12.636  0.2675 -0.3959  0.5438
  201MPD1    C4 3057   0.686   1.886  12.499  0.5633  0.0823  0.0326
  201MPD1    C5 3058   0.744   1.999  12.455  0.1821 -0.8967  0.0513
  201MPD1     H 3059   0.599   2.027  12.807 -2.4183  2.6217 -1.4951
  201MPD1    H1 3060   0.687   1.798  12.436 -1.8398  1.1505 -1.4921
  201MPD1    H2 3061   0.780   2.203  12.480  3.4988 -1.0269  1.2044
  201MPD1    H3 3062   0.779   2.004  12.353  1.0730 -2.2341  0.3015
  201MPD1     N 3063   0.571   1.774  12.667 -0.7532  0.1875 -0.1249
  201MPD1    H5 3064   0.563   1.701  12.597  1.3405  1.0850 -1.2819
  201MPD1    N1 3065   0.681   2.247  12.718  0.5073  0.9032 -0.0223
  201MPD1    H6 3066   0.752   2.319  12.706  0.9938  0.2747 -0.9702
  201MPD1    H7 3067   0.665   2.243  12.818  2.0560 -1.4687  0.1256
  202MPD1     C 3068   4.633   1.708   9.170 -0.3677  0.6580  0.2905
  202MPD1    C1 3069   4.520   1.648   9.113  0.2822  0.5576  0.4307
  202MPD1    C2 3070   4.420   1.615   9.208 -0.2477 -0.3846 -0.0139
  202MPD1    C3 3071   4.460   1.578   9.335 -0.2058 -0.3012  0.1379
  202MPD1    C4 3072   4.579   1.618   9.385  0.6070 -0.2312  0.2981
  202MPD1    C5 3073   4.665   1.689   9.302  0.3607 -0.3047 -0.2475
  202MPD1     H 3074   4.324   1.590   9.165 -0.0830 -0.3288 -0.4120
  202MPD1    H1 3075   4.603   1.612   9.490 -0.3609  0.4487  0.5546
  202MPD1    H2 3076   4.712   1.748   9.109  0.8863  0.5146  1.8318
  202MPD1    H3 3077   0.038   1.714   9.333  0.1094  0.8499 -0.3685
  202MPD1     N 3078   4.372   1.520   9.427 -0.3919 -0.0469  0.4512
  202MPD1    H5 3079   4.418   1.499   9.515  0.4241  0.8348  0.2434
  202MPD1    N1 3080   4.488   1.692   8.985  0.2566 -1.3490  0.6358
  202MPD1    H6 3081   4.420   1.632   8.939 -0.3250 -0.5471  0.4558
  202MPD1    H7 3082   4.576   1.697   8.935  1.1886  1.8339  2.6131
  203MPD1     C 3083   3.321   2.702  12.654  0.7838  0.1712 -0.3304
  203MPD1    C1 3084   3.238   2.626  12.578  0.4906 -1.1645  0.3381
  203MPD1    C2 3085   3.226   2.491  12.594 -0.3717  0.0694 -0.0500
  203MPD1    C3 3086   3.314   2.425  12.680 -0.4663 -0.0318 -0.1784
  203MPD1    C4 3087   3.410   2.503  12.752  0.1694  0.0394 -0.3533
  203MPD1    C5 3088   3.405   2.638  12.740 -0.0817  0.3638  0.2850
  203MPD1     H 3089   3.156   2.427  12.540  1.0820  0.5587 -2.5537
  203MPD1    H1 3090   3.485   2.466  12.821 -0.5921 -1.0955 -0.1342
  203MPD1    H2 3091   3.327   2.810  12.655  1.4178  0.1318  0.3573
  203MPD1    H3 3092   3.472   2.700  12.798 -0.2860  2.2605 -1.5045
  203MPD1     N 3093   3.308   2.284  12.680 -0.0190  0.0024  0.3056
  203MPD1    H5 3094   3.239   2.239  12.621  0.7863 -1.5161  0.5364
  203MPD1    N1 3095   3.151   2.699  12.495 -0.3249 -0.3826 -0.3508
  203MPD1    H6 3096   3.177   2.798  12.491 -0.2136 -0.2496  3.3188
  203MPD1    H7 3097   3.134   2.658  12.404 -0.7246 -0.8464 -0.0677
  204MPD1     C 3098   1.873   3.534   0.063  0.4422  0.0710 -0.1472
  204MPD1    C1 3099   1.975   3.541  17.676 -1.0732  0.0145  0.2473
  204MPD1    C2 3100   2.027   3.416  17.637 -1.1564  0.4612 -0.1171
  204MPD1    C3 3101   2.003   3.299  17.708  0.1586  0.0896  0.2979
  204MPD1    C4 3102   1.926   3.305   0.112 -0.8005 -0.0365  0.0594
  204MPD1    C5 3103   1.861   3.422   0.140 -0.1160 -0.1970 -0.1392
  204MPD1     H 3104   2.080   3.409  17.542 -0.7027  0.7939  0.1080
  204MPD1    H1 3105   1.905   3.220   0.176 -0.6553 -0.4738 -0.4734
  204MPD1    H2 3106   1.806   3.616   0.087  0.6090 -0.0562  0.7658
  204MPD1    H3 3107   1.785   3.427   0.217 -0.4964  1.6340 -0.6451
  204MPD1     N 3108   2.081   3.187  17.666 -0.2168  0.0156 -0.3264
  204MPD1    H5 3109   2.130   3.192  17.577  2.0675  1.5368  1.0034
  204MPD1    N1 3110   1.987   3.654  17.590 -0.5060  0.4585  0.6214
  204MPD1    H6 3111   1.954   3.739  17.636 -1.1007  0.1791  0.7062
  204MPD1    H7 3112   2.081   3.660  17.551  0.1141  0.2362  2.1117
  205MPD1     C 3113   2.695   1.309   0.677  0.3194  0.5343 -0.0892
  205MPD1    C1 3114   2.629   1.432   0.709  0.3888  0.5596 -0.0553
  205MPD1    C2 3115   2.625   1.524   0.604  0.1649 -0.1070 -0.1201
  205MPD1    C3 3116   2.677   1.504   0.479  0.1991  0.0409 -0.1802
  205MPD1    C4 3117   2.723   1.381   0.453  1.2701 -0.6213  0.1429
  205MPD1    C5 3118   2.737   1.284   0.552 -0.2804 -0.4251 -0.1289
  205MPD1     H 3119   2.567   1.614   0.623 -1.0448 -0.2232 -3.2870
  205MPD1    H1 3120   2.760   1.358   0.354  0.0209 -0.4927 -0.3629
  205MPD1    H2 3121   2.700   1.241   0.762 -4.5843  1.2469  0.7738
  205MPD1    H3 3122   2.777   1.186   0.528 -0.3347 -0.3854 -0.3839
  205MPD1     N 3123   2.680   1.595   0.379  0.2376  0.5055 -0.0005
  205MPD1    H5 3124   2.709   1.556   0.290 -2.6305 -0.9472 -0.3046
  205MPD1    N1 3125   2.554   1.450   0.827 -0.1270  0.6276  0.0635
  205MPD1    H6 3126   2.542   1.544   0.864 -0.3444  0.9978 -0.9621
  205MPD1    H7 3127   2.576   1.388   0.905 -1.1602  0.6659  0.3784
  206MPD1     C 3128   3.187   0.535  16.989 -1.4387  0.4961  0.2369
  206MPD1    C1 3129   3.236   0.442  16.904  0.4581  0.1718  0.8652
  206MPD1    C2 3130   3.150   0.344  16.847  0.6363  0.5241 -0.1153
  206MPD1    C3 3131   3.014   0.352  16.878  0.4337 -0.6289 -0.2448
  206MPD1    C4 3132   2.965   0.468  16.948  0.1512  0.1773 -0.4025
  206MPD1    C5 3133   3.054   0.550  17.012 -0.0854 -0.9025 -0.8137
  206MPD1     H 3134   3.192   0.267  16.783 -1.9441 -0.9341 -0.0501
  206MPD1    H1 3135   2.859   0.482  16.964  0.4190 -1.7135  3.0950
  206MPD1    H2 3136   3.242   0.619  17.031 -0.4456  1.0897 -2.2485
  206MPD1    H3 3137   3.008   0.635  17.062  1.6975 -0.9993  0.9705
  206MPD1     N 3138   2.920   0.258  16.825 -0.5646  0.6530 -0.8838
  206MPD1    H5 3139   2.823   0.282  16.840  0.0267  1.3291  2.0260
  206MPD1    N1 3140   3.373   0.428  16.898 -0.4605  0.2962  0.6721
  206MPD1    H6 3141   3.423   0.514  16.920  1.5478 -0.2558 -1.8148
  206MPD1    H7 3142   3.397   0.402  16.803 -1.6187 -1.3029  0.8210
  207MPD1     C 3143   0.391   2.215   9.724  0.3954  0.0949 -0.0982
  207MPD1    C1 3144   0.379   2.147   9.843  0.1821 -0.6004 -1.0687
  207MPD1    C2 3145   0.488   2.174   9.928 -0.8322 -0.8960 -0.5603
  207MPD1    C3 3146   0.599   2.248   9.895  0.5591  0.0373  0.7077
  207MPD1    C4 3147   0.615   2.291   9.763  0.1406  0.2093 -0.8553
  207MPD1    C5 3148   0.507   2.275   9.682  0.3238 -0.5290 -0.4026
  207MPD1     H 3149   0.487   2.131  10.027 -0.1125 -0.5827 -0.4172
  207MPD1    H1 3150   0.703   2.340   9.721  0.0564  0.8361 -0.3074
  207MPD1    H2 3151   0.316   2.204   9.646 -0.1198 -1.2626  0.5907
  207MPD1    H3 3152   0.517   2.298   9.576 -1.1656 -0.9459 -0.6378
  207MPD1     N 3153   0.703   2.290   9.981 -0.0799  0.4270 -0.1954
  207MPD1    H5 3154   0.783   2.341   9.945  0.8577 -1.2878 -0.5426
  207MPD1    N1 3155   0.261   2.079   9.881  0.3440  0.5255 -0.2232
  207MPD1    H6 3156   0.275   1.999   9.943  0.6307  0.1958 -0.7125
  207MPD1    H7 3157   0.199   2.045   9.808  1.2668  1.0846 -1.2497
  208MPD1     C 3158   3.923   2.441   0.096  0.0521  0.4510 -0.4199
  208MPD1    C1 3159   3.815   2.356   0.056 -0.0987  0.5912  0.1326
  208MPD1    C2 3160   3.687   2.403   0.080 -0.5870 -0.2293 -0.3968
  208MPD1    C3 3161   3.660   2.519   0.154 -0.0740 -0.1300 -0.4983
  208MPD1    C4 3162   3.771   2.586   0.210 -0.2695  0.7043  0.0653
  208MPD1    C5 3163   3.904   2.557   0.171  0.1529  0.3686 -0.0000
  208MPD1     H 3164   3.605   2.342   0.044  0.5577 -0.5258 -2.5015
  208MPD1    H1 3165   3.768   2.675   0.272 -1.1008  0.5888  0.1957
  208MPD1    H2 3166   4.028   2.421   0.078  0.0679 -0.8634  1.1481
  208MPD1    H3 3167   3.995   2.609   0.199  0.2738  0.1404  0.0273
  208MPD1     N 3168   3.527   2.559   0.184 -0.3630  0.8201 -0.2907
  208MPD1    H5 3169   3.460   2.525   0.117  0.1034  1.9821 -1.3476
  208MPD1    N1 3170   3.839   2.247  17.684 -0.4319  0.5937 -0.5008
  208MPD1    H6 3171   3.766   2.177  17.694 -0.3402  0.4601 -0.7525
  208MPD1    H7 3172   3.927   2.197  17.699 -0.3570  0.7547 -0.4124
  209MPD1     C 3173   1.778   1.820  11.773 -0.7117  0.0665 -0.0456
  209MPD1    C1 3174   1.820   1.922  11.683 -0.2766  0.9853 -0.2521
  209MPD1    C2 3175   1.716   1.968  11.607  0.1900  0.7127  0.5184
  209MPD1    C3 3176   1.585   1.935  11.616  0.0961  0.2562  0.4415
  209MPD1    C4 3177   1.547   1.846  11.715 -0.2866 -0.6552  0.0397
  209MPD1    C5 3178   1.646   1.790  11.788 -0.2192  0.3547  0.2192
  209MPD1     H 3179   1.747   2.033  11.526 -0.2131  1.2748  0.8149
  209MPD1    H1 3180   1.446   1.813  11.733 -0.4422  0.0968  0.5517
  209MPD1    H2 3181   1.852   1.761  11.825 -0.8128 -0.6585 -0.7131
  209MPD1    H3 3182   1.616   1.723  11.868 -1.6227 -1.2871 -1.6863
  209MPD1     N 3183   1.499   1.999  11.524  0.1657 -0.0097 -0.1793
  209MPD1    H5 3184   1.538   2.074  11.468  0.6045  1.4693  2.1111
  209MPD1    N1 3185   1.956   1.931  11.652 -0.7357 -0.1198 -0.6094
  209MPD1    H6 3186   1.965   2.023  11.610 -0.9858  0.4176  0.5057
  209MPD1    H7 3187   2.006   1.922  11.741  0.2886  0.8262 -1.0946
  210MPD1     C 3188   1.683   2.673  11.047 -0.2737  0.7888  0.3579
  210MPD1    C1 3189   1.652   2.681  11.177 -0.5418  0.2019 -0.1244
  210MPD1    C2 3190   1.553   2.599  11.225 -0.1964 -0.1252  0.0458
  210MPD1    C3 3191   1.498   2.511  11.144 -0.4245 -0.1725  0.0130
  210MPD1    C4 3192   1.531   2.499  11.011 -0.1746 -0.8050 -0.4084
  210MPD1    C5 3193   1.624   2.581  10.965 -0.5147  1.0107 -0.1385
  210MPD1     H 3194   1.540   2.602  11.332  0.6557 -0.6674  0.1632
  210MPD1    H1 3195   1.488   2.420  10.951 -0.9792  0.9940 -2.1796
  210MPD1    H2 3196   1.768   2.728  11.009 -0.5735  0.2484 -1.0984
  210MPD1    H3 3197   1.663   2.569  10.865 -2.9160 -2.5209 -0.6459
  210MPD1     N 3198   1.399   2.415  11.190  0.6573 -0.2189  0.6351
  210MPD1    H5 3199   1.381   2.345  11.119 -1.6733  2.2913 -1.2636
  210MPD1    N1 3200   1.725   2.753  11.270 -0.2374  0.6111 -0.3035
  210MPD1    H6 3201   1.770   2.836  11.233  0.3952 -0.8389 -2.7299
  210MPD1    H7 3202   1.682   2.779  11.359  1.3643  1.0948  0.3407
  211MPD1     C 3203   3.633   1.822  16.982 -0.6000 -0.7681 -0.3030
  211MPD1    C1 3204   3.526   1.735  16.988  0.7880  0.3041 -0.4025
  211MPD1    C2 3205   3.402   1.784  16.987 -0.6949 -0.2664 -0.4527
  211MPD1    C3 3206   3.375   1.915  16.984 -0.3838 -0.1666  0.6275
  211MPD1    C4 3207   3.482   2.007  16.985  0.2985  0.8745  0.2069
  211MPD1    C5 3208   3.609   1.962  16.973  0.2951  0.2041 -0.3336
  211MPD1     H 3209   3.325   1.707  16.984 -0.2612 -0.6932 -0.6372
  211MPD1    H1 3210   3.477   2.116  16.987  0.4442  0.8432  2.0015
  211MPD1    H2 3211   3.733   1.784  16.968  0.5817  1.6260  1.5223
  211MPD1    H3 3212   3.687   2.037  16.966  0.1664  0.4022  0.4125
  211MPD1     N 3213   3.241   1.958  16.978  0.3610 -0.5980 -0.0738
  211MPD1    H5 3214   3.168   1.889  16.994  0.6296 -0.6654  0.9017
  211MPD1    N1 3215   3.563   1.597  16.974  0.3805  0.0773 -0.3674
  211MPD1    H6 3216   3.490   1.534  17.006 -1.0087  1.9228  0.1394
  211MPD1    H7 3217   3.653   1.583  17.019  0.4536  2.3734  0.2222
  212MPD1     C 3218   2.447   0.397  16.900 -0.6164 -0.3658 -0.5119
  212MPD1    C1 3219   2.332   0.465  16.895 -0.3150  1.2813 -0.8645
  212MPD1    C2 3220   2.217   0.412  16.933 -0.3800  0.3579  0.0251
  212MPD1    C3 3221   2.213   0.277  16.955  0.5679  0.2619  0.1623
  212MPD1    C4 3222   2.328   0.206  16.958 -0.5566  0.0355 -0.2201
  212MPD1    C5 3223   2.450   0.264  16.927  0.1439  0.0369  0.6216
  212MPD1     H 3224   2.129   0.473  16.918  0.0957  1.0958  0.2472
  212MPD1    H1 3225   2.323   0.099  16.976  0.1406 -0.1708 -1.2229
  212MPD1    H2 3226   2.539   0.445  16.870 -0.8193 -0.0707 -0.6673
  212MPD1    H3 3227   2.537   0.201  16.924 -0.7162 -1.2722  3.3531
  212MPD1     N 3228   2.095   0.207  16.979 -0.1254 -0.3739 -0.0353
  212MPD1    H5 3229   2.099   0.111  17.011  0.5821 -0.7398 -1.1953
  212MPD1    N1 3230   2.327   0.603  16.854  0.5600  0.3521  0.0609
  212MPD1    H6 3231   2.397   0.622  16.783 -0.4322  0.0194 -1.0061
  212MPD1    H7 3232   2.241   0.642  16.816 -0.2700  0.7391  2.3277
  213MPD1     C 3233   0.603   2.015  15.386 -0.9466  0.2685 -0.9792
  213MPD1    C1 3234   0.473   2.031  15.344  0.8256  0.3208 -1.3803
  213MPD1    C2 3235   0.407   1.917  15.304  0.3127  0.4224 -0.2235
  213MPD1    C3 3236   0.463   1.791  15.333 -0.3007  0.2663  0.1507
  213MPD1    C4 3237   0.580   1.785  15.409  0.3460 -0.2840 -0.1925
  213MPD1    C5 3238   0.651   1.899  15.430  0.1856  0.4212  0.5084
  213MPD1     H 3239   0.305   1.916  15.266 -0.1119 -1.4184  0.9510
  213MPD1    H1 3240   0.643   1.699  15.426  0.3327 -0.5236 -1.4013
  213MPD1    H2 3241   0.670   2.097  15.406  0.3458 -0.2404 -3.1515
  213MPD1    H3 3242   0.756   1.900  15.458 -0.1231  0.1984  1.6580
  213MPD1     N 3243   0.404   1.670  15.275  0.3876 -0.4879 -0.8150
  213MPD1    H5 3244   0.334   1.683  15.203  0.6324  0.8121 -0.8127
  213MPD1    N1 3245   0.435   2.149  15.284  0.1408 -0.0549 -0.6018
  213MPD1    H6 3246   0.465   2.235  15.330 -1.8638  1.0516 -1.3377
  213MPD1    H7 3247   0.335   2.165  15.271 -0.1095 -0.0877  1.2457
  214MPD1     C 3248   0.468   0.702  15.562 -0.2663 -0.6496 -0.5245
  214MPD1    C1 3249   0.350   0.724  15.489  0.3613 -0.3761 -0.4466
  214MPD1    C2 3250   0.338   0.832  15.407  0.0478 -0.2425 -0.7001
  214MPD1    C3 3251   0.439   0.931  15.402  0.7412  0.0854  0.0471
  214MPD1    C4 3252   0.546   0.910  15.491  0.4479  0.1027  1.1022
  214MPD1    C5 3253   0.563   0.802  15.567  0.4403  0.3419  0.3625
  214MPD1     H 3254   0.248   0.828  15.346 -0.3140  0.5726 -0.2187
  214MPD1    H1 3255   0.625   0.984  15.503  0.9995 -0.0690 -1.4037
  214MPD1    H2 3256   0.487   0.615  15.624 -1.0944 -1.1381 -0.9608
  214MPD1    H3 3257   0.651   0.770  15.622  0.1441 -2.2971 -0.6886
  214MPD1     N 3258   0.426   1.050  15.336 -0.8409 -0.2718  0.3585
  214MPD1    H5 3259   0.497   1.120  15.353 -2.0117  0.2589  2.9379
  214MPD1    N1 3260   0.258   0.614  15.482 -0.4070 -0.4075 -0.1400
  214MPD1    H6 3261   0.164   0.652  15.486  0.2045  1.0503  0.7661
  214MPD1    H7 3262   0.272   0.551  15.561  1.3733  0.1585  0.0079
  215MPD1     C 3263   0.011   1.831  10.866  0.4470 -0.3220  0.2675
  215MPD1    C1 3264   4.724   1.924  10.764  0.6164 -0.1943 -0.1877
  215MPD1    C2 3265   0.085   2.030  10.763 -0.4278 -0.0415 -0.2457
  215MPD1    C3 3266   0.182   2.049  10.865 -0.2924  0.6544  0.5373
  215MPD1    C4 3267   0.183   1.958  10.966 -0.1920 -0.6011 -1.1215
  215MPD1    C5 3268   0.095   1.850  10.972  0.0988 -0.2500  0.2109
  215MPD1     H 3269   0.083   2.104  10.683  0.1616  0.6229  0.3571
  215MPD1    H1 3270   0.242   1.980  11.054 -0.1830 -0.3207 -1.1995
  215MPD1    H2 3271   4.695   1.731  10.867  0.0629 -0.1271  1.7933
  215MPD1    H3 3272   0.089   1.783  11.057 -1.0687 -1.9857 -1.2356
  215MPD1     N 3273   0.287   2.143  10.868 -0.0812 -0.0956 -0.1037
  215MPD1    H5 3274   0.357   2.123  10.939 -0.1475  1.5394  0.4140
  215MPD1    N1 3275   4.642   1.901  10.653 -0.8388 -0.1712  0.7520
  215MPD1    H6 3276   4.559   1.849  10.680 -0.5784 -0.6492  0.6447
  215MPD1    H7 3277   4.605   1.989  10.618  0.5964 -0.1591 -0.7631
  216MPD1     C 3278   0.916   0.426  17.607  0.2611 -0.0395 -0.1286
  216MPD1    C1 3279   0.879   0.327  17.694  0.0913  0.8176  0.8882
  216MPD1    C2 3280   0.910   0.195  17.653  0.6371 -0.1882 -0.3462
  216MPD1    C3 3281   0.981   0.168  17.533 -0.1463 -0.2652 -0.1278
  216MPD1    C4 3282   1.030   0.276  17.461  0.9985 -0.0502  0.7114
  216MPD1    C5 3283   0.994   0.404  17.498  0.1804 -0.2625  0.1732
  216MPD1     H 3284   0.869   0.117   0.005 -2.3757  0.9284 -0.9338
  216MPD1    H1 3285   1.101   0.271  17.378 -0.3899  2.9134 -0.6670
  216MPD1    H2 3286   0.898   0.530  17.633 -0.2626 -0.0668 -0.4018
  216MPD1    H3 3287   1.034   0.486  17.439 -0.2858 -1.2590 -1.5099
  216MPD1     N 3288   1.006   0.030  17.503  0.4774  1.1840 -0.1757
  216MPD1    H5 3289   0.986   4.698  17.583  0.7777 -0.2730 -1.1763
  216MPD1    N1 3290   0.838   0.359   0.111  0.8644  0.0001 -0.0781
  216MPD1    H6 3291   0.804   0.455   0.118  0.3626 -0.1452 -0.4573
  216MPD1    H7 3292   0.783   0.293   0.166  1.2725  0.6618  1.1177
  217MPD1     C 3293   3.356   2.033   8.013  0.4844  0.8901 -0.3226
  217MPD1    C1 3294   3.229   1.982   8.022  1.1129  0.0613  0.2597
  217MPD1    C2 3295   3.198   1.884   8.118  0.2219  0.1523  0.5401
  217MPD1    C3 3296   3.297   1.821   8.194 -0.0183  0.0375  0.7256
  217MPD1    C4 3297   3.425   1.874   8.182 -0.2174 -0.4218  0.4520
  217MPD1    C5 3298   3.447   1.979   8.098 -0.0569  0.5598  0.1410
  217MPD1     H 3299   3.093   1.868   8.140  0.7092 -1.6179  1.5402
  217MPD1    H1 3300   3.506   1.831   8.241  1.1078  1.4966  0.0216
  217MPD1    H2 3301   3.386   2.112   7.946  0.0510  0.7104 -0.7249
  217MPD1    H3 3302   3.550   2.005   8.076 -0.7346  0.2916 -3.3697
  217MPD1     N 3303   3.270   1.733   8.301 -0.5846  0.5573 -0.2155
  217MPD1    H5 3304   3.349   1.704   8.358  0.1638  3.7375  0.3995
  217MPD1    N1 3305   3.122   2.034   7.941  0.4586  0.5719  1.0306
  217MPD1    H6 3306   3.029   1.992   7.949 -0.3316  2.5373  2.0959
  217MPD1    H7 3307   3.139   2.034   7.841 -1.7075  2.3064  0.6722
  218MPD1     C 3308   0.676   1.743  13.461 -0.7711 -0.1994  0.1380
  218MPD1    C1 3309   0.782   1.832  13.468 -0.3115 -0.4974  0.4650
  218MPD1    C2 3310   0.840   1.859  13.347 -0.4434  1.1161  0.1638
  218MPD1    C3 3311   0.792   1.815  13.221  0.4982 -0.1218  0.3630
  218MPD1    C4 3312   0.701   1.713  13.228  0.0133  0.1156 -0.1490
  218MPD1    C5 3313   0.633   1.684  13.343  0.3562 -0.1169  0.0568
  218MPD1     H 3314   0.927   1.923  13.338  0.5932 -0.5175 -1.6535
  218MPD1    H1 3315   0.671   1.657  13.140  1.6676 -1.6588  0.4293
  218MPD1    H2 3316   0.610   1.732  13.547  2.2538 -1.8322  2.2392
  218MPD1    H3 3317   0.553   1.611  13.334 -0.0231  0.4069 -0.7835
  218MPD1     N 3318   0.867   1.854  13.107 -0.6545 -0.0448 -0.4559
  218MPD1    H5 3319   0.934   1.929  13.118 -0.8391  0.2194 -1.1600
  218MPD1    N1 3320   0.790   1.913  13.580 -0.0364 -0.0093  0.6951
  218MPD1    H6 3321   0.883   1.949  13.601 -0.2735  0.7826  0.4149
  218MPD1    H7 3322   0.765   1.864  13.666 -0.0959 -0.5667  0.3601
  219MPD1     C 3323   1.124   2.569  12.481 -0.0503  0.5372 -0.4331
  219MPD1    C1 3324   1.128   2.566  12.618  0.3999  0.5328 -0.4465
  219MPD1    C2 3325   1.118   2.443  12.676 -0.0371 -0.0362 -0.7345
  219MPD1    C3 3326   1.102   2.332  12.595  1.3206  0.2001  0.1121
  219MPD1    C4 3327   1.100   2.339  12.459  0.0322 -0.8590  0.2260
  219MPD1    C5 3328   1.111   2.463  12.401 -0.2283  0.0392  0.2929
  219MPD1     H 3329   1.135   2.435  12.782 -1.7497  1.9785 -0.3097
  219MPD1    H1 3330   1.084   2.257  12.390  0.3733 -2.3001  1.8347
  219MPD1    H2 3331   1.128   2.665  12.431 -0.7605  0.9275  0.2454
  219MPD1    H3 3332   1.105   2.485  12.295 -0.4755 -0.7836  0.1390
  219MPD1     N 3333   1.100   2.204  12.660  0.2047  0.2600 -0.1625
  219MPD1    H5 3334   1.100   2.124  12.598  0.3057  0.2442 -0.1418
  219MPD1    N1 3335   1.151   2.681  12.701  0.0950  0.5778  0.2673
  219MPD1    H6 3336   1.105   2.765  12.667 -1.0853 -0.7441 -1.4278
  219MPD1    H7 3337   1.109   2.661  12.792  0.0332 -3.2639 -0.5979
  220MPD1     C 3338   4.544   3.201   9.844  0.2258 -0.3132  0.0657
  220MPD1    C1 3339   4.632   3.149   9.935 -0.3593  0.6784 -0.0799
  220MPD1    C2 3340   4.675   3.018   9.914  0.4661  0.0933 -0.1923
  220MPD1    C3 3341   4.613   2.937   9.822  0.1834 -0.3281 -0.2090
  220MPD1    C4 3342   4.518   2.994   9.735 -0.1477  0.2018  0.5084
  220MPD1    C5 3343   4.493   3.121   9.748  0.6283 -0.1504  0.2122
  220MPD1     H 3344   0.028   2.983   9.978  0.4547 -0.3928 -0.4414
  220MPD1    H1 3345   4.466   2.946   9.653  0.8936  1.3593 -0.8359
  220MPD1    H2 3346   4.509   3.303   9.855  1.7762  0.5324 -2.8233
  220MPD1    H3 3347   4.422   3.169   9.680 -1.5117 -2.3373  0.8990
  220MPD1     N 3348   4.669   2.806   9.815  0.2887  0.1456  0.6479
  220MPD1    H5 3349   0.013   2.772   9.879 -0.5954  0.7075  1.9309
  220MPD1    N1 3350   4.679   3.229  10.041 -0.0302  0.0368 -0.3295
  220MPD1    H6 3351   4.677   3.329  10.022  0.5906  0.1411  0.1456
  220MPD1    H7 3352   0.050   3.207  10.056 -0.5823 -1.0308  1.6477
  221MPD1     C 3353   3.887   0.382  16.486  0.3166 -0.1262  0.3900
  221MPD1    C1 3354   3.877   0.319  16.364 -0.4240 -0.3932 -0.0616
  221MPD1    C2 3355   3.818   0.380  16.255  0.3143 -0.4032 -0.1820
  221MPD1    C3 3356   3.779   0.510  16.262 -0.6825  0.5726 -0.7774
  221MPD1    C4 3357   3.799   0.578  16.384  0.2395 -0.3260  0.0529
  221MPD1    C5 3358   3.858   0.518  16.486 -0.5662 -0.1995 -0.2774
  221MPD1     H 3359   3.806   0.324  16.163 -0.6492 -0.2936 -0.1212
  221MPD1    H1 3360   3.768   0.680  16.399  2.2626  0.1803  0.8447
  221MPD1    H2 3361   3.918   0.328  16.574 -1.0615  1.6688  1.9796
  221MPD1    H3 3362   3.876   0.582  16.572  2.0646 -1.6617  0.2392
  221MPD1     N 3363   3.722   0.577  16.152  0.5660  0.0143 -0.0236
  221MPD1    H5 3364   3.705   0.677  16.155  1.3812  0.1624 -0.2827
  221MPD1    N1 3365   3.903   0.184  16.353  0.3468  0.7628  0.6054
  221MPD1    H6 3366   3.981   0.159  16.413  0.1422  0.1615  0.6212
  221MPD1    H7 3367   3.920   0.150  16.258 -1.9952  0.7394  0.1914
  222MPD1     C 3368   1.503   0.705  16.535 -0.4654  0.5272 -0.4123
  222MPD1    C1 3369   1.622   0.767  16.533 -0.2194 -0.4569 -0.1015
  222MPD1    C2 3370   1.671   0.806  16.654 -0.4450 -1.1565 -0.1861
  222MPD1    C3 3371   1.592   0.801  16.769  0.2815  0.0852 -0.3132
  222MPD1    C4 3372   1.470   0.748  16.763 -0.1651  0.9545 -0.4499
  222MPD1    C5 3373   1.427   0.698  16.646  0.3226 -0.1874 -0.6010
  222MPD1     H 3374   1.762   0.864  16.652 -0.4091 -1.2142 -0.2208
  222MPD1    H1 3375   1.415   0.744  16.857  1.5338 -2.7968  0.3601
  222MPD1    H2 3376   1.449   0.675  16.446  1.7977 -1.0039 -1.2651
  222MPD1    H3 3377   1.326   0.661  16.635 -0.2734  1.2765 -0.1091
  222MPD1     N 3378   1.641   0.854  16.887 -0.1883  0.8248 -0.3009
  222MPD1    H5 3379   1.574   0.882  16.957  0.6905  1.6251  0.2308
  222MPD1    N1 3380   1.693   0.773  16.415 -0.1376  0.0984 -0.5087
  222MPD1    H6 3381   1.754   0.852  16.396 -1.1383  0.2431 -3.1590
  222MPD1    H7 3382   1.645   0.764  16.326 -0.2663  1.7607 -0.6131
  223MPD1     C 3383   1.402   1.628  17.467 -0.2039  0.0613  0.3280
  223MPD1    C1 3384   1.469   1.544  17.560 -0.1728 -0.4825  0.1755
  223MPD1    C2 3385   1.519   1.421  17.516  0.0263  0.0700 -0.2781
  223MPD1    C3 3386   1.517   1.380  17.378 -0.4029  1.3627 -0.2929
  223MPD1    C4 3387   1.463   1.474  17.294  0.1951  0.5322 -0.2995
  223MPD1    C5 3388   1.412   1.594  17.334 -0.1375 -0.1897  0.5877
  223MPD1     H 3389   1.561   1.354  17.590 -1.0468 -1.4712 -1.0759
  223MPD1    H1 3390   1.463   1.452  17.188  0.8967  0.4270 -0.2773
  223MPD1    H2 3391   1.370   1.730  17.486 -0.7550  0.1737 -1.2427
  223MPD1    H3 3392   1.354   1.641  17.254  0.6816  0.1919  0.2168
  223MPD1     N 3393   1.578   1.260  17.331  0.5319  0.9832 -0.0237
  223MPD1    H5 3394   1.645   1.217  17.393 -1.6982  0.4228  2.0155
  223MPD1    N1 3395   1.432   1.573  17.693 -0.7366  0.2097 -0.0423
  223MPD1    H6 3396   1.517   1.568   0.038 -1.6612 -1.8418  1.2022
  223MPD1    H7 3397   1.391   1.661   0.012  2.6361  0.6381  3.3529
  224MPD1     C 3398   3.519   2.336   8.797 -0.0324 -0.5305 -0.8212
  224MPD1    C1 3399   3.602   2.282   8.886 -0.1497 -0.4593 -0.0078
  224MPD1    C2 3400   3.557   2.170   8.963  0.8757  0.5886 -0.6596
  224MPD1    C3 3401   3.426   2.141   8.967  0.6358  0.1149  0.1140
  224MPD1    C4 3402   3.338   2.213   8.888 -0.3949  0.4865 -0.5052
  224MPD1    C5 3403   3.383   2.316   8.807 -0.1946  0.1845 -0.7906
  224MPD1     H 3404   3.625   2.105   9.016 -0.7327 -0.7168 -0.2053
  224MPD1    H1 3405   3.232   2.194   8.905  0.3835 -3.0663  0.3246
  224MPD1    H2 3406   3.548   2.413   8.726 -1.0508  2.0241  1.5308
  224MPD1    H3 3407   3.309   2.367   8.747 -1.1070  0.4793  0.5675
  224MPD1     N 3408   3.373   2.034   9.044  0.2173 -0.3476 -0.3416
  224MPD1    H5 3409   3.275   2.010   9.031 -0.5274  2.3759  0.0605
  224MPD1    N1 3410   3.735   2.298   8.852 -0.2783 -0.2759  0.2096
  224MPD1    H6 3411   3.749   2.398   8.839 -2.8818  0.3694  2.3207
  224MPD1    H7 3412   3.794   2.269   8.930 -1.4380  1.6767  1.8018
  225MPD1     C 3413   0.397   2.821  12.723  0.2657  0.0504 -0.5563
  225MPD1    C1 3414   0.404   2.856  12.597 -0.1010 -0.5534 -0.2373
  225MPD1    C2 3415   0.292   2.834  12.515  0.3067 -0.3288 -0.2338
  225MPD1    C3 3416   0.172   2.787  12.562  0.0423  0.0280  0.0732
  225MPD1    C4 3417   0.164   2.761  12.694  0.0584  0.4502 -0.0117
  225MPD1    C5 3418   0.270   2.786  12.771 -0.8620  0.2329  0.4328
  225MPD1     H 3419   0.278   2.852  12.409 -2.7693  0.0242  0.2416
  225MPD1    H1 3420   0.081   2.711  12.744  0.8429 -0.8636 -0.0278
  225MPD1    H2 3421   0.488   2.818  12.782 -0.5775 -1.7135  0.6846
  225MPD1    H3 3422   0.264   2.743  12.871  2.1221  0.0410  0.5174
  225MPD1     N 3423   0.070   2.782  12.465 -0.0159 -0.7494  0.2044
  225MPD1    H5 3424   0.080   2.813  12.369  1.7549 -1.1940  0.2531
  225MPD1    N1 3425   0.531   2.879  12.540 -0.2709 -0.3951  0.4041
  225MPD1    H6 3426   0.603   2.925  12.595  0.1717 -1.0660  0.3728
  225MPD1    H7 3427   0.523   2.930  12.452  0.0444 -1.6355 -0.3300
  226MPD1     C 3428   2.368   3.270   8.560 -0.5065  0.4616 -0.2151
  226MPD1    C1 3429   2.335   3.146   8.508 -0.3904 -0.3880 -1.1644
  226MPD1    C2 3430   2.400   3.034   8.548  0.4462 -0.1055  0.0412
  226MPD1    C3 3431   2.495   3.035   8.658 -0.9100 -0.3228 -0.4915
  226MPD1    C4 3432   2.518   3.159   8.714  0.3967  0.4821  0.0891
  226MPD1    C5 3433   2.456   3.273   8.664 -0.4117 -0.3040 -0.3751
  226MPD1     H 3434   2.374   2.943   8.495  0.3417  0.1259 -0.3090
  226MPD1    H1 3435   2.576   3.158   8.805  0.9007  2.1816 -0.2200
  226MPD1    H2 3436   2.328   3.362   8.518  0.1958  1.5794  1.6015
  226MPD1    H3 3437   2.483   3.359   8.724  2.6931 -2.3835  1.1649
  226MPD1     N 3438   2.583   2.925   8.700  0.2419 -0.2648 -0.7556
  226MPD1    H5 3439   2.643   2.949   8.779 -0.8672 -0.9301  0.3012
  226MPD1    N1 3440   2.235   3.135   8.405 -0.5147  0.6681  0.3340
  226MPD1    H6 3441   2.184   3.223   8.401 -1.5839 -0.0150 -1.1531
  226MPD1    H7 3442   2.173   3.056   8.418  3.0231 -1.6857  2.7873
  227MPD1     C 3443   2.773   2.016   8.237 -0.2966 -0.7624 -0.0536
  227MPD1    C1 3444   2.756   2.145   8.193  0.0552  0.3937  0.8729
  227MPD1    C2 3445   2.732   2.250   8.280 -0.4536  0.7069  0.4670
  227MPD1    C3 3446   2.732   2.224   8.416 -0.3782  0.5090  0.3502
  227MPD1    C4 3447   2.758   2.098   8.459 -0.1239 -0.8486  0.9754
  227MPD1    C5 3448   2.770   1.989   8.370  0.2303 -0.0691  0.1023
  227MPD1     H 3449   2.712   2.344   8.229 -3.2029 -0.1140  0.0403
  227MPD1    H1 3450   2.777   2.088   8.565 -4.0731 -1.6763  1.6099
  227MPD1    H2 3451   2.781   1.932   8.168  0.8193 -0.3518 -0.4158
  227MPD1    H3 3452   2.765   1.888   8.409 -0.3697  0.4342  1.3111
  227MPD1     N 3453   2.720   2.342   8.502 -0.1421 -0.1441  0.4015
  227MPD1    H5 3454   2.692   2.426   8.453  2.8051 -0.5255 -1.8859
  227MPD1    N1 3455   2.721   2.153   8.057 -0.5864  0.0838 -0.1003
  227MPD1    H6 3456   2.781   2.078   8.024  1.8120  2.7254 -1.7813
  227MPD1    H7 3457   2.741   2.246   8.019 -1.5514  1.2454  2.2580
  228MPD1     C 3458   1.981   0.467  12.738  0.3280  0.3509  0.3365
  228MPD1    C1 3459   1.908   0.486  12.621  0.5070  0.1232  0.4537
  228MPD1    C2 3460   1.766   0.476  12.622  0.5338 -0.6509 -0.0383
  228MPD1    C3 3461   1.696   0.447  12.737  0.1282 -0.0175 -0.5960
  228MPD1    C4 3462   1.773   0.433  12.852 -0.3262 -0.2341  0.1184
  228MPD1    C5 3463   1.910   0.431  12.844  0.1029  0.3282  0.0186
  228MPD1     H 3464   1.710   0.496  12.531  1.1302 -2.7593 -0.8665
  228MPD1    H1 3465   1.734   0.401  12.948 -1.1223  0.0550 -0.1002
  228MPD1    H2 3466   2.089   0.465  12.730  0.2138 -1.2436 -0.9272
  228MPD1    H3 3467   1.975   0.406  12.927  1.4556  0.5913 -0.9615
  228MPD1     N 3468   1.553   0.445  12.733 -0.5383  0.3350  0.3872
  228MPD1    H5 3469   1.517   0.449  12.638 -1.1204  2.0028  0.6796
  228MPD1    N1 3470   1.977   0.537  12.507 -0.1786  0.0184  0.2471
  228MPD1    H6 3471   2.035   0.616  12.535  1.3323 -1.0549  0.1772
  228MPD1    H7 3472   1.923   0.565  12.425  0.0118  1.7137  0.7098
  229MPD1     C 3473   1.020   4.509  14.598 -0.5183 -1.2032  0.0888
  229MPD1    C1 3474   1.054   4.413  14.509  0.0745  0.2051  0.1355
  229MPD1    C2 3475   1.130   4.312  14.551 -0.0866  0.0461  0.1275
  229MPD1    C3 3476   1.164   4.288  14.680  0.3785  0.4641 -0.5395
  229MPD1    C4 3477   1.119   4.379  14.766 -0.0470 -0.6373  0.2712
  229MPD1    C5 3478   1.045   4.483  14.725  0.0799 -0.2473  0.5278
  229MPD1     H 3479   1.180   4.256  14.472  0.1941  0.6404 -0.1259
  229MPD1    H1 3480   1.123   4.355  14.872  4.0671  1.5370  0.6203
  229MPD1    H2 3481   0.967   4.598  14.566  0.5518 -0.1221  1.3757
  229MPD1    H3 3482   1.010   4.559  14.794 -1.1805 -1.3161  1.0769
  229MPD1     N 3483   1.230   4.178  14.727  0.5218 -0.0914  0.0995
  229MPD1    H5 3484   1.251   4.165  14.825 -1.8689 -2.6608  0.2641
  229MPD1    N1 3485   1.058   4.436  14.373  0.2159  0.7825  0.2644
  229MPD1    H6 3486   1.056   4.348  14.322 -1.2620  1.6722 -1.1992
  229MPD1    H7 3487   0.983   4.496  14.339  0.0555 -0.0522 -0.8406
  230MPD1     C 3488   1.335   3.558  15.500  0.5601  0.5839 -0.2876
  230MPD1    C1 3489   1.396   3.491  15.400 -0.1152 -0.3164 -0.1820
  230MPD1    C2 3490   1.396   3.546  15.275 -0.0915  0.4235  0.4458
  230MPD1    C3 3491   1.341   3.666  15.246  0.2423  0.0200 -0.4803
  230MPD1    C4 3492   1.278   3.730  15.343  0.7537  0.0299  0.5502
  230MPD1    C5 3493   1.269   3.674  15.470  0.5807 -0.3214 -0.2634
  230MPD1     H 3494   1.450   3.489  15.200 -0.6728  0.5139 -0.0432
  230MPD1    H1 3495   1.221   3.821  15.327 -3.1878 -2.0997  2.3380
  230MPD1    H2 3496   1.340   3.518  15.601  1.0247  0.7726 -0.2372
  230MPD1    H3 3497   1.218   3.724  15.551  1.6063  3.2757 -1.8399
  230MPD1     N 3498   1.358   3.713  15.110 -0.2780  0.7344  0.1953
  230MPD1    H5 3499   1.404   3.651  15.043  0.5528  1.5547  0.0023
  230MPD1    N1 3500   1.473   3.378  15.423 -0.3340 -0.0808 -0.3556
  230MPD1    H6 3501   1.438   3.318  15.498  0.4203 -0.4427 -0.2892
  230MPD1    H7 3502   1.474   3.325  15.336 -0.6955 -1.9702  0.7820
  231MPD1     C 3503   4.246   0.840  15.432 -0.0967 -0.4224 -0.2452
  231MPD1    C1 3504   4.187   0.849  15.313 -0.1416  0.5196 -0.1323
  231MPD1    C2 3505   4.235   0.927  15.214  0.2230  0.5057 -0.0026
  231MPD1    C3 3506   4.344   1.012  15.235  0.9331 -0.4489 -0.0043
  231MPD1    C4 3507   4.401   1.017  15.362  0.6668  0.0158  0.3818
  231MPD1    C5 3508   4.350   0.930  15.459  0.4123 -1.1371 -0.2218
  231MPD1     H 3509   4.194   0.909  15.115  0.4091  1.5811 -0.2707
  231MPD1    H1 3510   4.476   1.089  15.390  0.0438 -0.5849  3.6595
  231MPD1    H2 3511   4.220   0.760  15.501 -1.7636  0.5377  0.2277
  231MPD1    H3 3512   4.391   0.927  15.559 -0.5265 -0.4035  0.1812
  231MPD1     N 3513   4.388   1.082  15.121 -0.9069  0.3986 -0.1843
  231MPD1    H5 3514   4.334   1.063  15.038  1.8593  0.5250 -2.0348
  231MPD1    N1 3515   4.078   0.758  15.280 -0.1496 -0.3547  0.4567
  231MPD1    H6 3516   4.025   0.722  15.360  1.6454  1.2481  2.3721
  231MPD1    H7 3517   4.017   0.815  15.221  0.8092 -1.0224 -1.1773
  232MPD1     C 3518   1.411   3.041  17.524  0.5269 -0.2944 -0.2269
  232MPD1    C1 3519   1.357   2.996  17.638 -0.5493 -0.0578 -0.1446
  232MPD1    C2 3520   1.272   3.090  17.708 -0.9184 -0.4961 -0.4733
  232MPD1    C3 3521   1.235   3.211  17.652 -0.2693 -0.5286  0.2782
  232MPD1    C4 3522   1.285   3.244  17.523 -0.1945 -0.3551  0.0303
  232MPD1    C5 3523   1.380   3.155  17.465  0.0329 -0.2399 -0.1415
  232MPD1     H 3524   1.234   3.063   0.096 -1.3569 -2.1956 -1.1243
  232MPD1    H1 3525   1.263   3.335  17.469 -2.1969 -0.5325  0.5602
  232MPD1    H2 3526   1.488   2.979  17.480  0.1263 -0.9923  0.0693
  232MPD1    H3 3527   1.422   3.177  17.367  1.1991 -1.4231  0.0888
  232MPD1     N 3528   1.156   3.291   0.012  0.3272 -0.1367  0.3245
  232MPD1    H5 3529   1.135   3.267   0.108 -0.3535 -0.2092  0.1537
  232MPD1    N1 3530   1.400   2.886  17.706 -0.4741 -0.2500  0.4833
  232MPD1    H6 3531   1.322   2.850   0.050 -0.3941 -0.0956  0.7047
  232MPD1    H7 3532   1.417   2.815  17.636  2.0051 -2.5671  3.4650
  233MPD1     C 3533   3.237   2.798   2.610 -0.1400 -0.0364 -0.5063
  233MPD1    C1 3534   3.351   2.723   2.618 -0.4884 -0.2027  0.2995
  233MPD1    C2 3535   3.364   2.615   2.537 -0.1083  0.3090  0.7530
  233MPD1    C3 3536   3.264   2.578   2.450  0.5115  1.2654 -0.5593
  233MPD1    C4 3537   3.151   2.655   2.440 -0.6701 -0.0994  0.2406
  233MPD1    C5 3538   3.146   2.774   2.511 -0.0113 -0.4514 -0.2453
  233MPD1     H 3539   3.454   2.556   2.548 -0.6448 -0.7455 -0.4178
  233MPD1    H1 3540   3.074   2.611   2.377  0.0835 -0.5504 -0.3713
  233MPD1    H2 3541   3.214   2.881   2.677  1.7848 -0.0386  0.1669
  233MPD1    H3 3542   3.049   2.819   2.520  1.1084  1.4958  2.0620
  233MPD1     N 3543   3.269   2.460   2.371  0.8383 -0.9950  0.0275
  233MPD1    H5 3544   3.194   2.447   2.303  0.7566  0.8864 -0.2414
  233MPD1    N1 3545   3.425   2.749   2.735  0.4325 -0.0513  0.4376
  233MPD1    H6 3546   3.522   2.741   2.707 -0.0049 -2.0565 -0.5103
  233MPD1    H7 3547   3.400   2.843   2.763 -1.1261 -0.0534 -0.9750
  234MPD1     C 3548   4.452   0.787   9.154 -0.3917  0.4927 -0.9288
  234MPD1    C1 3549   4.400   0.911   9.110 -0.3137  0.2558 -0.0852
  234MPD1    C2 3550   4.260   0.931   9.103  0.3820  0.0897  0.8169
  234MPD1    C3 3551   4.183   0.828   9.157 -0.2822 -0.1613  0.0595
  234MPD1    C4 3552   4.236   0.708   9.195  0.1587 -0.3096  0.5193
  234MPD1    C5 3553   4.366   0.687   9.198  0.2803  0.9899 -0.2109
  234MPD1     H 3554   4.224   1.024   9.061  1.5854  0.7762  1.2896
  234MPD1    H1 3555   4.177   0.622   9.224 -1.7982  0.2961 -1.6540
  234MPD1    H2 3556   4.555   0.767   9.131  0.3927  1.8210  1.3795
  234MPD1    H3 3557   4.403   0.589   9.225 -5.0098 -0.6192  1.2141
  234MPD1     N 3558   4.047   0.849   9.150  0.1323 -0.8745  0.0279
  234MPD1    H5 3559   4.010   0.930   9.103 -0.9282 -3.4370 -3.5551
  234MPD1    N1 3560   4.488   1.006   9.048 -0.3428  0.4749 -0.3225
  234MPD1    H6 3561   4.468   1.105   9.053  2.2601  1.0397 -1.0404
  234MPD1    H7 3562   4.587   0.996   9.067 -0.3286  1.1006 -0.0879
  235MPD1     C 3563   0.615   2.422   9.309  0.2739 -1.0369 -0.2810
  235MPD1    C1 3564   0.496   2.488   9.341 -0.3309 -0.2868 -0.8054
  235MPD1    C2 3565   0.507   2.619   9.386  0.3499  0.1101 -0.3521
  235MPD1    C3 3566   0.629   2.685   9.406  0.5837  0.0763 -0.0746
  235MPD1    C4 3567   0.741   2.615   9.373  0.1283 -0.1683 -0.1724
  235MPD1    C5 3568   0.732   2.484   9.322  0.0616  1.2398 -0.5685
  235MPD1     H 3569   0.413   2.664   9.414 -0.4591 -2.3505  0.8806
  235MPD1    H1 3570   0.841   2.651   9.395 -0.1616  0.1575  0.6510
  235MPD1    H2 3571   0.618   2.318   9.280 -0.2199 -1.4773  1.2680
  235MPD1    H3 3572   0.817   2.419   9.307 -0.8954 -0.0305 -0.4819
  235MPD1     N 3573   0.658   2.816   9.445 -0.0778 -0.2459 -0.4481
  235MPD1    H5 3574   0.755   2.842   9.460 -0.6887  1.6064  0.4084
  235MPD1    N1 3575   0.371   2.433   9.320 -0.1586 -0.3094 -0.6335
  235MPD1    H6 3576   0.372   2.331   9.326  1.3409 -0.3417 -1.5317
  235MPD1    H7 3577   0.299   2.462   9.385  0.7868 -0.7532  0.6229
  236MPD1     C 3578   0.326   4.645  10.455 -0.1250  0.0695  0.6453
  236MPD1    C1 3579   0.253   4.557  10.381 -0.1429 -0.2297 -0.3623
  236MPD1    C2 3580   0.316   4.464  10.299 -0.2984 -0.3181  0.7747
  236MPD1    C3 3581   0.449   4.433  10.321 -0.4311 -0.5356  0.9138
  236MPD1    C4 3582   0.519   4.510  10.412  0.4798 -0.8363 -0.5498
  236MPD1    C5 3583   0.454   4.622  10.462 -0.0507  0.0234  0.3372
  236MPD1     H 3584   0.254   4.408  10.229  1.0051 -2.8783  1.6613
  236MPD1    H1 3585   0.623   4.494  10.441  0.9527  0.9298 -1.2810
  236MPD1    H2 3586   0.287   0.003  10.508 -1.6209  0.0716 -0.4468
  236MPD1    H3 3587   0.510   4.693  10.522  2.3210 -1.8808  0.4144
  236MPD1     N 3588   0.515   4.321  10.259 -0.2451  0.0745 -0.4683
  236MPD1    H5 3589   0.616   4.315  10.270 -0.0838  1.9049 -0.8631
  236MPD1    N1 3590   0.113   4.586  10.365  0.4998  0.1288 -0.5520
  236MPD1    H6 3591   0.063   4.498  10.357  1.1272 -0.2101 -0.7046
  236MPD1    H7 3592   0.077   4.630  10.449  2.9708  2.0893 -0.5128
  237MPD1     C 3593   0.101   1.898  15.624 -0.7377  0.7249  0.0932
  237MPD1    C1 3594   4.714   1.825  15.636 -0.3030 -0.0608  0.4384
  237MPD1    C2 3595   4.598   1.873  15.583 -0.3776 -0.6120  0.1325
  237MPD1    C3 3596   4.600   1.990  15.501 -0.6593  0.3585  0.5448
  237MPD1    C4 3597   4.723   2.042  15.466 -0.1142 -0.0569  0.1034
  237MPD1    C5 3598   0.111   2.001  15.524 -0.3376 -0.2014  0.1088
  237MPD1     H 3599   4.510   1.822  15.620  0.1915 -0.9177  1.0525
  237MPD1    H1 3600   0.010   2.133  15.409  0.3191 -0.1278  0.0988
  237MPD1    H2 3601   0.189   1.877  15.683  1.6373  1.2378 -3.2537
  237MPD1    H3 3602   0.206   2.052  15.510 -0.6585  0.3671 -0.0034
  237MPD1     N 3603   4.492   2.033  15.425  0.1980 -0.3524 -0.7738
  237MPD1    H5 3604   4.501   2.110  15.359  0.6915  1.3366  1.2566
  237MPD1    N1 3605   4.707   1.728  15.739  0.0587  0.7836  0.3256
  237MPD1    H6 3606   0.068   1.682  15.759  0.6299  1.0461 -1.6017
  237MPD1    H7 3607   4.638   1.653  15.729  2.4374 -0.9132 -3.2683
  238MPD1     C 3608   0.888   1.913  14.999 -0.0207 -0.6877  0.2464
  238MPD1    C1 3609   0.927   1.863  14.880 -0.6230 -0.0170 -0.4178
  238MPD1    C2 3610   0.901   1.732  14.859 -0.2629 -0.5297  0.4759
  238MPD1    C3 3611   0.833   1.647  14.945  0.3061 -0.1652 -0.3351
  238MPD1    C4 3612   0.785   1.708  15.059 -0.8924 -0.1053  0.5587
  238MPD1    C5 3613   0.823   1.834  15.089 -0.1649 -0.0936 -0.3742
  238MPD1     H 3614   0.934   1.693  14.763 -0.7571 -2.4526  1.1072
  238MPD1    H1 3615   0.721   1.656  15.130 -0.5407 -0.1554  0.8370
  238MPD1    H2 3616   0.913   2.016  15.022 -2.5368 -0.2505  1.0022
  238MPD1    H3 3617   0.804   1.867  15.191 -1.0446  2.6820 -1.4508
  238MPD1     N 3618   0.790   1.522  14.908  0.7290  0.4425  0.6363
  238MPD1    H5 3619   0.814   1.473  14.822  1.8653  0.0939  1.1579
  238MPD1    N1 3620   1.019   1.933  14.802  0.3089  0.3556  0.4657
  238MPD1    H6 3621   1.040   1.898  14.709 -1.4006  0.6006 -0.0181
  238MPD1    H7 3622   1.011   2.034  14.805 -2.5686  0.1908 -1.7112
  239MPD1     C 3623   2.010   1.909  14.740 -0.1347 -0.6765 -0.4952
  239MPD1    C1 3624   2.051   1.835  14.632  0.6630 -0.0312  0.7344
  239MPD1    C2 3625   2.046   1.903  14.504  0.5162 -0.0798 -0.3221
  239MPD1    C3 3626   1.962   2.004  14.480 -0.4180 -0.0880 -0.1453
  239MPD1    C4 3627   1.907   2.063  14.593  0.3273 -0.2081  0.3360
  239MPD1    C5 3628   1.938   2.024  14.717 -0.5856 -0.1167 -0.5195
  239MPD1     H 3629   2.100   1.859  14.421 -0.4945 -0.9990 -0.4899
  239MPD1    H1 3630   1.848   2.153  14.575  0.2185 -0.0395  1.5573
  239MPD1    H2 3631   2.044   1.881  14.839  1.1244 -0.7936 -0.9628
  239MPD1    H3 3632   1.883   2.071  14.798  0.4595 -0.0076  0.1308
  239MPD1     N 3633   1.926   2.050  14.352  0.3127 -0.7037 -0.8915
  239MPD1    H5 3634   1.850   2.117  14.353  0.9052 -0.0651  0.5738
  239MPD1    N1 3635   2.133   1.723  14.664 -0.6744 -1.0901  0.4350
  239MPD1    H6 3636   2.133   1.656  14.588  0.6986 -0.6988  0.0919
  239MPD1    H7 3637   2.106   1.676  14.750 -0.4864  0.0452  1.1152
  240MPD1     C 3638   0.601   1.335  12.564  0.4012  1.0948 -0.3606
  240MPD1    C1 3639   0.691   1.425  12.596  0.5187 -0.1360  0.3386
  240MPD1    C2 3640   0.737   1.438  12.724 -0.4734 -0.2983 -0.2660
  240MPD1    C3 3641   0.713   1.350  12.826  0.0387 -0.1126  0.0851
  240MPD1    C4 3642   0.639   1.242  12.793 -0.4107 -0.0149  0.2244
  240MPD1    C5 3643   0.586   1.239  12.660 -0.5976 -0.5701  0.5579
  240MPD1     H 3644   0.795   1.528  12.744  0.3897 -0.7831 -0.5612
  240MPD1    H1 3645   0.614   1.159  12.857 -0.4134  0.4029  0.7677
  240MPD1    H2 3646   0.563   1.325  12.463  0.6582 -0.2627 -0.3236
  240MPD1    H3 3647   0.538   1.148  12.624  1.6983 -1.6135  0.0857
  240MPD1     N 3648   0.751   1.385  12.958  0.7133 -0.1152 -0.2807
  240MPD1    H5 3649   0.794   1.476  12.966 -1.5133  1.1014 -2.1451
  240MPD1    N1 3650   0.714   1.539  12.510 -0.0527  0.3799 -0.6148
  240MPD1    H6 3651   0.801   1.586  12.532 -0.8587  1.3371  0.5335
  240MPD1    H7 3652   0.706   1.500  12.416  0.8080  0.1282 -0.5799
  241MPD1     C 3653   1.361   1.918  13.061 -0.1153  0.4034 -0.3327
  241MPD1    C1 3654   1.299   1.937  13.185 -0.1127  0.9208  0.0133
  241MPD1    C2 3655   1.225   1.829  13.231 -0.1207  0.5367 -0.2291
  241MPD1    C3 3656   1.219   1.710  13.161  0.1744 -0.3090  0.1309
  241MPD1    C4 3657   1.291   1.695  13.045  0.0112 -0.0613 -0.3091
  241MPD1    C5 3658   1.353   1.803  12.995 -1.3379  0.2178 -0.5687
  241MPD1     H 3659   1.178   1.853  13.326 -0.0205  1.5481 -0.4303
  241MPD1    H1 3660   1.279   1.608  12.982 -2.6828 -0.1090  0.2430
  241MPD1    H2 3661   1.412   2.001  13.015  0.8124  1.4095  2.4663
  241MPD1    H3 3662   1.399   1.794  12.897 -0.5882  0.9186 -0.2877
  241MPD1     N 3663   1.137   1.601  13.193 -0.3422  0.0828 -0.2556
  241MPD1    H5 3664   1.137   1.514  13.141  2.5684  0.0648 -0.1905
  241MPD1    N1 3665   1.294   2.062  13.244  0.0269 -0.1227 -0.3596
  241MPD1    H6 3666   1.293   2.051  13.345  0.2997 -2.4376 -0.5913
  241MPD1    H7 3667   1.371   2.119  13.209  0.7945 -1.0793 -0.2523
  242MPD1     C 3668   0.866   4.053  15.990  0.3119  0.1438 -0.4501
  242MPD1    C1 3669   0.781   4.057  15.881  0.9650 -0.2258  0.4623
  242MPD1    C2 3670   0.826   4.127  15.762 -0.2616  0.8985 -0.3815
  242MPD1    C3 3671   0.936   4.211  15.757 -0.2504  0.7954  0.1634
  242MPD1    C4 3672   1.003   4.222  15.878 -0.6048 -0.1239  0.1934
  242MPD1    C5 3673   0.970   4.147  15.985  0.7197 -0.2603 -0.1309
  242MPD1     H 3674   0.769   4.108  15.672 -1.0824  1.4542  0.0220
  242MPD1    H1 3675   1.100   4.270  15.877 -0.7750  0.2072 -0.7637
  242MPD1    H2 3676   0.859   3.984  16.074 -0.4299  1.0740  0.2523
  242MPD1    H3 3677   1.041   4.162  16.066  0.9406 -0.6234 -0.2552
  242MPD1     N 3678   0.979   4.291  15.650  0.1259  0.7007 -0.0528
  242MPD1    H5 3679   1.065   4.344  15.661 -0.5465  1.7456  0.2309
  242MPD1    N1 3680   0.669   3.973  15.870  0.0254  0.2529 -0.1398
  242MPD1    H6 3681   0.625   3.963  15.962 -1.5963  0.0850 -0.9201
  242MPD1    H7 3682   0.596   4.024  15.821 -1.5644 -4.1416 -2.3566
  243MPD1     C 3683   1.367   3.555   0.261  0.6450  0.0611 -0.0333
  243MPD1    C1 3684   1.391   3.418   0.271  0.4459 -0.4375 -0.4172
  243MPD1    C2 3685   1.457   3.364   0.160  0.0257 -0.0420 -0.2506
  243MPD1    C3 3686   1.491   3.438   0.052  0.0998 -0.6596 -1.0561
  243MPD1    C4 3687   1.468   3.574   0.051  0.2509  0.3130 -0.4819
  243MPD1    C5 3688   1.396   3.634   0.152  0.0872  0.3911  0.1992
  243MPD1     H 3689   1.477   3.257   0.163  0.5707 -0.0022 -2.3521
  243MPD1    H1 3690   1.507   3.645  17.690  0.4421  0.9372  0.2373
  243MPD1    H2 3691   1.312   3.603   0.341  0.2982 -1.9069  0.9259
  243MPD1    H3 3692   1.375   3.741   0.154  1.2566  0.6948 -2.5676
  243MPD1     N 3693   1.573   3.373  17.665 -0.5582 -0.3002  0.5298
  243MPD1    H5 3694   1.598   3.277  17.684 -1.3484 -0.7328 -0.5894
  243MPD1    N1 3695   1.354   3.351   0.392  0.1370  0.1576  0.3415
  243MPD1    H6 3696   1.285   3.276   0.386  1.3339 -0.8195 -1.3400
  243MPD1    H7 3697   1.326   3.408   0.471 -2.1120  0.7615 -0.9066
  244MPD1     C 3698   1.980   2.623   0.059 -0.5129 -0.3266  0.0877
  244MPD1    C1 3699   1.910   2.710   0.126  0.4880  0.3526  0.1749
  244MPD1    C2 3700   1.861   2.825   0.062  0.6577 -0.1598 -0.2502
  244MPD1    C3 3701   1.886   2.849  17.637  0.2641 -0.3587  0.1124
  244MPD1    C4 3702   1.961   2.752  17.574 -0.4376  0.6391  0.3106
  244MPD1    C5 3703   2.003   2.636  17.632  0.8595  0.7875 -0.1503
  244MPD1     H 3704   1.822   2.899   0.130 -1.9465 -0.9827 -0.8588
  244MPD1    H1 3705   1.990   2.759  17.470 -0.1986  1.7824  0.4620
  244MPD1    H2 3706   2.018   2.532   0.104 -1.7770  0.4555  2.7913
  244MPD1    H3 3707   2.061   2.565  17.573 -2.6660 -2.6518  0.5028
  244MPD1     N 3708   1.829   2.961  17.571 -0.1150 -0.3720  0.3969
  244MPD1    H5 3709   1.763   3.015  17.626  0.9377  2.1189 -0.8205
  244MPD1    N1 3710   1.904   2.692   0.267 -0.1446 -0.6930  0.3191
  244MPD1    H6 3711   1.914   2.593   0.291  1.2365 -0.8966 -1.0936
  244MPD1    H7 3712   1.812   2.729   0.291  0.5601  0.3465  1.4110
  245MPD1     C 3713   4.172   4.289  13.041  0.1964 -0.0213 -0.2673
  245MPD1    C1 3714   4.253   4.399  13.019  0.9310 -0.1250  0.5558
  245MPD1    C2 3715   4.355   4.414  13.108 -0.3670 -0.1720  0.5048
  245MPD1    C3 3716   4.367   4.342  13.223 -0.1801 -0.1581  0.8679
  245MPD1    C4 3717   4.289   4.233  13.239  0.3968 -0.6916  0.1529
  245MPD1    C5 3718   4.190   4.206  13.150  0.4206 -0.5154  0.6140
  245MPD1     H 3719   4.418   4.502  13.100 -1.0982  0.2551 -0.5832
  245MPD1    H1 3720   4.289   4.185  13.336  2.0032  1.4391  1.2084
  245MPD1    H2 3721   4.106   4.262  12.959 -1.1461  1.7149  0.2432
  245MPD1    H3 3722   4.137   4.111  13.151 -1.6565  0.6186 -1.6182
  245MPD1     N 3723   4.456   4.390  13.323  0.4270 -0.1436 -0.1497
  245MPD1    H5 3724   4.509   4.475  13.306  1.1767 -0.7178 -0.6753
  245MPD1    N1 3725   4.254   4.467  12.897 -0.1584  0.1317  0.2433
  245MPD1    H6 3726   4.160   4.486  12.865  0.6280  0.5832 -1.7915
  245MPD1    H7 3727   4.302   4.557  12.898 -0.1295  0.1089  1.3425
  246MPD1     C 3728   3.846   1.213   9.335  0.3755 -0.0305  0.3439
  246MPD1    C1 3729   3.952   1.229   9.254 -0.1327 -0.4656  0.5156
  246MPD1    C2 3730   4.062   1.157   9.280 -0.0280 -0.6679 -0.3457
  246MPD1    C3 3731   4.071   1.076   9.397 -0.1129 -0.2995 -0.0231
  246MPD1    C4 3732   3.964   1.065   9.479  0.4774  0.7182 -0.1040
  246MPD1    C5 3733   3.852   1.130   9.444  0.1349  0.2763 -0.1161
  246MPD1     H 3734   4.157   1.174   9.230 -0.9609 -1.0146 -2.2417
  246MPD1    H1 3735   3.980   1.025   9.578 -1.2910 -0.9048 -0.4766
  246MPD1    H2 3736   3.753   1.268   9.324  1.2535  1.5498  0.8730
  246MPD1    H3 3737   3.776   1.142   9.521 -0.6861 -1.2253 -0.6988
  246MPD1     N 3738   4.196   1.027   9.425 -0.5200 -0.5929 -0.9171
  246MPD1    H5 3739   4.276   1.055   9.370 -1.8359  1.0785 -1.9692
  246MPD1    N1 3740   3.927   1.305   9.132 -0.2193  0.0572  0.1999
  246MPD1    H6 3741   4.005   1.363   9.102 -1.4705  2.1571  0.9916
  246MPD1    H7 3742   3.842   1.361   9.125 -1.0332 -0.7995  3.1021
  247MPD1     C 3743   3.203   3.687  16.384 -0.3237  0.5673  0.3987
  247MPD1    C1 3744   3.200   3.762  16.271  0.3408 -0.2983 -0.8121
  247MPD1    C2 3745   3.281   3.722  16.169  0.9803  0.1429 -0.3822
  247MPD1    C3 3746   3.359   3.611  16.171  0.8907 -0.4077 -0.2104
  247MPD1    C4 3747   3.357   3.536  16.287  0.1785 -0.6728  0.4918
  247MPD1    C5 3748   3.278   3.571  16.397 -0.0466  0.5213  0.3070
  247MPD1     H 3749   3.276   3.774  16.074  1.7569  1.6326  0.3939
  247MPD1    H1 3750   3.410   3.442  16.296 -1.1866 -1.2256  2.5731
  247MPD1    H2 3751   3.153   3.712  16.477 -1.0958 -1.1225  0.4430
  247MPD1    H3 3752   3.279   3.513  16.488 -1.6860 -1.4670 -0.9181
  247MPD1     N 3753   3.448   3.572  16.066  0.3588 -0.8124 -0.6367
  247MPD1    H5 3754   3.499   3.484  16.072 -0.3927 -1.2744 -1.0299
  247MPD1    N1 3755   3.136   3.887  16.258  0.7385 -0.0269 -0.4280
  247MPD1    H6 3756   3.097   3.908  16.166 -0.0347 -1.5436 -0.4443
  247MPD1    H7 3757   3.060   3.898  16.325  0.6633 -0.6513 -0.4055
  248MPD1     C 3758   3.636   3.996   1.064 -0.0111 -0.0509 -0.8099
  248MPD1    C1 3759   3.537   4.081   1.043  0.2702 -0.7600 -0.5962
  248MPD1    C2 3760   3.437   4.032   0.957  0.2585  0.2107  0.0511
  248MPD1    C3 3761   3.454   3.915   0.887  0.4555  0.1051 -0.1263
  248MPD1    C4 3762   3.570   3.846   0.881 -0.5743 -0.0604 -0.5765
  248MPD1    C5 3763   3.663   3.890   0.977  0.2384 -0.5531  0.4061
  248MPD1     H 3764   3.339   4.077   0.958 -0.8388 -2.1630 -2.1646
  248MPD1    H1 3765   3.595   3.755   0.827 -0.6277 -1.2344  1.3491
  248MPD1    H2 3766   3.728   4.031   1.111 -2.0590  1.8213  1.8068
  248MPD1    H3 3767   3.756   3.836   0.988  0.3971 -0.3555  0.0388
  248MPD1     N 3768   3.347   3.879   0.797 -0.1539 -0.2437  0.2908
  248MPD1    H5 3769   3.261   3.931   0.785 -0.2622 -0.3553  0.5785
  248MPD1    N1 3770   3.504   4.191   1.129  0.6583 -0.1574  0.0781
  248MPD1    H6 3771   3.444   4.263   1.090 -1.9343 -1.4719  1.6844
  248MPD1    H7 3772   3.589   4.242   1.153  1.2767 -0.9382 -0.4820
  249MPD1     C 3773   0.490   1.682  10.781 -0.2131  0.0845 -1.1127
  249MPD1    C1 3774   0.594   1.589  10.771 -0.0858  0.4751 -0.0375
  249MPD1    C2 3775   0.679   1.602  10.664  0.0434  0.2052  0.5340
  249MPD1    C3 3776   0.663   1.711  10.576 -0.3011  0.2252  0.8071
  249MPD1    C4 3777   0.560   1.798  10.589  0.2241 -1.4493 -0.3174
  249MPD1    C5 3778   0.476   1.790  10.696  0.3685  0.2421  0.7244
  249MPD1     H 3779   0.765   1.538  10.654 -2.3040 -2.6556 -1.4991
  249MPD1    H1 3780   0.538   1.887  10.533  2.1288  0.4763  1.9942
  249MPD1    H2 3781   0.419   1.665  10.861  2.0863 -1.2566  0.6756
  249MPD1    H3 3782   0.401   1.865  10.716 -0.4930  0.0936 -1.9258
  249MPD1     N 3783   0.748   1.716  10.460  0.0988 -0.0849 -0.1786
  249MPD1    H5 3784   0.814   1.640  10.444  0.3525 -0.2934  1.8096
  249MPD1    N1 3785   0.602   1.475  10.859 -0.7460  0.2296  1.0485
  249MPD1    H6 3786   0.700   1.445  10.859 -1.6305 -2.6639 -1.1054
  249MPD1    H7 3787   0.577   1.478  10.958 -0.1457  1.1721  1.1773
  250MPD2     C 3788   2.777   2.821  12.982 -0.8510  0.2638  0.8007
  250MPD2    C1 3789   2.723   2.879  12.866  0.6230  0.0657  0.0391
  250MPD2    C2 3790   2.651   2.785  12.793 -0.1646 -0.6557 -0.1161
  250MPD2    C3 3791   2.620   2.654  12.827  0.1137  0.1549 -0.0580
  250MPD2    C4 3792   2.665   2.616  12.948  0.1470 -0.4058  0.4809
  250MPD2    C5 3793   2.744   2.696  13.024  0.5734 -0.1486 -0.1071
  250MPD2     H 3794   2.622   2.812  12.692 -1.0991  0.7992  0.5512
  250MPD2    H1 3795   2.664   2.512  12.980  0.3858 -0.3604  0.6370
  250MPD2    H2 3796   2.866   2.866  13.026  0.7442 -1.6675 -0.4089
  250MPD2    H3 3797   2.797   2.662  13.112  0.1101 -2.2061 -0.6034
  250MPD2     N 3798   2.562   2.555  12.744 -0.1707 -0.7311 -0.0710
  250MPD2    H5 3799   2.577   2.459  12.774  0.2585 -0.5477  0.2983
  250MPD2    N1 3800   2.756   3.009  12.817 -0.1113 -0.1518  0.2303
  250MPD2    H7 3801   2.812   3.062  12.883  1.6070  0.3285 -1.6184
  251TMC3    C1 3802   2.779   3.188  12.678  0.6198  0.1617 -0.0640
  251TMC3    C2 3803   2.705   3.294  12.715 -0.1838 -0.2441 -0.0442
  251TMC3    C3 3804   2.767   3.404  12.760  0.0333  0.0893 -0.0423
  251TMC3    C4 3805   2.915   3.180  12.705  0.7010 -0.2586  0.3685
  251TMC3    C5 3806   2.975   3.288  12.765  0.5920 -0.3229 -0.0448
  251TMC3    C6 3807   2.900   3.402  12.795 -0.2573  0.1293  0.1334
  251TMC3     C 3808   2.717   3.063  12.699  0.8590  0.0896 -0.4540
  251TMC3     O 3809   2.615   3.035  12.639  0.0582  0.1723  0.6273
  251TMC3     H 3810   2.598   3.288  12.702 -0.1635 -2.0117  0.6052
  251TMC3    H1 3811   2.979   3.094  12.691  0.6836 -0.4470  1.4093
  251TMC3    H2 3812   2.949   3.487  12.841 -2.7703  0.7445  1.7139
  251TMC3    C7 3813   3.041   3.241  12.881  0.0355  0.5334 -0.0660
  251TMC3    C8 3814   2.676   3.485  12.835 -0.2263 -0.4891  0.1447
  251TMC3    O1 3815   2.990   3.147  12.947 -0.2908 -0.0939  0.1378
  251TMC3    O2 3816   2.558   3.449  12.849 -0.4839 -0.5230 -0.3240
  252TMC3    C1 3817   3.144   2.658   9.417 -0.8251  0.9866 -0.3740
  252TMC3    C2 3818   3.213   2.779   9.402  0.3247 -0.6705  0.1259
  252TMC3    C3 3819   3.165   2.876   9.317  0.2258 -0.3518 -0.3946
  252TMC3    C4 3820   3.028   2.647   9.340  0.7554  0.3450  0.2464
  252TMC3    C5 3821   2.990   2.744   9.246  0.0209 -0.0956 -0.4868
  252TMC3    C6 3822   3.057   2.859   9.237  0.0758  0.2793 -0.2783
  252TMC3     C 3823   3.171   2.563   9.521 -0.6455 -0.1296 -0.3984
  252TMC3     O 3824   3.088   2.473   9.538  0.2897 -0.1884 -0.0666
  252TMC3     H 3825   3.299   2.805   9.463  0.6347  0.9180 -0.9835
  252TMC3    H1 3826   2.981   2.550   9.343  1.6562 -0.1095 -0.5288
  252TMC3    H2 3827   3.020   2.937   9.171  0.7587  2.4116  1.8313
  252TMC3    C7 3828   2.875   2.716   9.155  0.2816  0.4232 -0.1724
  252TMC3    C8 3829   3.240   2.996   9.307  0.1049  0.0866  0.1984
  252TMC3    O1 3830   2.815   2.817   9.107  0.0102 -0.6959  0.2434
  252TMC3    O2 3831   3.347   3.000   9.368 -0.0102 -0.6711 -0.5245
  253MPD2     C 3832   4.086   2.518  15.456 -0.5809  0.3625  0.0197
  253MPD2    C1 3833   3.970   2.585  15.417  0.3844  0.1883 -0.2737
  253MPD2    C2 3834   3.868   2.594  15.514 -0.1945  0.3360 -0.7571
  253MPD2    C3 3835   3.871   2.525  15.639  0.7845  0.5487 -0.1561
  253MPD2    C4 3836   3.990   2.459  15.666 -0.2168 -1.0710  0.1948
  253MPD2    C5 3837   4.099   2.457  15.578  0.2376  0.2543 -0.1490
  253MPD2     H 3838   3.774   2.638  15.485 -0.3836  0.5331  0.1501
  253MPD2    H1 3839   4.011   2.414  15.762  2.6277 -1.7034 -0.7299
  253MPD2    H2 3840   4.170   2.515  15.387 -0.2852 -2.6627  0.5110
  253MPD2    H3 3841   4.194   2.411  15.603  0.3170 -0.0184 -0.9532
  253MPD2     N 3842   3.776   2.530  15.735  0.1790  0.2121 -0.5363
  253MPD2    H5 3843   3.799   2.477  15.819 -2.9586  0.7417  0.6714
  253MPD2    N1 3844   3.952   2.649  15.293  0.3891  0.3818  0.5653
  253MPD2    H7 3845   3.871   2.710  15.283  0.6300  0.4305 -1.1169
  254TMC3    C1 3846   3.581   2.573  15.854 -0.4077 -0.1934 -1.0204
  254TMC3    C2 3847   3.450   2.604  15.842  1.0759  0.1087  0.3191
  254TMC3    C3 3848   3.378   2.637  15.955 -0.0329 -0.7665  0.8618
  254TMC3    C4 3849   3.653   2.581  15.973 -0.0740 -0.1620  0.9407
  254TMC3    C5 3850   3.585   2.633  16.079  0.0883  0.9064 -0.9654
  254TMC3    C6 3851   3.446   2.645  16.074 -1.1085  1.1562 -0.3135
  254TMC3     C 3852   3.652   2.570  15.725 -0.3343 -0.0138 -0.3407
  254TMC3     O 3853   3.591   2.600  15.627 -0.3269 -0.1889 -0.2660
  254TMC3     H 3854   3.414   2.595  15.740  1.1448 -1.9418  0.4711
  254TMC3    H1 3855   3.753   2.540  15.983  0.8631  1.7706 -0.5548
  254TMC3    H2 3856   3.391   2.681  16.160  1.4453  1.0543  1.3569
  254TMC3    C7 3857   3.646   2.640  16.216 -0.3803  0.3618 -0.5109
  254TMC3    C8 3858   3.237   2.684  15.945 -0.2962 -0.1257 -0.7802
  254TMC3    O1 3859   3.571   2.648  16.314 -0.4615  0.0746  0.1778
  254TMC3    O2 3860   3.179   2.688  15.835 -0.1718 -0.0199  0.4635
  255MPD2     C 3861   1.707   0.362   9.850 -0.3108  0.7578 -0.0631
  255MPD2    C1 3862   1.818   0.404   9.922 -0.0985  0.0160  0.0174
  255MPD2    C2 3863   1.943   0.400   9.864  1.0000 -0.1436 -0.6963
  255MPD2    C3 3864   1.964   0.337   9.740 -0.3589  0.4019  0.2060
  255MPD2    C4 3865   1.851   0.302   9.673 -0.4845 -1.1761 -0.3938
  255MPD2    C5 3866   1.727   0.309   9.725 -0.0406 -0.4950 -0.0300
  255MPD2     H 3867   2.029   0.438   9.917  1.2178  0.3081 -1.3706
  255MPD2    H1 3868   1.853   0.256   9.575  1.8161 -0.9807 -0.4215
  255MPD2    H2 3869   1.612   0.389   9.893  0.1605  1.7534  0.3580
  255MPD2    H3 3870   1.639   0.272   9.675 -0.8218  1.3167  0.0028
  255MPD2     N 3871   2.101   0.328   9.690  0.8201  0.2898 -0.4297
  255MPD2    H5 3872   2.176   0.361   9.749 -0.1904 -0.6595  1.4030
  255MPD2    N1 3873   1.795   0.479  10.044 -0.5649 -0.1792  0.1604
  255MPD2    H7 3874   1.700   0.474  10.081 -1.1809  0.2151 -1.3470
  256TMC3    C1 3875   1.841   0.690  10.143  0.9398 -0.3193 -0.1899
  256TMC3    C2 3876   1.950   0.771  10.102 -0.1740 -0.1972  0.0933
  256TMC3    C3 3877   1.924   0.872  10.007  0.0658  0.1445  0.4250
  256TMC3    C4 3878   1.719   0.720  10.085 -1.1878 -0.0725  0.7491
  256TMC3    C5 3879   1.702   0.824   9.997 -0.4784  0.0018  0.2251
  256TMC3    C6 3880   1.801   0.904   9.953 -0.0559  0.7059 -0.1348
  256TMC3     C 3881   1.890   0.556  10.104 -0.2784 -1.1025 -0.7931
  256TMC3     O 3882   2.007   0.535  10.119  0.1931  0.0056 -0.3908
  256TMC3     H 3883   2.050   0.752  10.137  0.3544  2.3500 -0.0211
  256TMC3    H1 3884   1.640   0.659  10.127 -1.3373  0.3615  1.1030
  256TMC3    H2 3885   1.784   0.984   9.882 -0.2089  1.0273  0.2634
  256TMC3    C7 3886   1.573   0.826   9.932 -0.8786  0.4491  1.0190
  256TMC3    C8 3887   2.037   0.946   9.965  0.1393 -0.2334 -0.9604
  256TMC3    O1 3888   1.523   0.713   9.933  0.6173  0.5326 -0.5455
  256TMC3    O2 3889   2.124   0.949  10.053 -0.4192  0.0309 -0.1127
  257MPD2     C 3890   1.826   2.709  12.604  0.1487  0.6953 -0.0112
  257MPD2    C1 3891   1.799   2.596  12.532  0.4162 -0.0365 -0.0833
  257MPD2    C2 3892   1.770   2.478  12.596  0.1967 -0.7172  0.2803
  257MPD2    C3 3893   1.780   2.467  12.733 -0.2525  0.4154  0.1775
  257MPD2    C4 3894   1.819   2.576  12.806  0.0149 -0.0159 -1.0811
  257MPD2    C5 3895   1.836   2.702  12.741  0.0189 -0.5471  0.4103
  257MPD2     H 3896   1.744   2.387  12.542  1.1516 -1.7918  1.6179
  257MPD2    H1 3897   1.822   2.580  12.914 -0.9520  0.6011 -1.0836
  257MPD2    H2 3898   1.846   2.803  12.553  2.2447 -0.1449 -0.7084
  257MPD2    H3 3899   1.851   2.790  12.803 -0.4159 -0.9545  1.0980
  257MPD2     N 3900   1.760   2.342  12.799 -0.2530 -0.1668 -0.1743
  257MPD2    H5 3901   1.749   2.260  12.740  1.0670 -0.3034 -0.2425
  257MPD2    N1 3902   1.785   2.610  12.389  0.0047  0.2070 -0.0023
  257MPD2    H7 3903   1.798   2.701  12.346  1.3934 -0.7713 -1.6431
  258TMC3    C1 3904   1.753   2.180  12.967  0.3958  0.2074  0.5403
  258TMC3    C2 3905   1.820   2.084  12.891  0.9555  0.5624 -0.6098
  258TMC3    C3 3906   1.838   1.960  12.943 -0.2132 -0.0410  0.1691
  258TMC3    C4 3907   1.726   2.158  13.095  0.1031 -0.2749 -0.3240
  258TMC3    C5 3908   1.767   2.037  13.147 -0.4736 -0.3953 -0.3345
  258TMC3    C6 3909   1.817   1.928  13.076  0.6689 -0.4404  0.0693
  258TMC3     C 3910   1.766   2.315  12.932 -0.4844 -0.1196  0.1441
  258TMC3     O 3911   1.782   2.391  13.024 -0.0224 -0.4153 -0.3726
  258TMC3     H 3912   1.856   2.103  12.791  0.3723 -0.5124 -1.0269
  258TMC3    H1 3913   1.660   2.224  13.150  0.4096 -0.9633  0.8545
  258TMC3    H2 3914   1.830   1.831  13.121 -2.5345 -1.6234 -1.5348
  258TMC3    C7 3915   1.704   2.002  13.275  0.2031 -0.3405 -0.4156
  258TMC3    C8 3916   1.925   1.872  12.865 -0.1921  0.2714  0.1509
  258TMC3    O1 3917   1.603   2.063  13.313 -0.0637 -0.9321 -0.1699
  258TMC3    O2 3918   1.982   1.920  12.768 -0.4806 -0.2005  0.2629
  259MPD2     C 3919   3.958   4.180   0.325  0.2000 -0.3700 -0.2297
  259MPD2    C1 3920   4.052   4.213   0.419 -0.1862 -1.2210  0.3711
  259MPD2    C2 3921   4.174   4.158   0.417 -0.6475  0.0873 -0.3132
  259MPD2    C3 3922   4.206   4.073   0.310  0.0777 -0.1648 -0.2619
  259MPD2    C4 3923   4.108   4.043   0.218 -0.7883 -0.5710 -0.3108
  259MPD2    C5 3924   3.984   4.092   0.223 -0.0403 -0.0917 -0.0718
  259MPD2     H 3925   4.253   4.183   0.486 -1.4649  0.0559  0.6316
  259MPD2    H1 3926   4.131   3.967   0.144  0.6035 -0.8505  0.4151
  259MPD2    H2 3927   3.858   4.222   0.324 -0.2064 -1.2618  3.5829
  259MPD2    H3 3928   3.916   4.064   0.144  0.6576 -0.1068 -0.6680
  259MPD2     N 3929   4.334   4.015   0.314  0.4012 -0.4877  0.3118
  259MPD2    H5 3930   4.382   4.031   0.402  0.2166 -1.4334  0.5944
  259MPD2    N1 3931   4.024   4.317   0.509  0.4705 -0.2629 -0.1422
  259MPD2    H7 3932   3.930   4.354   0.507  1.0919  1.1880 -1.8444
  260TMC3    C1 3933   4.520   3.902   0.235 -0.1820 -0.8142 -0.5262
  260TMC3    C2 3934   4.591   3.882   0.118 -0.2905  0.0844 -0.2412
  260TMC3    C3 3935   4.707   3.799   0.118 -0.0046 -0.3039 -0.3608
  260TMC3    C4 3936   4.548   3.832   0.345 -0.2215 -0.1959  0.2947
  260TMC3    C5 3937   4.654   3.749   0.339  0.2355 -0.6535 -0.5866
  260TMC3    C6 3938   0.013   3.728   0.233 -0.2418 -0.1505 -0.1077
  260TMC3     C 3939   4.386   3.952   0.208  0.4138  0.7185 -0.9253
  260TMC3     O 3940   4.333   3.939   0.098  0.1909  0.2661  0.1403
  260TMC3     H 3941   4.575   3.942   0.029 -1.5504  3.5213  2.3347
  260TMC3    H1 3942   4.489   3.833   0.437 -2.4920 -2.4613 -1.1092
  260TMC3    H2 3943   0.092   3.655   0.240 -0.6085 -0.6014 -0.7007
  260TMC3    C7 3944   4.696   3.681   0.460  0.0787  0.3656 -0.2912
  260TMC3    C8 3945   0.065   3.786   0.000  0.3959 -0.1770  0.0851
  260TMC3    O1 3946   0.009   3.565   0.437 -0.7458 -0.4173 -0.2927
  260TMC3    O2 3947   0.016   3.815  17.601 -0.2299 -0.6461  0.7370
  261MPD2     C 3948   2.349   2.114  11.935  1.3565  0.0968  0.7444
  261MPD2    C1 3949   2.375   2.240  11.990  0.3611 -0.5121 -0.2195
  261MPD2    C2 3950   2.396   2.343  11.905 -0.2277 -0.6242  0.5040
  261MPD2    C3 3951   2.384   2.336  11.764 -0.4199  0.7001  0.1753
  261MPD2    C4 3952   2.365   2.206  11.715 -0.5074  0.1566  0.6277
  261MPD2    C5 3953   2.348   2.101  11.802  0.3582  0.8059 -0.3242
  261MPD2     H 3954   2.434   2.437  11.944 -0.8168  0.1331 -0.7398
  261MPD2    H1 3955   2.358   2.188  11.609 -4.0453  0.0529  0.8688
  261MPD2    H2 3956   2.331   2.036  12.008  1.4283  0.8313  1.5629
  261MPD2    H3 3957   2.336   2.002  11.760  2.6337  0.5568 -0.4058
  261MPD2     N 3958   2.400   2.450  11.685 -0.1716 -0.6766  0.8822
  261MPD2    H5 3959   2.423   2.536  11.732  0.8372 -0.5769  0.1945
  261MPD2    N1 3960   2.397   2.251  12.129 -0.1807 -0.4800  0.5183
  261MPD2    H7 3961   2.379   2.177  12.196  0.2358 -1.0726 -0.0216
  262TMC3    C1 3962   2.443   2.583  11.497 -0.3901 -1.1888  1.0240
  262TMC3    C2 3963   2.373   2.682  11.557 -1.1596 -0.4160 -0.0965
  262TMC3    C3 3964   2.402   2.807  11.513  0.4153  0.5791 -0.4503
  262TMC3    C4 3965   2.531   2.600  11.400 -0.4684 -0.0625 -0.8715
  262TMC3    C5 3966   2.558   2.732  11.357 -0.3438  0.2968  0.2084
  262TMC3    C6 3967   2.504   2.839  11.421  0.5202 -0.3716  0.8684
  262TMC3     C 3968   2.415   2.445  11.548  0.4819  0.4493 -0.7356
  262TMC3     O 3969   2.441   2.354  11.469  0.5093 -0.4590 -0.2003
  262TMC3     H 3970   2.295   2.657  11.628  0.2127 -2.7704  0.5959
  262TMC3    H1 3971   2.591   2.518  11.363 -2.7864 -1.2503 -1.9163
  262TMC3    H2 3972   2.499   2.941  11.383  1.4481 -1.2908 -1.7258
  262TMC3    C7 3973   2.594   2.759  11.217 -0.8293  0.4294  0.1850
  262TMC3    C8 3974   2.327   2.919  11.565 -0.1916  0.3422  0.5367
  262TMC3    O1 3975   2.556   2.863  11.161  0.0621  0.2015  0.4856
  262TMC3    O2 3976   2.380   3.032  11.548 -0.5834 -0.5999 -0.7591
  263MPD2     C 3977   2.966   1.346  11.254  0.7205  0.3476  0.1960
  263MPD2    C1 3978   3.042   1.461  11.269 -0.2308  0.1217  0.1452
  263MPD2    C2 3979   3.079   1.537  11.155 -0.1658 -0.2923  0.3910
  263MPD2    C3 3980   3.050   1.491  11.029 -0.1455  0.1131 -0.1947
  263MPD2    C4 3981   2.979   1.375  11.013 -0.0159 -0.2234 -0.0107
  263MPD2    C5 3982   2.931   1.311  11.125 -0.2790 -0.3883 -0.0613
  263MPD2     H 3983   3.124   1.634  11.167  2.0940 -0.7956 -3.9310
  263MPD2    H1 3984   2.958   1.336  10.914  0.9537 -1.0436  0.1064
  263MPD2    H2 3985   2.923   1.289  11.335  0.2050  0.5101  0.0433
  263MPD2    H3 3986   2.867   1.224  11.120 -0.1848 -0.4119 -0.8056
  263MPD2     N 3987   3.073   1.588  10.927 -0.1768  0.1459  0.1306
  263MPD2    H5 3988   3.104   1.683  10.944  3.3928 -1.3190  1.8627
  263MPD2    N1 3989   3.073   1.505  11.404 -0.7286 -0.0400 -0.6229
  263MPD2    H7 3990   3.031   1.455  11.482 -0.4583  1.7846  0.6844
  264TMC3    C1 3991   3.083   1.686  10.716 -0.9204  0.2268 -0.2898
  264TMC3    C2 3992   3.035   1.802  10.770  0.0927 -0.2627  0.1071
  264TMC3    C3 3993   3.071   1.908  10.692 -0.2053 -0.1581 -0.3672
  264TMC3    C4 3994   3.131   1.666  10.592 -0.0247  0.5316 -0.2284
  264TMC3    C5 3995   3.153   1.779  10.519  0.4289 -0.1481  0.2194
  264TMC3    C6 3996   3.129   1.903  10.572  0.4709 -0.0107 -0.2698
  264TMC3     C 3997   3.054   1.565  10.792 -0.0026  0.1204 -0.0303
  264TMC3     O 3998   3.041   1.463  10.728  0.2135  0.6663 -0.3957
  264TMC3     H 3999   2.966   1.809  10.854 -0.9955  0.4287 -0.8368
  264TMC3    H1 4000   3.158   1.568  10.555  2.3364  0.4532  1.6949
  264TMC3    H2 4001   3.176   1.990  10.526  0.4124  0.4692  0.5684
  264TMC3    C7 4002   3.237   1.773  10.405  0.0520 -0.0313  0.3180
  264TMC3    C8 4003   3.071   2.042  10.749  0.4634 -0.1127  0.2533
  264TMC3    O1 4004   3.319   1.682  10.409  0.5128 -1.1320 -0.4575
  264TMC3    O2 4005   3.073   2.131  10.663  0.2140  0.1941 -0.1684
  265MPD2     C 4006   0.279   2.331  14.889  0.0049 -0.2735 -0.7128
  265MPD2    C1 4007   0.387   2.400  14.909  0.3683 -0.5410  0.3736
  265MPD2    C2 4008   0.499   2.369  14.833 -0.5573  0.5326 -0.4809
  265MPD2    C3 4009   0.492   2.282  14.726 -0.6237 -0.2385 -0.2327
  265MPD2    C4 4010   0.373   2.224  14.698 -0.3278 -0.6505  0.2909
  265MPD2    C5 4011   0.269   2.239  14.782  0.3078  0.0992 -0.4761
  265MPD2     H 4012   0.595   2.413  14.858  0.9351 -2.9867  0.0658
  265MPD2    H1 4013   0.363   2.144  14.626 -0.6644 -0.4306  0.0935
  265MPD2    H2 4014   0.185   2.348  14.940  1.0303  2.3966  0.2977
  265MPD2    H3 4015   0.184   2.175  14.765 -0.2273  0.3386  1.2678
  265MPD2     N 4016   0.605   2.242  14.658  0.6798  0.0164  0.8642
  265MPD2    H5 4017   0.583   2.167  14.593  1.2613 -0.2658  0.9999
  265MPD2    N1 4018   0.388   2.492  15.018  0.0095 -0.8673 -0.7294
  265MPD2    H7 4019   0.468   2.555  15.020 -0.1112 -0.7831  1.2711
  266TMC3    C1 4020   0.333   2.603  15.217  0.4739  0.1433  0.4343
  266TMC3    C2 4021   0.334   2.585  15.352  0.1773 -0.4228  0.1297
  266TMC3    C3 4022   0.381   2.678  15.439 -0.4488 -0.3072 -0.5717
  266TMC3    C4 4023   0.375   2.721  15.162 -0.9109 -0.2671 -0.4291
  266TMC3    C5 4024   0.404   2.820  15.255  0.5841 -0.3031  0.7747
  266TMC3    C6 4025   0.409   2.798  15.395  0.3934  0.2699  0.1945
  266TMC3     C 4026   0.304   2.494  15.123  0.4076 -0.9122 -0.3371
  266TMC3     O 4027   0.243   2.395  15.164 -0.8490  0.0650  0.2776
  266TMC3     H 4028   0.292   2.496  15.399 -1.7967  1.1207  1.2769
  266TMC3    H1 4029   0.361   2.732  15.055 -3.0981 -0.0773 -0.1166
  266TMC3    H2 4030   0.438   2.878  15.461 -1.0889  1.7902 -1.0080
  266TMC3    C7 4031   0.387   2.958  15.206  0.0513  0.4605 -0.0433
  266TMC3    C8 4032   0.444   2.624  15.557 -0.3872  0.1988  0.3737
  266TMC3    O1 4033   0.446   2.987  15.102  0.5189  0.0131 -0.6568
  266TMC3    O2 4034   0.487   2.510  15.539  0.4749  0.1740 -0.0787
  267MPD2     C 4035   1.143   4.266   0.390 -0.1069  0.2601  0.6954
  267MPD2    C1 4036   1.201   4.181   0.292  0.0580  0.1064 -0.2381
  267MPD2    C2 4037   1.159   4.188   0.159 -0.6128  0.5802 -0.2005
  267MPD2    C3 4038   1.057   4.277   0.125 -0.3584 -0.4846 -0.7081
  267MPD2    C4 4039   0.991   4.345   0.228 -0.1186  0.0773 -0.0119
  267MPD2    C5 4040   1.030   4.336   0.359  0.3587 -0.0101 -0.6581
  267MPD2     H 4041   1.207   4.135   0.077 -3.0390 -0.1795 -1.1460
  267MPD2    H1 4042   0.906   4.411   0.215  1.5168  2.8223  3.2634
  267MPD2    H2 4043   1.176   4.261   0.493  2.5099  0.5759 -0.1450
  267MPD2    H3 4044   0.976   4.386   0.439 -1.9314 -1.0417 -1.5402
  267MPD2     N 4045   1.023   4.311  17.704 -1.2409  0.2288 -0.1039
  267MPD2    H5 4046   0.956   4.387  17.700  0.0443  1.4453  1.2574
  267MPD2    N1 4047   1.325   4.126   0.339  0.5620 -0.3636  0.0962
  267MPD2    H7 4048   1.350   4.146   0.436  1.4343 -0.6297 -0.0761
  268TMC3    C1 4049   1.523   4.007   0.345  0.3237  0.3550  0.0674
  268TMC3    C2 4050   1.643   3.986   0.274  0.0828 -0.1117 -0.0543
  268TMC3    C3 4051   1.752   3.958   0.344 -0.3694 -0.6599  0.3774
  268TMC3    C4 4052   1.524   4.004   0.481  0.0040  1.3012  0.6344
  268TMC3    C5 4053   1.644   3.986   0.545 -0.3807 -0.2869  0.0539
  268TMC3    C6 4054   1.757   3.960   0.481  0.4097  0.4287  0.4094
  268TMC3     C 4055   1.419   4.061   0.265  0.6581  0.2575 -0.2200
  268TMC3     O 4056   1.416   4.049   0.142 -0.1034  0.0074  0.1020
  268TMC3     H 4057   1.641   3.990   0.165  0.6505  3.1071  0.0515
  268TMC3    H1 4058   1.437   4.025   0.543 -0.1310 -0.9000  1.2235
  268TMC3    H2 4059   1.856   3.957   0.524  0.4650  0.9121  0.3153
  268TMC3    C7 4060   1.645   4.061   0.669  0.6201  0.4189 -0.2427
  268TMC3    C8 4061   1.879   3.936   0.274  0.5442  0.6287  0.3075
  268TMC3    O1 4062   1.563   4.145   0.688 -0.1880  0.2811 -0.1919
  268TMC3    O2 4063   1.961   3.862   0.330  0.0683  0.2028 -0.5321
  269MPD2     C 4064   2.988   2.737  15.548  0.7869  0.5092 -0.0173
  269MPD2    C1 4065   2.855   2.766  15.588 -0.5479 -1.3286  0.0341
  269MPD2    C2 4066   2.814   2.895  15.623  0.1918 -0.0998 -0.3127
  269MPD2    C3 4067   2.911   2.993  15.629 -0.5811 -0.2190  0.5993
  269MPD2    C4 4068   3.044   2.960  15.594 -0.2406  0.2307 -0.9031
  269MPD2    C5 4069   3.084   2.837  15.559  0.0957  0.3638  0.4075
  269MPD2     H 4070   2.709   2.919  15.634  0.5465  1.2822  0.0586
  269MPD2    H1 4071   3.122   3.034  15.604 -0.6750  1.0039 -3.1967
  269MPD2    H2 4072   3.031   2.641  15.525 -2.0828 -0.4308 -1.4050
  269MPD2    H3 4073   3.188   2.812  15.542  0.4971  0.8321  2.1714
  269MPD2     N 4074   2.882   3.125  15.667  0.8273  0.1918 -0.1135
  269MPD2    H5 4075   2.781   3.128  15.673  0.8427 -2.8286  2.0693
  269MPD2    N1 4076   2.762   2.657  15.580 -0.2004 -0.3056 -0.2658
  269MPD2    H7 4077   2.790   2.562  15.557  3.7588  0.5281  1.1390
  270TMC3    C1 4078   2.568   2.538  15.539 -0.1587  0.0870 -0.3602
  270TMC3    C2 4079   2.472   2.530  15.445 -0.0041 -0.2561  0.3048
  270TMC3    C3 4080   2.405   2.414  15.443 -0.2027  0.1331 -0.0359
  270TMC3    C4 4081   2.598   2.441  15.632 -0.2853  0.0346  0.3116
  270TMC3    C5 4082   2.527   2.328  15.622 -0.5514 -0.4280  0.9487
  270TMC3    C6 4083   2.426   2.313  15.535 -0.2688  0.1673  0.2662
  270TMC3     C 4084   2.631   2.674  15.558  0.0817 -0.7936  0.3384
  270TMC3     O 4085   2.567   2.778  15.525 -0.2124  0.3054  0.5892
  270TMC3     H 4086   2.469   2.604  15.366 -0.4930 -0.4257  0.1688
  270TMC3    H1 4087   2.672   2.443  15.711  0.5410 -0.4764 -0.4526
  270TMC3    H2 4088   2.369   2.224  15.512 -2.1613  1.2360  0.8848
  270TMC3    C7 4089   2.608   2.213  15.647 -0.2658  0.6444 -0.1553
  270TMC3    C8 4090   2.403   2.360  15.301  0.2588 -0.2243  0.7281
  270TMC3    O1 4091   2.729   2.217  15.662 -0.7117 -0.8020 -0.2789
  270TMC3    O2 4092   2.494   2.399  15.225 -0.0176  0.4607  0.3435
  271MPD2     C 4093   2.134   2.436  13.713  0.6371  0.3135  0.0329
  271MPD2    C1 4094   2.088   2.452  13.847 -0.4726  0.8345  0.9292
  271MPD2    C2 4095   1.971   2.529  13.867 -0.1698 -0.0501 -0.3176
  271MPD2    C3 4096   1.906   2.597  13.767 -0.0376 -0.1357 -0.7143
  271MPD2    C4 4097   1.954   2.588  13.635 -0.1873 -0.1428 -0.2918
  271MPD2    C5 4098   2.064   2.508  13.615  0.0455  0.1355 -0.0184
  271MPD2     H 4099   1.942   2.546  13.970  0.3875 -1.4262  0.0678
  271MPD2    H1 4100   1.915   2.643  13.550 -0.0854  0.4197  0.0291
  271MPD2    H2 4101   2.223   2.385  13.679  0.8935 -1.0323  2.7356
  271MPD2    H3 4102   2.112   2.509  13.518  3.5803  0.6373  1.7167
  271MPD2     N 4103   1.786   2.670  13.782  0.8732 -0.3355 -0.0798
  271MPD2    H5 4104   1.743   2.696  13.694  2.9930 -1.2947 -1.3904
  271MPD2    N1 4105   2.153   2.402  13.963  0.2717  0.4194  0.0402
  271MPD2    H7 4106   2.121   2.438  14.052 -0.0754 -0.0817  0.1206
  272TMC3    C1 4107   2.325   2.289  14.087 -0.5985 -0.2396 -0.0185
  272TMC3    C2 4108   2.441   2.219  14.092 -0.5293 -0.1598  0.0282
  272TMC3    C3 4109   2.473   2.159  14.207  0.1484 -0.3620  0.2395
  272TMC3    C4 4110   2.250   2.315  14.199  0.5876  0.7591 -0.0797
  272TMC3    C5 4111   2.285   2.255  14.315 -0.4763  0.1198  0.2053
  272TMC3    C6 4112   2.399   2.181  14.323 -1.3675  0.0328  0.3806
  272TMC3     C 4113   2.263   2.318  13.958  0.6478 -0.3085 -0.1013
  272TMC3     O 4114   2.314   2.264  13.863 -0.1884  0.4201 -0.0931
  272TMC3     H 4115   2.495   2.213  13.998  0.3435 -3.2067  0.7110
  272TMC3    H1 4116   2.161   2.376  14.191 -0.0445 -0.2223 -0.6507
  272TMC3    H2 4117   2.423   2.125  14.412 -0.0205  0.7295  0.4531
  272TMC3    C7 4118   2.238   2.301  14.442  0.0616 -0.1533 -1.2595
  272TMC3    C8 4119   2.599   2.080  14.204 -0.2024 -0.2259 -0.0451
  272TMC3    O1 4120   2.117   2.328  14.444  0.4594 -0.4690 -0.7659
  272TMC3    O2 4121   2.663   2.100  14.099  0.0499 -0.1930  0.7827
  273MPD2     C 4122   3.671   0.233  11.984 -0.9313  0.2218  0.8485
  273MPD2    C1 4123   3.777   0.325  11.964  0.8416 -0.1640 -0.0269
  273MPD2    C2 4124   3.779   0.398  11.849  0.5178 -0.3740  0.1591
  273MPD2    C3 4125   3.679   0.380  11.755 -0.7018  1.0114 -0.2846
  273MPD2    C4 4126   3.582   0.293  11.781 -0.3390 -0.4559  0.0287
  273MPD2    C5 4127   3.574   0.219  11.886 -0.5507 -0.1721  0.1058
  273MPD2     H 4128   3.847   0.483  11.845  1.1228 -0.7221  2.8408
  273MPD2    H1 4129   3.505   0.266  11.710 -2.6087  0.1050  2.2923
  273MPD2    H2 4130   3.669   0.165  12.068 -0.7710 -0.6940  0.1101
  273MPD2    H3 4131   3.499   0.140  11.884 -2.0946  1.3248 -0.6746
  273MPD2     N 4132   3.674   0.441  11.629 -0.3672  0.1345 -0.2296
  273MPD2    H5 4133   3.595   0.427  11.568 -1.4233  1.6887  0.7775
  273MPD2    N1 4134   3.865   0.340  12.065  0.6781 -0.2343  0.0837
  273MPD2    H7 4135   3.845   0.281  12.145  1.1223 -1.4060 -0.6549
  274TMC3    C1 4136   3.731   0.591  11.456  0.6291 -0.2021 -0.1104
  274TMC3    C2 4137   3.643   0.535  11.373 -0.7886 -0.0775 -0.5850
  274TMC3    C3 4138   3.586   0.620  11.284  0.5605 -0.4040  0.4795
  274TMC3    C4 4139   3.767   0.725  11.452 -0.3930  0.1456  0.8953
  274TMC3    C5 4140   3.693   0.806  11.379  0.2033  0.4470 -0.2099
  274TMC3    C6 4141   3.609   0.754  11.286  0.5316  0.3949  0.4041
  274TMC3     C 4142   3.774   0.516  11.575 -0.5720  0.5417  0.4390
  274TMC3     O 4143   3.884   0.542  11.628  0.0429 -0.2052 -0.3257
  274TMC3     H 4144   3.627   0.429  11.357 -3.4691  0.5047 -1.8735
  274TMC3    H1 4145   3.844   0.772  11.512  0.3684  0.3910 -0.2710
  274TMC3    H2 4146   3.542   0.825  11.240  3.6013  1.4683 -2.4311
  274TMC3    C7 4147   3.670   0.942  11.421 -0.3677  0.1621 -1.1930
  274TMC3    C8 4148   3.501   0.561  11.188 -0.1018 -0.4211  0.0785
  274TMC3    O1 4149   3.604   1.014  11.347 -0.1365 -0.0118  0.1967
  274TMC3    O2 4150   3.441   0.457  11.219 -0.4141  0.1044 -0.8704
  275MPD2     C 4151   3.512   3.617  14.273  0.0917  0.2468 -0.0896
  275MPD2    C1 4152   3.570   3.568  14.387 -0.8919 -0.2209  0.1534
  275MPD2    C2 4153   3.526   3.443  14.432  0.1637  0.4546  0.4747
  275MPD2    C3 4154   3.415   3.385  14.376  0.2248 -0.4479  0.5311
  275MPD2    C4 4155   3.351   3.444  14.277 -0.5246 -0.6435  0.5665
  275MPD2    C5 4156   3.408   3.553  14.212  0.0935 -0.0545  0.1713
  275MPD2     H 4157   3.561   3.388  14.519 -1.2333 -1.0370  0.0826
  275MPD2    H1 4158   3.257   3.411  14.235  0.0551  1.2600 -2.2015
  275MPD2    H2 4159   3.540   3.711  14.229 -0.5245  0.1563 -0.6892
  275MPD2    H3 4160   3.358   3.589  14.123 -0.8572  0.9205  1.0930
  275MPD2     N 4161   3.363   3.262  14.435  0.2078  0.1269  0.2705
  275MPD2    H5 4162   3.403   3.233  14.524  0.6916  0.7299  0.2464
  275MPD2    N1 4163   3.678   3.634  14.455 -0.5146  0.1495  0.3071
  275MPD2    H7 4164   3.720   3.594  14.539  0.8718  1.3576  0.2015
  276TMC3    C1 4165   3.843   3.779  14.514 -0.4033 -0.1027  0.8555
  276TMC3    C2 4166   3.897   3.670  14.584 -0.5604  0.4101  0.1105
  276TMC3    C3 4167   3.998   3.698  14.671  0.1301  0.4618  0.1578
  276TMC3    C4 4168   3.879   3.910  14.525 -0.1661 -0.0838  0.6134
  276TMC3    C5 4169   3.978   3.932  14.618  0.2950  0.3622 -0.0369
  276TMC3    C6 4170   4.043   3.829  14.688  0.1584 -1.0707  0.1574
  276TMC3     C 4171   3.736   3.750  14.423  0.2070  0.3083  0.5053
  276TMC3     O 4172   3.717   3.840  14.338 -0.2338  0.6244 -0.0384
  276TMC3     H 4173   3.874   3.568  14.553 -0.9488 -0.0444  1.8941
  276TMC3    H1 4174   3.831   3.990  14.470  0.1113 -0.3837 -0.0664
  276TMC3    H2 4175   4.118   3.852  14.763 -1.6050  0.1905  1.5160
  276TMC3    C7 4176   3.970   4.054  14.698  0.6956  0.0075 -0.3746
  276TMC3    C8 4177   4.053   3.605  14.764 -0.4261  0.5343  0.6852
  276TMC3    O1 4178   4.005   4.032  14.811  0.0589 -0.4909 -0.2112
  276TMC3    O2 4179   4.160   3.629  14.818 -0.7243  0.0790  0.2975
  277MPD2     C 4180   0.589   2.676  13.223  0.0129 -0.0962 -0.6698
  277MPD2    C1 4181   0.469   2.732  13.257  0.2022 -0.7356  0.5257
  277MPD2    C2 4182   0.396   2.652  13.349  0.5868  0.5099  0.3602
  277MPD2    C3 4183   0.434   2.533  13.404  0.3618 -0.0673 -0.4274
  277MPD2    C4 4184   0.561   2.482  13.365  0.5803 -0.4150 -1.5662
  277MPD2    C5 4185   0.629   2.558  13.273 -0.2232  0.1093  0.2766
  277MPD2     H 4186   0.301   2.691  13.382  1.1241  0.3120  2.1393
  277MPD2    H1 4187   0.611   2.394  13.404  0.9306 -0.2952 -1.7494
  277MPD2    H2 4188   0.657   2.732  13.160 -2.0810  0.9213 -2.0346
  277MPD2    H3 4189   0.723   2.523  13.231 -1.5356 -0.5784 -2.1253
  277MPD2     N 4190   0.355   2.472  13.500  0.0294 -0.4872  0.7327
  277MPD2    H5 4191   0.267   2.514  13.529 -0.9587  0.3376 -3.4820
  277MPD2    N1 4192   0.415   2.859  13.209  0.8199 -1.3877  0.0458
  277MPD2    H7 4193   0.470   2.909  13.140 -0.7506 -0.6945 -0.6830
  278TMC3    C1 4194   0.267   2.289  13.623  0.2018 -0.1183 -0.1858
  278TMC3    C2 4195   0.245   2.155  13.603  0.2656  0.9519 -0.3490
  278TMC3    C3 4196   0.123   2.105  13.639 -0.0288  0.7921 -0.0647
  278TMC3    C4 4197   0.170   2.369  13.676 -0.7378 -0.4212 -0.6051
  278TMC3    C5 4198   0.057   2.310  13.724 -0.2597 -0.2831  0.5078
  278TMC3    C6 4199   0.025   2.181  13.697 -0.9676  0.3615  0.4445
  278TMC3     C 4200   0.387   2.351  13.561  0.2424  0.0641 -0.4660
  278TMC3     O 4201   0.477   2.268  13.542  0.1342  0.3251  0.5333
  278TMC3     H 4202   0.317   2.085  13.560 -1.1438  0.7834 -2.4216
  278TMC3    H1 4203   0.178   2.477  13.684  1.2409 -0.4411 -2.4715
  278TMC3    H2 4204   4.650   2.146  13.692 -0.7992 -0.2144  1.0560
  278TMC3    C7 4205   4.695   2.396  13.784 -0.3144  0.5487 -0.5370
  278TMC3    C8 4206   0.086   1.971  13.607 -0.5920  0.0755 -0.1134
  278TMC3    O1 4207   4.715   2.515  13.760 -0.5583  0.5146  0.2370
  278TMC3    O2 4208   4.717   1.935  13.671  0.0039 -0.8454 -0.6492
  279MPD2     C 4209   4.039   3.409   0.632  0.9825 -0.1770 -0.6413
  279MPD2    C1 4210   3.996   3.370   0.508  0.0870  0.5192 -0.0286
  279MPD2    C2 4211   4.083   3.302   0.429  0.4583  0.1421 -0.1265
  279MPD2    C3 4212   4.203   3.256   0.469  0.0481 -0.2310 -0.3725
  279MPD2    C4 4213   4.237   3.270   0.603  0.2511  1.2598  0.3591
  279MPD2    C5 4214   4.153   3.350   0.679 -0.5800  0.9845  0.2351
  279MPD2     H 4215   4.055   3.297   0.325  0.4599 -1.7026 -0.0364
  279MPD2    H1 4216   4.333   3.243   0.646  0.7790  0.0146 -1.5914
  279MPD2    H2 4217   3.985   3.484   0.689 -0.0064 -0.3678 -1.3130
  279MPD2    H3 4218   4.176   3.362   0.784 -3.9463 -0.3962  1.1644
  279MPD2     N 4219   4.293   3.184   0.388  0.0894  0.3150  0.5689
  279MPD2    H5 4220   4.377   3.161   0.440  1.2219 -0.6700 -1.6593
  279MPD2    N1 4221   3.867   3.412   0.451 -0.1797  0.2493 -0.4410
  279MPD2    H7 4222   3.861   3.385   0.353  1.4294 -3.1624  0.3928
  280TMC3    C1 4223   3.642   3.446   0.446  0.1695 -1.6261  0.0339
  280TMC3    C2 4224   3.531   3.429   0.523  0.5475  0.3000  0.4527
  280TMC3    C3 4225   3.416   3.397   0.450  0.3496  0.0026 -0.4115
  280TMC3    C4 4226   3.648   3.437   0.312 -1.0204  0.1588 -0.1642
  280TMC3    C5 4227   3.530   3.402   0.248 -0.5792  0.7622 -0.1919
  280TMC3    C6 4228   3.413   3.379   0.314  0.1217  0.6142 -0.0869
  280TMC3     C 4229   3.762   3.449   0.526  0.8351  0.4362 -0.4213
  280TMC3     O 4230   3.746   3.459   0.647  0.5622 -0.1330 -0.8454
  280TMC3     H 4231   3.518   3.436   0.631 -0.0345  0.5427  0.3657
  280TMC3    H1 4232   3.740   3.450   0.255  0.2552  1.6791  2.2651
  280TMC3    H2 4233   3.320   3.346   0.268 -0.7773  1.9311  0.7662
  280TMC3    C7 4234   3.523   3.412   0.100  0.1260  0.3007 -0.1142
  280TMC3    C8 4235   3.296   3.376   0.523  0.0939 -0.0803 -0.0133
  280TMC3    O1 4236   3.627   3.447   0.046  0.0927  0.4763 -0.1079
  280TMC3    O2 4237   3.209   3.318   0.464  0.2458 -0.1521  0.1746
  281TMC3    C1 4238   3.184   2.851  13.600  0.4831  0.1196 -0.0995
  281TMC3    C2 4239   3.257   2.892  13.493  0.2272 -0.4369  0.0678
  281TMC3    C3 4240   3.254   2.830  13.372  0.1515 -0.0025 -0.5611
  281TMC3    C4 4241   3.108   2.737  13.590 -0.0915  0.2724  0.0595
  281TMC3    C5 4242   3.104   2.678  13.467 -0.1147 -0.1729  0.1968
  281TMC3    C6 4243   3.163   2.729  13.350  0.4020 -0.3850  0.0977
  281TMC3     C 4244   3.194   2.937  13.718 -0.5608 -0.2090 -0.2738
  281TMC3     O 4245   3.210   2.886  13.828 -0.5582  0.7714 -0.2437
  281TMC3     H 4246   3.313   2.984  13.507  0.5939 -0.6770  0.1849
  281TMC3    H1 4247   3.035   2.709  13.666 -0.1648 -0.2503 -0.2016
  281TMC3    H2 4248   3.164   2.670  13.259 -0.5633 -1.8104  1.0172
  281TMC3    C7 4249   3.005   2.570  13.436  0.1077 -0.0215 -0.3160
  281TMC3    C8 4250   3.259   2.906  13.248 -0.1659  0.1722 -0.9775
  281TMC3    O1 4251   2.948   2.573  13.328 -1.4382  0.0673  0.2413
  281TMC3    O2 4252   3.204   2.871  13.145  0.0182 -0.0145 -0.1773
  282MPD2     C 4253   0.451   4.128  14.915  0.3208  0.3242  0.2158
  282MPD2    C1 4254   0.343   4.198  14.962  0.6787  0.2802  0.0892
  282MPD2    C2 4255   0.247   4.235  14.870 -0.2599 -0.4299 -0.0586
  282MPD2    C3 4256   0.258   4.209  14.733 -0.6210 -0.2767  0.7396
  282MPD2    C4 4257   0.379   4.153  14.686  0.3478 -0.1756 -0.4656
  282MPD2    C5 4258   0.468   4.111  14.776  0.6748  0.9720  0.3946
  282MPD2     H 4259   0.168   4.300  14.907 -0.2066 -0.1844 -0.3810
  282MPD2    H1 4260   0.396   4.136  14.581  0.8365 -2.3998 -0.0349
  282MPD2    H2 4261   0.529   4.095  14.982 -1.0267  2.0092  2.6236
  282MPD2    H3 4262   0.566   4.075  14.745  0.1842 -2.0943  2.4209
  282MPD2     N 4263   0.157   4.261  14.649 -0.0728 -0.4857 -0.2666
  282MPD2    H5 4264   0.079   4.314  14.685  1.0002  1.4327 -0.7958
  282MPD2    N1 4265   0.321   4.218  15.100 -0.5218  0.0862  0.4809
  282MPD2    H7 4266   0.231   4.256  15.126 -0.1584  0.9818  0.4256
  283TMC3    C1 4267   0.353   4.175  15.337  0.2452  0.0779 -0.4531
  283TMC3    C2 4268   0.452   4.199  15.428 -0.5028 -0.8554 -0.6664
  283TMC3    C3 4269   0.428   4.143  15.553 -0.1653 -0.0346  0.3602
  283TMC3    C4 4270   0.234   4.109  15.359  0.0933  0.6377  0.1091
  283TMC3    C5 4271   0.218   4.063  15.487 -0.3090  0.4665 -0.0037
  283TMC3    C6 4272   0.313   4.073  15.584  0.4542 -0.1882 -0.1243
  283TMC3     C 4273   0.408   4.180  15.198  0.1900 -0.3418 -0.4748
  283TMC3     O 4274   0.525   4.143  15.188  0.3129 -0.1329  0.3272
  283TMC3     H 4275   0.553   4.223  15.396 -0.3196  1.1791  1.3947
  283TMC3    H1 4276   0.168   4.074  15.280 -1.2539  0.0910  1.4780
  283TMC3    H2 4277   0.287   4.059  15.688 -0.6411  0.1116 -0.3523
  283TMC3    C7 4278   0.105   3.977  15.513  0.7719 -0.4982 -0.5733
  283TMC3    C8 4279   0.496   4.202  15.661  0.4657 -0.3421 -0.2764
  283TMC3    O1 4280   0.009   3.974  15.433  0.4383 -1.4030  0.1030
  283TMC3    O2 4281   0.488   4.149  15.769 -0.1489  0.4614  0.0372
  284MPD2     C 4282   2.914   3.362  11.591  0.1572 -0.9982  0.3382
  284MPD2    C1 4283   3.054   3.340  11.577  0.1011 -0.1436  0.4164
  284MPD2    C2 4284   3.107   3.251  11.673 -0.2633  0.4069  0.2804
  284MPD2    C3 4285   3.042   3.210  11.778 -0.5104  0.1713 -0.0971
  284MPD2    C4 4286   2.902   3.225  11.793 -0.4897  1.1491 -0.3441
  284MPD2    C5 4287   2.847   3.303  11.695 -0.2216  0.2651  0.4477
  284MPD2     H 4288   3.212   3.227  11.671 -0.5419 -0.7468 -0.9022
  284MPD2    H1 4289   2.844   3.185  11.876  1.0047  1.1448  0.6863
  284MPD2    H2 4290   2.863   3.431  11.524  1.4334 -0.6029 -0.2178
  284MPD2    H3 4291   2.739   3.314  11.696 -0.0348  2.1523 -0.3064
  284MPD2     N 4292   3.127   3.151  11.874 -0.1579  0.8037 -0.1218
  284MPD2    H5 4293   3.226   3.166  11.861 -0.0480 -1.1777 -1.4867
  284MPD2    N1 4294   3.140   3.384  11.479 -0.1152  0.0653  0.6018
  284MPD2    H7 4295   3.236   3.353  11.467  0.0425  0.7122  0.1348
  285TMC3    C1 4296   3.225   3.496  11.292  0.0109 -0.0961 -0.2432
  285TMC3    C2 4297   3.306   3.393  11.261 -0.2648 -0.0659 -0.1714
  285TMC3    C3 4298   3.439   3.422  11.238  0.1580 -0.0251 -0.3653
  285TMC3    C4 4299   3.267   3.630  11.282 -0.1928 -0.5687 -0.3581
  285TMC3    C5 4300   3.406   3.650  11.271 -0.2746  0.1026  0.1412
  285TMC3    C6 4301   3.493   3.550  11.242 -0.2070  0.6521 -0.2275
  285TMC3     C 4302   3.114   3.484  11.387 -0.0845 -0.1800  0.2190
  285TMC3     O 4303   3.030   3.572  11.393  0.1232  0.0581 -0.3317
  285TMC3     H 4304   3.275   3.291  11.282 -0.8397  0.2915  0.7324
  285TMC3    H1 4305   3.204   3.708  11.321 -0.9690 -0.5847 -1.5791
  285TMC3    H2 4306   3.595   3.565  11.209  0.1973 -0.9650  0.2895
  285TMC3    C7 4307   3.457   3.755  11.353 -0.0723  0.3407 -0.1481
  285TMC3    C8 4308   3.514   3.310  11.196  0.2032  0.6292  0.3406
  285TMC3    O1 4309   3.391   3.855  11.379  0.2048  0.0264 -0.2976
  285TMC3    O2 4310   3.459   3.202  11.189 -0.1659 -0.6585 -0.0452
  286MPD2     C 4311   3.163   2.601   1.732 -0.4934 -0.2448 -0.4934
  286MPD2    C1 4312   3.116   2.663   1.617 -0.3753 -0.2060 -0.1528
  286MPD2    C2 4313   3.175   2.634   1.497 -0.1478 -0.6185  0.2609
  286MPD2    C3 4314   3.268   2.531   1.492  0.0772 -0.1856  0.7645
  286MPD2    C4 4315   3.313   2.469   1.608  0.6992 -0.4293  0.1647
  286MPD2    C5 4316   3.273   2.522   1.728  0.7944 -1.0214  0.1302
  286MPD2     H 4317   3.135   2.685   1.410 -0.6018 -0.1614  0.7391
  286MPD2    H1 4318   3.392   2.395   1.606  1.7019  0.5714  2.2017
  286MPD2    H2 4319   3.126   2.622   1.831 -0.9057 -4.0550  0.1538
  286MPD2    H3 4320   3.314   2.484   1.821 -1.7758 -1.2865  1.1602
  286MPD2     N 4321   3.331   2.496   1.374  0.1800 -0.1890  0.5373
  286MPD2    H5 4322   3.405   2.427   1.378  1.3532  0.9169 -2.4273
  286MPD2    N1 4323   2.998   2.745   1.611  0.0488 -0.5069 -0.1486
  286MPD2    H7 4324   2.989   2.793   1.522  1.2320 -0.3331 -0.1711
  287TMC3    C1 4325   3.378   2.489   1.142 -0.5756  0.2393  0.7043
  287TMC3    C2 4326   3.326   2.473   1.019  0.2496 -0.2472 -0.7976
  287TMC3    C3 4327   3.411   2.445   0.916  0.4307 -0.3403  0.3661
  287TMC3    C4 4328   3.507   2.482   1.157 -0.3378 -0.9335 -0.3559
  287TMC3    C5 4329   3.591   2.444   1.050  0.2562  0.6916 -0.3237
  287TMC3    C6 4330   3.548   2.426   0.924  0.4249  0.1440 -0.7881
  287TMC3     C 4331   3.290   2.534   1.248 -0.1938  1.0037  0.7209
  287TMC3     O 4332   3.181   2.580   1.218  0.8389 -0.3488 -0.2342
  287TMC3     H 4333   3.219   2.460   1.017  0.3678 -1.3012 -0.4602
  287TMC3    H1 4334   3.553   2.521   1.248  0.2141 -0.5434 -0.8039
  287TMC3    H2 4335   3.608   2.374   0.850  0.7244  0.7541 -0.9736
  287TMC3    C7 4336   3.731   2.440   1.077 -0.4195 -0.0157  0.0961
  287TMC3    C8 4337   3.347   2.363   0.816  0.4063  0.3378  0.0185
  287TMC3    O1 4338   3.753   2.477   1.192  0.0836 -0.3162 -0.6251
  287TMC3    O2 4339   3.250   2.301   0.851 -0.6022 -0.0623 -0.2090
  288TMC3    C1 4340   0.605   1.779  14.014 -0.5610 -0.1911  0.0884
  288TMC3    C2 4341   0.564   1.816  14.142 -0.1058 -0.1994  0.4923
  288TMC3    C3 4342   0.456   1.756  14.195 -0.1708 -0.0299 -0.1231
  288TMC3    C4 4343   0.550   1.682  13.945 -0.3768  0.0964 -0.8011
  288TMC3    C5 4344   0.452   1.611  14.007  0.7994 -0.4081 -0.1338
  288TMC3    C6 4345   0.399   1.648  14.128 -1.3302 -0.5692 -0.9750
  288TMC3     C 4346   0.726   1.839  13.950 -0.1369 -0.4146 -0.3861
  288TMC3     O 4347   0.747   1.798  13.836 -0.1468 -0.2827  0.3356
  288TMC3     H 4348   0.604   1.901  14.197  0.9396  0.2453 -0.9711
  288TMC3    H1 4349   0.594   1.655  13.850  1.6945 -1.5281  0.6232
  288TMC3    H2 4350   0.305   1.608  14.164 -2.2860  2.0627 -0.6010
  288TMC3    C7 4351   0.371   1.512  13.940 -0.3641  0.7020  0.2725
  288TMC3    C8 4352   0.397   1.808  14.313  0.1432  0.3253 -0.2659
  288TMC3    O1 4353   0.280   1.453  13.997  0.3456  0.0018  0.3204
  288TMC3    O2 4354   0.408   1.928  14.341  0.7708  0.7476 -0.0072
  289MPD2     C 4355   0.820   1.466  13.865  0.7184 -0.3927 -0.0748
  289MPD2    C1 4356   0.764   1.385  13.774  0.3425 -0.0710 -0.8343
  289MPD2    C2 4357   0.672   1.293  13.817 -0.0427 -0.9618 -0.0992
  289MPD2    C3 4358   0.636   1.290  13.950 -0.5771  0.3365 -0.3154
  289MPD2    C4 4359   0.695   1.381  14.039  0.5073  0.2011  0.3214
  289MPD2    C5 4360   0.790   1.472  14.000  0.2726  0.4564 -0.0116
  289MPD2     H 4361   0.622   1.225  13.749 -1.2950 -0.9838  0.8379
  289MPD2    H1 4362   0.657   1.394  14.139 -0.6867  0.1132 -0.1223
  289MPD2    H2 4363   0.891   1.539  13.829  0.4273 -0.2076 -0.2699
  289MPD2    H3 4364   0.829   1.546  14.069 -0.9789  0.5431  0.6086
  289MPD2     N 4365   0.544   1.190  13.985  0.4150  0.3278 -0.7724
  289MPD2    H5 4366   0.493   1.149  13.907 -0.0718  0.2657 -0.4251
  289MPD2    N1 4367   0.801   1.404  13.640 -0.2280  0.2039  0.7662
  289MPD2    H7 4368   0.850   1.490  13.618  1.4674 -1.1962 -0.9288
  290TMC3    C1 4369   0.364   1.101  14.113  0.6286 -0.0878  0.0714
  290TMC3    C2 4370   0.248   1.162  14.074  0.1459 -0.1587 -0.7397
  290TMC3    C3 4371   0.133   1.127  14.138 -0.0099  0.0045 -0.0224
  290TMC3    C4 4372   0.363   1.019  14.224  0.4625  0.4806 -0.5360
  290TMC3    C5 4373   0.252   0.994  14.292 -0.3680 -0.0062  0.4156
  290TMC3    C6 4374   0.132   1.046  14.248  0.1147  0.6742  0.2517
  290TMC3     C 4375   0.483   1.174  14.107  0.1819  0.3811 -0.4365
  290TMC3     O 4376   0.520   1.225  14.210 -0.2244 -0.7153 -0.3207
  290TMC3     H 4377   0.257   1.226  13.987  3.6672  2.5349  1.6130
  290TMC3    H1 4378   0.453   0.977  14.268  0.0025 -1.2487 -1.2578
  290TMC3    H2 4379   0.040   1.028  14.301  0.7813 -0.4537  1.0261
  290TMC3    C7 4380   0.238   0.865  14.347 -0.7182  0.0824  0.9701
  290TMC3    C8 4381   0.017   1.210  14.128 -0.1617 -0.1332  0.3571
  290TMC3    O1 4382   0.270   0.769  14.280 -0.6371 -0.1167  0.0555
  290TMC3    O2 4383   4.638   1.168  14.170  0.5072  0.2009 -0.2975
  291MPD2     C 4384   3.817   0.684  17.641 -0.3800  0.2448 -0.2556
  291MPD2    C1 4385   3.840   0.573  17.563  0.1745 -0.0994 -0.7754
  291MPD2    C2 4386   3.967   0.542  17.537  0.6395 -0.3788 -0.2074
  291MPD2    C3 4387   4.071   0.621  17.572 -0.1191 -0.0178 -0.1211
  291MPD2    C4 4388   4.043   0.729  17.655  0.3484  0.2200  1.2418
  291MPD2    C5 4389   3.919   0.758  17.692 -0.5626 -0.3391  0.5996
  291MPD2     H 4390   3.983   0.454  17.477  0.5076 -0.4505 -0.1367
  291MPD2    H1 4391   4.121   0.798  17.686 -1.0938  3.4098 -2.2055
  291MPD2    H2 4392   3.718   0.712  17.674 -0.3119 -0.8165  0.8500
  291MPD2    H3 4393   3.888   0.843   0.041  0.9958 -0.6534  1.8810
  291MPD2     N 4394   4.196   0.608  17.510  0.4466  0.1332  0.1776
  291MPD2    H5 4395   4.258   0.688  17.521  0.0467  0.6301 -1.1308
  291MPD2    N1 4396   3.740   0.496  17.503  0.0763 -0.1231 -0.3911
  291MPD2    H7 4397   3.762   0.414  17.447  1.4121 -0.7625  1.1131
  292TMC3    C1 4398   3.524   0.432  17.432  0.1502 -0.1818 -0.0205
  292TMC3    C2 4399   3.393   0.475  17.434 -0.0429 -0.2509  0.3320
  292TMC3    C3 4400   3.311   0.423  17.340 -0.0351 -0.2776 -0.2201
  292TMC3    C4 4401   3.574   0.339  17.346 -0.7527  0.4640  0.3614
  292TMC3    C5 4402   3.486   0.291  17.248  0.3353  0.2838  0.3137
  292TMC3    C6 4403   3.356   0.336  17.245  0.2616  0.3018 -0.4867
  292TMC3     C 4404   3.607   0.533  17.498  0.1133  0.4162 -0.0958
  292TMC3     O 4405   3.551   0.639  17.533 -0.2696 -0.1151 -0.4663
  292TMC3     H 4406   3.351   0.546  17.505 -0.3613 -2.3175  2.2339
  292TMC3    H1 4407   3.672   0.292  17.352 -0.9386  0.1275  0.7652
  292TMC3    H2 4408   3.288   0.298  17.171 -0.5150  2.1458 -0.7287
  292TMC3    C7 4409   3.530   0.176  17.166 -0.0566  0.0058  0.4649
  292TMC3    C8 4410   3.160   0.448  17.334 -0.1280 -0.3845  0.1341
  292TMC3    O1 4411   3.616   0.105  17.216 -0.5313 -0.0943  0.1126
  292TMC3    O2 4412   3.125   0.561  17.353 -0.4949  0.1636  0.6000
  293MPD2     C 4413   2.075   2.395  12.211 -0.7793  0.3489 -0.0913
  293MPD2    C1 4414   2.023   2.305  12.298 -0.5626 -0.2009  0.2220
  293MPD2    C2 4415   2.054   2.313  12.434 -0.1386  0.2056  0.1353
  293MPD2    C3 4416   2.114   2.421  12.491 -0.1357 -0.0412 -0.2305
  293MPD2    C4 4417   2.164   2.518  12.401  0.2150 -0.5578 -0.1982
  293MPD2    C5 4418   2.140   2.505  12.268 -0.3628 -0.1415 -0.2312
  293MPD2     H 4419   2.006   2.238  12.496  0.6585  0.5071  1.1112
  293MPD2    H1 4420   2.209   2.612  12.430 -2.5981  0.9271 -0.5810
  293MPD2    H2 4421   2.056   2.398  12.105  0.0398 -0.2044 -0.2545
  293MPD2    H3 4422   2.180   2.587  12.208  0.5449 -0.5752 -0.2162
  293MPD2     N 4423   2.131   2.431  12.629 -0.3260  0.1970 -0.5153
  293MPD2    H5 4424   2.113   2.347  12.684 -0.2598  0.0846 -0.6663
  293MPD2    N1 4425   1.936   2.210  12.242  0.1984  0.5008 -0.0435
  293MPD2    H7 4426   1.927   2.196  12.142  0.9596 -0.0202 -0.0404
  294TMC3    C1 4427   1.737   2.089  12.231 -0.0959 -0.1517  0.8659
  294TMC3    C2 4428   1.621   2.037  12.296 -0.3263 -0.0122  0.8456
  294TMC3    C3 4429   1.504   2.039  12.219 -0.1339 -0.0544  0.2108
  294TMC3    C4 4430   1.724   2.156  12.107  0.2614  0.7014 -0.0421
  294TMC3    C5 4431   1.600   2.161  12.046 -0.8784  0.3685  0.6332
  294TMC3    C6 4432   1.491   2.096  12.099  0.0788  0.6800  0.9034
  294TMC3     C 4433   1.846   2.133  12.314 -0.3545 -0.3449  0.2682
  294TMC3     O 4434   1.840   2.110  12.433 -0.3076 -0.3757 -0.4010
  294TMC3     H 4435   1.617   2.010  12.401 -0.6292 -0.8154  0.6342
  294TMC3    H1 4436   1.799   2.229  12.077 -1.0315  1.0987 -2.3031
  294TMC3    H2 4437   1.394   2.090  12.052  0.2803 -2.5236  0.8783
  294TMC3    C7 4438   1.570   2.245  11.932  0.0829 -0.5079  0.1110
  294TMC3    C8 4439   1.389   1.967  12.274 -0.0912  0.5517 -0.0018
  294TMC3    O1 4440   1.458   2.294  11.925 -0.1644  0.1618 -0.2106
  294TMC3    O2 4441   1.361   1.963  12.391  0.1379 -0.0164 -0.1341
  295MPD2     C 4442   2.365   0.997   0.703 -0.0892  0.6023 -0.1657
  295MPD2    C1 4443   2.299   1.110   0.654 -0.0238 -0.0392 -0.0173
  295MPD2    C2 4444   2.184   1.158   0.712 -0.0878  0.3191 -0.4416
  295MPD2    C3 4445   2.145   1.103   0.839 -0.1882  0.0726  0.4520
  295MPD2    C4 4446   2.210   0.984   0.884 -0.1279 -0.5083 -0.2656
  295MPD2    C5 4447   2.318   0.939   0.813  0.6650 -0.3256 -0.2195
  295MPD2     H 4448   2.124   1.235   0.666 -0.7062  0.5036  0.6680
  295MPD2    H1 4449   2.184   0.944   0.981 -0.1706 -1.3203 -0.6097
  295MPD2    H2 4450   2.454   0.961   0.653 -0.1005  3.6431 -2.4126
  295MPD2    H3 4451   2.369   0.860   0.866 -1.3804 -1.1526  0.4795
  295MPD2     N 4452   2.039   1.154   0.920  0.2431 -0.2121  0.4756
  295MPD2    H5 4453   2.023   1.118   1.014  0.3556  0.6051  0.8109
  295MPD2    N1 4454   2.340   1.168   0.533  0.1539  0.5506  0.8238
  295MPD2    H7 4455   2.271   1.236   0.500  0.2630 -0.4305 -1.4351
  296TMC3    C1 4456   1.848   1.275   0.975 -0.2019 -0.4003 -0.1990
  296TMC3    C2 4457   1.877   1.278   1.108  0.1187  0.3183 -0.1902
  296TMC3    C3 4458   1.805   1.371   1.177 -0.4758 -0.4320  0.7474
  296TMC3    C4 4459   1.734   1.336   0.929 -0.6202 -0.1596 -0.1942
  296TMC3    C5 4460   1.656   1.413   1.008 -0.6162 -0.9656 -0.1141
  296TMC3    C6 4461   1.686   1.429   1.137  0.3619  0.0648 -0.6168
  296TMC3     C 4462   1.944   1.245   0.874  0.3376  0.2186  0.1390
  296TMC3     O 4463   1.935   1.305   0.767 -0.7660  0.0927  0.3508
  296TMC3     H 4464   1.960   1.228   1.156  1.0586 -0.9397 -3.0839
  296TMC3    H1 4465   1.715   1.350   0.823 -1.3310  0.8458  0.0679
  296TMC3    H2 4466   1.634   1.508   1.191 -2.3317 -0.7130 -2.0392
  296TMC3    C7 4467   1.519   1.431   0.965 -0.0280 -0.2376 -0.2244
  296TMC3    C8 4468   1.873   1.433   1.296  0.0984 -0.0613  0.3193
  296TMC3    O1 4469   1.495   1.400   0.852 -0.0573  0.1384 -0.2498
  296TMC3    O2 4470   1.993   1.416   1.302 -0.1151 -0.4353 -0.4967
  297MPD2     C 4471   3.879   2.984  16.318  0.1274 -0.6544  0.4418
  297MPD2    C1 4472   3.852   3.038  16.196 -0.0329  0.7298 -0.4024
  297MPD2    C2 4473   3.949   3.115  16.139 -0.1945 -0.4520  0.2183
  297MPD2    C3 4474   4.076   3.129  16.204 -0.1186  0.6391 -0.4351
  297MPD2    C4 4475   4.104   3.069  16.322  0.5140  0.7876 -0.3563
  297MPD2    C5 4476   4.002   2.993  16.373  0.2134  0.9256 -0.5796
  297MPD2     H 4477   3.929   3.171  16.049  1.0296 -0.3944 -0.0216
  297MPD2    H1 4478   4.189   3.100  16.381  1.8309  1.0376 -2.3974
  297MPD2    H2 4479   3.809   2.922  16.375  3.6315 -2.7233  2.4801
  297MPD2    H3 4480   4.003   2.949  16.472 -1.2125  2.2960  0.0535
  297MPD2     N 4481   4.171   3.210  16.143 -0.7172 -0.4840  0.1007
  297MPD2    H5 4482   4.147   3.255  16.055  2.7205 -0.4662 -0.8157
  297MPD2    N1 4483   3.727   3.029  16.126  0.3026 -0.0094  0.9528
  297MPD2    H7 4484   3.731   3.060  16.030  0.5736  0.0461  0.9804
  298TMC3    C1 4485   3.510   3.046  16.080 -0.0930 -0.7722  0.0276
  298TMC3    C2 4486   3.507   2.972  15.965  0.0749 -0.4215  0.3873
  298TMC3    C3 4487   3.410   3.001  15.874  0.4089 -0.2294  0.2173
  298TMC3    C4 4488   3.415   3.136  16.102 -0.4982 -0.0224 -0.4242
  298TMC3    C5 4489   3.313   3.163  16.015 -0.1926 -0.1783  0.0573
  298TMC3    C6 4490   3.309   3.097  15.891 -0.0868 -0.3778 -0.1941
  298TMC3     C 4491   3.608   3.012  16.181  0.1061 -0.1372  0.1148
  298TMC3     O 4492   3.582   3.002  16.302  0.3881  0.3100  0.3639
  298TMC3     H 4493   3.589   2.905  15.943  0.2436 -0.1096  0.0627
  298TMC3    H1 4494   3.407   3.196  16.192 -1.4021  0.3905 -0.7789
  298TMC3    H2 4495   3.221   3.093  15.828 -0.5175 -0.2349  0.4005
  298TMC3    C7 4496   3.218   3.269  16.050  0.5959 -0.3310 -0.2083
  298TMC3    C8 4497   3.433   2.958  15.739  0.2706 -0.8067 -0.2476
  298TMC3    O1 4498   3.188   3.286  16.170 -0.6130  0.1246 -0.2854
  298TMC3    O2 4499   3.509   2.866  15.718 -0.3650 -0.3490  0.6920
  299MPD2     C 4500   0.054   2.245  10.421 -0.5512  0.1271 -0.1643
  299MPD2    C1 4501   0.064   2.374  10.376 -0.1303 -0.5074 -0.2035
  299MPD2    C2 4502   4.704   2.428  10.280  0.3216 -0.0102 -0.2887
  299MPD2    C3 4503   4.606   2.341  10.237 -0.0078  0.2067  0.8053
  299MPD2    C4 4504   4.600   2.211  10.277 -0.7553  0.2828 -0.5717
  299MPD2    C5 4505   4.685   2.161  10.369 -0.4188  0.1696 -0.2336
  299MPD2     H 4506   4.714   2.530  10.246 -1.1102  0.4526  0.7059
  299MPD2    H1 4507   4.520   2.160  10.225  0.6529 -0.1926 -2.2808
  299MPD2    H2 4508   0.132   2.218  10.490  0.7758 -1.9241 -2.4476
  299MPD2    H3 4509   4.701   2.059  10.403 -2.2751  0.6193  1.9651
  299MPD2     N 4510   4.508   2.380  10.146 -0.3146  0.1809  0.2264
  299MPD2    H5 4511   4.429   2.317  10.146 -1.7168  1.9212 -4.0502
  299MPD2    N1 4512   0.174   2.448  10.435 -0.0498  0.0692  0.4414
  299MPD2    H7 4513   0.219   2.408  10.516  0.4118  0.1562  0.2245
  300TMC3    C1 4514   4.365   2.523  10.019  1.0002 -0.1903  0.0857
  300TMC3    C2 4515   4.354   2.625   9.930 -0.2991 -0.0928  0.8924
  300TMC3    C3 4516   4.237   2.640   9.857 -0.0077  0.1587  0.6340
  300TMC3    C4 4517   4.258   2.441  10.035 -0.2423  0.0068 -0.0911
  300TMC3    C5 4518   4.151   2.451   9.956 -0.0092 -0.1511  0.5284
  300TMC3    C6 4519   4.137   2.544   9.857 -0.8286  0.2513  0.0872
  300TMC3     C 4520   4.487   2.507  10.095 -0.5773  0.1807 -0.0791
  300TMC3     O 4521   4.566   2.604  10.100  0.2810  0.0133  0.0125
  300TMC3     H 4522   4.443   2.687   9.922 -1.6162  1.9431  1.8601
  300TMC3    H1 4523   4.246   2.363  10.110 -2.8011  2.2843  1.8411
  300TMC3    H2 4524   4.044   2.555   9.802 -0.1366  1.9884 -0.7509
  300TMC3    C7 4525   4.028   2.383   9.993  0.1996 -0.0085 -0.5313
  300TMC3    C8 4526   4.198   2.775   9.831 -0.6679 -0.3164 -0.1463
  300TMC3    O1 4527   3.980   2.309   9.907 -0.2555 -0.6865 -0.3050
  300TMC3    O2 4528   4.096   2.803   9.764 -0.0130 -0.2882 -0.2723
  301MPD2     C 4529   0.537   4.406   1.145 -1.0225  0.0342  0.0792
  301MPD2    C1 4530   0.536   4.381   1.007  0.6755 -0.6458 -0.0730
  301MPD2    C2 4531   0.631   4.298   0.946  0.0958 -0.4891 -0.2980
  301MPD2    C3 4532   0.732   4.243   1.022 -0.3744  0.8190 -0.3522
  301MPD2    C4 4533   0.733   4.263   1.151 -0.4118  0.3695 -0.3724
  301MPD2    C5 4534   0.642   4.347   1.214 -0.2809  0.0358  0.0767
  301MPD2     H 4535   0.615   4.291   0.839  2.3267  1.1728 -0.7380
  301MPD2    H1 4536   0.804   4.208   1.212 -0.6164 -0.9834 -1.3526
  301MPD2    H2 4537   0.470   4.478   1.192 -0.3907  0.3745  0.4486
  301MPD2    H3 4538   0.651   4.366   1.321  0.2286 -0.7515  0.1684
  301MPD2     N 4539   0.840   4.171   0.965 -0.2990 -0.0278  0.3010
  301MPD2    H5 4540   0.911   4.138   1.029  1.1260  1.8695 -0.3234
  301MPD2    N1 4541   0.441   4.430   0.919  0.1506 -1.0083 -0.0229
  301MPD2    H7 4542   0.450   4.404   0.821 -1.7043 -0.4129 -0.3656
  302TMC3    C1 4543   0.987   4.064   0.829  0.0979  0.4403 -0.4328
  302TMC3    C2 4544   1.033   3.987   0.930 -0.5687  0.1199  0.2718
  302TMC3    C3 4545   1.139   3.898   0.906 -0.6673 -0.2314 -0.0253
  302TMC3    C4 4546   1.032   4.052   0.703  0.6800 -0.0815 -0.1998
  302TMC3    C5 4547   1.131   3.962   0.682  0.2445 -0.8209  0.4711
  302TMC3    C6 4548   1.191   3.882   0.774 -0.7049  0.3773  0.0756
  302TMC3     C 4549   0.870   4.140   0.838 -0.1490  0.1443  0.0479
  302TMC3     O 4550   0.814   4.172   0.735 -0.0626  0.1002  0.3076
  302TMC3     H 4551   0.991   4.005   1.028 -0.2041 -1.0420  0.6388
  302TMC3    H1 4552   1.001   4.125   0.629  0.6563  0.6842  0.5698
  302TMC3    H2 4553   1.274   3.818   0.748 -0.2386  1.4269 -1.0407
  302TMC3    C7 4554   1.148   3.922   0.547  0.2022 -1.2118 -0.4069
  302TMC3    C8 4555   1.193   3.827   1.022 -0.1612 -0.5692 -0.1007
  302TMC3    O1 4556   1.255   3.868   0.514 -0.1846 -0.7587 -0.2738
  302TMC3    O2 4557   1.257   3.729   0.990  0.3557 -0.1938 -0.2366
  303MPD2     C 4558   2.543   1.745  10.184 -0.9183 -0.6844 -0.1635
  303MPD2    C1 4559   2.448   1.683  10.259  0.5555  0.2004 -0.3499
  303MPD2    C2 4560   2.352   1.600  10.202 -0.1285  0.0703 -0.3391
  303MPD2    C3 4561   2.357   1.577  10.062 -0.2207 -0.6199 -0.5065
  303MPD2    C4 4562   2.452   1.634   9.986 -0.1813  0.7247  0.5077
  303MPD2    C5 4563   2.543   1.717  10.048 -0.1457 -0.3573  0.3988
  303MPD2     H 4564   2.267   1.567  10.260  1.0977 -1.3427  0.6760
  303MPD2    H1 4565   2.470   1.620   9.880  0.4862  1.9724  0.4552
  303MPD2    H2 4566   2.612   1.811  10.235 -0.3314  0.6122 -2.6273
  303MPD2    H3 4567   2.621   1.771   9.995  0.9073 -0.3563  1.9414
  303MPD2     N 4568   2.260   1.499   9.991  0.5064 -0.0389 -0.5864
  303MPD2    H5 4569   2.284   1.493   9.893 -1.2570 -0.2495 -1.0092
  303MPD2    N1 4570   2.452   1.706  10.402  0.5343 -0.2866 -0.1752
  303MPD2    H7 4571   2.529   1.768  10.426  0.7331 -0.5472 -0.1460
  304TMC3    C1 4572   2.401   1.726  10.631  0.2650  0.4839 -0.0481
  304TMC3    C2 4573   2.390   1.861  10.630  0.0730  0.7105 -0.5019
  304TMC3    C3 4574   2.331   1.925  10.735  0.4267 -0.5785 -0.0456
  304TMC3    C4 4575   2.365   1.648  10.737 -0.1915  0.1619  0.3493
  304TMC3    C5 4576   2.337   1.715  10.850  0.4058  0.3948  0.0294
  304TMC3    C6 4577   2.308   1.848  10.845  0.6949  0.0052  0.4412
  304TMC3     C 4578   2.376   1.649  10.505  0.0858  0.3829  0.3150
  304TMC3     O 4579   2.296   1.562  10.501  0.1247  0.7221 -0.6162
  304TMC3     H 4580   2.403   1.912  10.536  0.1161  1.0154 -0.3292
  304TMC3    H1 4581   2.350   1.541  10.737 -0.8496  0.2579  1.2646
  304TMC3    H2 4582   2.269   1.897  10.933 -0.6724  0.9311 -0.6963
  304TMC3    C7 4583   2.245   1.646  10.951  0.1132 -1.0300  0.1624
  304TMC3    C8 4584   2.214   1.997  10.700  0.3969 -0.1605  0.5612
  304TMC3    O1 4585   2.143   1.709  10.961  0.0480  0.1928 -0.3126
  304TMC3    O2 4586   2.233   2.065  10.601  0.6771  0.4764  0.5433
  305MPD2     C 4587   0.621   4.509  13.873  0.1038  0.2006  0.3380
  305MPD2    C1 4588   0.614   4.374  13.916  0.1748 -0.9333  0.1456
  305MPD2    C2 4589   0.557   4.274  13.836  1.0854 -0.5571  0.2161
  305MPD2    C3 4590   0.510   4.304  13.709 -0.7542  0.1424 -0.2721
  305MPD2    C4 4591   0.510   4.441  13.668  0.0313 -0.2928 -0.5201
  305MPD2    C5 4592   0.573   4.532  13.747 -0.6879 -0.7651  0.1821
  305MPD2     H 4593   0.556   4.173  13.875 -0.3145 -0.9096 -0.7399
  305MPD2    H1 4594   0.469   4.467  13.571 -0.4589 -1.9256 -0.7369
  305MPD2    H2 4595   0.648   4.598  13.928  2.7633  0.2033 -1.0031
  305MPD2    H3 4596   0.559   4.637  13.724  0.6282 -0.5210  0.5341
  305MPD2     N 4597   0.488   4.208  13.607 -0.9079 -0.1018  0.1334
  305MPD2    H5 4598   0.466   4.240  13.513 -0.0221 -0.7023 -0.2739
  305MPD2    N1 4599   0.670   4.349  14.044  0.1036  0.1249 -0.1124
  305MPD2    H7 4600   0.700   4.427  14.102  0.1863  0.3912 -0.5135
  306TMC3    C1 4601   0.747   4.241  14.242  0.0057 -0.1693 -0.6910
  306TMC3    C2 4602   0.835   4.143  14.289 -0.0875 -0.4214 -0.5838
  306TMC3    C3 4603   0.856   4.135  14.417  0.3044 -0.0448 -0.1687
  306TMC3    C4 4604   0.684   4.333  14.325 -0.4259 -0.4265 -0.1100
  306TMC3    C5 4605   0.705   4.313  14.459  0.3726 -0.5711  0.1875
  306TMC3    C6 4606   0.786   4.208  14.506 -0.4219 -0.1683 -0.0560
  306TMC3     C 4607   0.702   4.227  14.100 -0.1630  0.4445 -0.2051
  306TMC3     O 4608   0.690   4.111  14.057 -0.3535 -0.4310  0.0008
  306TMC3     H 4609   0.887   4.080  14.218  2.4330  1.0513 -0.0336
  306TMC3    H1 4610   0.614   4.403  14.280 -1.4353 -0.6557  1.0867
  306TMC3    H2 4611   0.800   4.202  14.613  3.1422 -1.1463 -0.5682
  306TMC3    C7 4612   0.619   4.386  14.550 -0.6063 -0.1344 -0.5450
  306TMC3    C8 4613   0.942   4.026  14.463  0.6833  0.4556  1.0762
  306TMC3    O1 4614   0.503   4.409  14.517  0.1598  0.3520 -0.0990
  306TMC3    O2 4615   1.024   3.980  14.386 -0.0067  0.0351  0.4081
  307MPD2     C 4616   2.430   1.913   1.305  0.0481 -0.2497 -0.2113
  307MPD2    C1 4617   2.335   2.019   1.313 -0.5689  0.6034  0.1431
  307MPD2    C2 4618   2.201   1.985   1.294 -0.2743 -0.4583  0.1326
  307MPD2    C3 4619   2.168   1.864   1.253  0.2284  0.4834  0.3633
  307MPD2    C4 4620   2.258   1.765   1.237  0.4669  0.0103  0.0252
  307MPD2    C5 4621   2.388   1.782   1.268 -1.1277  0.4005 -0.2118
  307MPD2     H 4622   2.118   2.053   1.310  0.0782 -0.0338  0.1651
  307MPD2    H1 4623   2.223   1.667   1.206  0.3601  0.7243 -2.0771
  307MPD2    H2 4624   2.536   1.932   1.320 -0.2086  0.6854  0.4232
  307MPD2    H3 4625   2.451   1.694   1.257 -0.2030  1.0274  0.1170
  307MPD2     N 4626   2.028   1.856   1.226  0.6549 -0.6148 -0.3114
  307MPD2    H5 4627   1.968   1.934   1.251 -0.4886 -0.9155 -2.1405
  307MPD2    N1 4628   2.374   2.151   1.344  0.0372  0.5987  0.5982
  307MPD2    H7 4629   2.291   2.208   1.356 -0.3375 -0.0042  0.8435
  308TMC3    C1 4630   1.655   1.872   1.015 -0.1784  0.2139 -0.2315
  308TMC3    C2 4631   1.610   1.947   1.117  0.6014 -0.2974 -0.7902
  308TMC3    C3 4632   1.667   1.938   1.243 -0.0466  0.1962  0.0389
  308TMC3    C4 4633   1.767   1.793   1.029 -0.2191  0.4916  0.3136
  308TMC3    C5 4634   1.824   1.788   1.154 -0.5300 -0.7852  0.0380
  308TMC3    C6 4635   1.784   1.868   1.261 -0.1844  0.1403 -0.4041
  308TMC3     C 4636   1.588   1.869   0.885 -0.2148  0.1198  0.0225
  308TMC3     O 4637   1.576   1.762   0.827 -0.2718  0.1701  0.1466
  308TMC3     H 4638   1.521   2.006   1.101  1.5047  1.5164  0.9659
  308TMC3    H1 4639   1.799   1.723   0.953 -1.6514 -0.7205  0.8222
  308TMC3    H2 4640   1.815   1.847   1.363  3.6419 -0.8108 -1.7529
  308TMC3    C7 4641   1.966   1.762   1.156  0.1521  0.1542 -0.1462
  308TMC3    C8 4642   1.664   2.052   1.330  0.1626 -0.4674  0.3530
  308TMC3    O1 4643   2.015   1.667   1.099  0.0214  0.0564  0.1774
  308TMC3    O2 4644   1.744   2.045   1.422 -0.2749 -0.3383  0.2758
  309MPD2     C 4645   1.803   2.677  17.295  0.6546  0.5583  0.0413
  309MPD2    C1 4646   1.777   2.763  17.197 -0.2282  0.2244 -0.0067
  309MPD2    C2 4647   1.657   2.823  17.189 -0.6043 -0.0424 -0.6502
  309MPD2    C3 4648   1.562   2.795  17.283  0.5150  0.0002 -0.0139
  309MPD2    C4 4649   1.588   2.717  17.391 -0.7637 -0.2484 -1.2381
  309MPD2    C5 4650   1.707   2.655  17.387  0.1053  0.0158 -0.5525
  309MPD2     H 4651   1.632   2.886  17.104 -1.0254  2.4994  1.3606
  309MPD2    H1 4652   1.509   2.684  17.457 -0.6296  3.1880  0.6426
  309MPD2    H2 4653   1.898   2.625  17.302  0.3265 -0.4270 -2.9079
  309MPD2    H3 4654   1.734   2.585  17.466 -3.8108 -0.2834  0.5378
  309MPD2     N 4655   1.421   2.826  17.278  0.1407 -0.1183 -0.4304
  309MPD2    H5 4656   1.367   2.770  17.344  2.5302  1.3161  2.7181
  309MPD2    N1 4657   1.880   2.786  17.107 -0.4248 -0.2101 -0.4986
  309MPD2    H7 4658   1.957   2.720  17.112 -1.8345 -1.8409 -0.4873
  310TMC3    C1 4659   1.979   2.843  16.897  0.0155 -0.3963  0.2854
  310TMC3    C2 4660   1.950   2.883  16.769  0.7113  0.6781  0.3430
  310TMC3    C3 4661   2.033   2.847  16.669 -0.1943  0.6416 -0.3336
  310TMC3    C4 4662   2.090   2.771  16.927 -0.1119 -0.1660 -0.4365
  310TMC3    C5 4663   2.173   2.734  16.822  0.4087 -0.4679  0.3985
  310TMC3    C6 4664   2.146   2.766  16.693  0.1541 -0.6114 -0.4512
  310TMC3     C 4665   1.880   2.876  17.003  0.7602  0.3918  0.2424
  310TMC3     O 4666   1.802   2.970  16.981 -0.2729 -0.4866  0.0059
  310TMC3     H 4667   1.856   2.935  16.752 -1.2595 -1.7251  3.6695
  310TMC3    H1 4668   2.121   2.733  17.024 -1.9738  1.4203  0.7664
  310TMC3    H2 4669   2.216   2.746  16.612 -0.4030  0.4411 -1.1960
  310TMC3    C7 4670   2.299   2.682  16.860 -0.8030 -0.2700 -1.1444
  310TMC3    C8 4671   1.991   2.863  16.534 -0.0005  0.5311 -0.1868
  310TMC3    O1 4672   2.320   2.627  16.968 -0.6924 -0.1818 -0.7643
  310TMC3    O2 4673   1.869   2.889  16.512  0.5291 -0.0320 -0.4160
  311MPD2     C 4674   4.244   3.875  12.932 -0.1872  0.4560 -0.1065
  311MPD2    C1 4675   4.193   3.962  12.841  0.1823 -0.1575 -0.5136
  311MPD2    C2 4676   4.057   3.967  12.827  0.0307  0.2438 -0.2847
  311MPD2    C3 4677   3.968   3.900  12.908 -0.4193 -0.1774 -0.2928
  311MPD2    C4 4678   4.021   3.809  13.001  0.2513  0.7024 -0.0843
  311MPD2    C5 4679   4.159   3.799  13.008  0.8431  0.0542 -0.6658
  311MPD2     H 4680   4.013   4.037  12.757 -1.0041  0.7417  0.8649
  311MPD2    H1 4681   3.957   3.752  13.067  1.4201 -1.0360 -0.4709
  311MPD2    H2 4682   4.351   3.873  12.945 -0.3758 -3.5703  0.5960
  311MPD2    H3 4683   4.198   3.747  13.095  1.1396 -0.9988 -1.4381
  311MPD2     N 4684   3.838   3.940  12.899 -0.0619  0.4866  0.6522
  311MPD2    H5 4685   3.821   4.027  12.849  0.8772  1.4039  1.9039
  311MPD2    N1 4686   4.284   4.040  12.756  0.2146  0.3464 -0.1047
  311MPD2    H7 4687   4.383   4.016  12.753  0.4473  1.4195 -0.9390
  312TMC3    C1 4688   3.610   3.958  12.962 -0.4311  0.0591  0.5266
  312TMC3    C2 4689   3.494   3.898  12.940  0.2361 -0.1404 -0.0171
  312TMC3    C3 4690   3.380   3.974  12.905 -0.4563  0.1511  0.0287
  312TMC3    C4 4691   3.624   4.091  12.951 -0.3522 -0.0007  0.3316
  312TMC3    C5 4692   3.517   4.164  12.931  0.9420 -0.3201 -0.3153
  312TMC3    C6 4693   3.398   4.111  12.893  0.2921 -0.3497  0.3946
  312TMC3     C 4694   3.731   3.875  12.964  0.6015  0.1741  0.2940
  312TMC3     O 4695   3.729   3.763  13.013  0.0554  0.5308 -0.4072
  312TMC3     H 4696   3.502   3.790  12.931  1.2608 -0.2388  2.0875
  312TMC3    H1 4697   3.716   4.143  12.977  0.2483 -1.7812  1.7473
  312TMC3    H2 4698   3.322   4.179  12.856  1.9748  1.7916  0.8909
  312TMC3    C7 4699   3.539   4.307  12.911  0.0818 -0.7687 -0.7525
  312TMC3    C8 4700   3.254   3.914  12.868  0.0899  0.7225 -0.5877
  312TMC3    O1 4701   3.476   4.364  12.824 -0.5474 -0.2081  0.0424
  312TMC3    O2 4702   3.246   3.790  12.860 -0.1534  0.3110  0.0219
  313MPD2     C 4703   3.850   3.286  10.186 -0.6931  0.3179 -0.0280
  313MPD2    C1 4704   3.786   3.179  10.251  0.6389  0.4072  0.2736
  313MPD2    C2 4705   3.692   3.109  10.175 -0.3804  0.2235  0.1003
  313MPD2    C3 4706   3.677   3.139  10.041 -0.3055  1.0515  0.6711
  313MPD2    C4 4707   3.751   3.243   9.980  0.0711  0.9157  0.4063
  313MPD2    C5 4708   3.838   3.311  10.054  0.2777  0.0029  0.0384
  313MPD2     H 4709   3.644   3.018  10.209  0.3941 -0.1877  0.1030
  313MPD2    H1 4710   3.736   3.258   9.874  0.6329 -0.3556  0.1506
  313MPD2    H2 4711   3.932   3.331  10.242 -0.3468 -1.1746  0.6506
  313MPD2    H3 4712   3.898   3.386  10.004  1.0993 -0.4557  0.3306
  313MPD2     N 4713   3.598   3.050   9.967 -0.3888  0.4067 -0.3339
  313MPD2    H5 4714   3.550   2.973  10.014  0.2841  0.3855  0.3226
  313MPD2    N1 4715   3.803   3.137  10.383  0.3817 -0.6127 -0.2063
  313MPD2    H7 4716   3.777   3.042  10.406  0.4733 -0.4165  0.7017
  314TMC3    C1 4717   3.808   3.182  10.612  0.7216  0.0577  0.1855
  314TMC3    C2 4718   3.800   3.288  10.696  0.4017  0.2668  0.2407
  314TMC3    C3 4719   3.678   3.314  10.757 -0.2775 -0.2853  0.1149
  314TMC3    C4 4720   3.700   3.094  10.612  0.0468 -0.4432 -0.5622
  314TMC3    C5 4721   3.582   3.118  10.675 -0.0177  0.8620 -0.4882
  314TMC3    C6 4722   3.567   3.235  10.741 -0.2306 -0.4759  0.1632
  314TMC3     C 4723   3.856   3.226  10.480  0.0739  0.5721  1.3232
  314TMC3     O 4724   3.901   3.336  10.470 -0.2158 -0.2106 -0.7623
  314TMC3     H 4725   3.873   3.368  10.699 -2.6286  2.9908  1.4472
  314TMC3    H1 4726   3.701   3.006  10.550 -0.6336 -0.2843 -0.8045
  314TMC3    H2 4727   3.468   3.254  10.781  1.0506 -4.1110  5.1652
  314TMC3    C7 4728   3.486   3.072  10.574 -0.4455  0.4030  0.1011
  314TMC3    C8 4729   3.661   3.436  10.839 -0.8095 -0.6140 -0.1642
  314TMC3    O1 4730   3.458   2.955  10.554  0.0835 -0.0977  0.5778
  314TMC3    O2 4731   3.761   3.504  10.866 -0.4493  0.4723 -0.0341
  315MPD2     C 4732   2.723   2.761   0.346 -0.5047  0.2301 -0.2515
  315MPD2    C1 4733   2.820   2.852   0.318  0.1929  0.1932 -0.3961
  315MPD2    C2 4734   2.846   2.887   0.191  0.2780  0.0058 -0.1232
  315MPD2    C3 4735   2.775   2.842   0.084  0.0282  0.2570  0.4431
  315MPD2    C4 4736   2.685   2.746   0.116 -0.3522  0.4012  0.5063
  315MPD2    C5 4737   2.657   2.703   0.239  0.0651 -0.1139 -0.2265
  315MPD2     H 4738   2.919   2.963   0.167 -0.1299  0.8383  1.2816
  315MPD2    H1 4739   2.631   2.709   0.029  3.0762  0.0158 -1.4398
  315MPD2    H2 4740   2.696   2.725   0.444 -2.2168 -3.3853 -2.0592
  315MPD2    H3 4741   2.578   2.630   0.254  1.0559 -0.7877  1.6933
  315MPD2     N 4742   2.813   2.881  17.660  0.4613 -0.7389  0.3051
  315MPD2    H5 4743   2.889   2.947  17.658 -0.5669  0.4894  1.3311
  315MPD2    N1 4744   2.899   2.912   0.417 -0.0094  0.1595  0.1863
  315MPD2    H7 4745   2.979   2.967   0.387 -0.9789  1.1833 -0.5421
  316TMC3    C1 4746   2.760   2.989  17.456  0.3473  0.2576  1.0026
  316TMC3    C2 4747   2.892   3.012  17.431 -0.1560 -0.6983 -0.4944
  316TMC3    C3 4748   2.926   3.106  17.338  0.5659  0.4135  0.3448
  316TMC3    C4 4749   2.660   3.062  17.390  0.6878  0.6103 -0.1867
  316TMC3    C5 4750   2.699   3.151  17.292 -0.4139  0.1694 -0.6312
  316TMC3    C6 4751   2.830   3.181  17.267 -0.2097  0.6287  0.6490
  316TMC3     C 4752   2.718   2.899  17.557 -0.2126 -0.6043 -0.8865
  316TMC3     O 4753   2.598   2.878  17.571  0.0700 -0.2016 -0.5378
  316TMC3     H 4754   2.969   2.941  17.459  0.0231  0.4161  1.8677
  316TMC3    H1 4755   2.553   3.051  17.403  0.6778 -0.4179 -1.0802
  316TMC3    H2 4756   2.865   3.265  17.208  0.9657 -0.9400 -0.8632
  316TMC3    C7 4757   2.595   3.216  17.224  0.0584  0.7404 -0.1442
  316TMC3    C8 4758   3.063   3.132  17.311  0.5765  0.7665  0.0313
  316TMC3    O1 4759   2.487   3.228  17.283  0.0234  0.1922  0.3976
  316TMC3    O2 4760   3.105   3.134  17.197  0.1042  0.2127  0.2607
  317MPD2     C 4761   0.991   1.263  12.511  0.5185 -0.1867 -0.7610
  317MPD2    C1 4762   0.902   1.160  12.504  0.0122 -0.4164 -0.3268
  317MPD2    C2 4763   0.880   1.090  12.619 -0.0075  0.3417 -0.2340
  317MPD2    C3 4764   0.949   1.114  12.737  0.6869  0.5117  0.2769
  317MPD2    C4 4765   1.039   1.215  12.736 -1.0004 -0.1099 -0.0276
  317MPD2    C5 4766   1.051   1.287  12.623  0.3338 -0.6648  0.6999
  317MPD2     H 4767   0.802   1.014  12.624  0.0645  0.4227  2.1422
  317MPD2    H1 4768   1.097   1.234  12.825 -0.2147 -0.6278 -0.4181
  317MPD2    H2 4769   1.004   1.337  12.432 -0.7839  1.1309  0.2438
  317MPD2    H3 4770   1.121   1.370  12.625 -0.8915  0.3971  0.1640
  317MPD2     N 4771   0.920   1.033  12.850  0.0495 -0.7227 -0.1078
  317MPD2    H5 4772   0.849   0.964  12.831  0.2121 -0.8631 -0.1995
  317MPD2    N1 4773   0.852   1.117  12.376 -0.2239  0.2562  0.5853
  317MPD2    H7 4774   0.806   1.027  12.371 -0.4732  0.4094  0.1363
  318TMC3    C1 4775   0.983   0.916  13.042  0.1570  0.2405  0.6674
  318TMC3    C2 4776   0.942   0.800  12.981 -0.5611  0.6415 -0.0804
  318TMC3    C3 4777   0.947   0.687  13.056  0.0227 -0.6660 -0.1952
  318TMC3    C4 4778   1.018   0.928  13.172 -0.2068  0.3296  0.2809
  318TMC3    C5 4779   1.009   0.813  13.245 -0.7509  0.3183  0.2345
  318TMC3    C6 4780   0.980   0.691  13.193 -0.4724  0.0949 -0.5370
  318TMC3     C 4781   0.988   1.039  12.968  0.0887  0.0189  0.8890
  318TMC3     O 4782   1.057   1.125  13.018  0.9012  0.1846 -0.1628
  318TMC3     H 4783   0.902   0.790  12.880  0.0716 -1.3500 -0.1253
  318TMC3    H1 4784   1.049   1.020  13.222  0.8309  1.0827 -1.7279
  318TMC3    H2 4785   0.952   0.610  13.258  0.6476  0.0893 -0.0647
  318TMC3    C7 4786   1.050   0.821  13.380 -0.3408  0.3965  0.1602
  318TMC3    C8 4787   0.880   0.570  13.005 -0.1027 -0.2527  0.1771
  318TMC3    O1 4788   1.038   0.927  13.442  0.1277  0.3161  0.2426
  318TMC3    O2 4789   0.918   0.468  13.051 -0.0234  0.0700  0.1977
  319MPD2     C 4790   1.737   2.226  16.195  0.0232  0.2074 -0.4308
  319MPD2    C1 4791   1.646   2.269  16.289 -0.7891 -0.2051  0.3486
  319MPD2    C2 4792   1.516   2.289  16.252  0.5529  0.0753  0.7519
  319MPD2    C3 4793   1.476   2.262  16.120 -0.3359  0.0733  0.3011
  319MPD2    C4 4794   1.572   2.217  16.026  0.1782  0.1201  0.0655
  319MPD2    C5 4795   1.702   2.197  16.066 -0.0553  0.9064  0.3779
  319MPD2     H 4796   1.447   2.323  16.328 -1.7197  1.8622 -2.0757
  319MPD2    H1 4797   1.551   2.219  15.920 -3.1114 -1.3589  0.6830
  319MPD2    H2 4798   1.842   2.208  16.215  0.2672 -0.6724 -2.4712
  319MPD2    H3 4799   1.785   2.178  15.998  0.1339 -0.5938  1.0362
  319MPD2     N 4800   1.352   2.307  16.070 -0.2899 -0.2680 -0.4016
  319MPD2    H5 4801   1.335   2.291  15.972 -0.8896  2.4779 -0.7368
  319MPD2    N1 4802   1.683   2.294  16.426  0.4199 -0.0949  0.0416
  319MPD2    H7 4803   1.604   2.309  16.488  1.3794 -3.1081  1.9661
  320TMC3    C1 4804   1.128   2.346  16.066  0.3481 -0.1091 -0.1617
  320TMC3    C2 4805   1.147   2.405  15.945 -0.1401  0.5920  0.1928
  320TMC3    C3 4806   1.041   2.393  15.855 -0.0644 -0.2987 -0.3101
  320TMC3    C4 4807   1.005   2.294  16.109  0.7778 -0.2102  0.3093
  320TMC3    C5 4808   0.900   2.289  16.022 -0.4549 -0.2548  0.8830
  320TMC3    C6 4809   0.922   2.332  15.894  0.2629  0.6092 -0.7857
  320TMC3     C 4810   1.241   2.325  16.146  0.4981  0.1613  0.9335
  320TMC3     O 4811   1.219   2.322  16.267 -0.0402  0.2929  0.6951
  320TMC3     H 4812   1.240   2.445  15.906 -0.6625 -0.0914 -1.7707
  320TMC3    H1 4813   0.986   2.256  16.209 -1.0421 -1.0839 -0.3782
  320TMC3    H2 4814   0.834   2.318  15.832  0.2541  0.6013 -0.7715
  320TMC3    C7 4815   0.826   2.171  16.032 -0.1117  0.3875  0.1157
  320TMC3    C8 4816   1.040   2.483  15.739  0.6296  1.1479  0.5058
  320TMC3    O1 4817   0.819   2.104  15.932  0.8180 -0.0860 -0.0582
  320TMC3    O2 4818   1.130   2.569  15.747 -0.1255  0.4604 -0.0638
  321TMC3    C1 4819   1.803   2.343  16.609  0.0130  0.0569 -1.1114
  321TMC3    C2 4820   1.683   2.387  16.673 -0.7656 -0.1216 -0.3234
  321TMC3    C3 4821   1.687   2.469  16.785  0.2777 -0.2857 -0.7677
  321TMC3    C4 4822   1.919   2.378  16.662 -0.1574 -0.7020  0.3071
  321TMC3    C5 4823   1.926   2.466  16.776  0.6881 -0.0395 -0.5019
  321TMC3    C6 4824   1.809   2.512  16.833  0.2569  0.3376  0.0658
  321TMC3     C 4825   1.808   2.284  16.478 -0.0055 -0.1171  0.1372
  321TMC3     O 4826   1.913   2.255  16.422  0.2554 -0.1421  0.3334
  321TMC3     H 4827   1.581   2.366  16.644 -0.5440 -0.7784 -0.6204
  321TMC3    H1 4828   2.007   2.331  16.619 -0.4290 -0.2212 -0.7646
  321TMC3    H2 4829   1.813   2.579  16.919 -3.6845  1.0011 -0.2847
  321TMC3    C7 4830   1.997   2.409  16.890 -0.3021 -0.0720  0.4145
  321TMC3    C8 4831   1.594   2.462  16.892 -0.6610  0.1374  0.7748
  321TMC3    O1 4832   1.947   2.437  17.001  0.4040 -0.6091 -0.7663
  321TMC3    O2 4833   1.475   2.469  16.866  0.2064  0.0683  0.2781
  322MPD2     C 4834   0.599   3.728  13.595  0.1733 -0.3108  0.0489
  322MPD2    C1 4835   0.537   3.653  13.694  0.1190 -0.5464 -0.3050
  322MPD2    C2 4836   0.489   3.530  13.649 -0.2755 -0.2083 -0.1402
  322MPD2    C3 4837   0.497   3.490  13.517  0.4956 -0.2348  0.0506
  322MPD2    C4 4838   0.568   3.569  13.427 -0.3096  0.0662  0.2914
  322MPD2    C5 4839   0.607   3.694  13.466 -0.4629  0.6047 -0.3357
  322MPD2     H 4840   0.451   3.464  13.725 -0.9578 -0.0803 -0.3721
  322MPD2    H1 4841   0.578   3.543  13.322 -0.4246  1.4096 -0.0560
  322MPD2    H2 4842   0.636   3.824  13.628 -0.7334 -0.3623  1.2216
  322MPD2    H3 4843   0.671   3.757  13.406  1.6869  0.2526  1.6104
  322MPD2     N 4844   0.430   3.381  13.464 -0.3376 -0.6279 -0.0164
  322MPD2    H5 4845   0.448   3.365  13.366 -0.2851  2.0530 -0.4429
  322MPD2    N1 4846   0.548   3.698  13.827 -0.5508  0.6930  0.7609
  322MPD2    H7 4847   0.611   3.777  13.830 -1.7516  1.7336 -1.6358
  323TMC3    C1 4848   0.581   3.682  14.059 -0.0319  0.0378 -0.5791
  323TMC3    C2 4849   0.682   3.784  14.054 -1.0810  0.0167 -0.2280
  323TMC3    C3 4850   0.768   3.801  14.158 -0.6243  0.4053  0.3592
  323TMC3    C4 4851   0.578   3.603  14.174 -0.4085  0.0418 -0.0541
  323TMC3    C5 4852   0.668   3.630  14.270 -0.1382  0.0300 -0.0567
  323TMC3    C6 4853   0.760   3.728  14.268  0.2006 -0.2311  0.0168
  323TMC3     C 4854   0.511   3.629  13.941 -0.3767  0.1449  0.0706
  323TMC3     O 4855   0.441   3.528  13.955 -0.1520  0.3871 -0.3506
  323TMC3     H 4856   0.689   3.853  13.971 -2.8728 -1.4160 -1.5400
  323TMC3    H1 4857   0.524   3.509  14.173  1.3261 -0.9733 -1.9699
  323TMC3    H2 4858   0.840   3.718  14.342  0.2358  0.7089  0.0986
  323TMC3    C7 4859   0.709   3.510  14.337  0.6043 -0.0244  0.6830
  323TMC3    C8 4860   0.901   3.820  14.128 -0.6326 -0.4527 -0.1543
  323TMC3    O1 4861   0.702   3.402  14.274 -0.1861  0.7351 -0.3829
  323TMC3    O2 4862   0.978   3.742  14.182  0.0014  0.0579 -0.5304
  324MPD2     C 4863   1.929   4.649  14.424 -0.4480 -0.6206 -0.1905
  324MPD2    C1 4864   1.865   0.035  14.461 -0.5086  0.7079  0.1277
  324MPD2    C2 4865   1.765   0.086  14.379  0.1616  0.0370 -0.0001
  324MPD2    C3 4866   1.718   0.018  14.269  0.0975 -0.5820 -0.3847
  324MPD2    C4 4867   1.779   4.621  14.241 -0.1415 -0.4171  0.2035
  324MPD2    C5 4868   1.882   4.575  14.319 -0.2520 -0.6236  0.3821
  324MPD2     H 4869   1.736   0.189  14.398 -1.3726  0.1697 -3.0322
  324MPD2    H1 4870   1.756   4.545  14.168 -0.9031 -0.4103  0.4313
  324MPD2    H2 4871   2.009   4.614  14.489 -1.3615 -0.3436  1.0714
  324MPD2    H3 4872   1.926   4.479  14.294 -0.4104 -0.9924  1.5027
  324MPD2     N 4873   1.613   0.073  14.191 -0.4918 -0.1673 -0.1287
  324MPD2    H5 4874   1.576   0.157  14.236 -1.7901 -0.3315 -0.8973
  324MPD2    N1 4875   1.900   0.115  14.575  0.7844 -0.2993  0.8806
  324MPD2    H7 4876   1.837   0.193  14.593 -0.1182 -1.3001  2.0354
  325TMC3    C1 4877   1.482   0.117  14.014  0.1930  0.0297  0.9233
  325TMC3    C2 4878   1.408   0.046  13.918  0.2572 -0.4612 -0.6552
  325TMC3    C3 4879   1.303   0.117  13.871  0.5414  0.7477  0.3006
  325TMC3    C4 4880   1.443   0.233  14.078  0.5670  0.0700 -0.1470
  325TMC3    C5 4881   1.332   0.297  14.021 -0.1492  0.2720 -0.8462
  325TMC3    C6 4882   1.258   0.239  13.921 -0.4890  0.0186 -0.0952
  325TMC3     C 4883   1.585   0.038  14.062 -0.1959 -0.3943 -0.4268
  325TMC3     O 4884   1.654   4.701  13.983  0.3691 -0.3151  0.5669
  325TMC3     H 4885   1.452   4.682  13.881  2.2303  0.0880  0.3755
  325TMC3    H1 4886   1.505   0.286  14.150 -1.7317 -0.1887  2.0275
  325TMC3    H2 4887   1.163   0.287  13.898 -1.1888 -1.0495  0.5173
  325TMC3    C7 4888   1.273   0.410  14.097  0.0469  0.1344 -0.8564
  325TMC3    C8 4889   1.202   0.034  13.800 -0.1155 -0.0039  0.3631
  325TMC3    O1 4890   1.180   0.460  14.035 -0.1775 -0.5361 -0.5501
  325TMC3    O2 4891   1.215   4.643  13.818 -0.2462 -0.5420 -0.1923
  326MPD2     C 4892   2.961   0.734  11.231 -0.0332  1.0105  0.1352
  326MPD2    C1 4893   2.981   0.712  11.100 -0.5404  0.2151 -0.4185
  326MPD2    C2 4894   3.069   0.794  11.029  0.9668  0.6973  0.0414
  326MPD2    C3 4895   3.141   0.901  11.092 -0.3249 -0.3369  0.2454
  326MPD2    C4 4896   3.109   0.921  11.224  0.2224  0.0800  0.3167
  326MPD2    C5 4897   3.030   0.838  11.293 -0.2315  0.0044 -0.5254
  326MPD2     H 4898   3.078   0.774  10.923 -1.7054 -1.0406  0.1446
  326MPD2    H1 4899   3.155   1.004  11.277 -1.4138  2.3253 -1.7503
  326MPD2    H2 4900   2.889   0.679  11.292 -0.4226  0.3648 -0.9089
  326MPD2    H3 4901   3.022   0.861  11.399  2.4568 -0.6414 -0.2001
  326MPD2     N 4902   3.235   0.991  11.029  0.2238 -0.2041 -0.1841
  326MPD2    H5 4903   3.265   1.068  11.087  1.3510 -0.0408 -0.9920
  326MPD2    N1 4904   2.928   0.600  11.030 -0.2889  0.6266 -0.3305
  326MPD2    H7 4905   2.964   0.594  10.935  2.4398 -1.7418  0.8324
  327TMC3    C1 4906   2.786   0.436  10.968  0.6781 -0.0644  0.4543
  327TMC3    C2 4907   2.708   0.502  10.876 -0.1172  0.6445  0.2684
  327TMC3    C3 4908   2.727   0.481  10.745 -0.5377 -0.2805  0.1567
  327TMC3    C4 4909   2.893   0.358  10.923  0.2379  0.4804 -0.4122
  327TMC3    C5 4910   2.920   0.355  10.789 -0.1784 -0.5593 -0.9978
  327TMC3    C6 4911   2.834   0.410  10.703 -0.1194  0.3740 -1.1444
  327TMC3     C 4912   2.830   0.522  11.079 -0.0429 -0.1878 -0.1361
  327TMC3     O 4913   2.746   0.535  11.164 -0.4272  0.0482  1.0766
  327TMC3     H 4914   2.648   0.585  10.912  0.7396  1.9776 -1.3946
  327TMC3    H1 4915   2.951   0.296  10.990  1.7311  2.2572 -0.0704
  327TMC3    H2 4916   2.852   0.407  10.596  1.1292  1.4240 -0.9649
  327TMC3    C7 4917   3.057   0.374  10.750  0.5771 -0.0650 -0.8306
  327TMC3    C8 4918   2.676   0.591  10.651  0.3395  0.8401  0.2160
  327TMC3    O1 4919   3.062   0.387  10.630 -0.5666  0.1727 -0.0816
  327TMC3    O2 4920   2.626   0.694  10.699  0.1874  0.5966 -0.1341
  328MPD2     C 4921   0.692   0.575  16.338  0.3735  0.3338  0.5355
  328MPD2    C1 4922   0.610   0.550  16.437 -0.0736 -0.7128  0.4162
  328MPD2    C2 4923   0.582   0.646  16.528  0.6166  0.4254 -0.2015
  328MPD2    C3 4924   0.638   0.772  16.508 -0.3800  0.6935 -0.6973
  328MPD2    C4 4925   0.737   0.799  16.418 -0.1358  0.1792 -0.0302
  328MPD2    C5 4926   0.754   0.701  16.329 -0.3924 -0.8053 -0.4645
  328MPD2     H 4927   0.504   0.632  16.601 -0.1862 -0.0992 -1.1548
  328MPD2    H1 4928   0.783   0.896  16.402 -2.6507  1.4107  0.1826
  328MPD2    H2 4929   0.716   0.492  16.274 -2.2408 -1.5360  2.0137
  328MPD2    H3 4930   0.833   0.725  16.258 -0.3321  2.2807  0.6381
  328MPD2     N 4931   0.599   0.890  16.583 -0.0622  0.3215  0.0815
  328MPD2    H5 4932   0.645   0.978  16.565 -2.1587  1.7177  1.6709
  328MPD2    N1 4933   0.550   0.423  16.443  0.7240  0.0441 -0.0289
  328MPD2    H7 4934   0.573   0.364  16.364 -2.9265 -0.3506 -0.7778
  329TMC3    C1 4935   0.435   0.243  16.536  0.2816  0.0216  0.3408
  329TMC3    C2 4936   0.363   0.202  16.644  0.5150  0.0034 -0.5335
  329TMC3    C3 4937   0.359   0.069  16.680  0.5353 -0.1957  1.1774
  329TMC3    C4 4938   0.509   0.147  16.464  0.3390  0.2148  0.3330
  329TMC3    C5 4939   0.506   0.011  16.507 -0.6938 -0.0916 -0.5144
  329TMC3    C6 4940   0.432   4.700  16.615 -0.7646  0.2397  0.0661
  329TMC3     C 4941   0.459   0.382  16.529 -0.3963  0.7730  0.5208
  329TMC3     O 4942   0.378   0.451  16.593  0.1283  0.4002 -0.5360
  329TMC3     H 4943   0.312   0.278  16.702 -0.0644  0.0319 -1.0779
  329TMC3    H1 4944   0.562   0.176  16.374  1.8503 -3.5547  0.0270
  329TMC3    H2 4945   0.438   4.605  16.667  2.2358  0.4473  0.1022
  329TMC3    C7 4946   0.571   4.639  16.418  0.7180 -0.3060 -0.6361
  329TMC3    C8 4947   0.276   0.023  16.786 -0.1899  0.1927  0.3453
  329TMC3    O1 4948   0.645   4.677  16.328  0.1816  0.2635  0.1689
  329TMC3    O2 4949   0.277   4.633  16.807  0.4229 -0.1825  0.0007
  330TMC3    C1 4950   3.510   0.397   9.249  0.8221  0.5337  0.1296
  330TMC3    C2 4951   3.401   0.313   9.242 -0.1174  0.5256  0.6068
  330TMC3    C3 4952   3.414   0.188   9.303 -0.4113  0.8844  0.1666
  330TMC3    C4 4953   3.625   0.376   9.315  0.4295 -0.0796 -0.5807
  330TMC3    C5 4954   3.636   0.254   9.377 -0.1871  0.6467  0.1824
  330TMC3    C6 4955   3.534   0.161   9.369 -0.0209  0.0746  0.4044
  330TMC3     C 4956   3.469   0.530   9.233 -0.1612 -0.0833  0.2178
  330TMC3     O 4957   3.543   0.605   9.183  0.1835 -0.0327 -0.2891
  330TMC3     H 4958   3.309   0.337   9.190  0.5697 -0.4188 -1.0657
  330TMC3    H1 4959   3.701   0.449   9.339 -1.1931  1.3732  0.1809
  330TMC3    H2 4960   3.542   0.069   9.425  2.4082 -0.2829 -0.5082
  330TMC3    C7 4961   3.746   0.234   9.471 -0.0855  0.3627  0.1468
  330TMC3    C8 4962   3.307   0.088   9.299 -0.4077  0.7875  0.1604
  330TMC3    O1 4963   3.838   0.312   9.448  0.3009 -0.0338 -0.1574
  330TMC3    O2 4964   3.209   0.124   9.237  0.7351  0.1848 -0.4254
  331MPD2     C 4965   1.107   3.400  12.575 -0.5996 -0.0202 -0.3687
  331MPD2    C1 4966   1.181   3.500  12.511  0.0234 -0.4390 -0.0368
  331MPD2    C2 4967   1.277   3.454  12.428  0.9453  0.6355 -0.8256
  331MPD2    C3 4968   1.311   3.322  12.418  0.4807 -0.2607 -0.3666
  331MPD2    C4 4969   1.253   3.231  12.499 -0.1101 -0.7371  0.1863
  331MPD2    C5 4970   1.134   3.261  12.556  0.2178 -0.3564 -0.2940
  331MPD2     H 4971   1.334   3.532  12.379  0.8494  2.0540  1.3316
  331MPD2    H1 4972   1.283   3.128  12.517  1.7466  0.1401  2.1479
  331MPD2    H2 4973   1.029   3.428  12.645 -0.7449 -1.2273 -0.0452
  331MPD2    H3 4974   1.103   3.189  12.630  2.3314 -0.3330  0.6208
  331MPD2     N 4975   1.433   3.300  12.356  0.0467 -0.2777 -0.4129
  331MPD2    H5 4976   1.469   3.384  12.311  0.1031  0.2934  0.6977
  331MPD2    N1 4977   1.164   3.640  12.542 -0.4427  0.5984 -0.3981
  331MPD2    H7 4978   1.083   3.662  12.598  1.4125  1.9008  1.7478
  332TMC3    C1 4979   1.644   3.195  12.305  0.6945  0.5916 -0.2282
  332TMC3    C2 4980   1.689   3.315  12.245 -0.4638  0.3434  0.3667
  332TMC3    C3 4981   1.821   3.330  12.223 -0.8854 -0.5693  0.1827
  332TMC3    C4 4982   1.725   3.083  12.328 -0.9598  0.0411 -0.6087
  332TMC3    C5 4983   1.856   3.110  12.296  0.6561 -0.5377 -0.5005
  332TMC3    C6 4984   1.906   3.227  12.248  0.1274 -0.0034 -0.6298
  332TMC3     C 4985   1.505   3.181  12.350 -0.3842 -0.1182  0.4451
  332TMC3     O 4986   1.465   3.071  12.375  0.4572  0.3527 -0.4978
  332TMC3     H 4987   1.624   3.397  12.218  0.0298  0.3504 -0.7717
  332TMC3    H1 4988   1.686   2.994  12.376  0.0833  0.9790  1.9704
  332TMC3    H2 4989   2.007   3.235  12.209  0.5166  1.0674  0.6027
  332TMC3    C7 4990   1.957   3.000  12.322 -0.4474  0.5099 -0.3062
  332TMC3    C8 4991   1.882   3.459  12.184  0.1575  0.0928  0.0869
  332TMC3    O1 4992   1.906   2.886  12.320  0.5722  0.1081  0.0354
  332TMC3    O2 4993   2.001   3.452  12.158  0.0365  0.8273 -0.2864
  333MPD2     C 4994   1.701   4.338  10.683  0.1667  1.0734 -0.4332
  333MPD2    C1 4995   1.740   4.216  10.631  0.2061 -0.0399  0.4329
  333MPD2    C2 4996   1.677   4.112  10.689  0.2888  0.2830 -0.7584
  333MPD2    C3 4997   1.571   4.125  10.785 -0.4747  0.2584 -0.1419
  333MPD2    C4 4998   1.533   4.246  10.831  0.3561 -0.3026 -0.1663
  333MPD2    C5 4999   1.599   4.357  10.779  0.0470 -0.3345  0.0327
  333MPD2     H 5000   1.701   4.010  10.662 -1.3732 -0.4425  0.4887
  333MPD2    H1 5001   1.467   4.260  10.916  2.2904  0.4469  1.2395
  333MPD2    H2 5002   1.740   4.428  10.636 -0.7767  0.9552 -1.4562
  333MPD2    H3 5003   1.561   4.457  10.798 -0.2858 -0.6615  1.0729
  333MPD2     N 5004   1.530   4.007  10.848 -0.8932  0.5217 -0.5961
  333MPD2    H5 5005   1.572   3.921  10.815 -1.1776 -0.3156  1.2245
  333MPD2    N1 5006   1.837   4.203  10.526 -0.1402  0.0525 -0.0630
  333MPD2    H7 5007   1.892   4.283  10.497 -1.1131  1.0199  0.7411
  334TMC3    C1 5008   1.944   4.121  10.345  0.3052 -0.0992  0.5057
  334TMC3    C2 5009   2.039   4.026  10.319 -0.5011 -0.0089  0.2705
  334TMC3    C3 5010   2.141   4.064  10.231 -0.6770  0.3699  0.3534
  334TMC3    C4 5011   1.938   4.247  10.291  0.1570  0.6093 -0.1901
  334TMC3    C5 5012   2.038   4.274  10.202  0.4416  0.3118  0.4517
  334TMC3    C6 5013   2.137   4.190  10.175  0.0329  0.7034  0.6295
  334TMC3     C 5014   1.852   4.092  10.450 -0.1302  0.3685 -0.0631
  334TMC3     O 5015   1.832   3.977  10.482 -0.1738 -0.3038  0.6543
  334TMC3     H 5016   2.037   3.933  10.374 -0.9222  0.6811  1.4256
  334TMC3    H1 5017   1.855   4.312  10.313 -0.3663  0.5534 -2.0002
  334TMC3    H2 5018   2.213   4.216  10.102  0.9467 -3.7046 -0.0116
  334TMC3    C7 5019   2.046   4.414  10.162  0.7148 -0.6782  0.1675
  334TMC3    C8 5020   2.241   3.966  10.194 -0.0408 -0.0230  0.2072
  334TMC3    O1 5021   1.991   4.501  10.234 -0.5262 -0.3332 -0.3607
  334TMC3    O2 5022   2.213   3.850  10.220 -0.1672  0.1968 -0.0343
  335TMC3    C1 5023   1.394   1.370  16.810 -0.1162 -0.4716 -0.7457
  335TMC3    C2 5024   1.299   1.273  16.781  0.5016 -0.3926 -0.4231
  335TMC3    C3 5025   1.341   1.159  16.722  0.3803  0.0507 -0.1340
  335TMC3    C4 5026   1.528   1.353  16.789 -0.2468  0.2406 -0.1570
  335TMC3    C5 5027   1.561   1.235  16.736 -0.6998 -0.5614 -0.2143
  335TMC3    C6 5028   1.472   1.138  16.700 -0.4679  0.0298 -0.3514
  335TMC3     C 5029   1.363   1.505  16.855  0.5414  0.2287 -0.4134
  335TMC3     O 5030   1.460   1.578  16.884 -0.2595  0.6607  0.4733
  335TMC3     H 5031   1.192   1.290  16.779  0.8398  1.7523 -0.5110
  335TMC3    H1 5032   1.598   1.436  16.794  0.0075 -0.2112  3.9830
  335TMC3    H2 5033   1.516   1.048  16.658  0.8944 -0.0600  1.2646
  335TMC3    C7 5034   1.701   1.201  16.737  0.2393  0.6603 -0.3623
  335TMC3    C8 5035   1.243   1.071  16.667  0.1953 -0.0962 -0.8879
  335TMC3    O1 5036   1.738   1.104  16.673  0.3126  0.2640  0.0862
  335TMC3    O2 5037   1.152   1.045  16.740 -0.5255 -0.2741  0.1516
  336MPD2     C 5038   1.170   3.413  16.424  1.0496  0.1343 -0.4033
  336MPD2    C1 5039   1.131   3.365  16.301  0.5432  0.0679 -0.3243
  336MPD2    C2 5040   1.141   3.231  16.277  0.3971 -0.1195 -0.1346
  336MPD2    C3 5041   1.186   3.154  16.381 -0.9044 -0.1032 -0.6624
  336MPD2    C4 5042   1.209   3.199  16.504  0.6518 -0.3186 -0.1451
  336MPD2    C5 5043   1.208   3.328  16.526 -0.0279 -0.6180 -0.0569
  336MPD2     H 5044   1.118   3.189  16.179  0.8459  0.8976 -0.6812
  336MPD2    H1 5045   1.241   3.131  16.582 -1.8247  0.3867  1.4819
  336MPD2    H2 5046   1.157   3.517  16.452  3.7963 -0.1059  1.7267
  336MPD2    H3 5047   1.245   3.358  16.623  0.4526 -1.8168  0.1343
  336MPD2     N 5048   1.189   3.008  16.363  0.2529  0.5845  0.3137
  336MPD2    H5 5049   1.205   2.955  16.449 -1.8541  0.0325  0.3696
  336MPD2    N1 5050   1.096   3.440  16.184 -0.6785 -0.4725  0.1187
  336MPD2    H7 5051   1.095   3.390  16.096  0.2541  1.3252 -0.9048
  337TMC3    C1 5052   1.070   3.623  16.039 -0.2699 -0.2122 -0.3277
  337TMC3    C2 5053   0.984   3.555  15.955  0.1617  0.1524  0.0426
  337TMC3    C3 5054   0.938   3.617  15.843  0.1545  0.7780  0.4878
  337TMC3    C4 5055   1.106   3.753  16.007 -0.6672  0.0387  0.4668
  337TMC3    C5 5056   1.069   3.805  15.894 -0.6806  0.1781 -0.1610
  337TMC3    C6 5057   0.977   3.748  15.813 -0.1499 -0.0339  0.0019
  337TMC3     C 5058   1.081   3.582  16.181 -0.3717  0.4924  0.5739
  337TMC3     O 5059   1.075   3.675  16.269  0.3273 -0.1013  0.6927
  337TMC3     H 5060   0.933   3.466  15.989  0.4671  0.6555  1.8289
  337TMC3    H1 5061   1.168   3.815  16.071 -2.5730  2.0489  0.3342
  337TMC3    H2 5062   0.922   3.810  15.743  3.2106 -1.7760 -4.1372
  337TMC3    C7 5063   1.172   3.898  15.840 -0.4350  0.2362 -0.1800
  337TMC3    C8 5064   0.804   3.570  15.799  0.7244 -0.1277 -0.4020
  337TMC3    O1 5065   1.261   3.943  15.913 -0.0002 -0.2532  0.2723
  337TMC3    O2 5066   0.742   3.492  15.873  0.4449  0.5147  0.3631
  338MPD2     C 5067   1.037   2.712   1.052  0.3612  0.0065 -0.4155
  338MPD2    C1 5068   1.115   2.789   0.972 -0.6360  0.0727  0.0338
  338MPD2    C2 5069   1.149   2.912   1.022  0.3255 -0.0679  0.5184
  338MPD2    C3 5070   1.085   2.973   1.131 -0.1778  0.6725  0.5177
  338MPD2    C4 5071   0.989   2.896   1.200 -0.2487  0.5892 -0.0785
  338MPD2    C5 5072   0.982   2.766   1.163 -0.2128  0.1615  0.3118
  338MPD2     H 5073   1.216   2.974   0.963  1.2301  0.2801  1.8977
  338MPD2    H1 5074   0.910   2.925   1.269  1.7121  1.7012  1.7272
  338MPD2    H2 5075   0.999   2.612   1.032  1.7639 -0.5057 -0.5755
  338MPD2    H3 5076   0.909   2.700   1.208 -0.9904 -1.0863 -2.7849
  338MPD2     N 5077   1.106   3.113   1.153  0.4790  1.0615  0.2119
  338MPD2    H5 5078   1.165   3.162   1.087 -0.1531 -0.6789 -1.6514
  338MPD2    N1 5079   1.160   2.731   0.849 -0.4369  0.4968  0.2769
  338MPD2    H7 5080   1.147   2.631   0.838 -0.8341  0.5631  0.1164
  339TMC3    C1 5081   1.056   3.320   1.244 -0.2978  0.2828 -0.3752
  339TMC3    C2 5082   1.001   3.402   1.339 -0.7635 -0.0092  0.0331
  339TMC3    C3 5083   0.962   3.523   1.304 -0.2438  0.0654  0.1649
  339TMC3    C4 5084   1.067   3.364   1.119 -0.2302  0.4086 -0.5924
  339TMC3    C5 5085   1.027   3.496   1.091 -0.9074  0.2578 -0.2380
  339TMC3    C6 5086   0.972   3.574   1.185  0.3643 -0.4366  0.3853
  339TMC3     C 5087   1.055   3.177   1.271 -0.2130  0.2979 -0.5914
  339TMC3     O 5088   0.999   3.142   1.375  0.2055  0.1357 -0.0539
  339TMC3     H 5089   0.988   3.360   1.438  1.8790  3.1681  1.7513
  339TMC3    H1 5090   1.088   3.305   1.031  0.6323 -1.0407  0.5700
  339TMC3    H2 5091   0.932   3.672   1.163  1.3130 -0.0189  0.5191
  339TMC3    C7 5092   1.010   3.523   0.944  0.5280 -0.8396 -0.3825
  339TMC3    C8 5093   0.888   3.608   1.399 -0.6503 -0.2307 -0.0431
  339TMC3    O1 5094   1.059   3.450   0.862  0.1668 -0.0554  0.4756
  339TMC3    O2 5095   0.894   3.730   1.384 -0.4289  0.2717  0.0364
  340MPD2     C 5096   1.337   0.957   9.504  0.5841  0.4525  0.2947
  340MPD2    C1 5097   1.364   0.832   9.559  0.4940  0.6263  0.1069
  340MPD2    C2 5098   1.430   0.828   9.674 -0.1757  0.6952 -0.1192
  340MPD2    C3 5099   1.459   0.943   9.743 -0.6709 -0.1028 -1.2193
  340MPD2    C4 5100   1.435   1.066   9.688  1.2257  0.1055  0.6742
  340MPD2    C5 5101   1.364   1.071   9.569  0.5802  0.2466 -0.2618
  340MPD2     H 5102   1.475   0.734   9.702  0.9508  1.5446  0.9515
  340MPD2    H1 5103   1.464   1.155   9.742  1.8490  0.0539  0.4193
  340MPD2    H2 5104   1.286   0.969   9.409 -3.1899 -0.0351  2.2891
  340MPD2    H3 5105   1.358   1.167   9.518  0.4561  0.4772  0.1895
  340MPD2     N 5106   1.536   0.944   9.865 -0.6163  0.4390  0.5563
  340MPD2    H5 5107   1.575   1.034   9.890  1.5082  0.1035 -1.5013
  340MPD2    N1 5108   1.347   0.715   9.477 -0.0162 -0.4081  0.1799
  340MPD2    H7 5109   1.314   0.733   9.383  2.4334  0.4256 -0.5298
  341TMC3    C1 5110   1.338   0.495   9.400  0.1220 -0.6113  0.9570
  341TMC3    C2 5111   1.257   0.383   9.436 -0.5306 -0.2896 -0.5820
  341TMC3    C3 5112   1.225   0.297   9.329 -0.3016  0.1422  0.5899
  341TMC3    C4 5113   1.375   0.521   9.270  0.1982  0.1903  0.5026
  341TMC3    C5 5114   1.340   0.428   9.171 -0.1424  0.0660  1.1886
  341TMC3    C6 5115   1.262   0.318   9.194 -0.2599  0.0886 -0.6718
  341TMC3     C 5116   1.373   0.583   9.508 -0.1107 -0.3118  0.1059
  341TMC3     O 5117   1.410   0.535   9.613 -0.1453 -0.3558  0.1977
  341TMC3     H 5118   1.247   0.347   9.537 -2.3357 -1.0085 -1.0185
  341TMC3    H1 5119   1.436   0.606   9.241 -1.7834  1.9908  1.5810
  341TMC3    H2 5120   1.258   0.239   9.120  0.3231 -1.3736  0.8678
  341TMC3    C7 5121   1.415   0.429   9.044  0.4438 -0.0178  0.4329
  341TMC3    C8 5122   1.142   0.181   9.346 -0.3067 -0.9894  0.5566
  341TMC3    O1 5123   1.527   0.479   9.054  0.0189  0.5845 -0.7957
  341TMC3    O2 5124   1.097   0.144   9.241  0.1965  0.2672  0.3137
  342MPD2     C 5125   4.090   3.706  16.383  0.1410  0.3968  0.4997
  342MPD2    C1 5126   4.069   3.660  16.517  0.1555  0.6217 -0.8683
  342MPD2    C2 5127   4.005   3.752  16.601  0.1062 -0.5541  0.5915
  342MPD2    C3 5128   3.962   3.879  16.561  0.4136 -1.0234 -0.4583
  342MPD2    C4 5129   3.995   3.923  16.433 -0.1183 -0.1626 -0.2014
  342MPD2    C5 5130   4.049   3.830  16.347  0.9588  0.8436  0.0134
  342MPD2     H 5131   3.977   3.721  16.702  1.3561  1.2431  1.4811
  342MPD2    H1 5132   3.975   4.022  16.393 -0.6370 -1.9490 -4.3836
  342MPD2    H2 5133   4.141   3.637  16.317  0.9729  0.6019  0.9358
  342MPD2    H3 5134   4.066   3.857  16.244 -3.1165  0.3128 -0.7627
  342MPD2     N 5135   3.913   3.975  16.654 -0.0103 -0.1002  0.0173
  342MPD2    H5 5136   3.905   4.068  16.615  0.5070 -0.9926 -2.1676
  342MPD2    N1 5137   4.120   3.533  16.558 -0.2434 -0.1404 -0.2757
  342MPD2    H7 5138   4.097   3.505  16.653  1.2536 -1.2074 -0.2145
  343TMC3    C1 5139   4.252   3.342  16.581 -0.3279  0.2184 -0.5771
  343TMC3    C2 5140   4.382   3.308  16.577  0.1560 -0.1140 -0.7296
  343TMC3    C3 5141   4.450   3.278  16.695 -0.6877 -0.1328 -0.4753
  343TMC3    C4 5142   4.179   3.331  16.703  1.2655  0.0390  0.1330
  343TMC3    C5 5143   4.249   3.296  16.817  0.2743 -0.0754  0.7443
  343TMC3    C6 5144   4.380   3.272  16.816  0.2039  0.1729 -0.3103
  343TMC3     C 5145   4.218   3.455  16.501  0.3146 -0.4738  0.5184
  343TMC3     O 5146   4.302   3.482  16.417 -0.4315  0.6618 -0.0491
  343TMC3     H 5147   4.431   3.314  16.481 -2.1489 -0.8411 -1.9499
  343TMC3    H1 5148   4.073   3.348  16.717  0.7131  0.2167 -4.3994
  343TMC3    H2 5149   4.432   3.247  16.908  0.5488  0.8756 -0.3072
  343TMC3    C7 5150   4.179   3.274  16.942 -0.4783  1.0062  1.1265
  343TMC3    C8 5151   4.591   3.247  16.711 -0.8229  0.0930 -0.6018
  343TMC3    O1 5152   4.062   3.239  16.933  0.3732  0.5702  0.0480
  343TMC3    O2 5153   4.639   3.284  16.813  0.3745 -0.0326  0.0253
  344MPD2     C 5154   0.805   3.009  10.397  0.5516  0.2473  0.0037
  344MPD2    C1 5155   0.687   3.023  10.327 -0.0375  0.3129  0.6620
  344MPD2    C2 5156   0.680   3.107  10.215  0.0382  0.1327 -0.4516
  344MPD2    C3 5157   0.786   3.185  10.185 -0.3216  0.8852  0.1988
  344MPD2    C4 5158   0.899   3.184  10.269 -0.0706  0.0047  0.1652
  344MPD2    C5 5159   0.906   3.092  10.365 -0.1711 -0.5111  0.4132
  344MPD2     H 5160   0.584   3.107  10.163  0.0830 -1.2535 -0.5263
  344MPD2    H1 5161   0.984   3.251  10.257 -2.0079  2.1495 -1.5314
  344MPD2    H2 5162   0.823   2.946  10.483  2.0066  0.1797 -0.3599
  344MPD2    H3 5163   0.989   3.108  10.434 -1.7645 -0.8634  2.4057
  344MPD2     N 5164   0.789   3.274  10.073 -0.6375 -0.3726 -0.1486
  344MPD2    H5 5165   0.881   3.316  10.070 -1.8187  1.9882 -3.5217
  344MPD2    N1 5166   0.576   2.939  10.375  0.3449  0.0901  0.6617
  344MPD2    H7 5167   0.498   2.921  10.312 -0.5050 -0.0660  1.7797
  345TMC3    C1 5168   0.718   3.414   9.905  0.0593 -0.3415  0.2349
  345TMC3    C2 5169   0.850   3.427   9.873  1.4112  0.5082 -0.2165
  345TMC3    C3 5170   0.888   3.532   9.799 -0.1325 -0.0927 -0.5979
  345TMC3    C4 5171   0.618   3.505   9.871 -0.2684 -0.3096  0.3069
  345TMC3    C5 5172   0.665   3.622   9.807 -0.0358 -0.2002 -0.4606
  345TMC3    C6 5173   0.801   3.630   9.768  0.6609  0.0106 -0.5493
  345TMC3     C 5174   0.678   3.315  10.003  0.0685  0.0300 -0.1254
  345TMC3     O 5175   0.565   3.266   9.989 -0.6439 -0.2868  0.3404
  345TMC3     H 5176   0.925   3.359   9.913  0.4574 -0.8197 -0.6914
  345TMC3    H1 5177   0.515   3.487   9.897 -0.4029 -0.8160 -0.5611
  345TMC3    H2 5178   0.831   3.711   9.703  0.2990 -0.1009 -0.8536
  345TMC3    C7 5179   0.579   3.732   9.785  0.1367  0.4098 -0.4870
  345TMC3    C8 5180   1.031   3.551   9.800  0.3401 -0.7628 -0.0082
  345TMC3    O1 5181   0.635   3.825   9.731 -0.2870 -0.6331 -0.2505
  345TMC3    O2 5182   1.089   3.525   9.904  0.1667 -1.4321  0.5698
  346MPD2     C 5183   0.348   0.123  13.945  0.1562 -0.4459 -0.0254
  346MPD2    C1 5184   0.403   0.232  13.876 -0.0611  0.4199  0.2680
  346MPD2    C2 5185   0.459   0.337  13.945 -0.4566 -0.6073 -0.0736
  346MPD2    C3 5186   0.453   0.339  14.080 -0.0589 -0.5583 -0.1562
  346MPD2    C4 5187   0.422   0.219  14.147  0.1742  1.0285 -0.0616
  346MPD2    C5 5188   0.362   0.120  14.079 -0.3263  0.5749 -0.1940
  346MPD2     H 5189   0.508   0.418  13.892  2.4051 -3.4381 -1.8152
  346MPD2    H1 5190   0.418   0.217  14.255 -2.9248 -1.6494 -0.2211
  346MPD2    H2 5191   0.314   0.039  13.886 -1.9201 -0.0459  0.5934
  346MPD2    H3 5192   0.311   0.033  14.118 -1.4235  1.0631 -0.5476
  346MPD2     N 5193   0.495   0.460  14.155 -0.2917  0.0044 -0.1534
  346MPD2    H5 5194   0.535   0.534  14.097 -0.3186  0.5110  0.4809
  346MPD2    N1 5195   0.421   0.238  13.732  0.4779  0.5749  0.1967
  346MPD2    H7 5196   0.464   0.323  13.697 -0.9672  1.7749  1.3240
  347TMC3    C1 5197   0.557   0.615  14.318  0.3361 -0.1117 -0.0429
  347TMC3    C2 5198   0.671   0.652  14.253  0.1721  0.2337 -0.4346
  347TMC3    C3 5199   0.748   0.762  14.288 -0.1883 -0.5091 -0.4202
  347TMC3    C4 5200   0.534   0.680  14.436  0.1135 -0.3126 -0.7345
  347TMC3    C5 5201   0.614   0.793  14.468  0.1407  0.9690  0.3083
  347TMC3    C6 5202   0.727   0.824  14.404 -0.1782 -0.0988 -0.3469
  347TMC3     C 5203   0.495   0.483  14.294  0.1302 -0.0507 -0.4097
  347TMC3     O 5204   0.426   0.429  14.380  0.0660  0.6704  0.0061
  347TMC3     H 5205   0.684   0.594  14.162  0.9757 -1.5388  0.8117
  347TMC3    H1 5206   0.446   0.644  14.489 -0.8502  0.4781 -1.7979
  347TMC3    H2 5207   0.781   0.916  14.427 -1.1485  0.6963 -1.2136
  347TMC3    C7 5208   0.622   0.837  14.607  0.8096  0.1752  0.1024
  347TMC3    C8 5209   0.885   0.725  14.265  0.2304 -0.3115 -0.3873
  347TMC3    O1 5210   0.725   0.883  14.650 -0.1799  0.2626 -0.4976
  347TMC3    O2 5211   0.909   0.665  14.160  0.3577 -0.1545 -0.2385
  348MPD2     C 5212   3.828   4.637  11.872 -0.1071  0.4895 -0.4174
  348MPD2    C1 5213   3.948   4.695  11.884  0.1542  0.4048  0.2815
  348MPD2    C2 5214   3.997   0.049  11.787 -0.0518  0.3580  0.8804
  348MPD2    C3 5215   3.920   0.086  11.676  0.8828 -0.1880  0.4155
  348MPD2    C4 5216   3.790   0.054  11.681  0.4455 -0.3505  0.2957
  348MPD2    C5 5217   3.747   4.693  11.781 -0.4080 -0.9010 -0.1009
  348MPD2     H 5218   4.099   0.086  11.788  0.4338 -0.9425  0.2075
  348MPD2    H1 5219   3.713   0.088  11.612  0.0065 -0.2654  0.8332
  348MPD2    H2 5220   3.778   4.574  11.945  0.2767 -1.3690 -1.7827
  348MPD2    H3 5221   3.639   4.682  11.785 -0.5249  0.3318  0.3755
  348MPD2     N 5222   3.983   0.155  11.566  0.1451 -0.4242  0.0007
  348MPD2    H5 5223   4.069   0.205  11.587 -0.6594  1.5082 -1.2775
  348MPD2    N1 5224   4.035   4.664  11.991  0.3445  0.0364  0.0245
  348MPD2    H7 5225   4.129   4.699  11.979 -1.0824  2.6172 -3.6375
  349TMC3    C1 5226   4.108   4.574  12.188  0.3083  0.2774  0.2835
  349TMC3    C2 5227   4.110   4.434  12.209  0.4590 -1.0019  0.6681
  349TMC3    C3 5228   4.215   4.355  12.156 -0.2227 -0.1098  0.7247
  349TMC3    C4 5229   4.222   4.627  12.137  0.4305 -0.4768  0.1245
  349TMC3    C5 5230   4.330   4.549  12.096  0.4203 -0.1722  0.6203
  349TMC3    C6 5231   4.329   4.413  12.109  0.0749  0.3248  0.1785
  349TMC3     C 5232   3.994   4.602  12.106 -0.2985  0.7593  0.4794
  349TMC3     O 5233   3.887   4.560  12.145 -1.0542  0.2041 -0.2848
  349TMC3     H 5234   4.018   4.386  12.240  0.2889 -2.5229 -2.1130
  349TMC3    H1 5235   4.237   0.006  12.122  1.8055 -0.7295 -0.3111
  349TMC3    H2 5236   4.402   4.361  12.049 -0.3723 -0.8217  0.6313
  349TMC3    C7 5237   4.381   4.599  11.970 -0.5837  0.0548 -0.0317
  349TMC3    C8 5238   4.226   4.215  12.198 -0.4368 -0.5096 -0.4928
  349TMC3    O1 5239   4.439   4.709  11.971 -1.1697 -0.1933  0.4543
  349TMC3    O2 5240   4.188   4.169  12.305 -0.1811  0.2755 -0.2191
  350MPD2     C 5241   2.693   2.949   9.384  0.5295 -0.0636 -0.4739
  350MPD2    C1 5242   2.709   2.838   9.462  0.5073  0.5445  0.2630
  350MPD2    C2 5243   2.814   2.838   9.551  0.4309 -0.0786  0.1882
  350MPD2    C3 5244   2.900   2.946   9.558  0.4725  0.3002  1.3135
  350MPD2    C4 5245   2.883   3.052   9.478  0.1055  0.2152  0.0175
  350MPD2    C5 5246   2.782   3.057   9.389  0.5287  0.0240  0.6549
  350MPD2     H 5247   2.824   2.751   9.614  0.6000 -0.4415 -0.3408
  350MPD2    H1 5248   2.942   3.143   9.488 -0.0116  0.4851 -1.7401
  350MPD2    H2 5249   2.614   2.953   9.309 -0.5257 -2.4570  0.4925
  350MPD2    H3 5250   2.763   3.143   9.326 -2.6718 -0.1051  1.4847
  350MPD2     N 5251   3.016   2.938   9.646 -0.4286 -0.2931  0.5941
  350MPD2    H5 5252   3.029   2.848   9.691  0.1650 -0.4098  0.1838
  350MPD2    N1 5253   2.629   2.726   9.449 -0.3851  0.2268  0.0292
  350MPD2    H7 5254   2.655   2.648   9.508  1.1206  1.2780  0.7487
  351TMC3    C1 5255   2.487   2.572   9.336 -0.4484 -0.2308  0.4093
  351TMC3    C2 5256   2.562   2.467   9.381 -0.6192 -0.3262  0.0173
  351TMC3    C3 5257   2.524   2.336   9.351 -0.7078 -0.0075  0.4081
  351TMC3    C4 5258   2.367   2.540   9.274 -0.3127  0.0667 -1.2693
  351TMC3    C5 5259   2.333   2.409   9.241  0.6410 -0.2340 -0.0775
  351TMC3    C6 5260   2.410   2.308   9.284 -0.2149  0.3861 -0.4481
  351TMC3     C 5261   2.527   2.705   9.353  0.0064 -0.0068 -0.0384
  351TMC3     O 5262   2.480   2.775   9.268 -0.2027  0.0782  0.5137
  351TMC3     H 5263   2.659   2.484   9.427  0.2663  1.6811 -2.6356
  351TMC3    H1 5264   2.306   2.620   9.234 -2.5078 -1.8102 -1.6599
  351TMC3    H2 5265   2.390   2.208   9.248  1.3987 -0.6174  1.3966
  351TMC3    C7 5266   2.219   2.376   9.159 -0.2034 -0.5395  0.0731
  351TMC3    C8 5267   2.614   2.231   9.380 -0.3025 -0.4030  0.4915
  351TMC3    O1 5268   2.186   2.256   9.144 -0.3116 -0.4014 -0.5781
  351TMC3    O2 5269   2.729   2.261   9.411 -0.4385 -0.2221 -0.8464
  352MPD2     C 5270   0.020   0.583   0.779 -0.5601 -0.1013 -0.1737
  352MPD2    C1 5271   0.007   0.524   0.657 -0.7205 -0.1459 -0.1644
  352MPD2    C2 5272   0.012   0.383   0.653 -0.0690  0.0968  0.3763
  352MPD2    C3 5273   0.030   0.307   0.774  0.0782  0.7606  0.0714
  352MPD2    C4 5274   0.061   0.377   0.892 -0.1296  0.3383 -0.6361
  352MPD2    C5 5275   0.045   0.512   0.894 -0.6185  0.7271  0.5144
  352MPD2     H 5276   4.723   0.329   0.560 -1.4866  1.6730 -0.2881
  352MPD2    H1 5277   0.078   0.325   0.986 -0.7422  0.2773 -0.5642
  352MPD2    H2 5278   0.010   0.690   0.789  0.6871 -0.0194  0.2062
  352MPD2    H3 5279   0.055   0.574   0.983  1.3541  0.3107  0.5861
  352MPD2     N 5280   0.053   0.170   0.782 -0.6717  0.5066 -0.0064
  352MPD2    H5 5281   0.076   0.138   0.876  0.8624  0.0327 -0.5462
  352MPD2    N1 5282   4.722   0.615   0.547  0.0752  0.3443 -0.1413
  352MPD2    H7 5283   4.694   0.709   0.573 -2.0421 -0.6787  1.3198
  353TMC3    C1 5284   0.091   4.675   0.728  0.3568  0.1028 -0.4797
  353TMC3    C2 5285   0.191   4.664   0.820 -0.2005  0.2434 -0.4945
  353TMC3    C3 5286   0.259   4.545   0.840  0.4594  0.4387 -0.2367
  353TMC3    C4 5287   0.060   4.574   0.645 -0.6176  0.3319 -0.5212
  353TMC3    C5 5288   0.123   4.458   0.666 -0.6333  0.0777 -0.6307
  353TMC3    C6 5289   0.220   4.440   0.760 -0.1192 -0.2384 -0.7695
  353TMC3     C 5290   0.041   0.077   0.682 -0.1944 -0.2453  0.6135
  353TMC3     O 5291   0.000   0.080   0.567  0.4005  0.4633 -0.1427
  353TMC3     H 5292   0.223   0.022   0.879  1.3933  1.1450 -2.6663
  353TMC3    H1 5293   4.720   4.598   0.564  0.2736 -0.9828 -1.6378
  353TMC3    H2 5294   0.273   4.346   0.761 -0.7757 -0.5894  0.1318
  353TMC3    C7 5295   0.117   4.354   0.569 -0.1907  1.1648 -0.1133
  353TMC3    C8 5296   0.348   4.529   0.952  0.4477 -0.3208  0.1392
  353TMC3    O1 5297   0.211   4.282   0.561  0.2283 -0.3832  0.5446
  353TMC3    O2 5298   0.344   4.609   1.044 -0.1984  0.8050 -0.2471
  354TMC3    C1 5299   3.145   1.231  13.775 -0.5228  0.4320 -0.2114
  354TMC3    C2 5300   3.107   1.366  13.746  0.0173  0.7880 -1.3448
  354TMC3    C3 5301   3.149   1.418  13.627  0.1554 -0.3456  0.3153
  354TMC3    C4 5302   3.223   1.166  13.692  0.4476  0.1016  0.0581
  354TMC3    C5 5303   3.279   1.228  13.579 -0.5659  0.2581 -0.0025
  354TMC3    C6 5304   3.238   1.354  13.546 -0.2266  0.4428 -0.0880
  354TMC3     C 5305   3.094   1.168  13.898  0.4321 -0.2954  0.8621
  354TMC3     O 5306   3.144   1.059  13.922 -0.5028 -0.1222  0.5257
  354TMC3     H 5307   3.040   1.423  13.810  0.1572 -0.3859 -0.1596
  354TMC3    H1 5308   3.276   1.082  13.735 -0.2637 -0.2578  0.2300
  354TMC3    H2 5309   3.275   1.411  13.461  2.9495  0.5767  1.3838
  354TMC3    C7 5310   3.355   1.139  13.496 -0.2151 -0.5884  0.3610
  354TMC3    C8 5311   3.098   1.549  13.585  0.0360  0.2540  0.5014
  354TMC3    O1 5312   3.351   1.020  13.514 -0.1749  0.0274  0.7305
  354TMC3    O2 5313   3.036   1.607  13.671 -0.0804  0.4616  0.1929
  355MPD2     C 5314   3.161   1.978  11.863 -0.6375  0.2218 -0.0409
  355MPD2    C1 5315   3.192   1.962  11.726  0.5291 -0.7869 -0.3040
  355MPD2    C2 5316   3.324   1.936  11.696  0.3750  0.5575 -0.1055
  355MPD2    C3 5317   3.425   1.931  11.793 -0.4170 -0.5866 -0.6169
  355MPD2    C4 5318   3.387   1.933  11.926  0.7716  0.8216  0.2283
  355MPD2    C5 5319   3.257   1.957  11.955  0.1408  0.5494  0.5870
  355MPD2     H 5320   3.345   1.930  11.590  0.9720  0.2942  0.0279
  355MPD2    H1 5321   3.454   1.926  12.010  0.0334  1.3975  0.8659
  355MPD2    H2 5322   3.063   2.014  11.893 -0.4725 -0.6885  1.6045
  355MPD2    H3 5323   3.237   1.978  12.060 -0.0008  2.8421  0.1017
  355MPD2     N 5324   3.558   1.930  11.768  0.2640  0.4309 -0.3214
  355MPD2    H5 5325   3.621   1.955  11.844  0.7308  0.1035 -0.5968
  355MPD2    N1 5326   3.090   1.990  11.632  0.6961  0.1111  0.4271
  355MPD2    H7 5327   2.991   1.990  11.658  0.3438  0.7546 -0.9055
  356TMC3    C1 5328   3.755   1.984  11.653 -0.0379 -0.4750  0.3279
  356TMC3    C2 5329   3.807   2.051  11.548 -1.0091 -0.3550 -0.4780
  356TMC3    C3 5330   3.933   2.099  11.550 -0.3316  0.2758  0.4200
  356TMC3    C4 5331   3.828   1.973  11.769 -1.0821  0.0435  0.4079
  356TMC3    C5 5332   3.952   2.036  11.775 -0.0852 -0.1316 -0.0704
  356TMC3    C6 5333   4.013   2.091  11.664 -0.6089  0.6217  0.3833
  356TMC3     C 5334   3.616   1.942  11.644 -0.1620  0.1553  0.1526
  356TMC3     O 5335   3.583   1.911  11.529 -0.8614  0.0935  0.2425
  356TMC3     H 5336   3.752   2.049  11.454 -0.3861  2.7178 -0.8904
  356TMC3    H1 5337   3.792   1.927  11.861 -0.2717 -1.1059  0.1462
  356TMC3    H2 5338   4.117   2.123  11.661 -0.7888  1.2491  0.9027
  356TMC3    C7 5339   4.018   2.043  11.907  0.2441  0.4066 -0.3185
  356TMC3    C8 5340   3.984   2.150  11.423 -0.3974  0.1579  0.0543
  356TMC3    O1 5341   3.973   1.967  11.994 -0.5398 -0.3366 -0.7067
  356TMC3    O2 5342   3.920   2.113  11.325 -0.4674  0.4024 -0.1183
  357MPD2     C 5343   2.838   2.427   1.645 -0.3179  0.1502  0.4883
  357MPD2    C1 5344   2.945   2.343   1.625 -0.1993 -0.0122 -0.4029
  357MPD2    C2 5345   3.003   2.295   1.741 -0.4369  0.2977  0.3666
  357MPD2    C3 5346   2.964   2.328   1.869  0.9755  0.1529  0.4670
  357MPD2    C4 5347   2.862   2.421   1.887  0.0470  0.0625  0.0556
  357MPD2    C5 5348   2.803   2.470   1.774  0.0762 -0.1399 -0.9084
  357MPD2     H 5349   3.090   2.232   1.726 -0.3720  0.6843 -0.8695
  357MPD2    H1 5350   2.834   2.459   1.984 -0.0122 -1.8242  0.7742
  357MPD2    H2 5351   2.789   2.470   1.558  2.5395 -1.4214 -1.9156
  357MPD2    H3 5352   2.724   2.543   1.788  0.2902 -0.9318  4.3721
  357MPD2     N 5353   3.046   2.281   1.982  0.4735 -0.4140  0.4779
  357MPD2    H5 5354   3.023   2.313   2.076  0.8736  0.3267  0.3251
  357MPD2    N1 5355   2.985   2.308   1.495  0.5893 -0.4808 -0.1844
  357MPD2    H7 5356   2.957   2.360   1.412  0.7932 -0.0480  0.0207
  358TMC3    C1 5357   3.084   2.189   1.322  0.2595  0.3266  0.2641
  358TMC3    C2 5358   2.985   2.224   1.228 -0.4004 -0.3974 -0.6958
  358TMC3    C3 5359   3.006   2.201   1.093 -0.2785  0.3541  0.3227
  358TMC3    C4 5360   3.204   2.154   1.279  0.5530  0.0957  0.2621
  358TMC3    C5 5361   3.221   2.130   1.141  0.1031 -0.2523  0.1227
  358TMC3    C6 5362   3.116   2.143   1.056  0.1513 -0.1353  0.6033
  358TMC3     C 5363   3.062   2.197   1.464 -0.7501  1.7933  0.1827
  358TMC3     O 5364   3.133   2.131   1.537  0.0142 -0.2987  0.1750
  358TMC3     H 5365   2.889   2.264   1.257  0.0922 -0.2803  0.7829
  358TMC3    H1 5366   3.286   2.125   1.343  0.8799  2.5242  0.9320
  358TMC3    H2 5367   3.144   2.124   0.953 -0.0016  0.4601  0.4546
  358TMC3    C7 5368   3.348   2.079   1.097 -0.5045 -0.0782  0.1600
  358TMC3    C8 5369   2.892   2.216   1.001 -0.1707  0.0854 -0.4097
  358TMC3    O1 5370   3.350   2.025   0.989 -0.6763  0.0022  0.6126
  358TMC3    O2 5371   2.777   2.206   1.038 -0.6701 -0.0356 -0.2395
  359MPD2     C 5372   3.699   0.656  12.702  0.0520  1.5635 -0.4504
  359MPD2    C1 5373   3.680   0.639  12.563 -0.6581 -0.7115  0.0040
  359MPD2    C2 5374   3.553   0.658  12.512 -1.2056 -0.0331  0.3620
  359MPD2    C3 5375   3.451   0.689  12.600  0.6672 -0.6875 -0.3586
  359MPD2    C4 5376   3.471   0.704  12.732  0.0467  0.6320 -0.1088
  359MPD2    C5 5377   3.589   0.689  12.780  0.4045  0.4699  0.5021
  359MPD2     H 5378   3.538   0.637  12.406  0.9696 -1.8164  0.4278
  359MPD2    H1 5379   3.389   0.734  12.797  0.0010 -0.5983  0.3900
  359MPD2    H2 5380   3.790   0.621  12.749 -1.5382 -0.9515  0.7470
  359MPD2    H3 5381   3.601   0.701  12.887 -1.8391  0.5052  0.7593
  359MPD2     N 5382   3.323   0.714  12.558  0.0921 -0.0474 -0.1617
  359MPD2    H5 5383   3.248   0.731  12.624 -1.9823  0.4133 -2.6710
  359MPD2    N1 5384   3.781   0.594  12.473  0.8630 -0.3785 -1.0274
  359MPD2    H7 5385   3.752   0.601  12.376 -1.2285  4.6517 -0.0559
  360TMC3    C1 5386   3.993   0.546  12.390  0.4002 -0.0807 -0.3521
  360TMC3    C2 5387   4.127   0.567  12.408  0.0275 -0.5862 -0.7414
  360TMC3    C3 5388   4.209   0.539  12.304  0.3611  0.1947 -0.1297
  360TMC3    C4 5389   3.944   0.480  12.282  0.2465  0.5959  0.8533
  360TMC3    C5 5390   4.035   0.434  12.188  0.0594 -0.1226  0.0032
  360TMC3    C6 5391   4.168   0.473  12.190 -0.0574 -0.1022  0.3082
  360TMC3     C 5392   3.910   0.572  12.507  0.6921  0.0358  0.2811
  360TMC3     O 5393   3.973   0.587  12.611  0.1216  0.0476  0.2826
  360TMC3     H 5394   4.155   0.631  12.491 -0.3937 -1.4304  0.0514
  360TMC3    H1 5395   3.838   0.458  12.282 -0.0440  2.0066  1.1989
  360TMC3    H2 5396   4.241   0.443  12.116 -0.5909  2.3064 -1.1687
  360TMC3    C7 5397   3.989   0.405  12.056  0.0014 -0.1251 -0.1899
  360TMC3    C8 5398   4.335   0.617  12.307 -0.2920 -0.5692  0.6849
  360TMC3    O1 5399   4.061   0.437  11.963 -0.2462  0.0480  0.2620
  360TMC3    O2 5400   4.335   0.710  12.385 -0.1249  0.3887  0.3152
  361MPD2     C 5401   4.713   3.979  16.613  0.0569 -0.1628 -0.2728
  361MPD2    C1 5402   0.035   4.072  16.706 -0.3904  0.2535 -0.4798
  361MPD2    C2 5403   0.167   4.076  16.729 -0.3490 -0.8620  0.5089
  361MPD2    C3 5404   0.261   3.991  16.673 -0.0245 -0.1406 -0.0682
  361MPD2    C4 5405   0.206   3.892  16.589  0.6501 -0.3544  0.1445
  361MPD2    C5 5406   0.072   3.894  16.556  0.3708 -0.8583  0.0478
  361MPD2     H 5407   0.206   4.153  16.795  1.1840 -1.0039 -0.2386
  361MPD2    H1 5408   0.276   3.829  16.536  3.1867  1.8727  0.8427
  361MPD2    H2 5409   4.608   3.972  16.585 -0.4603  0.6558  1.4684
  361MPD2    H3 5410   0.040   3.816  16.488  3.3944 -3.3531  1.4274
  361MPD2     N 5411   0.398   3.980  16.713  0.1295 -0.2387 -0.2401
  361MPD2    H5 5412   0.459   3.908  16.677  1.4688  1.4331 -1.3248
  361MPD2    N1 5413   4.679   4.165  16.759  0.4495 -0.1011 -0.2386
  361MPD2    H7 5414   4.726   4.224  16.828 -1.3621 -0.2561  1.1367
  362TMC3    C1 5415   4.501   4.319  16.772  0.4874  0.1612  0.2823
  362TMC3    C2 5416   4.369   4.346  16.746 -0.4213 -0.2915  0.0304
  362TMC3    C3 5417   4.322   4.471  16.766  0.5437  0.2213 -0.3205
  362TMC3    C4 5418   4.589   4.427  16.795 -0.8931 -0.1046 -0.3826
  362TMC3    C5 5419   4.538   4.552  16.790 -0.0036  0.1363 -0.7785
  362TMC3    C6 5420   4.407   4.575  16.786  0.1679  0.1034 -0.5843
  362TMC3     C 5421   4.550   4.187  16.725 -0.2121 -0.1909 -0.2720
  362TMC3     O 5422   4.467   4.140  16.645 -0.5315 -0.0329 -0.9228
  362TMC3     H 5423   4.301   4.262  16.734 -0.6249  0.2114 -2.5002
  362TMC3    H1 5424   4.695   4.411  16.809 -0.9473  0.4825  0.7192
  362TMC3    H2 5425   4.368   4.676  16.787  1.3777  0.5439  2.4361
  362TMC3    C7 5426   4.608   4.637  16.699 -0.2338  0.3084  0.1202
  362TMC3    C8 5427   4.189   4.504  16.708 -0.2126  0.5322 -0.1419
  362TMC3    O1 5428   4.562   0.024  16.697  0.2299 -0.0920  0.0569
  362TMC3    O2 5429   4.123   4.408  16.655  0.6735  0.4792 -0.1175
  363TMC3    C1 5430   3.684   2.292   9.401 -0.7162  0.7106 -1.1606
  363TMC3    C2 5431   3.650   2.181   9.474  0.4040  0.5489 -0.2880
  363TMC3    C3 5432   3.514   2.145   9.480  0.3335 -0.7102 -1.0266
  363TMC3    C4 5433   3.587   2.367   9.334  0.3184 -0.5419  0.0152
  363TMC3    C5 5434   3.457   2.329   9.349 -0.0999  0.2190  0.1799
  363TMC3    C6 5435   3.414   2.220   9.427  0.5005  0.0121  0.3567
  363TMC3     C 5436   3.810   2.363   9.409 -0.0066 -0.3700  0.5972
  363TMC3     O 5437   3.843   2.445   9.324  0.0109  0.4830  0.3687
  363TMC3     H 5438   3.725   2.125   9.529 -1.0279 -2.6678 -1.6039
  363TMC3    H1 5439   3.616   2.447   9.268 -1.2183 -0.5232 -0.6458
  363TMC3    H2 5440   3.315   2.177   9.426 -1.2448  4.0603 -0.2693
  363TMC3    C7 5441   3.361   2.408   9.276 -0.3687  0.0090 -0.2153
  363TMC3    C8 5442   3.475   2.044   9.574 -0.7673 -0.4811  0.0159
  363TMC3    O1 5443   3.254   2.356   9.245 -0.3320  0.0110  0.0089
  363TMC3    O2 5444   3.359   2.037   9.613  0.9828  0.2922 -0.2184
  364MPD2     C 5445   2.734   0.827  10.206 -0.2462 -0.8603 -0.4553
  364MPD2    C1 5446   2.722   0.880  10.334 -0.0626  0.0299  0.1960
  364MPD2    C2 5447   2.705   0.793  10.441  0.4692  0.0866  0.6022
  364MPD2    C3 5448   2.709   0.655  10.419  0.2357 -0.8941 -0.4868
  364MPD2    C4 5449   2.733   0.607  10.294 -0.2625 -0.6967  0.2638
  364MPD2    C5 5450   2.743   0.689  10.188  0.8863 -0.1970  0.1027
  364MPD2     H 5451   2.704   0.834  10.541  1.0654  2.8065 -0.5127
  364MPD2    H1 5452   2.738   0.501  10.269 -1.0987 -0.8382  0.6879
  364MPD2    H2 5453   2.738   0.886  10.115 -0.2521 -1.8045 -1.0757
  364MPD2    H3 5454   2.762   0.641  10.093 -1.9122 -1.3089  0.1082
  364MPD2     N 5455   2.696   0.561  10.521 -1.0285  0.5208  0.4464
  364MPD2    H5 5456   2.711   0.467  10.486 -0.3039  1.7634 -2.5997
  364MPD2    N1 5457   2.723   1.023  10.345 -0.1921  0.0955  0.4364
  364MPD2    H7 5458   2.752   1.068  10.258 -0.3535 -1.3061 -0.3431
  365TMC3    C1 5459   2.759   1.233  10.444  0.1941  0.6112  0.0731
  365TMC3    C2 5460   2.853   1.270  10.347 -0.4145 -0.3739  0.5146
  365TMC3    C3 5461   2.912   1.394  10.368 -0.8555  0.2543  0.0277
  365TMC3    C4 5462   2.712   1.317  10.542 -0.2048 -0.4100 -0.5047
  365TMC3    C5 5463   2.770   1.441  10.551  0.2033  0.3753 -0.1308
  365TMC3    C6 5464   2.868   1.482  10.464 -0.1945  0.1940 -0.6949
  365TMC3     C 5465   2.720   1.091  10.464  0.1758 -0.7653 -0.0412
  365TMC3     O 5466   2.670   1.057  10.571 -0.0236  0.2220  0.2191
  365TMC3     H 5467   2.881   1.205  10.265  1.1765  1.3298 -0.2903
  365TMC3    H1 5468   2.623   1.284  10.593  0.2193 -0.4597  0.2100
  365TMC3    H2 5469   2.911   1.580  10.480 -0.5287  0.3328 -0.6472
  365TMC3    C7 5470   2.736   1.531  10.665 -0.4921 -0.9743 -0.0688
  365TMC3    C8 5471   3.018   1.438  10.288 -0.3094 -0.1406 -0.3883
  365TMC3    O1 5472   2.777   1.649  10.658  0.8900  0.5764 -0.0553
  365TMC3    O2 5473   3.043   1.559  10.289 -0.0134  0.5196 -0.8396
  366MPD2     C 5474   0.745   2.388  15.102  0.0208  0.5324 -0.0725
  366MPD2    C1 5475   0.858   2.471  15.095  0.2295 -0.1419 -0.0224
  366MPD2    C2 5476   0.977   2.420  15.155  0.4202  0.3363 -1.0374
  366MPD2    C3 5477   0.980   2.298  15.217  0.0766 -0.7903  0.3205
  366MPD2    C4 5478   0.864   2.219  15.216  0.1823 -0.0715  0.3055
  366MPD2    C5 5479   0.750   2.267  15.160 -0.0262 -0.3069  0.2507
  366MPD2     H 5480   1.065   2.482  15.166 -0.1359  0.9211  0.1268
  366MPD2    H1 5481   0.852   2.126  15.271  2.1354  0.2663  1.2922
  366MPD2    H2 5482   0.650   2.427  15.066  0.3874  0.3704 -1.2130
  366MPD2    H3 5483   0.660   2.207  15.166 -0.9126  0.7812 -2.2935
  366MPD2     N 5484   1.095   2.273  15.293  0.4970  0.5341  0.0297
  366MPD2    H5 5485   1.173   2.336  15.277 -0.0703  0.5331 -2.6374
  366MPD2    N1 5486   0.860   2.610  15.053 -0.4160 -0.5283  0.5891
  366MPD2    H7 5487   0.948   2.660  15.056 -1.1577  0.8736 -1.0956
  367TMC3    C1 5488   0.795   2.829  15.019 -0.2451  0.2969  0.0501
  367TMC3    C2 5489   0.896   2.861  15.106 -0.2511  0.2716  0.6604
  367TMC3    C3 5490   0.912   2.998  15.149 -0.1658  0.2349 -0.2073
  367TMC3    C4 5491   0.718   2.924  14.960  0.3019  0.7726  0.2250
  367TMC3    C5 5492   0.743   3.058  15.001 -0.0085 -0.3335  0.0799
  367TMC3    C6 5493   0.848   3.099  15.085 -0.6227 -0.4571  0.0938
  367TMC3     C 5494   0.752   2.694  15.022 -0.1144 -0.3900 -0.1560
  367TMC3     O 5495   0.638   2.661  14.999  0.4835 -0.1888  0.4054
  367TMC3     H 5496   0.934   2.792  15.180  1.3699 -0.4223 -0.8000
  367TMC3    H1 5497   0.636   2.902  14.893  1.0607 -0.1369 -0.3813
  367TMC3    H2 5498   0.882   3.201  15.099  0.1426 -0.5429 -1.2028
  367TMC3    C7 5499   0.664   3.167  14.945 -0.3812 -0.5631  0.4309
  367TMC3    C8 5500   1.009   3.023  15.247 -0.6286  0.2274  0.3197
  367TMC3    O1 5501   0.690   3.274  15.001 -0.1308  0.1691  0.2907
  367TMC3    O2 5502   1.086   2.934  15.267  0.0003  0.7077  0.3736
  368MPD2     C 5503   1.680   0.323  13.258 -0.1709 -0.2372 -0.5331
  368MPD2    C1 5504   1.749   0.240  13.174 -0.2019 -0.2141  0.7511
  368MPD2    C2 5505   1.881   0.268  13.157 -0.2013 -0.4600  0.0337
  368MPD2    C3 5506   1.951   0.371  13.220  0.3165 -0.1501 -0.2484
  368MPD2    C4 5507   1.883   0.452  13.314  0.1989 -0.5964 -0.7095
  368MPD2    C5 5508   1.747   0.423  13.323  0.2175  1.3404 -0.3340
  368MPD2     H 5509   1.940   0.203  13.094 -0.7702  1.9411 -2.9912
  368MPD2    H1 5510   1.925   0.534  13.370 -0.6595  2.1264 -4.0845
  368MPD2    H2 5511   1.573   0.308  13.265  0.0780 -2.3732 -1.5407
  368MPD2    H3 5512   1.694   0.489  13.391 -0.2510  1.6865 -1.0345
  368MPD2     N 5513   2.090   0.388  13.191 -0.7690  0.2637  0.3974
  368MPD2    H5 5514   2.128   0.336  13.112  0.5498  1.2054  0.4185
  368MPD2    N1 5515   1.670   0.156  13.085  0.5042  0.1285  0.9353
  368MPD2    H7 5516   1.572   0.165  13.107  0.3142 -1.4806  0.7460
  369TMC3    C1 5517   1.610   0.053  12.882 -0.0854 -0.0583 -0.5160
  369TMC3    C2 5518   1.625   0.078  12.752 -1.0469 -0.4828 -0.0594
  369TMC3    C3 5519   1.539   0.021  12.663 -0.6419  0.0110  0.3684
  369TMC3    C4 5520   1.501   4.715  12.936  0.2348  0.1143  0.1750
  369TMC3    C5 5521   1.418   4.657  12.844 -0.0685  0.3217  0.0158
  369TMC3    C6 5522   1.431   4.674  12.708 -0.1142  0.2984 -0.2175
  369TMC3     C 5523   1.718   0.101  12.967  0.6310 -0.4836  0.0266
  369TMC3     O 5524   1.830   0.078  12.926  0.1241  0.1107  0.1716
  369TMC3     H 5525   1.706   0.141  12.715 -0.2713 -1.4577 -0.0132
  369TMC3    H1 5526   1.481   4.713  13.042 -0.4832 -0.2914  0.0303
  369TMC3    H2 5527   1.369   4.635  12.628  3.0037 -0.6861 -2.1546
  369TMC3    C7 5528   1.318   4.561  12.890 -0.1198 -0.3881  0.9461
  369TMC3    C8 5529   1.523   0.090  12.531 -0.2765  0.2221  0.4110
  369TMC3    O1 5530   1.277   4.574  13.007 -0.4438 -0.4571 -0.2631
  369TMC3    O2 5531   1.410   0.104  12.485 -0.3231 -0.1602 -0.2109
  370TMC3    C1 5532   1.410   0.282  16.084  0.0790 -0.2517  0.2777
  370TMC3    C2 5533   1.348   0.206  16.184  0.1146  0.0684 -0.3681
  370TMC3    C3 5534   1.380   0.071  16.192 -0.0105  0.1836  0.1815
  370TMC3    C4 5535   1.499   0.234  15.999  0.7552  0.0190  0.5375
  370TMC3    C5 5536   1.523   0.098  16.011  0.6262 -0.7275 -0.7760
  370TMC3    C6 5537   1.465   0.014  16.105  0.1190  0.3651  0.2181
  370TMC3     C 5538   1.381   0.424  16.085 -0.3345 -1.0542  0.4936
  370TMC3     O 5539   1.275   0.456  16.131 -0.1118  0.1261 -0.4445
  370TMC3     H 5540   1.272   0.260  16.239 -0.8309 -1.7026  0.0647
  370TMC3    H1 5541   1.535   0.294  15.915  1.6930  0.6263  1.3707
  370TMC3    H2 5542   1.470   4.633  16.099 -1.9670  0.1871  1.6492
  370TMC3    C7 5543   1.607   0.028  15.911  0.1492  0.0934  0.6923
  370TMC3    C8 5544   1.335   0.003  16.315  0.0253 -0.3247 -0.6386
  370TMC3    O1 5545   1.640   0.085  15.808 -0.2598  0.6007 -0.9452
  370TMC3    O2 5546   1.336   4.607  16.303  0.2465  0.2215 -0.4562
  371TMC3    C1 5547   2.884   3.348  15.709 -1.1585  0.2983 -0.6441
  371TMC3    C2 5548   2.790   3.333  15.803  0.2314  0.5110  0.3938
  371TMC3    C3 5549   2.718   3.450  15.837  0.1179 -0.4988  0.0020
  371TMC3    C4 5550   2.903   3.461  15.634 -0.2521 -0.0623 -0.0725
  371TMC3    C5 5551   2.831   3.575  15.669  0.0894 -1.0278  0.1292
  371TMC3    C6 5552   2.740   3.565  15.775  0.0879 -0.4779  0.1597
  371TMC3     C 5553   2.957   3.234  15.659  0.2893  0.3860  0.6818
  371TMC3     O 5554   3.077   3.254  15.633 -0.1216 -0.6433  0.7703
  371TMC3     H 5555   2.799   3.240  15.857  0.3409 -1.4392 -3.0073
  371TMC3    H1 5556   2.963   3.454  15.544  0.6427 -0.3323  0.5352
  371TMC3    H2 5557   2.698   3.657  15.815  0.2665 -0.4474  0.2725
  371TMC3    C7 5558   2.871   3.709  15.628  1.0506 -0.3783  0.0821
  371TMC3    C8 5559   2.665   3.438  15.972  0.4756 -0.9402  0.2623
  371TMC3    O1 5560   2.815   3.807  15.679  0.6074  0.1869 -0.2047
  371TMC3    O2 5561   2.687   3.337  16.037 -0.8691 -0.0405 -0.1121
  372MPD2     C 5562   2.515   0.132  12.889  0.4514  0.1209  0.8892
  372MPD2    C1 5563   2.542   0.181  13.019  0.7963 -0.1857 -0.0433
  372MPD2    C2 5564   2.482   0.117  13.125  0.2663 -0.3637 -0.9754
  372MPD2    C3 5565   2.398   0.005  13.117 -0.0295  0.3192 -0.3577
  372MPD2    C4 5566   2.376   4.689  12.984  0.0130 -0.3935  0.3263
  372MPD2    C5 5567   2.428   0.029  12.879 -0.2169 -0.5181 -0.5140
  372MPD2     H 5568   2.504   0.151  13.225  0.1534 -0.1084 -1.0372
  372MPD2    H1 5569   2.324   4.596  12.966  2.1769 -1.9839  2.2305
  372MPD2    H2 5570   2.559   0.169  12.797  2.0330  1.2047  2.0671
  372MPD2    H3 5571   2.411   4.706  12.784 -1.3730  0.7088 -0.9578
  372MPD2     N 5572   2.343   4.672  13.232  0.5580 -0.1925  0.0931
  372MPD2    H5 5573   2.360   4.713  13.323 -0.2297  0.9786 -0.2914
  372MPD2    N1 5574   2.636   0.278  13.050 -0.8919  0.4666  0.0879
  372MPD2    H7 5575   2.650   0.318  13.142 -1.1543 -2.1052  1.2331
  373TMC3    C1 5576   2.275   4.496  13.357 -0.0729 -0.4644 -0.4004
  373TMC3    C2 5577   2.223   4.573  13.452 -0.6236  0.7649 -0.3428
  373TMC3    C3 5578   2.213   4.518  13.579  0.3982  0.3993 -0.2655
  373TMC3    C4 5579   2.318   4.370  13.368  0.2065 -0.2532  0.2381
  373TMC3    C5 5580   2.305   4.318  13.490  0.5847 -0.4944 -0.9118
  373TMC3    C6 5581   2.245   4.384  13.594 -0.2017  0.5366  0.1872
  373TMC3     C 5582   2.283   4.546  13.227 -0.0397 -0.2708 -0.2618
  373TMC3     O 5583   2.261   4.466  13.138 -0.7299 -0.7971  0.5503
  373TMC3     H 5584   2.160   4.658  13.432 -1.2038  0.0031 -1.7660
  373TMC3    H1 5585   2.368   4.312  13.292  0.4600  0.9138 -0.4795
  373TMC3    H2 5586   2.257   4.333  13.689  1.2677  0.6078  0.0383
  373TMC3    C7 5587   2.411   4.222  13.516 -0.8744 -0.0863  0.5726
  373TMC3    C8 5588   2.220   4.607  13.694  0.0271  1.4032  0.8042
  373TMC3    O1 5589   2.517   4.229  13.458 -0.3340 -0.0159 -0.4531
  373TMC3    O2 5590   2.269   4.719  13.673  0.2657 -0.1397 -0.3589
  374TMC3    C1 5591   3.003   0.121   9.816 -0.1744 -0.8408 -0.0795
  374TMC3    C2 5592   3.118   0.191   9.798 -0.2262 -0.1759  0.4942
  374TMC3    C3 5593   3.133   0.251   9.680  0.5318  1.0299 -0.7084
  374TMC3    C4 5594   2.912   0.111   9.715 -0.3481 -0.3228  0.3616
  374TMC3    C5 5595   2.937   0.164   9.592  0.2633 -0.0969  0.4972
  374TMC3    C6 5596   3.049   0.234   9.576 -0.1007  0.2796  0.7194
  374TMC3     C 5597   2.960   0.070   9.945 -0.4141 -0.0215 -0.8939
  374TMC3     O 5598   2.857   0.005   9.941  0.3264 -0.2101  0.3278
  374TMC3     H 5599   3.178   0.220   9.884 -0.2624 -2.3788  1.2676
  374TMC3    H1 5600   2.826   0.050   9.742  0.2891 -1.2737  0.2540
  374TMC3    H2 5601   3.072   0.263   9.474 -0.1697 -1.4193  0.2150
  374TMC3    C7 5602   2.840   0.159   9.489  0.1440 -0.0011 -0.2323
  374TMC3    C8 5603   3.260   0.316   9.641  0.7732 -0.1004 -0.4423
  374TMC3    O1 5604   2.872   0.215   9.386  0.0429  0.2815 -0.0741
  374TMC3    O2 5605   3.268   0.364   9.528  0.3053 -0.2772 -0.4639
  375MPD2     C 5606   2.969   0.659  16.656 -0.2706  0.3630  0.2488
  375MPD2    C1 5607   2.843   0.617  16.608 -0.6085 -0.6019 -0.0914
  375MPD2    C2 5608   2.841   0.502  16.533 -0.0159 -0.4315 -0.7061
  375MPD2    C3 5609   2.956   0.433  16.498 -0.1992 -0.0720  0.5772
  375MPD2    C4 5610   3.079   0.474  16.552  0.0495 -0.1724 -0.0148
  375MPD2    C5 5611   3.081   0.589  16.626  0.1831 -0.1211  0.1066
  375MPD2     H 5612   2.744   0.462  16.508 -0.9518  1.4442 -0.0748
  375MPD2    H1 5613   3.173   0.440  16.511  1.1163  0.8626  1.5603
  375MPD2    H2 5614   2.981   0.746  16.718  0.9631  0.2447  0.1847
  375MPD2    H3 5615   3.176   0.625  16.663  1.7157 -0.8040 -3.1711
  375MPD2     N 5616   2.969   0.316  16.424  0.4552 -0.4604  0.6421
  375MPD2    H5 5617   3.061   0.275  16.413  1.0265  0.6270  1.4679
  375MPD2    N1 5618   2.728   0.704  16.614 -1.1022 -0.6322 -0.0350
  375MPD2    H7 5619   2.648   0.684  16.556 -1.2526  1.0460 -0.3923
  376TMC3    C1 5620   2.917   0.133  16.276 -0.3096  0.0033 -0.1839
  376TMC3    C2 5621   3.042   0.088  16.315 -0.2611 -0.0504  0.3431
  376TMC3    C3 5622   3.117   0.015  16.228  0.1734 -0.3827  0.3650
  376TMC3    C4 5623   2.884   0.119  16.143 -0.1752  0.0134  0.0694
  376TMC3    C5 5624   2.970   0.064  16.053 -0.3390 -0.2107 -0.5002
  376TMC3    C6 5625   3.080   0.004  16.097  0.7845  0.7433  0.5610
  376TMC3     C 5626   2.867   0.254  16.348  0.5741  1.1731 -0.4278
  376TMC3     O 5627   2.752   0.273  16.358 -0.3491  0.8090  0.3824
  376TMC3     H 5628   3.077   0.098  16.417  1.4212 -3.1658  0.0822
  376TMC3    H1 5629   2.798   0.173  16.105  1.5172  0.3119 -3.2936
  376TMC3    H2 5630   3.150   4.695  16.022 -2.3387 -2.2543 -0.8800
  376TMC3    C7 5631   2.989   0.137  15.927 -0.0139  0.8277 -0.0614
  376TMC3    C8 5632   3.265   4.714  16.258  0.0319 -0.2318  0.0286
  376TMC3    O1 5633   2.952   0.250  15.933 -0.5155 -0.4855 -0.3669
  376TMC3    O2 5634   3.298   4.685  16.372  0.3849 -0.3005  0.0821
  377MPD2     C 5635   0.654   0.026  11.934 -0.4533 -0.3308 -0.1568
  377MPD2    C1 5636   0.714   4.723  12.052  0.1605 -0.3932  0.3950
  377MPD2    C2 5637   0.639   4.723  12.170 -0.6065  0.3300  0.4921
  377MPD2    C3 5638   0.508   0.049  12.173 -0.0295 -0.1413 -0.6985
  377MPD2    C4 5639   0.454   0.075  12.053  0.1097 -0.0561  0.3780
  377MPD2    C5 5640   0.524   0.072  11.929  0.2690 -0.8583 -1.0364
  377MPD2     H 5641   0.686   4.681  12.259 -0.4542  1.0120  0.7352
  377MPD2    H1 5642   0.350   0.105  12.050  0.2599  0.2994 -1.0489
  377MPD2    H2 5643   0.710   0.031  11.841 -1.2443  0.9936 -0.5613
  377MPD2    H3 5644   0.487   0.105  11.832  0.6298 -2.8058 -1.8417
  377MPD2     N 5645   0.428   0.051  12.290  0.1776  0.2974  0.1292
  377MPD2    H5 5646   0.330   0.074  12.284  0.1313  0.3682  1.0949
  377MPD2    N1 5647   0.847   4.670  12.037  0.0664  0.1935 -0.2468
  377MPD2    H7 5648   0.878   4.663  11.941  1.1767 -1.2761  0.2166
  378TMC3    C1 5649   1.254   4.703  12.031  0.3756 -0.4736 -0.1061
  378TMC3    C2 5650   1.117   4.686  12.008  0.3423  0.2904  0.0871
  378TMC3    C3 5651   1.065   4.604  12.100 -0.4497  0.7242 -0.1194
  378TMC3    C4 5652   1.320   4.649  12.134  0.2221  0.0164  0.3064
  378TMC3    C5 5653   1.261   4.565  12.221  0.1602 -0.0357 -0.4402
  378TMC3    C6 5654   1.129   4.536  12.200 -0.3589 -0.7382 -0.0632
  378TMC3     C 5655   1.318   0.043  11.920 -0.3773  0.6037 -0.7660
  378TMC3     O 5656   1.254   0.053  11.817 -0.2594  0.5059  0.1649
  378TMC3     H 5657   1.058   0.008  11.931 -0.3921 -1.0745 -0.2281
  378TMC3    H1 5658   1.422   4.678  12.158  0.8068  0.4440 -2.6551
  378TMC3    H2 5659   1.075   4.487  12.280  0.4247  0.0531  0.9459
  378TMC3    C7 5660   1.333   4.493  12.326 -0.9911  0.0851  0.3170
  378TMC3    C8 5661   0.923   4.630  12.140  0.6424  0.0972  0.2098
  378TMC3    O1 5662   1.265   4.439  12.410  0.0548  0.2662 -0.7503
  378TMC3    O2 5663   0.896   4.621  12.260  0.5761 -0.3107 -0.5471
  379MPD2     C 5664   2.121   2.901  16.048  0.2560  0.5204  0.0120
  379MPD2    C1 5665   1.996   2.896  16.104 -0.1624 -0.1415  0.0789
  379MPD2    C2 5666   1.984   2.882  16.240 -0.0621  0.2240 -0.4270
  379MPD2    C3 5667   2.096   2.873  16.316 -0.0419 -0.4307 -0.0878
  379MPD2    C4 5668   2.222   2.883  16.261 -0.1832 -0.4319 -0.3020
  379MPD2    C5 5669   2.235   2.900  16.123 -0.6295  0.3355 -0.4421
  379MPD2     H 5670   1.886   2.870  16.286 -0.6089  0.8404 -1.4192
  379MPD2    H1 5671   2.313   2.881  16.319 -0.1657 -1.5545 -0.3701
  379MPD2    H2 5672   2.131   2.902  15.940  2.2206  2.5868  0.2004
  379MPD2    H3 5673   2.333   2.903  16.077 -0.7429  2.5016 -0.5049
  379MPD2     N 5674   2.101   2.870  16.456 -0.3505  0.4705 -0.3838
  379MPD2    H5 5675   2.195   2.877  16.495 -0.3754 -1.9852  0.1415
  379MPD2    N1 5676   1.885   2.909  16.018 -0.2852  0.3116 -0.1178
  379MPD2    H7 5677   1.907   2.912  15.919  1.4591 -0.2970  0.2580
  380TMC3    C1 5678   1.678   2.924  15.924 -0.0621 -0.8406 -0.3896
  380TMC3    C2 5679   1.720   2.836  15.829  0.0819 -0.1481 -0.9245
  380TMC3    C3 5680   1.652   2.838  15.707  0.0182  0.6668 -0.2777
  380TMC3    C4 5681   1.559   2.989  15.909  0.6230 -0.8191 -0.1843
  380TMC3    C5 5682   1.493   2.984  15.788  0.0128 -0.1716  0.0250
  380TMC3    C6 5683   1.542   2.914  15.683 -0.2070  0.0719  0.6141
  380TMC3     C 5684   1.754   2.915  16.049 -0.2839 -0.0282  0.2711
  380TMC3     O 5685   1.690   2.930  16.152 -0.6766  0.2804 -0.3143
  380TMC3     H 5686   1.793   2.758  15.843 -2.9353 -2.5318  1.6036
  380TMC3    H1 5687   1.527   3.064  15.980 -0.8972 -0.2421 -1.4643
  380TMC3    H2 5688   1.499   2.914  15.584 -0.0012 -0.7181  0.5227
  380TMC3    C7 5689   1.410   3.100  15.753 -0.5483  0.0828 -0.8793
  380TMC3    C8 5690   1.700   2.756  15.598  0.0396 -0.9257 -0.4706
  380TMC3    O1 5691   1.417   3.197  15.827  0.7681 -0.0695 -0.4628
  380TMC3    O2 5692   1.819   2.730  15.590 -0.2426  0.1025  0.1285
  381TMC3    C1 5693   1.510   4.103  16.177  0.2048 -0.8169  0.1929
  381TMC3    C2 5694   1.614   4.183  16.209 -0.1156 -0.5983  0.2304
  381TMC3    C3 5695   1.591   4.288  16.295 -0.1443  0.1598  0.9636
  381TMC3    C4 5696   1.379   4.135  16.199 -0.2421  0.1801 -0.4058
  381TMC3    C5 5697   1.357   4.247  16.273 -0.2583  0.4095 -0.2287
  381TMC3    C6 5698   1.457   4.328  16.327 -0.1103 -0.6075  0.5114
  381TMC3     C 5699   1.538   3.989  16.102  0.3593  0.2950  0.2303
  381TMC3     O 5700   1.641   3.979  16.040  0.2379 -0.2425  0.4155
  381TMC3     H 5701   1.712   4.143  16.184 -0.1230 -1.3656  1.4080
  381TMC3    H1 5702   1.299   4.073  16.160 -1.1180  1.4111 -0.5708
  381TMC3    H2 5703   1.431   4.398  16.406 -0.7875 -2.7522  2.1632
  381TMC3    C7 5704   1.229   4.255  16.345  0.0080  0.0095  0.3760
  381TMC3    C8 5705   1.703   4.371  16.325 -0.4831  0.5137 -0.1634
  381TMC3    O1 5706   1.165   4.151  16.351 -0.3118  0.1626  0.3446
  381TMC3    O2 5707   1.811   4.322  16.296 -0.0132 -0.0041 -0.0891
  382MPD2     C 5708   0.270   2.181  17.609 -0.2718  0.1140 -0.3430
  382MPD2    C1 5709   0.396   2.181  17.546  0.5027 -0.4363 -0.1128
  382MPD2    C2 5710   0.438   2.079  17.458  0.1675  0.9723 -0.1245
  382MPD2    C3 5711   0.357   1.963  17.456 -0.1463 -0.2560  0.1125
  382MPD2    C4 5712   0.236   1.964  17.521  0.4688 -0.8082 -0.0673
  382MPD2    C5 5713   0.190   2.073  17.595 -0.4282 -0.9231  0.1026
  382MPD2     H 5714   0.530   2.079  17.402  0.2485  1.7649  0.0163
  382MPD2    H1 5715   0.179   1.872  17.517  0.0265 -0.4212 -2.4523
  382MPD2    H2 5716   0.243   2.254  17.684  1.3658  0.0981  0.2572
  382MPD2    H3 5717   0.096   2.061  17.647 -0.0549  0.3411  1.0637
  382MPD2     N 5718   0.378   1.854  17.369  0.1213 -0.5252  0.1144
  382MPD2    H5 5719   0.303   1.786  17.372  0.2780 -0.6575  1.0061
  382MPD2    N1 5720   0.481   2.299  17.561  0.1334 -0.0848  0.3729
  382MPD2    H7 5721   0.572   2.304  17.516 -1.3991  3.0829 -2.3691
  383TMC3    C1 5722   0.495   1.705  17.222 -0.3849 -0.5461 -0.1145
  383TMC3    C2 5723   0.376   1.639  17.192  0.5705  0.0545  0.1200
  383TMC3    C3 5724   0.382   1.513  17.139 -0.0061 -0.3090 -0.6770
  383TMC3    C4 5725   0.618   1.658  17.182  0.6599 -0.3584  0.4315
  383TMC3    C5 5726   0.618   1.533  17.123  0.0844  0.1547  0.1432
  383TMC3    C6 5727   0.505   1.459  17.108 -1.1091  0.0765  0.7854
  383TMC3     C 5728   0.490   1.831  17.291  0.3996  0.3631  0.0177
  383TMC3     O 5729   0.588   1.900  17.276  0.5492 -0.4404  0.1448
  383TMC3     H 5730   0.280   1.689  17.192  0.9106  0.7123 -0.9395
  383TMC3    H1 5731   0.707   1.718  17.193  0.0884  0.3913  0.9109
  383TMC3    H2 5732   0.516   1.362  17.060 -1.4641  0.2222  0.4131
  383TMC3    C7 5733   0.740   1.467  17.088  0.5827 -0.2250  0.5865
  383TMC3    C8 5734   0.265   1.460  17.079  0.2703 -0.1034  0.5442
  383TMC3    O1 5735   0.740   1.412  16.980  0.1220 -0.6501  0.2271
  383TMC3    O2 5736   0.160   1.514  17.101  0.3647 -0.2382  0.1233
  384MPD2     C 5737   2.762   2.293  11.625  0.1643 -0.0901  0.5387
  384MPD2    C1 5738   2.818   2.338  11.746 -0.0454 -0.3716 -0.2833
  384MPD2    C2 5739   2.855   2.240  11.840  0.1033 -0.5254 -0.1181
  384MPD2    C3 5740   2.812   2.109  11.829  0.1354  0.0739 -0.3994
  384MPD2    C4 5741   2.749   2.063  11.709  0.4685  0.2719 -0.6751
  384MPD2    C5 5742   2.729   2.162  11.616  0.0364 -0.2472  0.3743
  384MPD2     H 5743   2.911   2.276  11.926 -0.7223  2.9425 -1.0408
  384MPD2    H1 5744   2.709   1.963  11.697 -0.9754  0.7977 -0.1649
  384MPD2    H2 5745   2.722   2.363  11.553 -1.3901 -1.6448 -0.1031
  384MPD2    H3 5746   2.675   2.127  11.529  1.6265  1.1837 -1.1880
  384MPD2     N 5747   2.815   2.020  11.937  0.0454  0.1013  0.1964
  384MPD2    H5 5748   2.794   1.921  11.929 -2.2393  0.7572 -1.6723
  384MPD2    N1 5749   2.837   2.470  11.774  0.2325  0.7870 -0.0909
  384MPD2    H7 5750   2.866   2.478  11.871 -1.9584 -0.4186  0.6540
  385TMC3    C1 5751   2.823   1.941  12.162  0.1284 -0.3064 -0.0207
  385TMC3    C2 5752   2.700   1.883  12.155  0.1850 -0.5663 -0.0285
  385TMC3    C3 5753   2.656   1.830  12.275 -0.0294 -0.0743  0.5357
  385TMC3    C4 5754   2.882   1.961  12.278 -0.5307  0.2704  0.2206
  385TMC3    C5 5755   2.825   1.927  12.391 -0.0902  0.6539  0.0753
  385TMC3    C6 5756   2.707   1.857  12.400  0.7337  0.5004  0.1965
  385TMC3     C 5757   2.843   2.049  12.066  0.2139  0.2221 -0.1799
  385TMC3     O 5758   2.881   2.154  12.122  0.1788  0.3276 -0.3888
  385TMC3     H 5759   2.632   1.890  12.071  0.7724  2.3851 -0.2475
  385TMC3    H1 5760   2.972   2.020  12.288 -1.7928  2.4620 -1.2210
  385TMC3    H2 5761   2.657   1.837  12.494 -0.9426  0.7808 -0.6421
  385TMC3    C7 5762   2.827   2.041  12.472 -0.3630  0.1846 -0.1435
  385TMC3    C8 5763   2.586   1.708  12.272  0.4316 -0.6132  0.5592
  385TMC3    O1 5764   2.808   2.020  12.590  0.4705  0.0421  0.1365
  385TMC3    O2 5765   2.571   1.652  12.378 -0.2528  0.5400 -0.5745
  386TMC3    C1 5766   2.263   0.464  11.620  0.4144  0.3670  0.2002
  386TMC3    C2 5767   2.299   0.423  11.492  1.3754  0.3233  0.2347
  386TMC3    C3 5768   2.198   0.446  11.400  0.2168  0.2518 -0.1175
  386TMC3    C4 5769   2.141   0.511  11.650  0.5001 -0.3502  0.7522
  386TMC3    C5 5770   2.062   0.546  11.546 -0.0660  0.4357  0.0625
  386TMC3    C6 5771   2.088   0.515  11.421 -0.6157 -0.2513 -0.2239
  386TMC3     C 5772   2.362   0.472  11.716 -0.2253 -0.4628 -0.2095
  386TMC3     O 5773   2.354   0.559  11.802  0.5543 -0.1477 -0.5889
  386TMC3     H 5774   2.400   0.393  11.468  1.1472  0.6094 -1.1214
  386TMC3    H1 5775   2.117   0.545  11.751  0.4657  0.3244  0.5161
  386TMC3    H2 5776   2.015   0.537  11.344 -2.6162  0.4081  1.8174
  386TMC3    C7 5777   1.937   0.604  11.580  0.5041 -0.1838  0.1191
  386TMC3    C8 5778   2.225   0.422  11.265 -0.0571 -1.0522 -0.5219
  386TMC3    O1 5779   1.887   0.572  11.687  0.1820  0.0468  0.4274
  386TMC3    O2 5780   2.177   0.492  11.179 -0.5127  0.4227 -0.2052
  387MPD2     C 5781   4.691   0.414   9.922 -0.8751 -0.1423  0.5030
  387MPD2    C1 5782   0.035   0.351  10.020  0.3683 -0.1613 -0.0917
  387MPD2    C2 5783   0.071   0.226   9.989 -0.0886  0.5623  0.0224
  387MPD2    C3 5784   0.062   0.171   9.862  0.3836 -0.3538 -0.9889
  387MPD2    C4 5785   4.722   0.244   9.765  0.3511 -0.0715 -0.1311
  387MPD2    C5 5786   4.666   0.360   9.800  0.3234  0.2393 -1.1428
  387MPD2     H 5787   0.140   0.180  10.059 -0.1807 -0.3224 -0.4689
  387MPD2    H1 5788   4.700   0.212   9.663  2.6736  0.9610 -0.9761
  387MPD2    H2 5789   4.649   0.510   9.952  1.1651  0.4148  1.5288
  387MPD2    H3 5790   4.606   0.423   9.735 -0.5386  0.0297 -0.5552
  387MPD2     N 5791   0.130   0.052   9.837 -0.4218  0.3104  0.4010
  387MPD2    H5 5792   0.189   0.013   9.910 -0.1203  0.4085  0.2086
  387MPD2    N1 5793   0.062   0.401  10.146  0.4373 -0.1135  1.0836
  387MPD2    H7 5794   0.087   0.329  10.213  0.2211 -0.2976  0.9690
  388TMC3    C1 5795   0.118   0.545  10.304 -0.8187  1.0671 -0.6931
  388TMC3    C2 5796   0.137   0.680  10.328 -0.1728 -0.8283 -0.8087
  388TMC3    C3 5797   0.243   0.710  10.403 -0.7168 -0.1033 -0.5126
  388TMC3    C4 5798   0.191   0.446  10.362  0.4070 -0.3151 -0.1412
  388TMC3    C5 5799   0.301   0.485  10.427 -0.0188 -0.1285  0.1392
  388TMC3    C6 5800   0.321   0.615  10.455  0.4388  0.3904  0.2060
  388TMC3     C 5801   0.042   0.529  10.185 -0.5251  0.5639 -0.6691
  388TMC3     O 5802   0.002   0.624  10.122  0.5296 -0.1227  0.1309
  388TMC3     H 5803   0.078   0.752  10.273  1.1764  0.0620 -1.0725
  388TMC3    H1 5804   0.148   0.346  10.367 -0.9171  0.1950 -1.2139
  388TMC3    H2 5805   0.411   0.636  10.512  0.0110 -0.0093  1.0308
  388TMC3    C7 5806   0.412   0.395  10.430 -0.4815 -0.1376 -0.1569
  388TMC3    C8 5807   0.262   0.848  10.442 -0.1066 -0.6105  0.2851
  388TMC3    O1 5808   0.491   0.389  10.524 -0.2498 -0.3733 -0.1840
  388TMC3    O2 5809   0.164   0.923  10.431  0.5863  0.0422  0.5039
  389MPD2     C 5810   4.629   3.365  10.996 -0.5427  0.1010  0.3657
  389MPD2    C1 5811   4.545   3.286  10.928  0.0210  0.1011 -0.2642
  389MPD2    C2 5812   4.437   3.224  10.986 -0.4176  0.3021  0.2617
  389MPD2    C3 5813   4.418   3.238  11.121  0.2590 -0.6664  0.6138
  389MPD2    C4 5814   4.500   3.327  11.191  0.0661 -0.8318 -1.0358
  389MPD2    C5 5815   4.598   3.394  11.122  0.1055  0.0002 -0.0558
  389MPD2     H 5816   4.375   3.159  10.924 -0.8188  0.4580  0.5014
  389MPD2    H1 5817   4.471   3.362  11.289  2.0188 -1.0701 -0.3779
  389MPD2    H2 5818   4.714   3.414  10.950  0.3188 -0.8111  0.9715
  389MPD2    H3 5819   4.659   3.458  11.184 -0.7239  1.0556 -0.3263
  389MPD2     N 5820   4.312   3.181  11.197 -0.3909  0.1684 -0.4173
  389MPD2    H5 5821   4.285   3.228  11.283 -1.1105 -0.0324 -0.5357
  389MPD2    N1 5822   4.574   3.282  10.786 -0.2658  0.3140  0.6617
  389MPD2    H7 5823   4.651   3.342  10.758 -0.4262  0.7950  1.2580
  390TMC3    C1 5824   4.116   3.041  11.243  0.4774 -0.4800  0.9962
  390TMC3    C2 5825   4.052   2.915  11.226 -0.1644  0.0569  0.4504
  390TMC3    C3 5826   3.941   2.893  11.302 -0.3511 -0.5124 -0.2465
  390TMC3    C4 5827   4.073   3.140  11.331  0.1877  0.0676  0.8450
  390TMC3    C5 5828   3.967   3.106  11.408  0.1594  0.2096  0.6429
  390TMC3    C6 5829   3.893   2.986  11.395  0.0599 -0.2927 -0.1169
  390TMC3     C 5830   4.232   3.076  11.152 -0.1137  0.1319 -1.2179
  390TMC3     O 5831   4.247   3.011  11.047  0.1622 -0.2004 -0.2204
  390TMC3     H 5832   4.102   2.836  11.171 -0.1306  1.0294 -0.9041
  390TMC3    H1 5833   4.111   3.242  11.331 -0.3855  0.2836 -0.3818
  390TMC3    H2 5834   3.797   2.974  11.444 -0.8293  0.5849 -1.6789
  390TMC3    C7 5835   3.908   3.214  11.483  0.7037  0.6956 -0.2558
  390TMC3    C8 5836   3.890   2.759  11.318 -0.0789 -0.9863 -0.2509
  390TMC3    O1 5837   3.908   3.324  11.433  0.0207 -0.2693  0.2532
  390TMC3    O2 5838   3.855   2.701  11.214 -0.3911  0.4953 -0.2109
  391MPD2     C 5839   4.117   4.609  10.863 -0.1854  0.0225  0.4470
  391MPD2    C1 5840   4.116   0.015  10.878 -0.7520  0.0217 -0.0278
  391MPD2    C2 5841   4.100   0.101  10.765  0.2238  0.0632 -0.0786
  391MPD2    C3 5842   4.074   0.043  10.636 -0.3932  0.1402  0.4654
  391MPD2    C4 5843   4.080   4.632  10.618 -0.1840  0.0554 -0.5373
  391MPD2    C5 5844   4.100   4.560  10.735  0.1843  0.6679  0.2693
  391MPD2     H 5845   4.086   0.208  10.773 -0.8405 -0.0547 -0.4193
  391MPD2    H1 5846   4.072   4.580  10.524  1.3229 -0.1571 -0.5488
  391MPD2    H2 5847   4.139   4.547  10.950  1.2556  0.9674  0.7609
  391MPD2    H3 5848   4.093   4.453  10.721 -1.8870  0.9224 -0.5322
  391MPD2     N 5849   4.044   0.134  10.529 -0.1091  0.4077  0.2896
  391MPD2    H5 5850   4.052   0.235  10.532 -0.0327  0.4338 -0.7812
  391MPD2    N1 5851   4.137   0.068  11.007 -0.6268  0.4605 -0.3011
  391MPD2    H7 5852   4.157   0.004  11.083  0.6376 -0.0193 -1.0375
  392TMC3    C1 5853   3.997   0.214  10.322 -0.0789  0.0620 -0.5906
  392TMC3    C2 5854   3.907   0.221  10.221  0.2378  1.0796 -0.3684
  392TMC3    C3 5855   3.874   0.342  10.170  0.5565 -0.2351  0.0386
  392TMC3    C4 5856   4.053   0.329  10.376  0.1300  1.0018 -0.2753
  392TMC3    C5 5857   4.015   0.444  10.318  0.2320 -0.0993 -0.3948
  392TMC3    C6 5858   3.923   0.457  10.219 -0.4567 -0.2812  0.5303
  392TMC3     C 5859   3.999   0.100  10.407 -0.0778 -0.1773 -0.0303
  392TMC3     O 5860   3.957   4.719  10.368 -0.1409 -0.2001  0.0824
  392TMC3     H 5861   3.873   0.135  10.165 -1.8137 -0.4239  3.1712
  392TMC3    H1 5862   4.147   0.336  10.429 -0.8631 -0.9419  1.7189
  392TMC3    H2 5863   3.890   0.555  10.187 -1.1548 -0.8264 -0.4067
  392TMC3    C7 5864   4.091   0.564  10.364  0.6084  0.2819  0.4626
  392TMC3    C8 5865   3.770   0.333  10.069 -0.1346  0.5497  0.0609
  392TMC3    O1 5866   4.145   0.559  10.475  0.2646 -0.3192  0.4318
  392TMC3    O2 5867   3.686   0.242  10.082 -0.2796 -0.8237  0.0780
  393TMC3    C1 5868   2.676   2.287  10.080  0.6487  0.4655 -0.4101
  393TMC3    C2 5869   2.593   2.260  10.185 -0.7821 -0.2204  0.6626
  393TMC3    C3 5870   2.637   2.170  10.280  0.5737  0.8207  0.4889
  393TMC3    C4 5871   2.800   2.232  10.067 -0.4327  0.5783 -0.2588
  393TMC3    C5 5872   2.838   2.133  10.159 -0.5005 -0.4949  0.1135
  393TMC3    C6 5873   2.754   2.096  10.255 -0.2843 -0.0104  0.3028
  393TMC3     C 5874   2.675   2.430  10.062 -0.3019 -0.1426 -0.3972
  393TMC3     O 5875   2.578   2.485  10.014  0.5406 -0.4564 -0.5457
  393TMC3     H 5876   2.509   2.325  10.206 -0.8414  0.1940 -0.8602
  393TMC3    H1 5877   2.860   2.258   9.981  1.1161  0.5377  0.8011
  393TMC3    H2 5878   2.785   2.020  10.327 -0.6275 -1.2350 -0.8429
  393TMC3    C7 5879   2.976   2.137  10.195  0.7956 -0.3679 -0.3439
  393TMC3    C8 5880   2.576   2.178  10.417  0.5177  0.1624 -0.8674
  393TMC3    O1 5881   3.009   2.090  10.299  0.3948  0.0246  0.1312
  393TMC3    O2 5882   2.477   2.251  10.423 -0.1563  0.0639 -0.3735
  394TMC3    C1 5883   4.512   3.301  10.560  0.8391  0.2293  1.1404
  394TMC3    C2 5884   4.414   3.360  10.479 -0.1612  0.1029 -0.0836
  394TMC3    C3 5885   4.462   3.384  10.353 -0.0022  0.3803  0.4237
  394TMC3    C4 5886   4.647   3.313  10.538 -0.1215  0.6622  0.5548
  394TMC3    C5 5887   4.681   3.354  10.412  0.0474  0.1617 -0.2123
  394TMC3    C6 5888   4.591   3.374  10.311  0.5634 -0.4185 -0.3686
  394TMC3     C 5889   4.476   3.255  10.693 -0.0310 -0.0802 -0.0714
  394TMC3     O 5890   4.369   3.194  10.704  0.5954  0.4779 -0.3381
  394TMC3     H 5891   4.310   3.344  10.501 -0.2509 -0.2010 -0.7214
  394TMC3    H1 5892   0.002   3.266  10.591  0.6677 -1.7936 -2.8096
  394TMC3    H2 5893   4.617   3.387  10.207  0.8301  1.8065 -0.0175
  394TMC3    C7 5894   0.090   3.327  10.378 -0.4028  0.0598 -0.1685
  394TMC3    C8 5895   4.363   3.369  10.250 -0.2301  0.3999 -0.2003
  394TMC3    O1 5896   0.139   3.225  10.427 -0.4052 -0.1066  0.3063
  394TMC3    O2 5897   4.256   3.420  10.269  0.4494  0.1956 -0.2346
  395TMC3    C1 5898   4.133   0.179  14.663  0.3810  0.9022  0.3600
  395TMC3    C2 5899   4.002   0.178  14.662  0.5601  0.0793 -0.6906
  395TMC3    C3 5900   3.931   0.294  14.667  0.3982 -0.3985  0.0932
  395TMC3    C4 5901   4.204   0.293  14.648 -0.1568 -0.2610  0.6040
  395TMC3    C5 5902   4.127   0.412  14.650  0.2532 -0.1163 -0.2251
  395TMC3    C6 5903   3.991   0.419  14.679 -0.3848  0.0586 -0.1201
  395TMC3     C 5904   4.189   0.084  14.753 -0.0266 -0.4455  0.0309
  395TMC3     O 5905   4.118   4.717  14.781 -0.2527 -0.1659  0.2658
  395TMC3     H 5906   3.941   0.088  14.657  1.5279 -0.7654  2.7033
  395TMC3    H1 5907   4.311   0.297  14.634 -0.0401  0.4260  1.6910
  395TMC3    H2 5908   3.934   0.511  14.681  1.3594  1.1818 -1.1865
  395TMC3    C7 5909   4.202   0.537  14.657 -0.0364 -0.4971 -0.0875
  395TMC3    C8 5910   3.797   0.290  14.728 -0.3605 -0.1861 -0.1664
  395TMC3    O1 5911   4.162   0.619  14.736  0.4595  0.2105  0.2604
  395TMC3    O2 5912   3.766   0.381  14.804  0.5609  0.2046 -0.5332
  396MPD2     C 5913   3.380   2.121  17.346 -0.1389 -0.6094  0.4952
  396MPD2    C1 5914   3.518   2.114  17.338  0.0544  1.3166 -0.9537
  396MPD2    C2 5915   3.587   2.226  17.287 -0.0932 -0.3228  0.0280
  396MPD2    C3 5916   3.519   2.341  17.254 -0.7199  0.0194 -0.0829
  396MPD2    C4 5917   3.384   2.339  17.262  0.2574  0.6161 -0.1974
  396MPD2    C5 5918   3.314   2.238  17.309 -0.1011  0.1049 -0.3456
  396MPD2     H 5919   3.689   2.223  17.250  0.8599  1.0665  2.5184
  396MPD2    H1 5920   3.326   2.429  17.241 -0.9270  0.1786  1.2077
  396MPD2    H2 5921   3.318   2.032  17.349  1.2739 -1.6390 -0.8546
  396MPD2    H3 5922   3.206   2.236  17.307 -0.1039 -2.1260  1.2381
  396MPD2     N 5923   3.588   2.454  17.211 -0.1796 -0.5982  0.2617
  396MPD2    H5 5924   3.690   2.447  17.206 -0.2240  0.4858 -2.2226
  396MPD2    N1 5925   3.572   1.984  17.360  0.4285 -0.2465  0.1326
  396MPD2    H7 5926   3.509   1.914  17.396  1.9354 -0.1711  2.9531
  397TMC3    C1 5927   3.738   1.812  17.387 -0.0802 -0.1166 -0.0719
  397TMC3    C2 5928   3.840   1.764  17.318  0.0909  0.4827  0.3952
  397TMC3    C3 5929   3.833   1.633  17.270 -0.0249  0.1002  0.5377
  397TMC3    C4 5930   3.636   1.723  17.418  0.1629  0.2423 -0.1393
  397TMC3    C5 5931   3.632   1.591  17.376  0.2833  1.1332 -0.4049
  397TMC3    C6 5932   3.736   1.546  17.300  0.1800 -0.2829  0.1169
  397TMC3     C 5933   3.702   1.949  17.352  0.2041  0.3615 -0.0218
  397TMC3     O 5934   3.792   2.016  17.314 -0.0392  0.0742  0.1479
  397TMC3     H 5935   3.902   1.836  17.266 -1.5412  0.9047 -0.9816
  397TMC3    H1 5936   3.565   1.772  17.484 -3.1139 -1.0715 -2.7445
  397TMC3    H2 5937   3.728   1.452  17.246 -1.8890 -0.5570  0.8780
  397TMC3    C7 5938   3.531   1.497  17.421  0.0412 -0.3497 -0.0449
  397TMC3    C8 5939   3.899   1.609  17.147  0.3046  0.4997  0.3742
  397TMC3    O1 5940   3.528   1.391  17.359 -0.1393  0.4826 -0.3227
  397TMC3    O2 5941   3.836   1.541  17.068  0.1149  0.1214 -0.0275
  398MPD2     C 5942   1.515   2.756   0.336 -0.2024  0.3243 -0.0621
  398MPD2    C1 5943   1.561   2.663   0.429  0.4322 -0.3557  0.3402
  398MPD2    C2 5944   1.587   2.700   0.556 -0.2817 -0.1268 -0.1184
  398MPD2    C3 5945   1.560   2.833   0.592 -0.3680  0.5234  0.4744
  398MPD2    C4 5946   1.513   2.925   0.497  0.6010  0.0885  0.0124
  398MPD2    C5 5947   1.486   2.886   0.371  0.2219 -0.0133 -0.0968
  398MPD2     H 5948   1.609   2.629   0.635  0.4184  0.3931  0.1563
  398MPD2    H1 5949   1.501   3.029   0.528 -1.7963  0.1030 -0.9302
  398MPD2    H2 5950   1.504   2.729   0.232 -0.5041 -0.3359  0.1393
  398MPD2    H3 5951   1.456   2.956   0.293  0.7546  1.3628  0.9404
  398MPD2     N 5952   1.566   2.859   0.730 -0.1047 -0.5570 -0.9032
  398MPD2    H5 5953   1.578   2.773   0.783  0.3104  0.4122  0.5845
  398MPD2    N1 5954   1.584   2.528   0.390  0.1606 -0.4937 -0.0935
  398MPD2    H7 5955   1.609   2.459   0.460  1.0810  1.1193  1.1799
  399TMC3    C1 5956   1.567   2.328   0.270 -0.5951 -0.8384 -0.0970
  399TMC3    C2 5957   1.614   2.270   0.382 -0.5604  0.3576  0.7599
  399TMC3    C3 5958   1.600   2.134   0.390 -0.1484 -0.3093 -0.9482
  399TMC3    C4 5959   1.503   2.267   0.166 -0.4118  0.1126  0.3813
  399TMC3    C5 5960   1.488   2.131   0.181 -0.8878 -0.3574  0.4624
  399TMC3    C6 5961   1.531   2.062   0.287 -0.2317  0.3688  0.0062
  399TMC3     C 5962   1.566   2.469   0.263  0.2295 -0.4324 -0.0264
  399TMC3     O 5963   1.551   2.521   0.153  0.7586  0.4156 -0.1213
  399TMC3     H 5964   1.672   2.315   0.462  0.7235 -1.3192  0.7705
  399TMC3    H1 5965   1.467   2.317   0.076  0.4267 -0.5134 -0.3034
  399TMC3    H2 5966   1.503   1.959   0.305  1.7750 -0.5157 -1.9507
  399TMC3    C7 5967   1.402   2.065   0.084  1.0433 -0.2176 -0.3789
  399TMC3    C8 5968   1.696   2.063   0.480 -0.4561 -0.0169  0.2554
  399TMC3    O1 5969   1.327   1.981   0.131  0.6574 -0.3551 -0.0122
  399TMC3    O2 5970   1.759   2.127   0.554  0.0387 -0.2051 -0.0760
  400TMC3    C1 5971   0.475   1.039  16.713 -0.3042 -0.1103 -0.3960
  400TMC3    C2 5972   0.344   1.071  16.748  0.8849 -0.0261 -0.6949
  400TMC3    C3 5973   0.287   1.189  16.711  1.3837 -0.3633  0.1214
  400TMC3    C4 5974   0.553   1.135  16.650 -0.5248 -0.2199  0.1508
  400TMC3    C5 5975   0.501   1.264  16.631  0.4002  0.5674 -0.4924
  400TMC3    C6 5976   0.365   1.284  16.654 -0.5458 -0.3288 -0.0698
  400TMC3     C 5977   0.490   0.900  16.667 -0.7519  0.6308 -0.4565
  400TMC3     O 5978   0.402   0.822  16.703  0.0741 -0.2833 -0.3802
  400TMC3     H 5979   0.287   1.006  16.813 -0.6924  2.3001  0.2533
  400TMC3    H1 5980   0.658   1.125  16.624 -0.7359  0.2103 -0.8596
  400TMC3    H2 5981   0.316   1.366  16.602  0.5889  0.6428  0.4017
  400TMC3    C7 5982   0.594   1.374  16.655  0.4672  0.3695  0.5820
  400TMC3    C8 5983   0.166   1.178  16.633 -0.5180  0.6748  0.5092
  400TMC3    O1 5984   0.711   1.351  16.642 -0.5957  0.6524  0.2793
  400TMC3    O2 5985   0.094   1.276  16.640  0.0108 -0.1656 -0.5579
  401MPD2     C 5986   2.086   4.445   0.025  0.2940  0.0625  0.0184
  401MPD2    C1 5987   2.206   4.427   0.091 -0.4678  0.1370 -0.0690
  401MPD2    C2 5988   2.202   4.390   0.223 -0.6072 -0.2916  0.3594
  401MPD2    C3 5989   2.088   4.359   0.290 -0.0957 -0.5059  0.3934
  401MPD2    C4 5990   1.967   4.367   0.226 -0.8029 -0.2248  0.7907
  401MPD2    C5 5991   1.963   4.418   0.091  0.0184 -0.1131 -0.3657
  401MPD2     H 5992   2.296   4.387   0.276 -0.3425 -2.4864 -0.2529
  401MPD2    H1 5993   1.877   4.332   0.276 -1.9837 -0.6901 -1.6797
  401MPD2    H2 5994   2.088   4.483  17.634 -0.9744  0.5449  0.1762
  401MPD2    H3 5995   1.868   4.425   0.039 -1.7983 -2.5283  2.6381
  401MPD2     N 5996   2.107   4.313   0.426  0.4286  0.3083 -1.3659
  401MPD2    H5 5997   2.205   4.295   0.445  0.7153  0.0416 -3.1230
  401MPD2    N1 5998   2.337   4.447   0.038 -0.1635 -0.2096 -0.4082
  401MPD2    H7 5999   2.414   4.427   0.101  1.0634  0.9005 -1.5519
  402TMC3    C1 6000   2.063   4.211   0.626  0.7340  0.1221  0.0982
  402TMC3    C2 6001   2.109   4.261   0.743 -0.3393  0.3585  0.5417
  402TMC3    C3 6002   2.209   4.187   0.810 -0.2127 -0.2433  0.5729
  402TMC3    C4 6003   2.102   4.091   0.579  0.1769 -0.1539 -0.5838
  402TMC3    C5 6004   2.197   4.025   0.647  0.1255 -0.2645 -0.3323
  402TMC3    C6 6005   2.244   4.064   0.763  0.1000  0.0585  0.0835
  402TMC3     C 6006   2.012   4.291   0.522  0.2400  0.5426 -0.3889
  402TMC3     O 6007   1.898   4.332   0.532 -0.8427 -0.5153  0.0028
  402TMC3     H 6008   2.081   4.362   0.769 -0.3712  0.3391  0.5814
  402TMC3    H1 6009   2.073   4.063   0.478  4.7649 -1.2888 -1.5793
  402TMC3    H2 6010   2.319   4.022   0.828  1.5093  0.2838 -1.3927
  402TMC3    C7 6011   2.247   3.897   0.594 -0.2937  0.4919  0.4818
  402TMC3    C8 6012   2.311   4.258   0.882 -0.6577  0.1176  0.1243
  402TMC3    O1 6013   2.173   3.833   0.518  0.7529  0.0260 -0.4320
  402TMC3    O2 6014   2.424   4.213   0.873 -0.8319  0.0543  0.0655
  403MPD2     C 6015   2.455   3.017  13.006  0.1069  0.6593  0.4647
  403MPD2    C1 6016   2.429   2.922  13.103 -0.2002 -0.2501 -0.5610
  403MPD2    C2 6017   2.490   2.937  13.227  0.0266  0.7806 -0.7784
  403MPD2    C3 6018   2.564   3.049  13.267  0.0218 -0.0041  0.3698
  403MPD2    C4 6019   2.581   3.143  13.169 -0.1601 -0.4927  0.6266
  403MPD2    C5 6020   2.528   3.119  13.047 -0.6249  0.2486 -0.2752
  403MPD2     H 6021   2.489   2.854  13.297 -1.9385  2.4304  1.1456
  403MPD2    H1 6022   2.641   3.231  13.186  0.8229 -0.8775 -0.8297
  403MPD2    H2 6023   2.422   3.012  12.903  0.7756 -2.8925  0.4239
  403MPD2    H3 6024   2.553   3.191  12.970  2.4617  1.4316  1.8142
  403MPD2     N 6025   2.615   3.049  13.404 -0.5362 -0.1716  0.9714
  403MPD2    H5 6026   2.620   2.970  13.467 -1.1806  0.9259  2.4280
  403MPD2    N1 6027   2.365   2.805  13.055  0.2359  0.2002  0.2904
  403MPD2    H7 6028   2.334   2.819  12.959 -1.9322 -1.5997  0.7312
  404TMC3    C1 6029   2.258   2.599  13.051  0.2077  0.1755 -0.0767
  404TMC3    C2 6030   2.190   2.504  13.126  0.7446 -0.6786 -0.0021
  404TMC3    C3 6031   2.117   2.415  13.050  0.0538 -0.2602 -0.2316
  404TMC3    C4 6032   2.249   2.609  12.916 -0.1778  0.0290 -0.0706
  404TMC3    C5 6033   2.177   2.516  12.848 -0.4545  0.0343 -1.2708
  404TMC3    C6 6034   2.108   2.419  12.914 -1.0035  0.4208 -0.3083
  404TMC3     C 6035   2.335   2.690  13.121  0.0289 -0.2183 -0.7035
  404TMC3     O 6036   2.357   2.663  13.240 -0.0699  0.0541 -0.2190
  404TMC3     H 6037   2.197   2.503  13.235  1.0965 -0.0325 -0.0187
  404TMC3    H1 6038   2.318   2.673  12.862 -0.3788 -0.7163 -1.2106
  404TMC3    H2 6039   2.049   2.347  12.859  0.5936  0.6540 -2.3828
  404TMC3    C7 6040   2.160   2.542  12.703  1.2550 -0.4901 -0.5657
  404TMC3    C8 6041   2.090   2.281  13.108  0.2686 -0.0125 -0.0440
  404TMC3    O1 6042   2.175   2.661  12.673 -0.0281 -0.0203  0.1426
  404TMC3    O2 6043   2.082   2.187  13.031 -0.3356 -0.0859 -0.0070
  405MPD2     C 6044   2.564   3.240  14.881  0.2721 -0.4693 -0.1512
  405MPD2    C1 6045   2.574   3.176  14.758  0.4020  0.9155 -0.5360
  405MPD2    C2 6046   2.577   3.254  14.647  0.8676 -0.6433 -0.1597
  405MPD2    C3 6047   2.574   3.389  14.647 -0.0145 -0.1704 -0.1046
  405MPD2    C4 6048   2.580   3.451  14.767 -0.2082  0.9772 -0.4304
  405MPD2    C5 6049   2.578   3.377  14.882  0.4474 -0.0974  0.2420
  405MPD2     H 6050   2.570   3.205  14.550 -1.4067 -1.2995  0.3399
  405MPD2    H1 6051   2.585   3.559  14.773 -0.4682  1.0209 -0.9727
  405MPD2    H2 6052   2.561   3.182  14.973  1.9830  0.0119  0.2010
  405MPD2    H3 6053   2.597   3.430  14.974  3.8541 -2.1190  0.6962
  405MPD2     N 6054   2.570   3.446  14.514 -0.2788  0.3667  0.1152
  405MPD2    H5 6055   2.584   3.385  14.435  2.0090 -1.1060  1.6541
  405MPD2    N1 6056   2.582   3.035  14.764  0.7466 -0.6934 -0.4932
  405MPD2    H7 6057   2.569   2.987  14.852 -0.6434 -1.0835 -0.9138
  406TMC3    C1 6058   2.345   3.642  14.182 -0.2252  0.0232  0.0138
  406TMC3    C2 6059   2.411   3.572  14.085 -0.2027 -0.8398 -0.0694
  406TMC3    C3 6060   2.525   3.500  14.124  0.1410 -0.8603 -0.2122
  406TMC3    C4 6061   2.401   3.653  14.305 -0.0733 -0.1667 -0.5256
  406TMC3    C5 6062   2.508   3.582  14.337 -0.0484 -0.9370  0.3967
  406TMC3    C6 6063   2.572   3.501  14.246 -0.0508  0.9795 -0.4507
  406TMC3     C 6064   2.235   3.730  14.150 -0.6404  0.1715 -0.9310
  406TMC3     O 6065   2.254   3.850  14.127 -0.4911  0.5680  0.0247
  406TMC3     H 6066   2.367   3.570  13.986  0.2789 -0.1283 -0.2955
  406TMC3    H1 6067   2.345   3.712  14.376  0.4614 -0.6072  0.2523
  406TMC3    H2 6068   2.670   3.457  14.264 -0.2010  0.6396 -0.4648
  406TMC3    C7 6069   2.544   3.579  14.484 -0.0478  0.8488  0.5521
  406TMC3    C8 6070   2.539   3.377  14.048  0.1569 -0.3599  0.5802
  406TMC3    O1 6071   2.489   3.668  14.550  0.7567  0.1273  0.1287
  406TMC3    O2 6072   2.486   3.376  13.936  0.4718  0.6184  0.1418
  407MPD2     C 6073   4.314   4.539   9.729 -0.6232 -0.2360 -0.4601
  407MPD2    C1 6074   4.396   4.645   9.683  0.0976 -0.2552 -0.0912
  407MPD2    C2 6075   4.399   0.038   9.758 -0.1879  1.0584 -0.3122
  407MPD2    C3 6076   4.328   0.044   9.874  0.2111 -0.7004 -0.4070
  407MPD2    C4 6077   4.245   4.669   9.915 -0.4139 -0.1069  0.1042
  407MPD2    C5 6078   4.241   4.556   9.842  0.1945  0.1214 -0.9289
  407MPD2     H 6079   4.472   0.113   9.732  1.9808 -0.9490 -0.0108
  407MPD2    H1 6080   4.172   4.679   9.995  0.4622 -0.6237  0.9594
  407MPD2    H2 6081   4.298   4.452   9.666  0.5507 -0.7424 -0.0626
  407MPD2    H3 6082   4.177   4.472   9.865  0.4541  0.9446  2.8457
  407MPD2     N 6083   4.335   0.164   9.945 -0.0325 -0.8486  0.5417
  407MPD2    H5 6084   4.398   0.239   9.922  1.9236 -1.5692  3.4588
  407MPD2    N1 6085   4.468   4.632   9.561 -0.3096 -0.0368 -0.7585
  407MPD2    H7 6086   4.517   4.711   9.520 -1.0888 -0.4247 -2.4445
  408TMC3    C1 6087   4.570   4.540   9.366  1.1921 -0.1760  0.4392
  408TMC3    C2 6088   4.669   4.448   9.387  0.1030 -0.0840  0.0184
  408TMC3    C3 6089   0.074   4.493   9.357  0.0123  0.1731  0.3491
  408TMC3    C4 6090   4.590   4.670   9.330  0.0613 -0.5935  0.0994
  408TMC3    C5 6091   4.719   4.715   9.322 -0.8425  0.6288 -0.9370
  408TMC3    C6 6092   0.102   4.628   9.318 -0.1056  0.0895  0.1713
  408TMC3     C 6093   4.475   4.519   9.477 -0.4032 -0.2999  0.5630
  408TMC3     O 6094   4.442   4.402   9.495  0.1591 -0.4876 -0.0875
  408TMC3     H 6095   4.650   4.351   9.431  1.8098 -0.4942 -0.1484
  408TMC3    H1 6096   4.507   0.010   9.318  1.7684  1.8537  2.0968
  408TMC3    H2 6097   0.200   4.665   9.290  0.4422 -0.4586  1.3928
  408TMC3    C7 6098   0.008   0.130   9.329  0.3444  0.2449 -0.3148
  408TMC3    C8 6099   0.176   4.389   9.369  0.1317 -0.2765 -0.8321
  408TMC3    O1 6100   4.650   0.205   9.290 -0.0430 -0.6243 -0.0701
  408TMC3    O2 6101   0.146   4.269   9.371  0.8180 -0.0095  0.0502
  409MPD2     C 6102   3.655   0.925  16.638  0.1422 -0.2636 -0.0177
  409MPD2    C1 6103   3.763   0.877  16.711 -0.3356 -0.3512  0.2163
  409MPD2    C2 6104   3.878   0.950  16.712 -0.4394 -0.4770  0.0150
  409MPD2    C3 6105   3.882   1.075  16.648 -0.1382  0.2221  0.3288
  409MPD2    C4 6106   3.772   1.114  16.570 -0.2919  0.8440 -0.6046
  409MPD2    C5 6107   3.659   1.038  16.565 -0.3466 -0.2036  0.0041
  409MPD2     H 6108   3.962   0.928  16.777 -0.3205 -1.5883 -0.5121
  409MPD2    H1 6109   3.778   1.205  16.511  2.4013  0.7678 -0.4571
  409MPD2    H2 6110   3.561   0.872  16.640  0.9375 -1.7576 -2.9066
  409MPD2    H3 6111   3.568   1.058  16.511 -0.6436 -0.3326  0.4621
  409MPD2     N 6112   3.996   1.164  16.663 -0.5732  0.1829  0.0309
  409MPD2    H5 6113   4.000   1.241  16.597 -2.2800 -0.5187 -0.9052
  409MPD2    N1 6114   3.755   0.765  16.798 -0.1322 -0.0212  0.5188
  409MPD2    H7 6115   3.839   0.749  16.854  0.3840  1.7427  0.2343
  410TMC3    C1 6116   4.221   1.237  16.695 -0.2105  0.4814  0.9726
  410TMC3    C2 6117   4.315   1.272  16.791 -0.0788  0.4349  0.1883
  410TMC3    C3 6118   4.413   1.355  16.738  0.9637 -1.1655  0.2902
  410TMC3    C4 6119   4.230   1.280  16.565  0.3250  0.1864 -0.8002
  410TMC3    C5 6120   4.320   1.372  16.529 -0.4763  0.2233  0.0284
  410TMC3    C6 6121   4.417   1.418  16.616  0.7498  0.0945 -0.1431
  410TMC3     C 6122   4.107   1.152  16.743 -0.7654 -0.2177  0.7298
  410TMC3     O 6123   4.134   1.077  16.834 -0.1472 -0.3499 -0.5287
  410TMC3     H 6124   4.307   1.238  16.893  0.1411 -1.6546 -0.4899
  410TMC3    H1 6125   4.158   1.257  16.488  0.5618  0.6320 -1.1559
  410TMC3    H2 6126   4.497   1.489  16.598  1.4124 -0.7988 -0.7249
  410TMC3    C7 6127   4.327   1.414  16.389 -0.4416  0.1385 -0.6322
  410TMC3    C8 6128   4.542   1.351  16.808  0.9031  0.1949  1.1036
  410TMC3    O1 6129   4.281   1.332  16.306  1.0476  0.1958 -0.1623
  410TMC3    O2 6130   4.617   1.449  16.800  0.0390 -0.3129 -0.1694
  411MPD2     C 6131   4.557   1.627  14.509 -0.4621  1.0434 -0.0405
  411MPD2    C1 6132   4.439   1.589  14.563  0.0622  0.4141  0.3647
  411MPD2    C2 6133   4.398   1.455  14.544 -0.3434  0.3916  0.1812
  411MPD2    C3 6134   4.474   1.375  14.462 -0.4237 -0.0755 -0.1065
  411MPD2    C4 6135   4.599   1.416  14.419 -0.2182 -0.3251 -0.7213
  411MPD2    C5 6136   4.639   1.546  14.437  0.4531 -0.3570  0.5053
  411MPD2     H 6137   4.298   1.429  14.578 -0.1622  1.0947  1.2548
  411MPD2    H1 6138   4.654   1.350  14.353  1.1333  1.4055 -1.3396
  411MPD2    H2 6139   4.598   1.728  14.510  1.5333  0.2424  0.9513
  411MPD2    H3 6140   4.724   1.580  14.379  0.0240 -1.0650 -0.5421
  411MPD2     N 6141   4.435   1.248  14.414  0.2186  0.2571  0.2967
  411MPD2    H5 6142   4.496   1.198  14.350 -1.0379  0.0620 -0.7402
  411MPD2    N1 6143   4.345   1.678  14.615  0.4024 -0.1975 -0.1511
  411MPD2    H7 6144   4.265   1.635  14.659 -0.1481  0.9132 -0.0745
  412TMC3    C1 6145   4.285   1.071  14.380 -0.7457  0.0531  0.3904
  412TMC3    C2 6146   4.221   0.966  14.441 -0.3321  0.6056 -0.0323
  412TMC3    C3 6147   4.206   0.855  14.367 -0.0190  0.5807 -0.2990
  412TMC3    C4 6148   4.346   1.069  14.257  0.6337 -0.1538  0.7207
  412TMC3    C5 6149   4.348   0.948  14.195  0.2733  0.0390  0.1861
  412TMC3    C6 6150   4.281   0.842  14.250 -0.2103  0.0188  0.2265
  412TMC3     C 6151   4.324   1.183  14.460  1.0598 -0.1129  0.1874
  412TMC3     O 6152   4.261   1.201  14.565  0.0324  0.2657  0.4638
  412TMC3     H 6153   4.171   0.986  14.535  1.2562 -0.5703  1.0757
  412TMC3    H1 6154   4.369   1.165  14.212  1.2972 -1.8668 -2.6225
  412TMC3    H2 6155   4.284   0.745  14.201 -0.8228  0.5283 -0.8199
  412TMC3    C7 6156   4.336   0.950  14.054 -0.0160 -0.4829 -0.8362
  412TMC3    C8 6157   4.070   0.809  14.347  0.0453  0.6770 -0.5674
  412TMC3    O1 6158   4.243   0.880  14.010 -0.1529  0.1894 -0.3521
  412TMC3    O2 6159   3.994   0.805  14.442  0.0596  0.1628 -0.0983
  413MPD2     C 6160   1.573   4.429  15.546  0.5359  0.4029  0.2672
  413MPD2    C1 6161   1.521   4.413  15.424 -0.2041  0.3354 -0.7052
  413MPD2    C2 6162   1.593   4.349  15.319  0.1637  0.8379  0.1503
  413MPD2    C3 6163   1.719   4.305  15.348  0.4439 -0.1622 -0.2546
  413MPD2    C4 6164   1.783   4.341  15.465 -0.4237  0.6676 -0.0087
  413MPD2    C5 6165   1.704   4.397  15.563  0.2522  0.1413  0.1221
  413MPD2     H 6166   1.549   4.328  15.222 -1.0698  0.0718  0.8744
  413MPD2    H1 6167   1.883   4.305  15.488 -0.9460 -1.0328 -0.3591
  413MPD2    H2 6168   1.524   4.484  15.625 -3.1783 -0.9669 -1.0975
  413MPD2    H3 6169   1.738   4.411  15.665 -0.6820  0.1089  0.4397
  413MPD2     N 6170   1.788   4.226  15.251 -0.3275 -0.2543 -0.0286
  413MPD2    H5 6171   1.743   4.216  15.160  0.9419  0.1288 -0.6990
  413MPD2    N1 6172   1.385   4.451  15.416  0.0366 -0.1479 -0.2282
  413MPD2    H7 6173   1.347   4.481  15.506 -0.2406  1.4997 -0.9035
  414TMC3    C1 6174   1.963   4.096  15.160  0.4344  0.0926  0.1343
  414TMC3    C2 6175   2.028   3.982  15.186  0.4625 -0.2598 -0.2717
  414TMC3    C3 6176   2.049   3.895  15.074 -0.0430 -0.1313 -0.7522
  414TMC3    C4 6177   1.904   4.121  15.035 -0.1513  0.1084 -0.7356
  414TMC3    C5 6178   1.929   4.034  14.932 -0.3053 -0.2715 -0.0838
  414TMC3    C6 6179   1.989   3.916  14.950 -0.2070 -0.1978  0.1136
  414TMC3     C 6180   1.907   4.154  15.277  0.9026 -0.2176  0.2011
  414TMC3     O 6181   1.944   4.107  15.384 -0.2904 -0.0624 -0.0170
  414TMC3     H 6182   2.071   3.964  15.284 -0.8056  0.0624  0.3530
  414TMC3    H1 6183   1.846   4.211  15.020  0.6811  0.8027  0.1990
  414TMC3    H2 6184   1.998   3.839  14.874  0.2489 -0.7720  0.7527
  414TMC3    C7 6185   1.841   4.041  14.820 -0.2499  0.2193  0.8596
  414TMC3    C8 6186   2.104   3.759  15.096 -0.0078 -0.1544 -0.3377
  414TMC3    O1 6187   1.727   4.038  14.848 -0.0395  0.2178  0.0626
  414TMC3    O2 6188   2.075   3.681  15.005 -0.2219 -0.1584 -0.6443
  415TMC3    C1 6189   2.077   1.368   9.948  0.4356  0.6204 -0.2775
  415TMC3    C2 6190   2.070   1.420   9.825 -0.4770  0.3240 -0.1080
  415TMC3    C3 6191   1.952   1.410   9.755  0.9792  0.2860 -0.1177
  415TMC3    C4 6192   1.970   1.300  10.005  0.4102 -0.4567 -0.5318
  415TMC3    C5 6193   1.863   1.286   9.920  0.4490  0.1748  0.7559
  415TMC3    C6 6194   1.843   1.346   9.800  0.0782  0.0139  0.0726
  415TMC3     C 6195   2.158   1.428  10.047  0.0973 -0.9092  0.1039
  415TMC3     O 6196   2.136   1.404  10.167 -0.0350 -0.0486  0.0954
  415TMC3     H 6197   2.148   1.486   9.789 -0.7766 -0.2472 -1.8110
  415TMC3    H1 6198   1.986   1.235  10.089  3.8697  0.4637 -0.4822
  415TMC3    H2 6199   1.759   1.318   9.738  1.4681 -1.1427 -1.2735
  415TMC3    C7 6200   1.738   1.246   9.986 -0.1400  0.0620  0.1543
  415TMC3    C8 6201   1.943   1.441   9.613  0.0073 -0.3786 -0.7769
  415TMC3    O1 6202   1.649   1.198   9.919 -0.3511 -0.0141  0.7097
  415TMC3    O2 6203   1.830   1.429   9.563 -0.5519 -0.7823  0.1903
  416MPD2     C 6204   3.743   1.311  11.792  0.4604 -0.1786 -0.1651
  416MPD2    C1 6205   3.646   1.302  11.691  0.4529 -0.1657 -0.4745
  416MPD2    C2 6206   3.641   1.187  11.612 -0.1788  0.4257  0.0513
  416MPD2    C3 6207   3.740   1.090  11.621 -0.2040  0.0932 -0.1296
  416MPD2    C4 6208   3.820   1.092  11.729  0.2498 -0.0168  0.2103
  416MPD2    C5 6209   3.822   1.202  11.808  0.4922 -0.1284  0.4349
  416MPD2     H 6210   3.554   1.170  11.550  0.6921 -1.4919 -0.6462
  416MPD2    H1 6211   3.892   1.016  11.757  1.3725  0.8991 -0.1717
  416MPD2    H2 6212   3.752   1.394  11.861 -2.9202  2.6038 -3.0736
  416MPD2    H3 6213   3.885   1.203  11.896 -0.4567 -0.0304  1.1110
  416MPD2     N 6214   3.737   0.968  11.540 -0.0771  0.0771 -0.7559
  416MPD2    H5 6215   3.792   0.893  11.581  3.5563  2.8432 -0.5223
  416MPD2    N1 6216   3.548   1.401  11.672  0.2563  0.2241 -0.1177
  416MPD2    H7 6217   3.501   1.395  11.583 -0.1126  0.9922  0.0239
  417TMC3    C1 6218   3.410   1.576  11.715  0.1724 -0.1729  0.2973
  417TMC3    C2 6219   3.330   1.600  11.823  0.8333  0.4196 -0.3718
  417TMC3    C3 6220   3.194   1.601  11.798  0.6025 -0.3305 -0.3079
  417TMC3    C4 6221   3.361   1.563  11.589  0.3308 -0.1046 -0.0001
  417TMC3    C5 6222   3.226   1.573  11.572 -0.5491  0.8382 -0.5811
  417TMC3    C6 6223   3.139   1.584  11.676 -0.5324 -0.2401 -0.0451
  417TMC3     C 6224   3.529   1.510  11.757  0.2652  0.8452 -0.3610
  417TMC3     O 6225   3.594   1.550  11.850  0.3815  0.5164  0.5100
  417TMC3     H 6226   3.364   1.583  11.924  0.0694  0.2169 -0.1536
  417TMC3    H1 6227   3.426   1.556  11.502  0.0661  1.4192 -0.3305
  417TMC3    H2 6228   3.035   1.608  11.660 -1.2340 -1.4074  2.9238
  417TMC3    C7 6229   3.174   1.597  11.439  0.0981 -0.4123  0.2555
  417TMC3    C8 6230   3.098   1.583  11.909 -0.9271  0.1334 -0.2154
  417TMC3    O1 6231   3.243   1.670  11.365  0.2340 -0.1669  0.3821
  417TMC3    O2 6232   2.988   1.540  11.882 -0.3988  0.2082  0.2116
  418TMC3    C1 6233   1.668   2.997   1.123  0.3859  0.2791  0.0800
  418TMC3    C2 6234   1.621   3.047   1.003  0.3234  0.2149  0.5648
  418TMC3    C3 6235   1.539   2.961   0.941 -0.1812 -0.0608 -0.1923
  418TMC3    C4 6236   1.625   2.879   1.181  0.5912 -0.1603 -0.5163
  418TMC3    C5 6237   1.523   2.808   1.119 -0.3233  0.5320  0.2435
  418TMC3    C6 6238   1.493   2.845   0.991  0.0119 -0.6215 -0.1511
  418TMC3     C 6239   1.790   3.056   1.166 -0.3980 -0.9583  0.7217
  418TMC3     O 6240   1.807   3.173   1.143  0.1014 -0.7540 -0.8194
  418TMC3     H 6241   1.655   3.142   0.962  2.4792 -0.9956 -0.4410
  418TMC3    H1 6242   1.665   2.835   1.272  0.0399  3.2584  1.3515
  418TMC3    H2 6243   1.434   2.776   0.932  0.6603 -1.5914  0.3228
  418TMC3    C7 6244   1.503   2.671   1.153  0.2660  0.3140 -0.3999
  418TMC3    C8 6245   1.527   2.976   0.796  0.5215 -0.0794  0.5722
  418TMC3    O1 6246   1.498   2.597   1.057 -0.7424 -0.2245 -0.9073
  418TMC3    O2 6247   1.521   3.089   0.750  0.2221  0.8557  0.5495
  419MPD2     C 6248   1.147   0.832  12.166 -0.5899 -0.1014 -0.4896
  419MPD2    C1 6249   1.180   0.964  12.170 -0.0849  0.1164  0.6236
  419MPD2    C2 6250   1.224   1.023  12.291  0.7034  0.0575 -0.2223
  419MPD2    C3 6251   1.232   0.946  12.403 -0.0007 -0.1180 -0.9024
  419MPD2    C4 6252   1.188   0.811  12.395 -0.4403  0.3710  0.0346
  419MPD2    C5 6253   1.155   0.759  12.280 -0.3897 -0.7090  0.7195
  419MPD2     H 6254   1.265   1.124  12.289 -0.9841  0.7217 -1.2901
  419MPD2    H1 6255   1.214   0.753  12.483  1.3705 -0.4491 -1.0596
  419MPD2    H2 6256   1.134   0.778  12.073 -1.2050 -0.3145 -0.2767
  419MPD2    H3 6257   1.139   0.652  12.272  0.1148 -1.0147  3.9099
  419MPD2     N 6258   1.293   1.009  12.512  0.3490 -0.2480 -0.3035
  419MPD2    H5 6259   1.336   1.097  12.486 -0.6288 -0.2575 -1.9306
  419MPD2    N1 6260   1.171   1.047  12.060  0.5678  0.3495 -0.0713
  419MPD2    H7 6261   1.206   1.141  12.078 -2.2197  1.4756 -0.5304
  420TMC3    C1 6262   1.379   1.037  12.731  1.1275  0.3608 -0.3234
  420TMC3    C2 6263   1.482   1.114  12.686  0.6578  0.4945  0.0650
  420TMC3    C3 6264   1.551   1.188  12.780  0.0344 -0.7737 -0.3229
  420TMC3    C4 6265   1.359   1.009  12.868  0.2489 -0.2433 -0.5321
  420TMC3    C5 6266   1.439   1.069  12.957  0.0587  0.0305  0.2010
  420TMC3    C6 6267   1.539   1.163  12.911  0.5806 -0.2311 -0.0863
  420TMC3     C 6268   1.285   0.975  12.644  0.7686  0.8367  0.2963
  420TMC3     O 6269   1.221   0.881  12.680  0.7765  0.6705 -0.1555
  420TMC3     H 6270   1.485   1.140  12.581  0.8115  1.3312  0.2716
  420TMC3    H1 6271   1.269   0.951  12.885 -2.1308  3.4211 -0.6634
  420TMC3    H2 6272   1.608   1.221  12.972 -0.2053  0.1266  0.4673
  420TMC3    C7 6273   1.396   1.063  13.100  0.1421 -1.0201 -0.3690
  420TMC3    C8 6274   1.539   1.329  12.764 -0.0611 -0.1249  0.4570
  420TMC3    O1 6275   1.313   0.983  13.126 -0.0857  0.3893  0.0026
  420TMC3    O2 6276   1.491   1.390  12.859 -0.0051  0.2607 -0.3435
  421TMC3    C1 6277   2.707   3.153  13.605  0.9931  0.1596  0.2402
  421TMC3    C2 6278   2.732   3.276  13.654 -0.9587  0.6454  0.1749
  421TMC3    C3 6279   2.790   3.275  13.780 -0.0329  0.0776 -0.3968
  421TMC3    C4 6280   2.738   3.034  13.663  0.3485 -0.2044  1.0639
  421TMC3    C5 6281   2.778   3.043  13.793  0.2031  0.3026  0.5183
  421TMC3    C6 6282   2.799   3.159  13.854  0.6648  0.3322 -0.0639
  421TMC3     C 6283   2.675   3.157  13.463 -0.3475  0.0597  0.5681
  421TMC3     O 6284   2.682   3.269  13.411 -0.1665  0.0851 -0.6110
  421TMC3     H 6285   2.691   3.368  13.613  1.4575  1.6177 -0.0590
  421TMC3    H1 6286   2.759   2.939  13.615  1.6427 -0.3961  1.9935
  421TMC3    H2 6287   2.840   3.154  13.954 -1.5460 -1.0607  0.7742
  421TMC3    C7 6288   2.821   2.922  13.857 -0.3920  1.2314  0.1135
  421TMC3    C8 6289   2.799   3.408  13.841  0.3913 -0.5667 -0.2174
  421TMC3    O1 6290   2.928   2.919  13.917 -0.2333  0.1448 -0.2419
  421TMC3    O2 6291   2.769   3.507  13.780 -0.1699  0.7983 -0.3032
  422TMC3    C1 6292   4.522   4.181  12.441 -1.0536  1.0422 -0.5833
  422TMC3    C2 6293   4.515   4.315  12.407 -0.0254 -0.7852  0.8571
  422TMC3    C3 6294   4.425   4.391  12.480 -0.6096  0.6542 -0.0996
  422TMC3    C4 6295   4.440   4.116  12.534  0.4263 -0.3444 -0.4477
  422TMC3    C5 6296   4.342   4.199  12.587 -0.2042  0.4824 -0.1262
  422TMC3    C6 6297   4.339   4.334  12.565 -0.3655  0.1629  0.1352
  422TMC3     C 6298   4.625   4.102  12.368  0.3167  0.8502 -0.3835
  422TMC3     O 6299   4.638   4.156  12.259  0.5808  0.1055 -0.1957
  422TMC3     H 6300   4.582   4.363  12.337 -1.8291 -0.1169 -0.3990
  422TMC3    H1 6301   4.444   4.009  12.554  1.6859 -0.9909 -3.9600
  422TMC3    H2 6302   4.268   4.389  12.626  0.0689  0.7040  0.1469
  422TMC3    C7 6303   4.242   4.150  12.687 -0.0227 -0.2575 -0.0769
  422TMC3    C8 6304   4.414   4.524  12.444  0.2442  0.0662  0.1175
  422TMC3    O1 6305   4.137   4.211  12.696 -0.0433 -0.2846  0.4338
  422TMC3    O2 6306   4.504   4.573  12.373 -0.8252 -0.7599 -0.6995
  423MPD2     C 6307   0.468   0.907  17.670 -0.3601  0.4282 -0.3584
  423MPD2    C1 6308   0.399   0.783  17.676 -0.4786  0.7539 -0.1118
  423MPD2    C2 6309   0.446   0.675  17.599 -0.9170 -0.1559  0.6676
  423MPD2    C3 6310   0.552   0.688  17.509 -0.1532 -0.0069 -0.1017
  423MPD2    C4 6311   0.614   0.808  17.503 -0.1182 -0.5118  0.1584
  423MPD2    C5 6312   0.570   0.913  17.577  0.6298 -0.9538  0.5070
  423MPD2     H 6313   0.379   0.590  17.591 -0.2455 -0.6863  0.6945
  423MPD2    H1 6314   0.694   0.821  17.432  0.5358 -3.4991  0.3696
  423MPD2    H2 6315   0.441   0.998   0.012 -0.8545 -0.3444  0.7289
  423MPD2    H3 6316   0.612   1.006  17.542 -0.0670 -1.0175 -0.4903
  423MPD2     N 6317   0.602   0.585  17.412  0.0853 -0.0430 -0.5890
  423MPD2    H5 6318   0.680   0.607  17.352  1.1860  3.7355  2.2519
  423MPD2    N1 6319   0.280   0.770   0.036 -0.0764  0.5593  0.7448
  423MPD2    H7 6320   0.250   0.675   0.057 -2.2452  0.8772 -0.8516
  424TMC3    C1 6321   0.097   0.833   0.157  0.0021  0.3230 -0.1311
  424TMC3    C2 6322   0.107   0.719   0.231  0.6018 -0.4417  0.2869
  424TMC3    C3 6323   0.003   0.695   0.322 -0.8759  0.4379  0.9472
  424TMC3    C4 6324   4.723   0.923   0.168  0.4120 -0.1305 -0.2235
  424TMC3    C5 6325   4.630   0.897   0.266 -0.1478  0.4916  0.0899
  424TMC3    C6 6326   4.618   0.774   0.334 -0.3961  0.5606 -0.6616
  424TMC3     C 6327   0.204   0.869   0.069 -0.5721 -0.1969  0.6091
  424TMC3     O 6328   0.203   0.983   0.026 -0.3515 -0.3179 -0.2540
  424TMC3     H 6329   0.193   0.653   0.234  0.0837 -1.2634 -3.7601
  424TMC3    H1 6330   0.001   1.018   0.117 -2.0187 -0.0857 -0.4235
  424TMC3    H2 6331   4.535   0.757   0.402  0.2001  0.4928  0.0545
  424TMC3    C7 6332   4.527   0.996   0.276 -0.2202  1.0190 -0.3771
  424TMC3    C8 6333   0.021   0.584   0.413  0.6308  0.1721 -0.1947
  424TMC3    O1 6334   4.512   1.074   0.182  0.2227 -0.0717 -0.0166
  424TMC3    O2 6335   0.097   0.502   0.371 -0.8379 -0.6575  0.5283
  425MPD2     C 6336   4.575   4.225  17.236 -0.1786  0.6941  0.6282
  425MPD2    C1 6337   4.537   4.114  17.164 -0.4063 -0.2089  0.2016
  425MPD2    C2 6338   4.411   4.116  17.112  0.1483 -0.1589  0.1047
  425MPD2    C3 6339   4.334   4.232  17.102 -0.5934  0.1184  0.6116
  425MPD2    C4 6340   4.393   4.351  17.144  0.5960  0.1094  0.1550
  425MPD2    C5 6341   4.510   4.347  17.217 -0.4900  0.6585  0.3030
  425MPD2     H 6342   4.363   4.022  17.088 -1.9447  1.1138 -0.6751
  425MPD2    H1 6343   4.340   4.445  17.133 -1.5294 -1.2599 -1.3273
  425MPD2    H2 6344   4.673   4.228  17.281 -0.3278 -2.4379  1.1919
  425MPD2    H3 6345   4.552   4.432  17.271  3.3014 -0.0464 -1.5410
  425MPD2     N 6346   4.213   4.218  17.027 -0.1609 -0.9468 -0.3301
  425MPD2    H5 6347   4.194   4.123  16.996 -1.1521 -1.0194  0.5188
  425MPD2    N1 6348   4.617   4.000  17.163 -0.4480  0.5918  0.3783
  425MPD2    H7 6349   4.697   4.003  17.225  0.6356 -0.2819 -0.9846
  426TMC3    C1 6350   4.715   3.806  17.085  0.6384  0.2115 -0.4994
  426TMC3    C2 6351   0.043   3.749  16.973 -0.2367  0.0865 -0.5765
  426TMC3    C3 6352   0.113   3.631  16.987  0.2288  0.5797 -0.1889
  426TMC3    C4 6353   4.719   3.733  17.200  0.1429  0.1394  0.6981
  426TMC3    C5 6354   0.070   3.623  17.216  0.5980 -0.0451  0.1066
  426TMC3    C6 6355   0.142   3.576  17.108 -0.3983  0.2997 -0.2998
  426TMC3     C 6356   4.604   3.900  17.068 -0.5005 -0.3225 -0.0369
  426TMC3     O 6357   4.546   3.888  16.964  0.2861 -0.0715 -0.4937
  426TMC3     H 6358   0.039   3.797  16.876 -1.0552 -0.5463 -0.8565
  426TMC3    H1 6359   4.662   3.773  17.283 -0.8783  0.0630  0.0396
  426TMC3    H2 6360   0.198   3.484  17.122  1.4568  1.1350 -2.1909
  426TMC3    C7 6361   0.061   3.535  17.331  0.3567  0.0570 -0.5277
  426TMC3    C8 6362   0.165   3.575  16.866 -0.4089  0.2964 -0.1742
  426TMC3    O1 6363   0.133   3.439  17.339  0.0389  0.0996 -0.0023
  426TMC3    O2 6364   0.263   3.504  16.863 -0.4397  0.6660 -0.1603
  427MPD2     C 6365   3.620   1.726  14.905  0.2236 -0.3968  0.9220
  427MPD2    C1 6366   3.570   1.609  14.957  0.0622  0.1428 -0.9771
  427MPD2    C2 6367   3.434   1.616  14.987 -0.0783  0.7762  0.6335
  427MPD2    C3 6368   3.356   1.719  14.939  0.4137  0.0363  0.2106
  427MPD2    C4 6369   3.408   1.824  14.879 -0.9433  0.1759 -0.8424
  427MPD2    C5 6370   3.544   1.828  14.864 -0.4880  0.1281 -0.1323
  427MPD2     H 6371   3.394   1.524  15.029 -0.4640  0.0696 -1.2685
  427MPD2    H1 6372   3.350   1.907  14.839 -3.8398 -0.9914  0.9269
  427MPD2    H2 6373   3.725   1.727  14.880  0.1914 -0.7093  0.7695
  427MPD2    H3 6374   3.585   1.921  14.827  0.3458 -0.0818  0.2491
  427MPD2     N 6375   3.210   1.705  14.932  0.3327 -0.7921 -0.3252
  427MPD2    H5 6376   3.161   1.774  14.875  0.9319  0.4012  0.6126
  427MPD2    N1 6377   3.649   1.488  14.987 -1.2562 -0.0117 -0.0432
  427MPD2    H7 6378   3.596   1.407  15.017 -1.5561  0.1949 -0.0262
  428TMC3    C1 6379   3.862   1.375  15.032  0.9039  0.0732 -0.3448
  428TMC3    C2 6380   3.804   1.260  15.060 -0.2472  0.3635  0.2340
  428TMC3    C3 6381   3.863   1.181  15.153  0.0443  0.3569 -0.3079
  428TMC3    C4 6382   3.993   1.401  15.063 -0.3094  0.1770 -0.0928
  428TMC3    C5 6383   4.055   1.309  15.136 -0.3095 -0.3124  0.4665
  428TMC3    C6 6384   3.988   1.208  15.198 -0.0294  0.2123  0.2868
  428TMC3     C 6385   3.790   1.473  14.955  0.3647  0.7690 -0.6754
  428TMC3     O 6386   3.874   1.539  14.892  0.6075 -0.0343 -0.3557
  428TMC3     H 6387   3.711   1.241  15.008  0.2529 -3.5297  0.8103
  428TMC3    H1 6388   4.029   1.502  15.044 -0.1296  0.3124  0.9357
  428TMC3    H2 6389   4.046   1.134  15.252  0.0504  1.0253  1.3178
  428TMC3    C7 6390   4.159   1.358  15.224  0.3808  0.5626  0.5034
  428TMC3    C8 6391   3.825   1.045  15.153 -0.3951  0.5711 -0.0537
  428TMC3    O1 6392   4.177   1.295  15.328 -0.3414  0.1454 -0.3533
  428TMC3    O2 6393   3.904   0.975  15.217  0.7883 -0.0388 -0.0697
  429MPD2     C 6394   4.398   1.778  17.535  0.3671 -0.6318 -0.4547
  429MPD2    C1 6395   4.450   1.693  17.442 -0.1065 -0.6220 -0.7105
  429MPD2    C2 6396   4.531   1.737  17.337 -0.2420  0.1941  0.3064
  429MPD2    C3 6397   4.549   1.872  17.315 -0.3022 -0.8774  0.4286
  429MPD2    C4 6398   4.498   1.957  17.409 -0.2100  0.5490 -0.2159
  429MPD2    C5 6399   4.432   1.907  17.519  0.3214  0.3587  0.1704
  429MPD2     H 6400   4.578   1.665  17.270 -0.6877 -0.3618  0.5931
  429MPD2    H1 6401   4.515   2.064  17.406 -0.0660  0.5501  0.6364
  429MPD2    H2 6402   4.339   1.740  17.618 -1.0661  1.7473 -0.4113
  429MPD2    H3 6403   4.398   1.983  17.588  0.9475  2.8762 -2.2891
  429MPD2     N 6404   4.630   1.904  17.204  0.4619  0.7243 -0.3811
  429MPD2    H5 6405   4.671   1.829  17.149 -3.2209 -1.1549 -0.5866
  429MPD2    N1 6406   4.451   1.551  17.455  0.0269 -0.7255 -0.0764
  429MPD2    H7 6407   4.517   1.510  17.391  1.3160 -0.2198  0.9252
  430TMC3    C1 6408   0.038   2.043  17.079  0.1203 -0.4368  0.1493
  430TMC3    C2 6409   0.053   2.164  17.016  0.2921 -0.6869 -0.4570
  430TMC3    C3 6410   0.175   2.204  16.961  0.6731 -1.2543 -0.2456
  430TMC3    C4 6411   0.143   1.959  17.085  0.1780 -0.3616  0.1307
  430TMC3    C5 6412   0.259   1.992  17.023 -0.1728  0.1819  0.8236
  430TMC3    C6 6413   0.281   2.115  16.970  0.8700 -0.1393 -0.0023
  430TMC3     C 6414   4.653   2.034  17.164  0.5957 -0.5096  0.5403
  430TMC3     O 6415   4.587   2.133  17.202 -1.0575 -0.4480 -0.5072
  430TMC3     H 6416   4.692   2.227  17.013  0.9427  0.2485 -0.0991
  430TMC3    H1 6417   0.131   1.859  17.126 -0.3816  0.0322  0.9382
  430TMC3    H2 6418   0.361   2.140  16.901 -0.0625 -0.1648 -1.0912
  430TMC3    C7 6419   0.318   1.887  16.944 -0.1041  0.4529  0.0487
  430TMC3    C8 6420   0.169   2.241  16.820 -0.1304 -0.4725  0.4239
  430TMC3    O1 6421   0.245   1.794  16.917  0.5384  0.3593  0.2289
  430TMC3    O2 6422   0.218   2.167  16.735 -0.1360 -0.0693 -0.3396
  431MPD2     C 6423   1.150   1.780  12.310  0.0397 -0.1870  0.5233
  431MPD2    C1 6424   1.228   1.794  12.197 -0.0208  0.1905  0.5155
  431MPD2    C2 6425   1.212   1.709  12.096 -0.4646 -0.8786  0.3300
  431MPD2    C3 6426   1.133   1.596  12.111  0.3962  0.2693  0.2887
  431MPD2    C4 6427   1.056   1.588  12.220  0.0624  0.6848 -0.3020
  431MPD2    C5 6428   1.061   1.682  12.325 -0.3971  0.1412  0.6578
  431MPD2     H 6429   1.273   1.734  12.010 -0.6495  2.5854  1.1734
  431MPD2    H1 6430   0.985   1.508  12.233  0.5319  0.4095  0.5886
  431MPD2    H2 6431   1.135   1.847  12.394  2.2115 -0.4322  1.0931
  431MPD2    H3 6432   1.005   1.664  12.415  0.2088  0.0512  1.0200
  431MPD2     N 6433   1.108   1.505  12.006 -0.2284 -0.1175 -0.2556
  431MPD2    H5 6434   1.025   1.448  12.023 -0.6787 -0.0597 -2.3270
  431MPD2    N1 6435   1.328   1.890  12.177 -0.2244  0.4842 -0.1416
  431MPD2    H7 6436   1.355   1.916  12.082 -1.1917  1.0065 -0.2709
  432TMC3    C1 6437   1.166   1.353  11.838  0.1954  0.3333  0.5685
  432TMC3    C2 6438   1.223   1.323  11.717  1.1079 -0.1729  0.2646
  432TMC3    C3 6439   1.234   1.193  11.672  0.4900  0.4443 -0.5237
  432TMC3    C4 6440   1.114   1.251  11.917  0.2607  0.8722 -0.1897
  432TMC3    C5 6441   1.100   1.132  11.856 -0.0413  0.2670  0.1474
  432TMC3    C6 6442   1.167   1.097  11.743 -0.0803  0.0310  0.0734
  432TMC3     C 6443   1.196   1.482  11.901 -0.3181  1.0926  0.3227
  432TMC3     O 6444   1.300   1.540  11.871 -0.3960  0.5465 -0.0142
  432TMC3     H 6445   1.282   1.402  11.671  2.1953 -1.1767 -0.0682
  432TMC3    H1 6446   1.091   1.266  12.022 -1.5986 -3.7865  0.0471
  432TMC3    H2 6447   1.174   0.994  11.710 -0.4894  0.1543 -0.4091
  432TMC3    C7 6448   1.103   1.020  11.943  1.0179  0.6203  0.4372
  432TMC3    C8 6449   1.375   1.152  11.656  0.1402  0.1574  0.6801
  432TMC3    O1 6450   1.061   0.912  11.904 -0.3570 -0.2796  0.6058
  432TMC3    O2 6451   1.396   1.038  11.711 -0.3639  0.3654 -0.5390
  433MPD2     C 6452   4.464   0.425  10.900 -0.7340 -0.7131  0.3119
  433MPD2    C1 6453   4.495   0.295  10.944  0.1910  0.5110  0.1675
  433MPD2    C2 6454   4.572   0.278  11.061  0.0155 -0.1191 -0.3992
  433MPD2    C3 6455   4.607   0.386  11.138 -0.3694  0.1391 -0.3782
  433MPD2    C4 6456   4.576   0.516  11.094  0.5166  0.0147  0.0593
  433MPD2    C5 6457   4.518   0.527  10.968 -0.4942  0.6328 -0.8472
  433MPD2     H 6458   4.615   0.181  11.083  0.1879 -0.5438 -2.6303
  433MPD2    H1 6459   4.603   0.608  11.145  0.0486 -1.0194  2.1834
  433MPD2    H2 6460   4.410   0.436  10.806 -0.2991  1.5751  0.3250
  433MPD2    H3 6461   4.499   0.626  10.929 -0.2613  0.9581 -0.1276
  433MPD2     N 6462   4.686   0.363  11.251  0.3672 -0.4794  0.5227
  433MPD2    H5 6463   4.712   0.266  11.264  0.2937 -0.6897 -0.9303
  433MPD2    N1 6464   4.465   0.190  10.857 -0.4535 -0.2109  0.4106
  433MPD2    H7 6465   4.427   0.224  10.769 -0.8770 -1.0801  0.2543
  434TMC3    C1 6466   4.436   4.705  10.762 -1.1688 -0.5890  0.7933
  434TMC3    C2 6467   4.439   4.570  10.798 -1.0085  0.5487 -0.2186
  434TMC3    C3 6468   4.463   4.476  10.699  0.0881  0.6846 -0.1519
  434TMC3    C4 6469   4.439   0.017  10.636  0.3624 -0.1253 -0.1640
  434TMC3    C5 6470   4.447   4.643  10.537 -0.1857  0.3804 -0.8814
  434TMC3    C6 6471   4.467   4.514  10.570 -0.0993 -0.2931  0.0183
  434TMC3     C 6472   4.468   0.060  10.878  0.2708 -0.3770 -0.5557
  434TMC3     O 6473   4.492   0.002  10.985 -0.1061  0.1259 -0.7258
  434TMC3     H 6474   4.439   4.533  10.900  2.0330 -1.2806 -0.8836
  434TMC3    H1 6475   4.467   0.119  10.614  1.7670  0.0492  2.4444
  434TMC3    H2 6476   4.476   4.438  10.493  1.3162 -0.5756  0.4502
  434TMC3    C7 6477   4.466   4.678  10.406  0.1158 -0.0593  0.2109
  434TMC3    C8 6478   4.549   4.369  10.745  0.2370  0.6528  0.2501
  434TMC3    O1 6479   4.529   0.052  10.374  0.5511 -0.2439  0.0559
  434TMC3    O2 6480   4.524   4.315  10.856  0.3959 -0.6435 -0.2054
  435MPD2     C 6481   1.879   0.199  15.389  0.5596  0.9425 -0.2141
  435MPD2    C1 6482   1.830   0.182  15.517  0.7076  0.4326  0.2200
  435MPD2    C2 6483   1.914   0.168  15.624 -0.1916  0.6198  0.8817
  435MPD2    C3 6484   2.047   0.156  15.614 -0.2928 -0.5950  0.0596
  435MPD2    C4 6485   2.100   0.172  15.484  0.1539  0.4444  0.4133
  435MPD2    C5 6486   2.017   0.201  15.376 -0.0174 -0.6424 -0.0259
  435MPD2     H 6487   1.872   0.170  15.724 -0.3715  1.0527  0.7974
  435MPD2    H1 6488   2.205   0.176  15.458  0.9693 -0.0260  3.5550
  435MPD2    H2 6489   1.818   0.218  15.301 -0.1553  2.8561  0.6717
  435MPD2    H3 6490   2.067   0.209  15.280 -2.2671  2.1355 -0.9536
  435MPD2     N 6491   2.123   0.123  15.723 -0.2023 -0.2821 -0.4398
  435MPD2    H5 6492   2.058   0.087  15.792  0.7468  0.5158  0.8717
  435MPD2    N1 6493   1.692   0.196  15.546  0.1954 -0.2662  0.2173
  435MPD2    H7 6494   1.658   0.180  15.640  1.3201  0.1600  0.7066
  436TMC3    C1 6495   1.289   0.398  15.586  0.1367  0.0776  1.0010
  436TMC3    C2 6496   1.381   0.361  15.489 -0.5238  0.2581  0.1106
  436TMC3    C3 6497   1.463   0.258  15.533  1.2432 -0.2033 -0.1565
  436TMC3    C4 6498   1.253   0.317  15.690  0.1318  0.4064 -0.3214
  436TMC3    C5 6499   1.317   0.200  15.702 -0.5930  0.2153  0.5051
  436TMC3    C6 6500   1.426   0.169  15.626 -0.3248 -0.2220 -0.0550
  436TMC3     C 6501   1.259   0.541  15.572  0.2230  0.2316 -0.7375
  436TMC3     O 6502   1.268   0.587  15.459  0.3151  0.4815  0.2709
  436TMC3     H 6503   1.419   0.429  15.414  1.4806 -2.0594 -0.9983
  436TMC3    H1 6504   1.174   0.354  15.754  0.1659 -1.3906  0.7655
  436TMC3    H2 6505   1.475   0.073  15.634  2.9262  1.6967  2.7986
  436TMC3    C7 6506   1.256   0.099  15.779  0.3552  0.7042 -0.0304
  436TMC3    C8 6507   1.597   0.245  15.462  0.1639 -0.1723  0.1145
  436TMC3    O1 6508   1.300   4.714  15.750  0.0208  0.5733  0.3700
  436TMC3    O2 6509   1.613   0.308  15.358  0.4641  0.1502  0.5077
  437TMC3    C1 6510   0.545   3.029  11.872 -0.1942 -0.5127  0.7371
  437TMC3    C2 6511   0.580   3.070  11.750  0.0599 -0.0915  0.1107
  437TMC3    C3 6512   0.681   3.001  11.690  0.0099 -0.4248  0.7966
  437TMC3    C4 6513   0.594   2.916  11.927 -0.2819  0.3645  0.6213
  437TMC3    C5 6514   0.709   2.855  11.869  0.3172  0.3231  0.0696
  437TMC3    C6 6515   0.741   2.886  11.741  0.2068 -0.1545  0.3688
  437TMC3     C 6516   0.416   3.071  11.916 -0.4922 -0.7293 -0.3319
  437TMC3     O 6517   0.351   3.143  11.841  0.5163  0.2817  0.1038
  437TMC3     H 6518   0.551   3.157  11.692 -1.2916  1.3200  2.9066
  437TMC3    H1 6519   0.549   2.873  12.015  1.0842 -1.7225  0.2940
  437TMC3    H2 6520   0.832   2.847  11.697  0.9752 -1.0446  2.7254
  437TMC3    C7 6521   0.750   2.725  11.924  0.3831 -0.6200  0.3077
  437TMC3    C8 6522   0.734   3.055  11.561  0.1159 -0.3109  0.3031
  437TMC3    O1 6523   0.661   2.653  11.970  0.5683 -0.2351 -0.4868
  437TMC3    O2 6524   0.701   3.171  11.528  0.1399  0.2004  0.1461
  438MPD2     C 6525   2.341   3.102  16.879 -0.1543 -0.3831  1.0500
  438MPD2    C1 6526   2.429   3.018  16.945 -0.3248 -0.7112 -0.1403
  438MPD2    C2 6527   2.392   2.969  17.067  0.3820  0.1980  0.7560
  438MPD2    C3 6528   2.279   3.018  17.129 -0.6669 -0.0917 -0.6376
  438MPD2    C4 6529   2.192   3.102  17.065  0.0760 -0.0938 -0.8623
  438MPD2    C5 6530   2.227   3.143  16.942  0.2038  0.8837 -0.5677
  438MPD2     H 6531   2.459   2.906  17.124  2.7468 -0.4503 -2.7328
  438MPD2    H1 6532   2.099   3.118  17.118  0.1270 -1.2261 -0.4214
  438MPD2    H2 6533   2.350   3.123  16.773 -0.5161  0.0584  1.1021
  438MPD2    H3 6534   2.160   3.196  16.875 -0.4675  0.4343 -0.2500
  438MPD2     N 6535   2.253   2.985  17.266  0.5264  0.4651  0.6970
  438MPD2    H5 6536   2.175   3.031  17.311  0.7101  0.3394  1.1503
  438MPD2    N1 6537   2.554   2.984  16.899 -0.3397 -0.7865  0.3886
  438MPD2    H7 6538   2.607   2.925  16.964  1.7381 -0.3293 -0.9104
  439TMC3    C1 6539   2.748   2.957  16.773 -0.1986  0.1095 -0.2387
  439TMC3    C2 6540   2.799   2.950  16.645 -0.2709 -0.0646 -0.5377
  439TMC3    C3 6541   2.929   2.909  16.630 -0.3587  0.1393 -0.8394
  439TMC3    C4 6542   2.812   2.897  16.883  0.2159  0.7237 -0.2526
  439TMC3    C5 6543   2.938   2.857  16.860 -0.5762 -0.5172 -0.0718
  439TMC3    C6 6544   3.001   2.862  16.737  0.0646 -0.4618  0.0697
  439TMC3     C 6545   2.618   3.030  16.791 -0.1269  0.3684  0.0906
  439TMC3     O 6546   2.576   3.117  16.708 -0.6549  0.4057 -0.5653
  439TMC3     H 6547   2.738   2.988  16.564 -1.4777 -0.0982  0.3672
  439TMC3    H1 6548   2.773   2.911  16.983 -0.8536 -1.4612 -0.3739
  439TMC3    H2 6549   3.106   2.842  16.727  0.3868  0.5883  1.2600
  439TMC3    C7 6550   3.024   2.832  16.968 -0.2815 -0.4500 -0.4741
  439TMC3    C8 6551   2.982   2.883  16.496 -0.4153  0.5536 -0.3838
  439TMC3    O1 6552   3.144   2.854  16.946 -0.8031  0.1111  0.0092
  439TMC3    O2 6553   3.091   2.829  16.482 -0.6465  0.4561 -0.2539
  440MPD2     C 6554   1.891   3.643  14.608 -0.2471 -0.2225 -0.6464
  440MPD2    C1 6555   1.802   3.584  14.696  0.5508  0.8543  0.3999
  440MPD2    C2 6556   1.845   3.466  14.751  0.0936  0.6509  0.3426
  440MPD2    C3 6557   1.969   3.419  14.717 -0.6693  0.0983  0.6520
  440MPD2    C4 6558   2.055   3.480  14.626  0.0977  0.0108 -0.1745
  440MPD2    C5 6559   2.017   3.596  14.578 -1.0069 -0.5139  0.0297
  440MPD2     H 6560   1.781   3.417  14.823 -1.3320  2.2960  0.1930
  440MPD2    H1 6561   2.158   3.452  14.610  1.1864  3.0323  1.5041
  440MPD2    H2 6562   1.859   3.733  14.555  0.3955  0.0133 -0.6320
  440MPD2    H3 6563   2.088   3.647  14.513 -0.9752 -0.2590  0.2634
  440MPD2     N 6564   2.020   3.307  14.778  0.5175  0.5943 -0.2441
  440MPD2    H5 6565   2.114   3.280  14.751  0.8780  0.5709  1.0481
  440MPD2    N1 6566   1.674   3.647  14.728  0.5507 -0.3970  0.2312
  440MPD2    H7 6567   1.618   3.594  14.793 -1.0031  1.5509  0.4829
  441TMC3    C1 6568   2.038   3.098  14.894 -0.0932  0.1041  0.3788
  441TMC3    C2 6569   2.167   3.136  14.945  0.0286 -0.4090 -0.7354
  441TMC3    C3 6570   2.221   3.057  15.038 -0.5911  0.2694 -0.2428
  441TMC3    C4 6571   1.976   2.995  14.942  0.1137 -0.6520 -0.4955
  441TMC3    C5 6572   2.031   2.918  15.038  0.1296  1.0796 -0.1999
  441TMC3    C6 6573   2.152   2.949  15.084  0.2908 -0.1764 -0.2993
  441TMC3     C 6574   1.954   3.214  14.856  0.0202  0.1373  0.0969
  441TMC3     O 6575   1.833   3.196  14.860 -0.2364  0.5160 -0.6905
  441TMC3     H 6576   2.223   3.224  14.915  2.2555 -1.7879 -0.6124
  441TMC3    H1 6577   1.876   2.973  14.905 -0.1715  1.1275 -0.7770
  441TMC3    H2 6578   2.199   2.891  15.163 -0.4176 -2.5981 -1.6624
  441TMC3    C7 6579   1.954   2.847  15.134 -0.0956 -0.1539  0.0893
  441TMC3    C8 6580   2.280   3.128  15.149  0.6099 -0.0530 -0.2129
  441TMC3    O1 6581   2.008   2.828  15.244  0.0763 -0.3262 -0.5798
  441TMC3    O2 6582   2.336   3.066  15.242  0.0937 -0.6643 -0.6761
  442MPD2     C 6583   4.431   4.197  15.948  0.0861 -0.1125  0.2191
  442MPD2    C1 6584   4.308   4.133  15.965  0.8586 -0.2727  0.0729
  442MPD2    C2 6585   4.305   3.995  15.992 -0.2363  0.0973  0.4629
  442MPD2    C3 6586   4.419   3.921  16.008 -0.1355  0.6442 -0.5878
  442MPD2    C4 6587   4.542   3.987  15.990  0.3986  0.4342 -0.2136
  442MPD2    C5 6588   4.549   4.120  15.958  0.3373 -0.4601 -0.0114
  442MPD2     H 6589   4.211   3.943  16.009  0.5046 -1.4691 -0.2488
  442MPD2    H1 6590   4.638   3.938  16.004 -0.5908 -1.6655 -0.8189
  442MPD2    H2 6591   4.444   4.303  15.926  0.3707 -0.4875 -1.4213
  442MPD2    H3 6592   4.644   4.171  15.949 -0.6707  1.2711 -0.7659
  442MPD2     N 6593   4.433   3.791  16.059  0.1530  1.1345 -0.0642
  442MPD2    H5 6594   4.525   3.754  16.081 -0.1894  0.9465  1.0541
  442MPD2    N1 6595   4.186   4.206  15.945 -0.9177  0.1611 -0.3931
  442MPD2    H7 6596   4.095   4.161  15.950 -0.1465 -1.4388 -0.7876
  443TMC3    C1 6597   4.057   4.400  15.885 -0.6669  0.4802 -0.8086
  443TMC3    C2 6598   4.041   4.488  15.782  0.4793  0.1506  0.1585
  443TMC3    C3 6599   3.909   4.536  15.761 -0.2690 -0.3666 -0.0782
  443TMC3    C4 6600   3.960   4.367  15.966 -0.0369  0.1452 -0.1954
  443TMC3    C5 6601   3.837   4.426  15.950 -0.6656 -0.6248 -0.2157
  443TMC3    C6 6602   3.809   4.512  15.849 -0.4776  0.4324  0.1618
  443TMC3     C 6603   4.190   4.334  15.894 -1.1924 -0.1938  0.1278
  443TMC3     O 6604   4.276   4.389  15.827  0.0243 -0.0228  0.0976
  443TMC3     H 6605   4.113   4.506  15.703 -0.2997  0.1357 -0.5625
  443TMC3    H1 6606   3.989   4.305  16.050 -2.9505 -0.7021  0.1746
  443TMC3    H2 6607   3.710   4.554  15.839 -0.4983  0.7250  1.5444
  443TMC3    C7 6608   3.736   4.375  16.042 -1.2523  0.1641  0.0870
  443TMC3    C8 6609   3.873   4.596  15.633 -0.4432  0.3215 -0.0249
  443TMC3    O1 6610   3.773   4.292  16.129 -0.6599  0.0298  0.0899
  443TMC3    O2 6611   3.952   4.679  15.593 -0.2732  0.2721  0.5333
  444MPD2     C 6612   0.147   3.145  16.698  0.1429  0.2069 -0.0952
  444MPD2    C1 6613   0.042   3.090  16.621 -0.5548  0.4661  0.5726
  444MPD2    C2 6614   0.073   2.984  16.537 -0.2435 -0.3958  0.0014
  444MPD2    C3 6615   0.199   2.923  16.536 -0.7339  0.1963  0.1272
  444MPD2    C4 6616   0.295   2.987  16.605 -0.2717 -0.8402  0.3310
  444MPD2    C5 6617   0.269   3.091  16.688  0.5215  0.3047 -0.3606
  444MPD2     H 6618   4.721   2.930  16.485 -1.8927  0.4346  1.6447
  444MPD2    H1 6619   0.391   2.941  16.628 -0.4694 -1.8318 -0.8099
  444MPD2    H2 6620   0.146   3.232  16.763  0.2064 -0.9880  1.4909
  444MPD2    H3 6621   0.356   3.115  16.749  1.2865 -0.5364 -1.1126
  444MPD2     N 6622   0.216   2.803  16.471  0.4742 -0.0216  0.5384
  444MPD2    H5 6623   0.142   2.758  16.417  0.2330  1.8012 -0.6548
  444MPD2    N1 6624   4.639   3.153  16.615 -0.3539 -0.0307  0.1111
  444MPD2    H7 6625   4.572   3.117  16.547  0.5773  0.5533 -1.1153
  445TMC3    C1 6626   0.341   2.608  16.398  0.0056 -0.5136  0.1910
  445TMC3    C2 6627   0.286   2.636  16.272 -0.0469  0.0777 -0.1823
  445TMC3    C3 6628   0.327   2.552  16.171  0.0267  0.0099  0.3705
  445TMC3    C4 6629   0.443   2.522  16.426  0.1727 -0.2601 -0.2031
  445TMC3    C5 6630   0.491   2.448  16.319 -0.3907 -0.4331  0.6715
  445TMC3    C6 6631   0.426   2.451  16.196  0.0941 -0.1169  0.2101
  445TMC3     C 6632   0.326   2.718  16.492  0.2200  0.1779  0.7862
  445TMC3     O 6633   0.428   2.737  16.562 -0.4193 -0.5006 -0.5521
  445TMC3     H 6634   0.209   2.711  16.256 -0.9555 -0.5242  1.3860
  445TMC3    H1 6635   0.486   2.514  16.526  0.7947  1.5509 -0.3277
  445TMC3    H2 6636   0.458   2.379  16.122  1.0354  0.2696  0.2415
  445TMC3    C7 6637   0.631   2.415  16.330 -0.7559 -0.6525  0.9359
  445TMC3    C8 6638   0.256   2.568  16.047 -0.2609  0.1012  0.2984
  445TMC3    O1 6639   0.694   2.408  16.226 -0.0101  0.0648 -0.0744
  445TMC3    O2 6640   0.183   2.665  16.050  0.4249  0.4748  0.8351
  446MPD2     C 6641   4.342   4.342  11.382 -0.2410  0.4376 -0.1110
  446MPD2    C1 6642   4.329   4.324  11.244 -0.3132 -0.0041 -0.2830
  446MPD2    C2 6643   4.436   4.353  11.164  0.4075  0.4039 -0.2881
  446MPD2    C3 6644   4.561   4.395  11.215  0.1184 -0.4916  0.1543
  446MPD2    C4 6645   4.570   4.419  11.352  0.3476  0.1427 -0.2299
  446MPD2    C5 6646   4.463   4.393  11.432 -0.1388 -0.4249 -0.6346
  446MPD2     H 6647   4.424   4.344  11.056  0.1931  0.0899 -0.2396
  446MPD2    H1 6648   4.657   4.471  11.390 -0.4786  1.3123  0.0390
  446MPD2    H2 6649   4.259   4.327  11.451 -1.0669  2.3695 -0.6750
  446MPD2    H3 6650   4.482   4.405  11.538 -1.1361  3.1704 -0.8871
  446MPD2     N 6651   4.663   4.427  11.124 -0.2173  0.0166 -0.4628
  446MPD2    H5 6652   4.634   4.415  11.027  1.8229  0.2971 -1.1057
  446MPD2    N1 6653   4.221   4.268  11.167 -0.3761  0.0899  0.3469
  446MPD2    H7 6654   4.230   4.254  11.067 -3.0123 -0.3727  0.1690
  447TMC3    C1 6655   0.136   4.538  11.053 -0.4616  0.3244 -0.0367
  447TMC3    C2 6656   0.069   4.592  10.946 -0.0607 -0.1881 -0.5039
  447TMC3    C3 6657   0.139   4.618  10.830  0.3632  0.8164  0.0289
  447TMC3    C4 6658   0.270   4.511  11.043 -0.3828  0.0142 -0.9404
  447TMC3    C5 6659   0.336   4.550  10.932 -0.1004 -0.0116  0.0812
  447TMC3    C6 6660   0.275   4.608  10.824  0.3585  0.1025 -0.4534
  447TMC3     C 6661   0.060   4.472  11.158 -0.1562 -0.4855 -0.2599
  447TMC3     O 6662   0.114   4.465  11.267 -0.2232  0.4011  0.1282
  447TMC3     H 6663   4.697   4.633  10.961  0.8240  2.3826 -1.6072
  447TMC3    H1 6664   0.309   4.453  11.125  0.3672  2.7045  0.6040
  447TMC3    H2 6665   0.324   4.663  10.744 -1.5421  2.6646  0.1478
  447TMC3    C7 6666   0.487   4.541  10.933  0.4259 -0.2155  0.5197
  447TMC3    C8 6667   0.082   4.706  10.731  0.0234 -0.2112  0.2152
  447TMC3    O1 6668   0.542   4.535  10.821  0.9201  0.1768 -0.4123
  447TMC3    O2 6669   0.035   4.663  10.625 -0.3756  0.1285 -0.1957
  448TMC3    C1 6670   2.189   4.462  17.202 -0.6873 -0.2060 -0.0130
  448TMC3    C2 6671   2.246   4.442  17.080 -0.1940  0.1154  0.5956
  448TMC3    C3 6672   2.275   4.314  17.049 -1.0963 -0.2507  0.8492
  448TMC3    C4 6673   2.159   4.372  17.303 -0.0325 -0.0532  0.2087
  448TMC3    C5 6674   2.196   4.246  17.262  0.1525  0.0587  1.1768
  448TMC3    C6 6675   2.248   4.220  17.139 -0.4880  0.0935  0.0446
  448TMC3     C 6676   2.153   4.602  17.231 -0.0000  0.2854 -0.4907
  448TMC3     O 6677   2.195   4.683  17.148  0.1854 -0.2050  0.2086
  448TMC3     H 6678   2.293   4.529  17.035 -0.7178  0.9320  1.6326
  448TMC3    H1 6679   2.143   4.394  17.408  1.5295 -0.7114  0.5806
  448TMC3    H2 6680   2.274   4.117  17.120 -0.2862 -0.4318  3.1273
  448TMC3    C7 6681   2.192   4.137  17.361 -0.2704  0.0894  0.4986
  448TMC3    C8 6682   2.351   4.286  16.929 -0.4974  0.3118  0.0970
  448TMC3    O1 6683   2.272   4.047  17.341 -0.4737 -0.0421  0.4758
  448TMC3    O2 6684   2.414   4.179  16.925  0.2586  0.2782 -0.9526
  449MPD2     C 6685   4.372   3.425  14.075 -0.1297  0.3489 -0.2436
  449MPD2    C1 6686   4.253   3.374  14.047  0.3804 -0.5639 -0.0788
  449MPD2    C2 6687   4.211   3.265  14.119 -0.0538 -0.1744 -0.4606
  449MPD2    C3 6688   4.286   3.202  14.219  0.3383  0.1833  0.1236
  449MPD2    C4 6689   4.415   3.246  14.236 -0.0173  0.0761  0.2662
  449MPD2    C5 6690   4.447   3.358  14.161 -0.8429 -0.1045 -0.0980
  449MPD2     H 6691   4.112   3.225  14.102  0.5607 -2.0712  0.4640
  449MPD2    H1 6692   4.488   3.211  14.307 -1.5991 -2.1833  0.7764
  449MPD2    H2 6693   4.413   3.511  14.023  1.5137 -1.7044 -2.3702
  449MPD2    H3 6694   4.545   3.401  14.182 -0.7633 -1.0200  1.3664
  449MPD2     N 6695   4.232   3.089  14.281  0.0734 -0.1921  0.1016
  449MPD2    H5 6696   4.150   3.050  14.236  0.5187 -0.5898 -0.3594
  449MPD2    N1 6697   4.170   3.417  13.945 -0.5532 -0.1617  0.4130
  449MPD2    H7 6698   4.074   3.386  13.949 -0.9643  1.1425  0.6099
  450TMC3    C1 6699   4.111   3.511  13.738  0.6590  0.0623  0.3537
  450TMC3    C2 6700   4.159   3.476  13.616 -0.3801 -0.2969 -0.7213
  450TMC3    C3 6701   4.076   3.392  13.549 -0.1862 -0.1896  0.1944
  450TMC3    C4 6702   3.991   3.465  13.794  0.0032  0.4234 -0.4325
  450TMC3    C5 6703   3.915   3.370  13.725  0.3410  0.7284  0.1546
  450TMC3    C6 6704   3.957   3.344  13.596 -0.2682 -0.8292  0.5577
  450TMC3     C 6705   4.215   3.501  13.843  1.1560 -0.2734  0.1478
  450TMC3     O 6706   4.330   3.521  13.809  0.2499  0.2129  0.6918
  450TMC3     H 6707   4.261   3.501  13.591 -0.2964  3.6318  3.6155
  450TMC3    H1 6708   3.952   3.496  13.891  0.0658  1.0889 -0.6209
  450TMC3    H2 6709   3.895   3.294  13.523 -2.4863  1.9239  0.5381
  450TMC3    C7 6710   3.892   3.256  13.809 -0.3491  0.4918  0.6118
  450TMC3    C8 6711   4.100   3.367  13.411 -0.0323 -0.8095 -0.7390
  450TMC3    O1 6712   3.922   3.273  13.925 -0.2430  0.6733  0.8460
  450TMC3    O2 6713   4.009   3.345  13.333  0.1926 -0.3301 -0.2901
  451MPD2     C 6714   4.446   2.635   0.886 -0.3366  0.2346  0.2257
  451MPD2    C1 6715   4.534   2.565   0.968  0.3142 -0.2890 -0.5692
  451MPD2    C2 6716   4.557   2.437   0.932  0.4972  0.6153  0.1221
  451MPD2    C3 6717   4.496   2.374   0.825  1.1286  0.7257 -0.4969
  451MPD2    C4 6718   4.399   2.439   0.749  0.0703  0.1454  0.0025
  451MPD2    C5 6719   4.379   2.571   0.789  0.0358 -0.3773 -0.0096
  451MPD2     H 6720   4.624   2.375   0.991 -2.7115 -2.6479  0.3629
  451MPD2    H1 6721   4.362   2.395   0.657 -0.7206  2.2760 -0.6788
  451MPD2    H2 6722   4.409   2.732   0.915  2.7752  0.9048  1.8394
  451MPD2    H3 6723   4.310   2.629   0.729  0.4003 -0.3968 -0.4504
  451MPD2     N 6724   4.514   2.244   0.786 -0.3035 -0.1613 -0.4831
  451MPD2    H5 6725   4.455   2.220   0.707  2.5772 -1.6063 -2.1707
  451MPD2    N1 6726   4.592   2.637   1.068  0.5793  0.2271 -0.5509
  451MPD2    H7 6727   4.550   2.727   1.089  1.4662  0.1035  1.7126
  452TMC3    C1 6728   4.623   2.036   0.776 -0.4204  0.3867  0.2353
  452TMC3    C2 6729   4.642   1.918   0.842 -0.2413 -0.0794 -0.2768
  452TMC3    C3 6730   0.011   1.830   0.801 -0.2519  0.1761 -0.0672
  452TMC3    C4 6731   4.696   2.061   0.667  0.4787 -0.6620  0.8148
  452TMC3    C5 6732   0.044   1.959   0.612  0.1808 -0.0333 -0.4908
  452TMC3    C6 6733   0.073   1.845   0.682 -0.5549  0.1809 -0.1624
  452TMC3     C 6734   4.584   2.148   0.852  0.0208 -0.1097 -0.6901
  452TMC3     O 6735   4.610   2.146   0.971  0.2636  0.3091 -0.2245
  452TMC3     H 6736   4.604   1.912   0.944  1.2713  1.5496  0.3697
  452TMC3    H1 6737   4.672   2.151   0.611 -1.9848 -1.3156  0.8430
  452TMC3    H2 6738   0.158   1.780   0.661  0.2975  1.0026  0.7828
  452TMC3    C7 6739   0.123   1.989   0.495  0.5469  0.1614 -0.0524
  452TMC3    C8 6740   0.045   1.721   0.895 -0.1794 -0.0454  0.2191
  452TMC3    O1 6741   0.157   1.892   0.429  0.0568 -0.2253 -0.1691
  452TMC3    O2 6742   0.030   1.747   1.013 -0.2421  0.8390  0.1996
  453TMC3    C1 6743   2.225   3.691  11.856 -0.3214 -0.4850 -0.0260
  453TMC3    C2 6744   2.159   3.566  11.869 -0.3201 -0.2927 -0.2019
  453TMC3    C3 6745   2.042   3.557  11.805  0.1523  0.9034  0.0918
  453TMC3    C4 6746   2.176   3.796  11.783 -0.1789  0.0124  0.1847
  453TMC3    C5 6747   2.055   3.774  11.725 -0.0200  0.2070  0.3771
  453TMC3    C6 6748   1.988   3.658  11.733  0.8483 -0.4244  0.5967
  453TMC3     C 6749   2.356   3.707  11.916 -0.2622 -0.3884 -0.2478
  453TMC3     O 6750   2.390   3.823  11.944  0.6892 -0.2299 -0.0274
  453TMC3     H 6751   2.200   3.482  11.924  0.4130  0.6518  0.7064
  453TMC3    H1 6752   2.223   3.894  11.777 -2.1230  0.9077 -0.2222
  453TMC3    H2 6753   1.901   3.646  11.670  2.4375 -0.1527 -1.6721
  453TMC3    C7 6754   1.981   3.885  11.668  0.0152  0.3626 -0.2055
  453TMC3    C8 6755   1.970   3.435  11.783  1.1810 -1.0321  0.1822
  453TMC3    O1 6756   1.904   3.856  11.575 -0.0317 -0.4404  0.4161
  453TMC3    O2 6757   1.850   3.448  11.779  0.5298  0.3576  0.2959
  454MPD2     C 6758   0.878   2.779  16.105  0.4446  0.8749 -0.1259
  454MPD2    C1 6759   0.872   2.914  16.145 -0.8063  0.6903  0.4860
  454MPD2    C2 6760   0.866   2.956  16.281 -0.0171 -0.0966  0.7347
  454MPD2    C3 6761   0.841   2.859  16.372 -0.1744 -0.6014 -0.0662
  454MPD2    C4 6762   0.865   2.731  16.340  0.1873  0.4794  0.5848
  454MPD2    C5 6763   0.885   2.689  16.212  0.3259 -0.1244  0.5064
  454MPD2     H 6764   0.848   3.061  16.302 -1.2264 -0.5450  1.8570
  454MPD2    H1 6765   0.850   2.656  16.417  0.2541  0.8905  0.9999
  454MPD2    H2 6766   0.870   2.731  16.008 -0.0458  0.5274  0.0886
  454MPD2    H3 6767   0.886   2.584  16.186  0.9609 -0.5624  2.3098
  454MPD2     N 6768   0.786   2.878  16.496 -0.1299 -0.3181  0.5723
  454MPD2    H5 6769   0.804   2.805  16.563  0.1933 -0.4596  0.3288
  454MPD2    N1 6770   0.843   3.016  16.057 -0.4216  0.1757  0.0071
  454MPD2    H7 6771   0.825   3.106  16.100 -0.0362  0.1653  0.2001
  455TMC3    C1 6772   0.622   3.039  16.432 -0.2065 -0.5444 -0.2973
  455TMC3    C2 6773   0.589   3.173  16.436 -0.2367  0.2911 -0.7521
  455TMC3    C3 6774   0.491   3.226  16.363  0.5866 -0.1103 -0.6425
  455TMC3    C4 6775   0.548   2.964  16.351 -0.1944  0.1854  0.2794
  455TMC3    C5 6776   0.459   3.024  16.264  0.1991  0.1969  0.5954
  455TMC3    C6 6777   0.424   3.151  16.265  1.0043  0.0029 -0.1112
  455TMC3     C 6778   0.705   2.982  16.540 -0.6361  0.2668 -0.8121
  455TMC3     O 6779   0.697   3.014  16.657 -0.2851 -0.6684 -0.0041
  455TMC3     H 6780   0.646   3.238  16.501 -0.6031  1.1069 -1.2555
  455TMC3    H1 6781   0.553   2.856  16.359  2.3995  0.2544 -0.5250
  455TMC3    H2 6782   0.356   3.196  16.194 -0.4568  0.0725  1.3414
  455TMC3    C7 6783   0.447   2.960  16.129 -0.3231 -0.4057 -0.0790
  455TMC3    C8 6784   0.410   3.314  16.443  0.0205  0.0675 -0.7695
  455TMC3    O1 6785   0.359   2.995  16.051 -0.3211  0.2301  0.1807
  455TMC3    O2 6786   0.455   3.362  16.543 -0.1831 -0.1535 -0.7024
  456MPD2     C 6787   3.143   3.560  15.857  0.2400  0.0787 -0.2438
  456MPD2    C1 6788   3.120   3.459  15.951 -0.4517  0.2720  0.5129
  456MPD2    C2 6789   3.028   3.478  16.056  0.1160 -0.8996  0.2497
  456MPD2    C3 6790   2.965   3.604  16.069  1.0606  0.3535 -0.1988
  456MPD2    C4 6791   2.989   3.699  15.965  0.5297  0.1757  0.2690
  456MPD2    C5 6792   3.075   3.674  15.862 -0.2922  0.0965  0.1843
  456MPD2     H 6793   3.003   3.402  16.129 -0.6623 -0.9251 -0.0359
  456MPD2    H1 6794   2.952   3.801  15.967  1.4644  0.5387 -1.3761
  456MPD2    H2 6795   3.220   3.552  15.780 -0.1287 -1.8997 -0.4188
  456MPD2    H3 6796   3.103   3.757  15.799 -0.7680 -0.2982 -0.5497
  456MPD2     N 6797   2.882   3.625  16.184  0.0134 -0.4655 -0.0145
  456MPD2    H5 6798   2.878   3.544  16.245  0.4600 -0.1959  0.3736
  456MPD2    N1 6799   3.176   3.333  15.938 -0.3198  0.0666 -0.3346
  456MPD2    H7 6800   3.239   3.315  15.861  0.9335 -0.4034  0.7940
  457TMC3    C1 6801   2.759   3.749  16.346  0.8345  0.4719  0.3028
  457TMC3    C2 6802   2.697   3.871  16.376  0.0224 -0.1152  0.0592
  457TMC3    C3 6803   2.633   3.882  16.495 -0.0684  0.0608 -0.0396
  457TMC3    C4 6804   2.763   3.647  16.441  0.2007  0.0614 -0.1206
  457TMC3    C5 6805   2.700   3.675  16.564  0.2444  0.1032 -0.0541
  457TMC3    C6 6806   2.632   3.788  16.596  0.3626 -0.0375 -0.0310
  457TMC3     C 6807   2.817   3.741  16.214  0.1018  0.2686  0.5662
  457TMC3     O 6808   2.819   3.845  16.146  0.4660  0.4196  0.3003
  457TMC3     H 6809   2.690   3.951  16.304 -1.2081 -0.7506 -0.5319
  457TMC3    H1 6810   2.813   3.553  16.421  3.3231  1.6135  0.4109
  457TMC3    H2 6811   2.602   3.809  16.699  4.2736 -0.3332  1.1507
  457TMC3    C7 6812   2.675   3.562  16.649 -0.1809  0.0239 -0.2219
  457TMC3    C8 6813   2.610   4.017  16.548 -0.1704 -0.6757  0.2950
  457TMC3    O1 6814   2.760   3.470  16.641 -0.7734  0.0835 -0.4025
  457TMC3    O2 6815   2.634   4.017  16.670 -0.1877 -0.0898  0.2149
  458MPD2     C 6816   1.125   2.405  12.051 -0.0064 -0.1070 -0.2710
  458MPD2    C1 6817   1.189   2.526  12.015  0.1754  0.2761  0.4726
  458MPD2    C2 6818   1.100   2.635  11.991  0.1408 -0.1215 -0.2546
  458MPD2    C3 6819   0.962   2.608  11.989  0.0650 -0.5120 -0.3402
  458MPD2    C4 6820   0.903   2.484  12.011 -0.2386  0.5141 -0.2341
  458MPD2    C5 6821   0.993   2.384  12.057  0.1624 -1.0942 -0.8313
  458MPD2     H 6822   1.133   2.736  11.971 -2.8179  0.8958 -0.0806
  458MPD2    H1 6823   0.798   2.461  12.000  0.2634 -1.7074 -0.4033
  458MPD2    H2 6824   1.188   2.324  12.085  0.4748  1.2253  1.9762
  458MPD2    H3 6825   0.945   2.291  12.085 -0.7858 -0.3925 -0.1022
  458MPD2     N 6826   0.884   2.718  11.940  0.1567  0.5841  0.2930
  458MPD2    H5 6827   0.935   2.801  11.912 -0.3913 -0.0621 -2.6483
  458MPD2    N1 6828   1.333   2.536  12.014 -0.1048 -0.3052  0.4426
  458MPD2    H7 6829   1.383   2.448  12.018  1.6077  0.7079  0.9869
  459TMC3    C1 6830   1.547   2.617  12.017  0.0803  0.1198 -0.6914
  459TMC3    C2 6831   1.635   2.704  11.963 -0.0369 -0.1343  0.2765
  459TMC3    C3 6832   1.762   2.725  12.023  0.0733 -0.3846  0.0081
  459TMC3    C4 6833   1.589   2.540  12.126 -0.3838 -0.1361  0.2072
  459TMC3    C5 6834   1.715   2.558  12.176 -0.2176 -0.6997 -0.1496
  459TMC3    C6 6835   1.798   2.652  12.127 -0.4894 -0.2034 -0.3971
  459TMC3     C 6836   1.408   2.642  11.980 -0.1367  0.4880  1.5097
  459TMC3     O 6837   1.368   2.746  11.930 -0.1292 -0.1957 -0.4036
  459TMC3     H 6838   1.604   2.773  11.886 -0.2258 -0.1596  0.3284
  459TMC3    H1 6839   1.527   2.467  12.176 -0.6935 -1.2067 -1.7218
  459TMC3    H2 6840   1.891   2.671  12.180  0.5303  1.0595 -2.6404
  459TMC3    C7 6841   1.742   2.510  12.307 -0.8169  0.5572  0.3212
  459TMC3    C8 6842   1.836   2.843  11.990 -0.0960 -0.2986  0.2112
  459TMC3    O1 6843   1.686   2.404  12.327  0.1259  0.3541 -0.3780
  459TMC3    O2 6844   1.774   2.943  11.957  0.5114 -0.1176 -0.1660
  460MPD2     C 6845   0.115   0.353  10.784 -0.4993 -0.3793  0.3897
  460MPD2    C1 6846   0.080   0.235  10.710  0.1275  0.6842  0.3329
  460MPD2    C2 6847   4.726   0.247  10.599  0.9950  0.1080 -0.0539
  460MPD2    C3 6848   4.664   0.365  10.563 -0.3335  1.1124 -0.2475
  460MPD2    C4 6849   4.700   0.472  10.641 -0.7820  0.4598 -0.6739
  460MPD2    C5 6850   0.061   0.468  10.740  0.7145  0.4408  0.3328
  460MPD2     H 6851   4.691   0.158  10.549 -0.3525 -0.3060  1.6043
  460MPD2    H1 6852   4.651   0.569  10.637 -1.1962  0.1930 -2.0488
  460MPD2    H2 6853   0.181   0.353  10.869 -1.9890  0.7106  1.5487
  460MPD2    H3 6854   0.078   0.563  10.789 -1.9088  0.2776  1.5686
  460MPD2     N 6855   4.562   0.362  10.459 -0.2419  0.0665 -0.5091
  460MPD2    H5 6856   4.543   0.275  10.411  1.2435 -0.4530 -0.1553
  460MPD2    N1 6857   0.115   0.109  10.772 -0.6447  0.0014  0.5716
  460MPD2    H7 6858   0.165   0.122  10.859 -2.0283 -1.3675  1.5406
  461TMC3    C1 6859   4.429   0.462  10.293 -0.1990 -0.4126 -0.1819
  461TMC3    C2 6860   4.380   0.336  10.252  0.7087  0.0070 -0.4906
  461TMC3    C3 6861   4.337   0.317  10.119  0.0919 -0.2249  0.0441
  461TMC3    C4 6862   4.414   0.567  10.202  0.1833 -0.4788 -0.1536
  461TMC3    C5 6863   4.379   0.546  10.073 -0.1011 -0.1759 -0.1692
  461TMC3    C6 6864   4.339   0.423  10.024  0.2195  0.6565  0.4843
  461TMC3     C 6865   4.493   0.478  10.423  0.4384 -0.2827 -0.1080
  461TMC3     O 6866   4.507   0.591  10.462 -0.5911 -0.9423  0.4081
  461TMC3     H 6867   4.390   0.248  10.314 -1.9021 -0.7162 -1.1232
  461TMC3    H1 6868   4.435   0.671  10.228  3.4384 -0.5108 -2.6548
  461TMC3    H2 6869   4.295   0.418   9.925  3.5856 -1.8849 -0.8869
  461TMC3    C7 6870   4.363   0.663   9.981  0.3584  0.6181 -0.3187
  461TMC3    C8 6871   4.307   0.188  10.079 -0.6197  0.6539 -0.1398
  461TMC3    O1 6872   4.264   0.669   9.910 -0.4552 -0.3387  0.5239
  461TMC3    O2 6873   4.251   0.114  10.157 -0.2561  0.0764 -0.2120
  462TMC3    C1 6874   4.451   0.755  17.239 -0.2104 -0.0379  0.3342
  462TMC3    C2 6875   4.548   0.666  17.190  0.1370 -1.1061  0.2368
  462TMC3    C3 6876   4.530   0.533  17.187 -0.8574 -0.6209 -0.4065
  462TMC3    C4 6877   4.342   0.711  17.303  0.0893  0.3688  0.5668
  462TMC3    C5 6878   4.340   0.578  17.326 -0.1409  0.2410 -0.6330
  462TMC3    C6 6879   4.421   0.487  17.263  0.5597  1.0190  0.6196
  462TMC3     C 6880   4.477   0.899  17.223  0.2553 -0.3722 -0.9149
  462TMC3     O 6881   4.597   0.918  17.230 -0.6158  0.4283 -0.0933
  462TMC3     H 6882   4.636   0.701  17.138  0.5479  2.1106  3.1080
  462TMC3    H1 6883   4.257   0.772  17.330  1.5834  3.0299 -0.7217
  462TMC3    H2 6884   4.405   0.381  17.279  0.4114  0.9008 -0.3268
  462TMC3    C7 6885   4.242   0.516  17.415  0.9893  0.0694 -0.9030
  462TMC3    C8 6886   4.608   0.450  17.098  0.3370 -0.2579  0.1856
  462TMC3    O1 6887   4.214   0.401  17.389 -0.3065  0.0937 -0.2519
  462TMC3    O2 6888   4.670   0.504  17.008  0.1529  0.3162  0.0219
  463MPD2     C 6889   0.299   0.786   1.685  0.2843 -0.0242  0.7690
  463MPD2    C1 6890   0.260   0.841   1.559  0.5008  0.2585  0.6398
  463MPD2    C2 6891   0.325   0.963   1.525  1.3663  0.4331  0.2005
  463MPD2    C3 6892   0.432   1.018   1.599  0.5278 -0.0258 -0.0711
  463MPD2    C4 6893   0.466   0.953   1.712 -0.5227  0.1925  0.2382
  463MPD2    C5 6894   0.401   0.844   1.763 -0.4455 -0.4049 -0.2108
  463MPD2     H 6895   0.293   1.020   1.438  1.4125  1.1168  0.6358
  463MPD2    H1 6896   0.548   0.991   1.771 -0.7233  0.9979 -0.0005
  463MPD2    H2 6897   0.256   0.695   1.724 -2.5471  1.1198  0.2625
  463MPD2    H3 6898   0.426   0.801   1.859 -0.7190  0.8783  0.4349
  463MPD2     N 6899   0.513   1.123   1.555  0.0246 -0.4887 -0.9788
  463MPD2    H5 6900   0.590   1.154   1.614 -0.4635 -0.2021 -0.4825
  463MPD2    N1 6901   0.158   0.794   1.475  0.5646  0.0192  0.3265
  463MPD2    H7 6902   0.151   0.827   1.380 -3.3958 -1.3369  0.1357
  464TMC3    C1 6903   4.721   0.648   1.383  0.7741  0.0466 -0.1272
  464TMC3    C2 6904   4.658   0.729   1.298  0.2655  0.2000  0.1604
  464TMC3    C3 6905   4.589   0.671   1.201 -0.3321  1.3327  0.8205
  464TMC3    C4 6906   4.721   0.511   1.372 -0.4621  0.5906  0.0171
  464TMC3    C5 6907   4.645   0.456   1.273  0.3379 -0.1347  0.2700
  464TMC3    C6 6908   4.579   0.532   1.183  0.7063  0.4479 -0.4082
  464TMC3     C 6909   0.066   0.696   1.506  0.1221 -0.4198  0.1432
  464TMC3     O 6910   0.051   0.640   1.612 -0.4420 -0.4340 -0.2885
  464TMC3     H 6911   4.656   0.835   1.321 -1.5656  0.1849  0.1255
  464TMC3    H1 6912   0.045   0.454   1.447  2.2808 -0.5371 -2.7275
  464TMC3    H2 6913   4.534   0.497   1.090  1.3513 -1.0125 -0.1571
  464TMC3    C7 6914   4.685   0.325   1.230  0.5077 -0.3659 -0.5290
  464TMC3    C8 6915   4.491   0.746   1.122  0.5153  0.1126 -0.4939
  464TMC3    O1 6916   0.062   0.275   1.276 -0.1610  0.3246  0.3982
  464TMC3    O2 6917   4.519   0.826   1.036 -1.1225 -0.1411  0.2267
  465MPD2     C 6918   2.011   3.403  16.886 -0.1264  0.3600  0.1540
  465MPD2    C1 6919   1.925   3.298  16.885  0.0430  0.4393 -0.6685
  465MPD2    C2 6920   1.900   3.233  16.766  0.3930  0.4453  0.1901
  465MPD2    C3 6921   1.965   3.259  16.646 -0.5734 -0.7541 -0.5647
  465MPD2    C4 6922   2.058   3.362  16.663  0.1118  0.0352 -0.3797
  465MPD2    C5 6923   2.074   3.436  16.773  0.2183 -0.1823  0.3353
  465MPD2     H 6924   1.829   3.152  16.772 -0.4492  1.0225 -1.8096
  465MPD2    H1 6925   2.127   3.385  16.583 -2.1122  2.4348 -1.6046
  465MPD2    H2 6926   2.041   3.449  16.980 -2.6607  0.4538  0.9270
  465MPD2    H3 6927   2.148   3.516  16.775  0.5496 -0.4792 -0.0510
  465MPD2     N 6928   1.935   3.202  16.518 -0.1208  0.6289  0.0021
  465MPD2    H5 6929   1.862   3.132  16.509  0.9306 -0.1798 -2.1331
  465MPD2    N1 6930   1.855   3.250  17.006 -0.1902  0.4191 -0.4490
  465MPD2    H7 6931   1.817   3.156  17.006  1.2528 -0.1610 -1.1047
  466TMC3    C1 6932   1.705   3.242  16.287 -0.1194  0.3839 -0.1123
  466TMC3    C2 6933   1.701   3.372  16.242  0.1022  0.9165  0.4165
  466TMC3    C3 6934   1.827   3.422  16.213 -0.4930 -0.2178 -0.5105
  466TMC3    C4 6935   1.817   3.174  16.319  0.2351  0.1044  0.1374
  466TMC3    C5 6936   1.940   3.226  16.285  0.4894 -1.0535 -0.1618
  466TMC3    C6 6937   1.943   3.354  16.237  0.8303  0.8647 -0.3952
  466TMC3     C 6938   1.602   3.224  16.391  0.6532 -0.1341  0.5481
  466TMC3     O 6939   1.575   3.332  16.452 -0.3152  0.6258 -0.4781
  466TMC3     H 6940   1.608   3.426  16.230 -0.7233 -0.9379 -1.5710
  466TMC3    H1 6941   1.809   3.069  16.345 -1.4171  0.4706  1.0773
  466TMC3    H2 6942   2.037   3.405  16.219  1.3562 -0.3526 -1.1092
  466TMC3    C7 6943   2.021   3.216  16.406  0.3599  0.8733  0.1153
  466TMC3    C8 6944   1.846   3.569  16.202 -0.3107 -0.7490 -0.2257
  466TMC3    O1 6945   2.129   3.275  16.395 -0.2155  0.0857 -0.0525
  466TMC3    O2 6946   1.954   3.610  16.155 -0.4037 -0.1717 -0.1176
  467TMC3    C1 6947   3.060   1.784  13.991  0.4227 -0.0920  1.1606
  467TMC3    C2 6948   3.003   1.891  13.923  0.4073  0.1074 -0.1990
  467TMC3    C3 6949   2.870   1.903  13.924  0.3919 -0.4674 -0.1184
  467TMC3    C4 6950   2.978   1.699  14.058  0.0202 -0.2436 -0.6575
  467TMC3    C5 6951   2.845   1.709  14.053 -0.5619 -0.0255 -0.6589
  467TMC3    C6 6952   2.787   1.815  13.992  0.3929  0.0840  0.4230
  467TMC3     C 6953   3.204   1.785  14.013  0.3022  0.2460  0.8598
  467TMC3     O 6954   3.265   1.887  13.993  0.2132 -0.4376  0.0303
  467TMC3     H 6955   3.069   1.944  13.856 -0.9607  1.3567 -0.5708
  467TMC3    H1 6956   3.017   1.621  14.123  0.3152 -0.8183 -1.5327
  467TMC3    H2 6957   2.683   1.841  14.000  0.1424 -1.1642  1.4137
  467TMC3    C7 6958   2.762   1.611  14.122  0.1864  0.5634 -0.2138
  467TMC3    C8 6959   2.813   1.965  13.808  0.2770  0.7060 -0.1757
  467TMC3    O1 6960   2.823   1.526  14.182  0.1257  0.1306 -0.5502
  467TMC3    O2 6961   2.724   1.908  13.746 -0.0694 -0.5304 -0.3573
  468MPD2     C 6962   2.284   0.079   9.938 -0.6456 -0.3036  0.4895
  468MPD2    C1 6963   2.244   0.063  10.067 -0.0457 -0.0087 -0.1009
  468MPD2    C2 6964   2.193   4.661  10.105 -0.3253 -0.0596 -0.6202
  468MPD2    C3 6965   2.183   4.557  10.018  0.0351 -0.6084  1.0435
  468MPD2    C4 6966   2.225   4.579   9.885 -0.4922  0.0845  0.1061
  468MPD2    C5 6967   2.284   4.694   9.849 -0.2404  0.8157  0.3649
  468MPD2     H 6968   2.153   4.651  10.205  1.1348  0.3130 -0.0040
  468MPD2    H1 6969   2.223   4.497   9.814 -0.2997  0.8658 -0.8135
  468MPD2    H2 6970   2.326   0.172   9.900  1.0832 -0.7503  1.3175
  468MPD2    H3 6971   2.320   4.714   9.749 -1.5228  0.0833 -0.2370
  468MPD2     N 6972   2.128   4.430  10.053 -0.4367  0.7375  0.5171
  468MPD2    H5 6973   2.138   4.357   9.983 -0.9042  1.4365 -0.2746
  468MPD2    N1 6974   2.276   0.158  10.167  0.5935 -0.3463 -0.0028
  468MPD2    H7 6975   2.261   0.124  10.261  0.6342  1.1312  0.5387
  469TMC3    C1 6976   2.338   0.356  10.277 -0.3863 -0.4497 -0.3305
  469TMC3    C2 6977   2.367   0.286  10.391  0.5625 -0.1520  0.0104
  469TMC3    C3 6978   2.362   0.367  10.510 -0.9749 -0.4904  0.0884
  469TMC3    C4 6979   2.289   0.486  10.284  0.1194  0.7922  0.4810
  469TMC3    C5 6980   2.257   0.542  10.401 -0.0237 -0.8246  0.3261
  469TMC3    C6 6981   2.301   0.490  10.520  0.3848 -1.5802  0.3209
  469TMC3     C 6982   2.313   0.287  10.151  0.5565 -0.5404 -0.3818
  469TMC3     O 6983   2.319   0.354  10.048  0.1839 -0.3195  0.0076
  469TMC3     H 6984   2.390   0.181  10.398 -0.7179 -0.3939  0.6660
  469TMC3    H1 6985   2.241   0.522  10.194  0.8140 -0.5255 -0.4194
  469TMC3    H2 6986   2.278   0.541  10.613 -1.1604 -1.7149  0.0077
  469TMC3    C7 6987   2.163   0.660  10.398  0.1966  0.5324 -0.0088
  469TMC3    C8 6988   2.413   0.293  10.629 -0.9154  0.6445  0.4039
  469TMC3    O1 6989   2.180   0.747  10.314  0.1155  0.6945  0.1330
  469TMC3    O2 6990   2.504   0.217  10.596  0.4993 -0.6104  0.5932
  470TMC3    C1 6991   3.769   2.198   0.402 -0.7760  0.7115 -0.3594
  470TMC3    C2 6992   3.743   2.308   0.485 -0.4429 -0.6655  0.4588
  470TMC3    C3 6993   3.846   2.398   0.508 -0.4380  0.1936  0.1075
  470TMC3    C4 6994   3.888   2.185   0.338 -0.5986 -0.3582 -0.1838
  470TMC3    C5 6995   3.986   2.274   0.374  0.6937 -0.4266  0.1549
  470TMC3    C6 6996   3.972   2.385   0.446 -0.2685  0.3707  0.5166
  470TMC3     C 6997   3.680   2.089   0.396 -0.3217 -0.1877  0.8714
  470TMC3     O 6998   3.646   2.059   0.280  0.3301  0.0865 -0.0357
  470TMC3     H 6999   3.650   2.324   0.539 -0.7215  2.3033 -0.9190
  470TMC3    H1 7000   3.911   2.115   0.258  0.3233 -0.8663  0.5211
  470TMC3    H2 7001   4.050   2.459   0.464  2.3531 -1.2358 -4.0202
  470TMC3    C7 7002   4.112   2.230   0.326  0.3191 -0.1689  0.5716
  470TMC3    C8 7003   3.812   2.503   0.606  0.3913 -0.3032 -0.1514
  470TMC3    O1 7004   4.188   2.329   0.312 -0.1818 -0.0305  0.5951
  470TMC3    O2 7005   3.704   2.493   0.659 -0.2327 -0.4077 -0.1981
  471MPD2     C 7006   4.697   2.537  16.453  0.0137 -0.4025 -0.4913
  471MPD2    C1 7007   0.030   2.417  16.452 -0.2362  0.8367 -0.3194
  471MPD2    C2 7008   0.080   2.358  16.559 -0.9097 -0.0046 -0.5331
  471MPD2    C3 7009   0.064   2.412  16.688 -0.1492  0.3256 -0.4286
  471MPD2    C4 7010   0.001   2.534  16.688  0.0723 -0.1969  0.5562
  471MPD2    C5 7011   4.681   2.591  16.576  0.4252  0.4661 -0.6252
  471MPD2     H 7012   0.133   2.263  16.552  1.0827  1.1566 -1.2964
  471MPD2    H1 7013   4.711   2.582  16.784 -0.7268 -0.9669  0.7952
  471MPD2    H2 7014   4.660   2.587  16.364  1.3762  0.9598 -0.2985
  471MPD2    H3 7015   4.620   2.680  16.588  1.1106  1.1043 -1.9376
  471MPD2     N 7016   0.093   2.354  16.811 -0.5935  0.2192  0.1015
  471MPD2    H5 7017   0.071   2.409  16.893 -3.6880  1.0039 -1.2250
  471MPD2    N1 7018   0.043   2.340  16.335  0.2843  0.1385  0.4080
  471MPD2    H7 7019   0.097   2.254  16.337 -0.3563 -0.1996  2.6464
  472TMC3    C1 7020   0.001   2.268  16.117  0.3265  0.4232  0.7102
  472TMC3    C2 7021   4.660   2.288  15.998 -0.0340 -0.4021  0.0578
  472TMC3    C3 7022   4.643   2.190  15.902 -0.5766  0.6102  0.4322
  472TMC3    C4 7023   0.047   2.144  16.148 -0.6121 -0.4091  0.2015
  472TMC3    C5 7024   0.004   2.044  16.063 -0.7557 -0.5045 -0.1768
  472TMC3    C6 7025   4.676   2.064  15.939 -0.0795 -0.6595 -0.1912
  472TMC3     C 7026   4.713   2.368  16.220  0.4394 -0.0765  0.0780
  472TMC3     O 7027   4.647   2.468  16.190  0.3756  0.0954  0.2303
  472TMC3     H 7028   4.628   2.390  15.976  1.4614  0.1918  0.6573
  472TMC3    H1 7029   0.079   2.110  16.246  1.1660  1.4502  0.2646
  472TMC3    H2 7030   4.658   1.992  15.860  1.0019 -3.5904  2.2406
  472TMC3    C7 7031   4.702   1.914  16.126  0.0939  0.2717 -0.1072
  472TMC3    C8 7032   4.508   2.202  15.860 -0.3741 -0.0071  0.6002
  472TMC3    O1 7033   0.001   1.899  16.245 -0.1454  0.1754 -0.1591
  472TMC3    O2 7034   4.472   2.301  15.798  0.2263  0.2821 -0.4869
  473MPD2     C 7035   0.251   4.271  14.029  0.7948 -0.1400  0.2316
  473MPD2    C1 7036   0.172   4.386  14.035  0.6021  0.2844 -0.0553
  473MPD2    C2 7037   0.204   4.476  14.134 -0.1620  0.4943  0.0062
  473MPD2    C3 7038   0.285   4.434  14.244 -0.1083  0.0416  0.3793
  473MPD2    C4 7039   0.352   4.314  14.239 -0.0344 -0.0197  0.3650
  473MPD2    C5 7040   0.327   4.237  14.131  0.3791 -0.8235 -0.8720
  473MPD2     H 7041   0.152   4.570  14.128 -1.5778 -0.3991 -1.6562
  473MPD2    H1 7042   0.406   4.266  14.320  0.8569  1.4320  0.6171
  473MPD2    H2 7043   0.227   4.203  13.948 -1.8446  0.9872  0.0473
  473MPD2    H3 7044   0.390   4.149  14.127  0.7934 -0.5701  0.2993
  473MPD2     N 7045   0.300   4.516  14.353 -0.2634  0.1037  0.3650
  473MPD2    H5 7046   0.376   4.498  14.418  1.9744 -1.0793 -2.6036
  473MPD2    N1 7047   0.084   4.431  13.934  0.3524 -0.6394  0.1274
  473MPD2    H7 7048   0.052   4.527  13.944 -2.4057 -1.5332 -0.1085
  474TMC3    C1 7049   0.272   4.712  14.479 -0.3974  0.8518  1.1906
  474TMC3    C2 7050   0.189   0.079  14.534 -1.0901 -0.0038 -0.3861
  474TMC3    C3 7051   0.247   0.177  14.605  0.2985  0.9730  0.6026
  474TMC3    C4 7052   0.411   4.714  14.503  0.0117 -0.4697 -0.3571
  474TMC3    C5 7053   0.452   0.073  14.598  0.0134 -0.2677  0.5405
  474TMC3    C6 7054   0.378   0.182  14.638  0.0895  0.3792  1.1579
  474TMC3     C 7055   0.216   4.618  14.394 -0.5757  0.0899  0.6730
  474TMC3     O 7056   0.100   4.638  14.358 -0.5727 -0.2338  0.4589
  474TMC3     H 7057   0.083   0.076  14.509 -1.0458  1.4226 -0.7062
  474TMC3    H1 7058   0.482   4.641  14.465  1.1385  0.6309 -0.3517
  474TMC3    H2 7059   0.426   0.254  14.703 -1.6375  2.1435  0.4708
  474TMC3    C7 7060   0.593   0.060  14.637  0.1408  0.6662  0.5417
  474TMC3    C8 7061   0.168   0.288  14.656 -0.0061  0.0910  0.0828
  474TMC3    O1 7062   0.675   0.010  14.562  0.3094 -0.6081  0.1081
  474TMC3    O2 7063   0.062   0.267  14.712  0.7153  0.3900  0.1995
  475MPD2     C 7064   3.381   2.459  10.194  0.5680  0.1078  0.2102
  475MPD2    C1 7065   3.301   2.492  10.087 -0.2054  0.2246 -0.7520
  475MPD2    C2 7066   3.192   2.409  10.065  0.7785  0.7707  0.3547
  475MPD2    C3 7067   3.172   2.289  10.137 -0.1718  0.0899 -0.5639
  475MPD2    C4 7068   3.247   2.268  10.248  0.7999  0.2320  0.1437
  475MPD2    C5 7069   3.342   2.352  10.272 -0.1310 -0.0469  0.4713
  475MPD2     H 7070   3.120   2.438   9.989  0.1588  3.3058  1.8909
  475MPD2    H1 7071   3.215   2.197  10.323 -0.0411  3.2212  2.5935
  475MPD2    H2 7072   3.462   2.523  10.225 -1.0219  1.2659  1.9431
  475MPD2    H3 7073   3.389   2.337  10.369  0.0938 -0.3222  0.3194
  475MPD2     N 7074   3.044   2.230  10.116  0.1184  0.0635 -0.7590
  475MPD2    H5 7075   3.002   2.261  10.029 -0.5127 -0.8117 -0.7741
  475MPD2    N1 7076   3.327   2.619  10.022 -0.3390 -0.3184  0.3904
  475MPD2    H7 7077   3.408   2.670  10.057  0.0877 -1.6902  1.3948
  476TMC3    C1 7078   3.278   2.822   9.890  0.6090  0.5233  0.3523
  476TMC3    C2 7079   3.175   2.890   9.831 -0.0076 -0.0151 -1.0828
  476TMC3    C3 7080   3.206   3.006   9.764 -0.6835 -0.2330 -0.7373
  476TMC3    C4 7081   3.410   2.866   9.892 -0.2702  0.2987  0.3107
  476TMC3    C5 7082   3.432   2.981   9.817  0.1226  0.9702 -0.7535
  476TMC3    C6 7083   3.332   3.055   9.755  0.0527  0.5425 -0.4856
  476TMC3     C 7084   3.246   2.683   9.928 -0.1938 -0.3393  0.5389
  476TMC3     O 7085   3.144   2.637   9.875 -0.4358  0.2452  0.8609
  476TMC3     H 7086   3.073   2.858   9.847  0.4405  0.2400  2.3008
  476TMC3    H1 7087   3.487   2.793   9.916 -0.5543 -0.3614 -0.7983
  476TMC3    H2 7088   3.355   3.142   9.694 -1.9798  1.3853 -0.0358
  476TMC3    C7 7089   3.561   3.056   9.839 -0.1232  0.3246  0.2047
  476TMC3    C8 7090   3.116   3.042   9.667 -0.4952  0.0198  0.0796
  476TMC3    O1 7091   3.588   3.133   9.747 -0.6358 -0.3216  0.2649
  476TMC3    O2 7092   3.125   3.153   9.617 -0.4272 -0.0765 -0.2335
  477MPD2     C 7093   0.811   4.027  11.389 -0.0957  0.2003 -0.0243
  477MPD2    C1 7094   0.713   3.970  11.463  0.0615 -0.0212 -0.2654
  477MPD2    C2 7095   0.739   3.923  11.591 -0.6245  0.2560 -0.0994
  477MPD2    C3 7096   0.865   3.935  11.639 -0.2075  0.1204  0.2681
  477MPD2    C4 7097   0.962   3.973  11.563 -0.6952  0.3695 -0.1716
  477MPD2    C5 7098   0.937   4.026  11.440  0.3362 -0.2300  0.6469
  477MPD2     H 7099   0.665   3.870  11.651 -0.8227  2.5873  1.6965
  477MPD2    H1 7100   1.062   3.980  11.604 -1.0802  0.4857  0.7534
  477MPD2    H2 7101   0.792   4.063  11.289  1.1725  1.3944  0.1548
  477MPD2    H3 7102   1.013   4.064  11.372 -0.1415  1.3541  1.0082
  477MPD2     N 7103   0.897   3.885  11.763  0.3385  0.0940  0.0474
  477MPD2    H5 7104   0.996   3.868  11.780  0.1921 -0.5767  0.2344
  477MPD2    N1 7105   0.584   3.964  11.404  0.2896 -0.2155 -0.2417
  477MPD2    H7 7106   0.576   3.999  11.309  0.6365  2.5296  0.7312
  478TMC3    C1 7107   0.351   3.934  11.392  0.1200 -0.0458 -0.1533
  478TMC3    C2 7108   0.250   3.989  11.465  0.7944 -0.0959 -1.2639
  478TMC3    C3 7109   0.173   4.089  11.405 -0.2626 -1.1014  0.6355
  478TMC3    C4 7110   0.372   3.980  11.263 -0.0853  0.1099  0.5828
  478TMC3    C5 7111   0.296   4.081  11.210  0.3817  0.5740 -0.0545
  478TMC3    C6 7112   0.189   4.131  11.278 -0.1008  0.4020  0.3309
  478TMC3     C 7113   0.470   3.910  11.474  0.6494  0.2378  0.6230
  478TMC3     O 7114   0.441   3.886  11.593 -0.4084 -0.6640  0.0733
  478TMC3     H 7115   0.226   3.959  11.566 -2.3257 -2.3343 -2.6505
  478TMC3    H1 7116   0.434   3.928  11.191 -0.0551 -0.1082  0.7657
  478TMC3    H2 7117   0.128   4.209  11.233 -0.2423 -0.5751 -1.1502
  478TMC3    C7 7118   0.319   4.107  11.069  0.3924  0.1354  0.2610
  478TMC3    C8 7119   0.088   4.152  11.500  0.1640  0.0275 -0.2481
  478TMC3    O1 7120   0.409   4.047  11.012  0.7372 -0.2248 -0.1382
  478TMC3    O2 7121   0.030   4.081  11.587 -0.5280  0.3411  0.4728
  479MPD2     C 7122   4.409   1.616  15.147 -0.4001 -0.5526  0.0864
  479MPD2    C1 7123   4.354   1.501  15.204 -0.6152  0.5109  0.2335
  479MPD2    C2 7124   4.420   1.459  15.320  0.0744  1.3519 -0.2917
  479MPD2    C3 7125   4.516   1.532  15.384 -0.0022 -0.6158  0.2286
  479MPD2    C4 7126   4.562   1.646  15.329 -0.2161  0.1217  0.1873
  479MPD2    C5 7127   4.502   1.692  15.215  0.2712  0.1196  0.2504
  479MPD2     H 7128   4.386   1.368  15.368  2.5335 -0.1622 -1.4301
  479MPD2    H1 7129   4.646   1.693  15.380 -0.0718 -0.5552  0.5656
  479MPD2    H2 7130   4.364   1.659  15.058  0.0644  0.7989  0.5087
  479MPD2    H3 7131   4.537   1.786  15.172  0.9106 -0.8337 -1.3092
  479MPD2     N 7132   4.586   1.496  15.499 -0.0329 -0.5709 -0.8717
  479MPD2    H5 7133   4.678   1.538  15.513 -1.2386  2.0353 -0.6772
  479MPD2    N1 7134   4.228   1.455  15.159  0.4566 -0.2806 -0.4715
  479MPD2    H7 7135   4.191   1.475  15.067 -2.7997 -0.8936  0.7127
  480TMC3    C1 7136   4.225   1.246  15.663 -0.1837 -0.0731 -0.2856
  480TMC3    C2 7137   4.131   1.344  15.652 -0.3355 -0.0979 -0.4884
  480TMC3    C3 7138   4.167   1.474  15.615  0.4691  0.2860  0.0018
  480TMC3    C4 7139   4.361   1.273  15.646  0.0179 -0.3868  0.1672
  480TMC3    C5 7140   4.392   1.398  15.611 -0.1677  0.0875 -0.4119
  480TMC3    C6 7141   4.300   1.502  15.593  0.1274  0.6490  0.1503
  480TMC3     C 7142   4.175   1.114  15.677  0.1630  0.3739  0.1760
  480TMC3     O 7143   4.245   1.024  15.722  0.0280 -0.4564  0.4840
  480TMC3     H 7144   4.028   1.321  15.677  0.1667 -1.2321  0.5094
  480TMC3    H1 7145   4.434   1.195  15.630 -0.1969 -1.2653  3.4884
  480TMC3    H2 7146   4.342   1.597  15.559  1.3669  0.9512  2.5415
  480TMC3    C7 7147   4.535   1.423  15.602  0.2062  0.3771  0.1087
  480TMC3    C8 7148   4.057   1.563  15.568 -0.2991 -0.1207 -0.1732
  480TMC3    O1 7149   4.606   1.383  15.695 -0.2100  0.4067  0.0070
  480TMC3    O2 7150   3.955   1.538  15.619  0.7375 -0.3723  0.1748
  481MPD2     C 7151   1.258   1.014  14.316 -0.0101 -0.0821  0.6197
  481MPD2    C1 7152   1.125   1.042  14.294 -0.2604 -0.4906  0.1441
  481MPD2    C2 7153   1.040   1.079  14.393 -0.4812 -0.1400  0.1912
  481MPD2    C3 7154   1.080   1.054  14.526 -0.2006 -0.5519  0.1731
  481MPD2    C4 7155   1.211   1.013  14.549  0.3697 -0.3275 -0.1891
  481MPD2    C5 7156   1.303   1.002  14.443  0.4853 -0.2399  0.5706
  481MPD2     H 7157   0.939   1.112  14.373 -1.3090 -1.1446  2.7931
  481MPD2    H1 7158   1.249   1.009  14.651  0.5017  2.0740 -0.1524
  481MPD2    H2 7159   1.327   0.983  14.237  0.9213  3.2673  0.1283
  481MPD2    H3 7160   1.404   0.975  14.471  1.2126  0.4803 -1.4133
  481MPD2     N 7161   1.001   1.093  14.640  0.1784  0.4056 -0.3885
  481MPD2    H5 7162   1.040   1.091  14.733  1.6524  1.7753 -0.9764
  481MPD2    N1 7163   1.089   1.049  14.157  0.2263 -0.1503 -0.5206
  481MPD2    H7 7164   1.164   1.051  14.088 -1.0632 -0.9779 -1.9510
  482TMC3    C1 7165   0.944   1.068  13.973  0.1181 -0.3255 -0.4880
  482TMC3    C2 7166   0.841   0.998  13.912  0.1187 -0.0866 -0.2064
  482TMC3    C3 7167   0.843   1.001  13.774  0.1755 -0.1849  0.2252
  482TMC3    C4 7168   1.040   1.135  13.906 -0.1560 -0.1540 -0.1725
  482TMC3    C5 7169   1.039   1.132  13.768  0.4298 -0.2319 -0.0151
  482TMC3    C6 7170   0.942   1.069  13.699  0.1078 -0.6296 -0.0840
  482TMC3     C 7171   0.960   1.060  14.112 -1.0333  0.2889 -0.3900
  482TMC3     O 7172   0.864   1.032  14.181  0.0054  0.3307 -0.4345
  482TMC3     H 7173   0.767   0.942  13.967 -2.7142  3.2919 -0.5367
  482TMC3    H1 7174   1.106   1.203  13.959 -1.0437 -0.3108  1.1584
  482TMC3    H2 7175   0.946   1.073  13.591  0.2465 -0.6426 -0.0795
  482TMC3    C7 7176   1.137   1.213  13.700 -0.1603 -0.2485  0.8085
  482TMC3    C8 7177   0.757   0.910  13.714 -0.1481 -0.5067 -0.7998
  482TMC3    O1 7178   1.158   1.324  13.749  0.4520 -0.0092 -0.5106
  482TMC3    O2 7179   0.722   0.814  13.779 -0.2308  0.0634 -0.8975
  483TMC3    C1 7180   2.526   4.476  17.617 -0.4867 -0.5067  0.8342
  483TMC3    C2 7181   2.588   4.555  17.523 -0.0539 -0.5465  0.5767
  483TMC3    C3 7182   2.722   4.550  17.512  0.3759 -0.3714  0.5937
  483TMC3    C4 7183   2.589   4.387  17.697 -0.0102 -0.2487  0.4899
  483TMC3    C5 7184   2.727   4.383  17.687 -0.3942 -0.2969  0.3479
  483TMC3    C6 7185   2.790   4.468  17.598  0.0383 -0.2044  0.1965
  483TMC3     C 7186   2.384   4.494  17.628  0.4582 -0.2799  0.2529
  483TMC3     O 7187   2.319   4.545  17.537 -0.4185  0.2960  0.7648
  483TMC3     H 7188   2.527   4.631  17.474 -0.6345 -0.5601  1.2616
  483TMC3    H1 7189   2.537   4.322   0.056  1.9373 -0.8566  1.3795
  483TMC3    H2 7190   2.898   4.465  17.586  0.0430  0.3957  0.0518
  483TMC3    C7 7191   2.807   4.335   0.079 -0.3726  0.0920  1.1750
  483TMC3    C8 7192   2.798   4.654  17.444 -0.3438 -0.1509 -0.1128
  483TMC3    O1 7193   2.929   4.342   0.069 -0.3732  0.1966  0.4147
  483TMC3    O2 7194   2.916   4.652  17.470  0.5286  0.0142 -0.8043
  484MPD2     C 7195   2.049   3.037  12.015 -0.0559 -0.5829  0.5884
  484MPD2    C1 7196   2.076   2.903  11.998  0.4998  0.3197  0.1347
  484MPD2    C2 7197   2.206   2.851  11.985  0.2396 -0.3126  0.0015
  484MPD2    C3 7198   2.316   2.938  12.002 -0.4328  0.5957  0.0538
  484MPD2    C4 7199   2.288   3.070  12.006 -0.1116 -0.1853 -0.7422
  484MPD2    C5 7200   2.160   3.121  12.021  0.0131  0.2417 -0.2840
  484MPD2     H 7201   2.224   2.745  11.968  0.3964 -0.3550  0.4307
  484MPD2    H1 7202   2.372   3.137  11.994 -0.6213  0.4503 -0.7607
  484MPD2    H2 7203   1.950   3.081  12.010  0.2662 -0.1384 -1.5339
  484MPD2    H3 7204   2.138   3.227  12.023 -2.1421 -0.2362  2.2788
  484MPD2     N 7205   2.450   2.903  11.975 -0.1543  0.1718  0.0187
  484MPD2    H5 7206   2.529   2.964  11.994  1.6027 -1.1909 -3.0573
  484MPD2    N1 7207   1.967   2.813  12.003 -0.0549  0.2523 -0.3351
  484MPD2    H7 7208   1.992   2.714  11.998  1.2393  0.5455  0.5066
  485TMC3    C1 7209   2.625   2.760  11.937  0.2786 -0.1521 -0.2593
  485TMC3    C2 7210   2.699   2.761  12.049  0.1085  1.0654  1.1199
  485TMC3    C3 7211   2.828   2.704  12.037  0.0393 -0.3132 -0.5970
  485TMC3    C4 7212   2.674   2.730  11.811 -0.0555  0.9280  0.5716
  485TMC3    C5 7213   2.801   2.697  11.802 -0.4613  0.0976  0.5020
  485TMC3    C6 7214   2.879   2.678  11.916 -0.0868 -0.0253  0.5621
  485TMC3     C 7215   2.484   2.777  11.936 -0.1811 -0.5600  0.1972
  485TMC3     O 7216   2.421   2.699  11.866  0.1851 -0.3905 -0.3129
  485TMC3     H 7217   2.648   2.758  12.145  0.5500 -0.4654  1.3074
  485TMC3    H1 7218   2.619   2.731  11.718  0.9800  0.9659 -0.0489
  485TMC3    H2 7219   2.983   2.648  11.913 -0.2051 -0.4851  1.0830
  485TMC3    C7 7220   2.811   2.584  11.705  0.4573 -0.4647  0.3114
  485TMC3    C8 7221   2.854   2.589  12.124  0.0038  0.7969 -0.4130
  485TMC3    O1 7222   2.763   2.600  11.597 -0.1425  0.4674  0.0243
  485TMC3    O2 7223   2.903   2.490  12.069 -0.4269  0.5647  0.6333
  486MPD2     C 7224   4.267   1.801  13.053 -0.5045  0.1171 -0.0299
  486MPD2    C1 7225   4.147   1.793  12.985  0.7427  0.4089 -0.5001
  486MPD2    C2 7226   4.079   1.907  12.941 -0.3525 -0.2855 -0.1070
  486MPD2    C3 7227   4.131   2.035  12.967 -0.3624 -0.1058 -0.7183
  486MPD2    C4 7228   4.255   2.038  13.029  0.3508  0.1869 -0.1180
  486MPD2    C5 7229   4.321   1.927  13.068 -0.3439 -0.3108 -0.1533
  486MPD2     H 7230   3.981   1.902  12.896 -1.0709 -3.0988  1.7580
  486MPD2    H1 7231   4.306   2.133  13.038 -1.6678  1.4890 -2.2996
  486MPD2    H2 7232   4.309   1.706  13.085  1.2550  2.0464  3.3819
  486MPD2    H3 7233   4.421   1.936  13.108  0.3241 -0.7330 -1.7175
  486MPD2     N 7234   4.058   2.145  12.913 -0.3033 -0.5228  0.2315
  486MPD2    H5 7235   3.982   2.115  12.853  2.2983 -3.1141 -1.7856
  486MPD2    N1 7236   4.100   1.662  12.961  0.1474  0.4423 -0.4195
  486MPD2    H7 7237   4.169   1.589  12.971  0.0336  0.4383  0.4033
  487TMC3    C1 7238   3.945   1.505  12.879  0.0233  0.4705  0.3826
  487TMC3    C2 7239   3.817   1.466  12.865 -0.4530 -0.0189 -0.2609
  487TMC3    C3 7240   3.796   1.347  12.799 -0.4485  0.5120  0.3112
  487TMC3    C4 7241   4.058   1.427  12.834 -0.3649 -0.0949 -0.5787
  487TMC3    C5 7242   4.033   1.316  12.757  0.5022 -0.3717  0.2146
  487TMC3    C6 7243   3.899   1.292  12.734 -0.1759  0.5949 -0.3567
  487TMC3     C 7244   3.968   1.636  12.929  0.3075  0.3645  0.5995
  487TMC3     O 7245   3.867   1.705  12.947  0.2153  0.7181 -0.9620
  487TMC3     H 7246   3.736   1.512  12.919  0.2994 -0.6273  1.3826
  487TMC3    H1 7247   4.159   1.448  12.866 -0.0839 -1.3972 -0.6026
  487TMC3    H2 7248   3.878   1.207  12.670 -0.4100 -0.8772  1.6462
  487TMC3    C7 7249   4.093   1.205  12.831  0.5054  0.0423  0.1626
  487TMC3    C8 7250   3.701   1.249  12.848  0.6178  0.0406  0.0450
  487TMC3    O1 7251   4.163   1.239  12.921  0.1971 -0.4699  1.0371
  487TMC3    O2 7252   3.716   1.139  12.798 -0.5562  0.0067  0.4466
  488MPD2     C 7253   3.865   3.479  16.108 -0.0700 -0.0512  0.2472
  488MPD2    C1 7254   3.855   3.621  16.096  0.1685 -0.3070  0.0621
  488MPD2    C2 7255   3.785   3.697  16.195 -0.0342  0.2254 -0.6799
  488MPD2    C3 7256   3.738   3.640  16.308  0.2308 -0.0660  0.1998
  488MPD2    C4 7257   3.754   3.505  16.326  0.4438 -0.2759  0.8276
  488MPD2    C5 7258   3.811   3.427  16.226  1.0168  0.5234 -0.3343
  488MPD2     H 7259   3.771   3.804  16.184  0.2489  0.3256 -0.0198
  488MPD2    H1 7260   3.706   3.463  16.414  1.1642 -0.9227  0.9185
  488MPD2    H2 7261   3.906   3.412  16.034 -0.3088  3.4798 -3.0572
  488MPD2    H3 7262   3.803   3.318  16.228  2.5643  0.4252  0.3941
  488MPD2     N 7263   3.662   3.727  16.389  0.0824 -0.3167 -0.0729
  488MPD2    H5 7264   3.645   3.823  16.358  1.6560  0.5255  1.6414
  488MPD2    N1 7265   3.898   3.687  15.978 -0.5096 -0.3159 -0.1850
  488MPD2    H7 7266   3.893   3.788  15.977  0.1036 -0.2924 -0.7126
  489TMC3    C1 7267   3.543   3.807  16.556  0.7903 -0.2868  0.7193
  489TMC3    C2 7268   3.482   3.884  16.461 -0.7910 -0.6975  0.6528
  489TMC3    C3 7269   3.439   4.010  16.502  0.8153  0.4569 -0.2415
  489TMC3    C4 7270   3.548   3.838  16.687  0.3320  0.2554 -0.1307
  489TMC3    C5 7271   3.489   3.958  16.723 -0.2162 -0.2388 -0.5571
  489TMC3    C6 7272   3.453   4.055  16.633  0.7810 -0.8308 -0.0636
  489TMC3     C 7273   3.616   3.699  16.512  0.4566 -0.0249  0.0414
  489TMC3     O 7274   3.637   3.601  16.582 -0.7995 -0.4211  0.1860
  489TMC3     H 7275   3.460   3.844  16.363 -0.7374 -0.2714  0.4672
  489TMC3    H1 7276   3.593   3.769  16.757  1.3249  1.8568  0.7785
  489TMC3    H2 7277   3.429   4.159  16.655 -1.0061 -0.8358 -1.8858
  489TMC3    C7 7278   3.521   4.002  16.858  0.1875  0.3886 -0.3102
  489TMC3    C8 7279   3.433   4.111  16.398 -0.2411  0.3735 -0.3676
  489TMC3    O1 7280   3.600   3.931  16.917  0.3613  0.0762 -0.4768
  489TMC3    O2 7281   3.474   4.220  16.426 -0.0525 -0.0766 -0.5000
  490MPD2     C 7282   4.669   2.557   0.479 -0.1367  0.4162 -0.4373
  490MPD2    C1 7283   4.654   2.694   0.490  0.5582 -0.6358 -0.2054
  490MPD2    C2 7284   4.697   2.763   0.603  0.5575 -0.1561 -0.1339
  490MPD2    C3 7285   0.049   2.697   0.702 -0.3450 -0.1279 -0.7427
  490MPD2    C4 7286   0.060   2.561   0.687  0.6679 -0.0539  0.2244
  490MPD2    C5 7287   0.006   2.485   0.581  0.6139 -0.7309 -0.0291
  490MPD2     H 7288   4.690   2.871   0.609 -0.9327 -0.1842 -1.5900
  490MPD2    H1 7289   0.111   2.503   0.763  1.7174 -0.6045 -0.8919
  490MPD2    H2 7290   4.632   2.496   0.397  0.2824  0.0284 -0.3327
  490MPD2    H3 7291   0.017   2.377   0.574 -0.9724 -0.9294  0.4079
  490MPD2     N 7292   0.111   2.764   0.808 -0.2414 -0.3058 -0.0574
  490MPD2    H5 7293   0.188   2.715   0.851 -2.4579 -0.6863  3.4961
  490MPD2    N1 7294   4.583   2.772   0.391 -0.4554 -0.0682  0.1166
  490MPD2    H7 7295   4.585   2.872   0.408 -1.2580 -0.1456  0.6684
  491TMC3    C1 7296   4.440   2.836   0.222 -0.2510 -0.2856  0.0579
  491TMC3    C2 7297   4.423   2.959   0.277  0.5532 -0.2585  0.5084
  491TMC3    C3 7298   4.378   3.059   0.203 -0.6424 -0.1159  0.8884
  491TMC3    C4 7299   4.415   2.822   0.087 -0.3861 -0.2782  0.2293
  491TMC3    C5 7300   4.379   2.926   0.008  0.3723  0.0765 -0.3555
  491TMC3    C6 7301   4.361   3.044   0.066  0.0130  0.2199 -0.2818
  491TMC3     C 7302   4.509   2.726   0.287  0.1136  0.0724  0.9660
  491TMC3     O 7303   4.476   2.611   0.257  0.3740 -0.3207  0.1961
  491TMC3     H 7304   4.437   2.965   0.384  1.1641  0.0930  0.4076
  491TMC3    H1 7305   4.432   2.723   0.046  0.4019 -0.7058  1.5856
  491TMC3    H2 7306   4.326   3.123   0.001  0.1337 -0.5486 -1.2972
  491TMC3    C7 7307   4.311   2.896  17.595  0.7284  0.2129  0.1125
  491TMC3    C8 7308   4.281   3.155   0.259 -0.0018 -0.0199  0.0553
  491TMC3    O1 7309   4.247   2.792  17.591  0.3615  0.2776  0.1362
  491TMC3    O2 7310   4.196   3.192   0.179 -0.2686  0.3477  0.2273
  492MPD2     C 7311   0.516   2.763  11.121  0.2646  0.1319  0.5822
  492MPD2    C1 7312   0.394   2.728  11.073  0.2513 -0.0364 -0.3776
  492MPD2    C2 7313   0.287   2.697  11.154 -0.0011 -0.3415 -0.1202
  492MPD2    C3 7314   0.300   2.723  11.293  0.5037  1.1624  0.0677
  492MPD2    C4 7315   0.421   2.770  11.347  0.1679 -0.7903  0.1385
  492MPD2    C5 7316   0.527   2.772  11.257 -0.4194 -0.0933  0.0232
  492MPD2     H 7317   0.192   2.678  11.106 -0.3623  0.3566  0.3275
  492MPD2    H1 7318   0.438   2.787  11.452  0.5126 -0.1232 -0.0250
  492MPD2    H2 7319   0.603   2.771  11.057  0.1810  0.5206  0.5194
  492MPD2    H3 7320   0.625   2.780  11.302  0.9779  0.8346 -3.2156
  492MPD2     N 7321   0.195   2.696  11.384 -0.3420 -0.0396 -0.5651
  492MPD2    H5 7322   0.214   2.723  11.480  1.3935  1.7944 -1.4196
  492MPD2    N1 7323   0.402   2.719  10.931  0.3230  0.0706 -0.4584
  492MPD2    H7 7324   0.477   2.772  10.889  0.8546  1.0661  1.7463
  493TMC3    C1 7325   0.328   2.717  10.710 -0.5270 -0.0521 -0.2873
  493TMC3    C2 7326   0.423   2.808  10.671  0.4305  0.4190  0.1182
  493TMC3    C3 7327   0.437   2.829  10.536  0.3017 -0.3474  0.5914
  493TMC3    C4 7328   0.270   2.638  10.617 -0.4771  0.1487 -0.3991
  493TMC3    C5 7329   0.299   2.642  10.487  0.4164 -0.4301 -0.1777
  493TMC3    C6 7330   0.374   2.749  10.442  0.8681  0.3528 -0.0755
  493TMC3     C 7331   0.302   2.679  10.848 -0.7805  0.5327 -0.4535
  493TMC3     O 7332   0.188   2.645  10.877 -0.5738 -0.0719 -0.1221
  493TMC3     H 7333   0.467   2.869  10.748  0.7974  1.5944 -1.0358
  493TMC3    H1 7334   0.186   2.581  10.657 -1.0421 -0.0326 -1.8164
  493TMC3    H2 7335   0.388   2.763  10.336 -2.1247  1.3413 -0.3463
  493TMC3    C7 7336   0.211   2.572  10.394  0.5072  1.0330 -0.1942
  493TMC3    C8 7337   0.558   2.905  10.509  1.1183  0.6854 -0.2229
  493TMC3    O1 7338   0.172   2.642  10.305 -0.3975  0.0080 -0.1858
  493TMC3    O2 7339   0.617   2.935  10.610  0.0169  0.6168  0.4344
  494TMC3    C1 7340   0.023   0.378  17.513 -0.5976 -0.2070 -0.3161
  494TMC3    C2 7341   0.054   0.246  17.526  0.3426 -0.1678 -0.7206
  494TMC3    C3 7342   0.144   0.201  17.428 -0.2238  0.2025 -0.3537
  494TMC3    C4 7343   0.081   0.466  17.427 -0.1261  0.3226  0.0455
  494TMC3    C5 7344   0.175   0.417  17.341  0.4969 -0.1674  0.6391
  494TMC3    C6 7345   0.208   0.286  17.346  0.3421 -0.6589 -0.4244
  494TMC3     C 7346   4.686   0.438  17.629 -0.5898 -0.1829 -0.2984
  494TMC3     O 7347   4.637   0.547  17.615 -0.2119  0.6349 -0.6008
  494TMC3     H 7348   0.002   0.175  17.590 -2.0256  2.2115  0.0208
  494TMC3    H1 7349   0.067   0.573  17.429 -1.1588  0.2038 -1.0755
  494TMC3    H2 7350   0.296   0.250  17.292  0.3854 -0.1741 -0.6784
  494TMC3    C7 7351   0.234   0.477  17.219 -0.0209  0.0273  0.2921
  494TMC3    C8 7352   0.167   0.058  17.421 -0.3444  0.4380 -0.5812
  494TMC3    O1 7353   0.257   0.400  17.125 -0.1119  0.4357 -0.0469
  494TMC3    O2 7354   0.155   4.715  17.521 -0.0223 -0.0648  0.5187
  495TMC3    C1 7355   4.231   1.880  14.650 -0.2143 -0.1634 -0.1327
  495TMC3    C2 7356   4.129   1.877  14.558  0.7633  0.3144 -0.0801
  495TMC3    C3 7357   4.005   1.866  14.610  0.6390  0.3435 -0.5171
  495TMC3    C4 7358   4.210   1.874  14.782  0.0872 -0.0267 -0.7859
  495TMC3    C5 7359   4.089   1.876  14.834  0.4195  0.4078  0.3996
  495TMC3    C6 7360   3.982   1.868  14.750  0.4241  0.4851  0.3109
  495TMC3     C 7361   4.351   1.814  14.610 -0.1166  0.5036 -0.1381
  495TMC3     O 7362   4.439   1.881  14.561 -0.1332 -0.4757 -0.4195
  495TMC3     H 7363   4.150   1.876  14.452  0.1839  0.8074 -0.2026
  495TMC3    H1 7364   4.297   1.884  14.845  0.1441  2.0255 -1.2124
  495TMC3    H2 7365   3.880   1.861  14.785  0.5690 -0.2067  0.5955
  495TMC3    C7 7366   4.075   1.803  14.955  0.0692  0.6047  0.1087
  495TMC3    C8 7367   3.929   1.767  14.536 -0.3006  0.7645  0.3142
  495TMC3    O1 7368   4.168   1.732  14.988  0.6372 -0.7320  0.0502
  495TMC3    O2 7369   3.808   1.775  14.546  0.3706 -0.2043 -0.0498
  496MPD2     C 7370   1.958   1.933  15.682 -0.9106  0.2360 -0.0749
  496MPD2    C1 7371   1.861   1.944  15.584  0.0989  0.2454 -0.5076
  496MPD2    C2 7372   1.732   1.953  15.624 -0.1911  0.1473 -0.1234
  496MPD2    C3 7373   1.697   1.955  15.758 -0.4276  0.2564 -0.1848
  496MPD2    C4 7374   1.800   1.947  15.852  0.5147  0.2363 -0.0533
  496MPD2    C5 7375   1.930   1.935  15.813  0.3500 -0.2225 -0.1511
  496MPD2     H 7376   1.657   1.983  15.552 -2.0340 -1.4752  1.0897
  496MPD2    H1 7377   1.770   1.958  15.956  0.2712 -3.2386  0.2274
  496MPD2    H2 7378   2.063   1.938  15.655 -0.9002  0.5575  0.0232
  496MPD2    H3 7379   2.011   1.953  15.883 -0.1073 -0.3876  0.4253
  496MPD2     N 7380   1.565   1.942  15.809  0.3748 -0.2652  0.3713
  496MPD2    H5 7381   1.565   1.917  15.907  1.3795 -1.0870  0.1541
  496MPD2    N1 7382   1.896   1.939  15.453  0.0045 -0.6014 -0.2704
  496MPD2    H7 7383   1.993   1.915  15.434  1.1246  2.3398  1.6718
  497TMC3    C1 7384   1.331   1.950  15.809 -0.4200 -0.1421  0.1121
  497TMC3    C2 7385   1.215   1.902  15.745  0.0317  0.0532 -0.4179
  497TMC3    C3 7386   1.104   1.876  15.817  0.0053  0.9108 -0.0228
  497TMC3    C4 7387   1.330   1.954  15.948  0.6916 -0.2248 -0.9363
  497TMC3    C5 7388   1.217   1.921  16.013 -0.7771 -0.2366  0.4982
  497TMC3    C6 7389   1.099   1.890  15.953  0.4367  0.0343  0.3408
  497TMC3     C 7390   1.452   1.947  15.728  0.1787  1.0224 -0.4516
  497TMC3     O 7391   1.447   1.948  15.605  0.4350 -0.3894  0.2869
  497TMC3     H 7392   1.200   1.899  15.638  0.0937  2.2120 -0.4842
  497TMC3    H1 7393   1.415   1.998  15.999 -0.8104  0.5638  0.8949
  497TMC3    H2 7394   1.018   1.848  16.013  0.3514 -0.5262 -0.1618
  497TMC3    C7 7395   1.194   1.954  16.150 -0.7494  0.0333 -0.0326
  497TMC3    C8 7396   0.987   1.814  15.749 -0.1399 -0.4251  0.4917
  497TMC3    O1 7397   1.078   1.957  16.185  0.5158  0.5329  0.0071
  497TMC3    O2 7398   1.010   1.741  15.650  0.0408  0.0554 -0.1240
  498MPD2     C 7399   2.134   1.676   9.198  0.1519  0.0853 -0.2693
  498MPD2    C1 7400   2.242   1.641   9.275  0.0682  0.5189 -0.2771
  498MPD2    C2 7401   2.214   1.556   9.381 -0.4215  0.0258  0.1113
  498MPD2    C3 7402   2.088   1.535   9.420 -0.3900 -0.5754  0.1659
  498MPD2    C4 7403   1.980   1.583   9.352  0.0015  0.6787 -0.4170
  498MPD2    C5 7404   2.004   1.649   9.232 -0.1795  0.6296  0.8955
  498MPD2     H 7405   2.297   1.533   9.447  0.5111 -0.7669 -1.3261
  498MPD2    H1 7406   1.876   1.582   9.382  0.2809 -1.0023  0.4834
  498MPD2    H2 7407   2.150   1.722   9.102  0.5769  0.6149  0.0514
  498MPD2    H3 7408   1.919   1.677   9.171  0.5362 -2.0825 -1.3369
  498MPD2     N 7409   2.069   1.470   9.544 -0.3392 -0.3633  0.2670
  498MPD2    H5 7410   2.150   1.448   9.602  1.1381  1.2944 -1.1725
  498MPD2    N1 7411   2.377   1.676   9.239  0.0681 -0.5047 -0.4573
  498MPD2    H7 7412   2.451   1.619   9.279  0.6411  0.8412  0.4045
  499TMC3    C1 7413   2.542   1.821   9.153 -0.8464  0.0487 -0.5849
  499TMC3    C2 7414   2.631   1.720   9.140  0.0020  0.0363  0.1125
  499TMC3    C3 7415   2.751   1.747   9.093  0.0273  0.3667  1.1025
  499TMC3    C4 7416   2.573   1.948   9.114 -0.0208  0.3197  0.6759
  499TMC3    C5 7417   2.689   1.965   9.050  0.2056 -0.0172 -0.7232
  499TMC3    C6 7418   2.783   1.864   9.047  0.1760  0.0824 -0.2379
  499TMC3     C 7419   2.398   1.798   9.172  0.6446 -0.3798  0.4442
  499TMC3     O 7420   2.315   1.886   9.148 -0.3187 -0.1314  0.3796
  499TMC3     H 7421   2.624   1.625   9.193  2.3459 -0.3913 -0.3454
  499TMC3    H1 7422   2.493   2.021   9.120 -0.4871 -0.1349  0.0289
  499TMC3    H2 7423   2.875   1.886   8.993  0.3771  0.3588  0.2101
  499TMC3    C7 7424   2.731   2.100   9.031  0.0950 -0.2603  0.5247
  499TMC3    C8 7425   2.850   1.632   9.082 -0.2792 -0.1205 -0.3695
  499TMC3    O1 7426   2.849   2.120   9.027  0.0719  0.1690 -0.5270
  499TMC3    O2 7427   2.824   1.522   9.136 -0.1040 -0.0503  0.0455
  500MPD2     C 7428   4.174   3.522   9.800  0.2127  0.6176 -0.1915
  500MPD2    C1 7429   4.103   3.588   9.904  0.5414  0.2372 -0.4129
  500MPD2    C2 7430   3.969   3.603   9.906  0.1419  0.6574 -0.3884
  500MPD2    C3 7431   3.902   3.548   9.798  0.1914  0.4013 -0.3255
  500MPD2    C4 7432   3.968   3.486   9.699 -0.1831 -0.3600  0.3896
  500MPD2    C5 7433   4.095   3.471   9.694  0.3897  0.7167 -0.3714
  500MPD2     H 7434   3.919   3.655   9.987  0.7394 -0.9602  1.0344
  500MPD2    H1 7435   3.914   3.444   9.614 -2.4357  0.4948  1.4011
  500MPD2    H2 7436   4.282   3.517   9.796  0.1520 -0.3122 -0.5436
  500MPD2    H3 7437   4.141   3.415   9.614 -1.1213 -0.6349 -0.2884
  500MPD2     N 7438   3.764   3.558   9.790  0.7175 -0.2125 -0.4136
  500MPD2    H5 7439   3.727   3.518   9.704 -0.2552  0.5859 -0.3622
  500MPD2    N1 7440   4.169   3.663  10.003 -0.4415 -0.1881 -0.0649
  500MPD2    H7 7441   4.114   3.716  10.070 -1.6369  0.1648 -1.3281
  501TMC3    C1 7442   4.353   3.765  10.114 -0.1457 -0.8923  0.2726
  501TMC3    C2 7443   4.313   3.895  10.092 -0.4401 -0.0299  0.1013
  501TMC3    C3 7444   4.400   3.999  10.103  0.3004  0.8987 -0.3089
  501TMC3    C4 7445   4.486   3.752  10.152 -1.1549 -0.2787 -0.5085
  501TMC3    C5 7446   4.569   3.863  10.169 -0.2704 -0.4297  0.1010
  501TMC3    C6 7447   4.533   3.987  10.135  0.7801  0.1991  0.1087
  501TMC3     C 7448   4.304   3.662  10.027  0.3805 -0.4673  0.1894
  501TMC3     O 7449   4.392   3.594   9.982 -0.0357  0.0380  0.3376
  501TMC3     H 7450   4.219   3.920  10.044  0.5480  1.2323 -1.2015
  501TMC3    H1 7451   4.517   3.655  10.187  0.4275 -0.1095 -1.4500
  501TMC3    H2 7452   4.598   4.073  10.146 -0.7647  1.2087  1.4472
  501TMC3    C7 7453   4.692   3.830  10.242  0.1968 -0.3441  1.0037
  501TMC3    C8 7454   4.340   4.134  10.093  0.1672  0.3456 -0.7213
  501TMC3    O1 7455   4.722   3.707  10.249 -0.7953 -0.3224  0.1647
  501TMC3    O2 7456   4.234   4.152  10.157  0.3710 -0.3801 -0.1075
  502TMC3    C1 7457   3.981   2.674  15.056 -0.8074 -0.1266 -0.2715
  502TMC3    C2 7458   3.928   2.798  15.074  0.3972 -0.1948  0.0085
  502TMC3    C3 7459   3.841   2.850  14.980  0.3544 -0.1214 -0.4683
  502TMC3    C4 7460   3.936   2.592  14.960  0.3409 -1.0035 -0.0442
  502TMC3    C5 7461   3.827   2.644  14.882 -0.1133 -0.3501  0.2266
  502TMC3    C6 7462   3.787   2.774  14.883 -0.1395  0.1716 -0.5309
  502TMC3     C 7463   4.013   2.607  15.182 -0.0151  0.2123  0.4727
  502TMC3     O 7464   4.071   2.501  15.174 -0.2751 -0.2197 -0.1070
  502TMC3     H 7465   3.979   2.860  15.147 -0.0112 -0.1208  0.2322
  502TMC3    H1 7466   3.969   2.489  14.957 -1.1632 -1.4625 -0.9257
  502TMC3    H2 7467   3.715   2.814  14.813  0.9721 -0.2648 -1.9187
  502TMC3    C7 7468   3.747   2.534  14.846  0.1680  0.1753 -0.1711
  502TMC3    C8 7469   3.837   2.990  14.954 -0.8491 -0.3673 -0.9352
  502TMC3    O1 7470   3.805   2.433  14.812 -0.3262 -0.4037  0.2644
  502TMC3    O2 7471   3.784   3.030  14.850  0.1823  0.5452 -0.2788
  503MPD2     C 7472   0.873   3.506  16.672 -0.1925 -0.0085  0.3541
  503MPD2    C1 7473   0.880   3.549  16.802 -0.1171 -0.0521 -0.1425
  503MPD2    C2 7474   0.932   3.460  16.899  0.1934  0.1585  0.1099
  503MPD2    C3 7475   0.964   3.329  16.865  0.2395 -0.6205 -0.4415
  503MPD2    C4 7476   0.955   3.281  16.735  0.0408  0.6575  0.6923
  503MPD2    C5 7477   0.906   3.373  16.647  0.5469  0.1020 -0.5519
  503MPD2     H 7478   0.951   3.492  17.001  3.3292 -0.1888 -0.3528
  503MPD2    H1 7479   0.959   3.181  16.695 -0.4143  0.0380  2.1871
  503MPD2    H2 7480   0.845   3.570  16.590  1.4332  1.7278  1.1405
  503MPD2    H3 7481   0.895   3.339  16.544 -2.4943 -1.8474  0.4302
  503MPD2     N 7482   1.006   3.236  16.966  0.1836  0.7213  0.0844
  503MPD2    H5 7483   1.006   3.267  17.063 -1.9302  0.5380  0.1265
  503MPD2    N1 7484   0.833   3.672  16.855 -0.1043  0.3586  0.1415
  503MPD2    H7 7485   0.816   3.688  16.954  0.4589  0.4993  0.2148
  504TMC3    C1 7486   1.062   3.023  17.053  0.4752 -0.7666 -0.2152
  504TMC3    C2 7487   0.989   3.056  17.163  0.3571  0.1172 -0.0588
  504TMC3    C3 7488   1.038   3.008  17.286  0.2454 -0.3196  0.1142
  504TMC3    C4 7489   1.178   2.958  17.056  0.6477  0.5904  1.0247
  504TMC3    C5 7490   1.228   2.924  17.179  0.4580  0.0402 -0.8527
  504TMC3    C6 7491   1.155   2.943  17.296 -0.0091 -0.1453  0.1907
  504TMC3     C 7492   1.040   3.101  16.931 -0.6384 -0.4946 -0.0649
  504TMC3     O 7493   1.083   3.052  16.827  0.7855 -0.6560  0.1299
  504TMC3     H 7494   0.891   3.102  17.162 -0.0730 -0.7749  0.6472
  504TMC3    H1 7495   1.233   2.954  16.962  0.2671  1.5104  0.7582
  504TMC3    H2 7496   1.194   2.925  17.396  1.6378 -1.5130 -0.6965
  504TMC3    C7 7497   1.369   2.916  17.184  0.1470  0.0434 -0.2390
  504TMC3    C8 7498   0.961   3.045  17.390  0.8667  0.3104  0.0814
  504TMC3    O1 7499   1.434   2.992  17.113 -0.6677 -0.7451  0.4986
  504TMC3    O2 7500   0.877   3.131  17.380  0.2000 -0.0112 -0.2323
  505MPD2     C 7501   1.720   1.905  10.587 -0.2331  0.0001  0.0884
  505MPD2    C1 7502   1.751   1.834  10.701 -0.0264  0.4340  0.2628
  505MPD2    C2 7503   1.876   1.852  10.752  0.4213  0.0691 -0.1972
  505MPD2    C3 7504   1.971   1.939  10.701 -0.6561 -0.0358  0.4838
  505MPD2    C4 7505   1.933   2.020  10.591 -1.1299 -1.0698  0.6726
  505MPD2    C5 7506   1.809   2.002  10.532 -0.1235  0.2717  0.0527
  505MPD2     H 7507   1.916   1.802  10.839 -0.2668  1.0624  0.7060
  505MPD2    H1 7508   2.004   2.093  10.554 -0.1640 -1.1674  2.3618
  505MPD2    H2 7509   1.621   1.897  10.543 -0.3910 -0.2026  0.4758
  505MPD2    H3 7510   1.777   2.059  10.446  1.2105  1.9636  0.6767
  505MPD2     N 7511   2.105   1.935  10.756  1.1525  0.2607  0.4034
  505MPD2    H5 7512   2.120   1.874  10.836  0.3266 -1.4315 -0.7413
  505MPD2    N1 7513   1.652   1.740  10.751  0.0056  0.1656 -0.0445
  505MPD2    H7 7514   1.564   1.732  10.701  0.5377  0.7101 -1.0662
  506TMC3    C1 7515   1.571   1.550  10.872 -0.3060  0.0650 -0.5674
  506TMC3    C2 7516   1.550   1.467  10.765  0.7312 -0.3435 -0.5709
  506TMC3    C3 7517   1.536   1.332  10.787 -0.2225  0.2509 -0.6854
  506TMC3    C4 7518   1.583   1.494  10.995 -0.3093  0.1397  0.0979
  506TMC3    C5 7519   1.583   1.355  11.009 -0.1048  0.5113  0.1121
  506TMC3    C6 7520   1.537   1.276  10.908  0.2466 -0.6041  0.7859
  506TMC3     C 7521   1.677   1.652  10.851  0.2579 -0.0371  0.7138
  506TMC3     O 7522   1.764   1.666  10.935 -0.1800  0.0057  0.0751
  506TMC3     H 7523   1.566   1.504  10.665  1.8630  1.9768  0.4812
  506TMC3    H1 7524   1.605   1.559  11.079 -1.1140 -1.9187  1.8945
  506TMC3    H2 7525   1.531   1.168  10.924 -2.3357 -0.8228 -1.6885
  506TMC3    C7 7526   1.708   1.297  11.059  0.1733 -0.2761  0.3562
  506TMC3    C8 7527   1.519   1.237  10.673  0.7706 -0.0149 -0.3613
  506TMC3    O1 7528   1.715   1.177  11.062  0.3491 -0.1813  0.3549
  506TMC3    O2 7529   1.477   1.122  10.700  0.5798  0.7031  0.3617
  507TMC3    C1 7530   2.308   2.748  14.670  0.2450  0.2009  0.1037
  507TMC3    C2 7531   2.316   2.685  14.545  0.0284  0.0433 -0.7773
  507TMC3    C3 7532   2.437   2.700  14.478  0.1125  0.2496 -0.1823
  507TMC3    C4 7533   2.417   2.813  14.719  0.1993  0.6643  0.4725
  507TMC3    C5 7534   2.537   2.824  14.653  0.0832 -0.7938  0.0828
  507TMC3    C6 7535   2.545   2.768  14.533 -0.1609  0.3210 -0.2043
  507TMC3     C 7536   2.198   2.726  14.758 -0.2594  0.6570 -0.2969
  507TMC3     O 7537   2.209   2.749  14.876 -0.1739  0.3496  0.0582
  507TMC3     H 7538   2.236   2.634  14.494  1.4567 -1.6300 -1.3456
  507TMC3    H1 7539   2.410   2.865  14.814 -0.3269  0.1404  0.7185
  507TMC3    H2 7540   2.639   2.762  14.480 -1.7244 -1.3484 -2.8048
  507TMC3    C7 7541   2.582   2.966  14.640  0.3288  0.7215 -0.4710
  507TMC3    C8 7542   2.430   2.724  14.339  0.6494  0.3054 -0.2124
  507TMC3    O1 7543   2.593   3.002  14.525  0.0990  0.2867 -0.3839
  507TMC3    O2 7544   2.358   2.649  14.272  0.2836 -0.4532  0.0555
  508MPD2     C 7545   3.077   4.724  15.597  0.0573 -0.0426  0.0838
  508MPD2    C1 7546   3.057   0.096  15.689  0.2226  0.5899 -0.2565
  508MPD2    C2 7547   3.072   0.227  15.651 -0.0116  0.8286 -1.2036
  508MPD2    C3 7548   3.108   0.256  15.519 -0.3639 -0.1113 -0.3645
  508MPD2    C4 7549   3.126   0.151  15.428 -0.4166 -0.5301  0.3443
  508MPD2    C5 7550   3.101   0.021  15.465 -0.3304  0.4055  0.5375
  508MPD2     H 7551   3.052   0.311  15.717 -0.9408 -0.4034  0.0828
  508MPD2    H1 7552   3.139   0.160  15.321 -0.0221  5.1908  0.8766
  508MPD2    H2 7553   3.077   4.620  15.626 -1.3232 -0.4714 -1.4289
  508MPD2    H3 7554   3.104   4.668  15.391 -3.2283 -0.4801  1.3556
  508MPD2     N 7555   3.115   0.391  15.468 -0.2007 -0.2166  0.6311
  508MPD2    H5 7556   3.096   0.468  15.530  2.7939  0.1660  1.0526
  508MPD2    N1 7557   3.021   0.057  15.821 -0.5903  0.9316 -0.0153
  508MPD2    H7 7558   3.018   4.683  15.829 -1.6669  0.8957 -0.8705
  509TMC3    C1 7559   3.030   0.722  15.168 -0.6950 -0.4291 -0.2831
  509TMC3    C2 7560   3.095   0.815  15.243 -0.0377  0.4400 -0.6543
  509TMC3    C3 7561   3.166   0.777  15.350  0.0945  0.3038 -0.5972
  509TMC3    C4 7562   3.036   0.595  15.201 -0.6780  0.4347 -0.5684
  509TMC3    C5 7563   3.106   0.561  15.312 -0.0870  0.0825 -0.0633
  509TMC3    C6 7564   3.170   0.648  15.390  0.5809  0.1701 -0.8606
  509TMC3     C 7565   2.921   0.754  15.083  0.3415 -0.0708  0.2168
  509TMC3     O 7566   2.845   0.661  15.059 -0.3420 -0.1622 -0.1238
  509TMC3     H 7567   3.093   0.921  15.220 -0.0219  0.7189  0.6179
  509TMC3    H1 7568   2.991   0.522  15.134 -1.9088  0.0271  0.6904
  509TMC3    H2 7569   3.238   0.609  15.464 -0.4793 -0.2752 -0.1308
  509TMC3    C7 7570   3.106   0.423  15.336 -0.1792  0.4345  0.8920
  509TMC3    C8 7571   3.266   0.872  15.411  0.1684  0.0588  0.0997
  509TMC3    O1 7572   3.114   0.351  15.238 -0.3283 -0.6162 -0.1437
  509TMC3    O2 7573   3.317   0.828  15.513  0.1471 -0.5131 -0.2466
  510MPD2     C 7574   1.203   2.462  14.241 -0.0008  0.1556 -0.1752
  510MPD2    C1 7575   1.229   2.331  14.278  0.2745  0.0199 -0.0564
  510MPD2    C2 7576   1.349   2.273  14.241 -0.9298 -0.5605 -0.6240
  510MPD2    C3 7577   1.439   2.338  14.157  0.2782  0.2173 -0.3222
  510MPD2    C4 7578   1.404   2.460  14.104 -0.2871 -0.1185  0.2318
  510MPD2    C5 7579   1.287   2.519  14.142 -0.2293 -0.1084 -0.2450
  510MPD2     H 7580   1.378   2.178  14.284 -1.6735  0.2718  1.7001
  510MPD2    H1 7581   1.463   2.504  14.025  0.2902 -1.6566 -0.1851
  510MPD2    H2 7582   1.108   2.507  14.267  0.4985  0.1578  1.6153
  510MPD2    H3 7583   1.255   2.616  14.106 -1.5453 -0.4388  0.0451
  510MPD2     N 7584   1.563   2.273  14.116 -0.1165 -0.0684 -0.4266
  510MPD2    H5 7585   1.602   2.201  14.177  1.1493  1.2723  0.3404
  510MPD2    N1 7586   1.140   2.283  14.378  0.2588 -0.3482 -0.6671
  510MPD2    H7 7587   1.072   2.347  14.418  0.8976 -1.4044  2.1090
  511TMC3    C1 7588   0.996   2.127  14.460  0.4806  0.0276  0.4165
  511TMC3    C2 7589   0.937   2.214  14.554 -0.4842  0.5200  0.5062
  511TMC3    C3 7590   0.810   2.181  14.587 -0.0192 -0.5015 -0.4061
  511TMC3    C4 7591   0.941   2.008  14.422  0.0173 -0.2121  0.3647
  511TMC3    C5 7592   0.828   1.976  14.486 -0.7231  0.7359  0.6350
  511TMC3    C6 7593   0.757   2.062  14.565  0.1787  0.3392 -0.8140
  511TMC3     C 7594   1.132   2.149  14.411 -0.4364 -0.6414  0.1910
  511TMC3     O 7595   1.192   2.051  14.363  0.4345  0.6086 -0.0108
  511TMC3     H 7596   0.973   2.314  14.570  0.2965  0.3353 -0.0941
  511TMC3    H1 7597   1.002   1.931  14.377 -2.1422 -2.0327  0.5887
  511TMC3    H2 7598   0.656   2.031  14.587  0.1470  0.1539 -1.2397
  511TMC3    C7 7599   0.767   1.854  14.449  0.1267 -0.8336 -0.0421
  511TMC3    C8 7600   0.734   2.277  14.669  0.1061  0.1427 -0.3633
  511TMC3    O1 7601   0.795   1.807  14.344  0.4565  0.1038  0.0075
  511TMC3    O2 7602   0.789   2.362  14.740  1.1241 -0.0051 -0.6536
  512TMC3    C1 7603   0.458   1.631  12.816  0.6409 -0.5438  1.1447
  512TMC3    C2 7604   0.426   1.602  12.945  0.2471  0.5432 -0.3418
  512TMC3    C3 7605   0.344   1.493  12.970 -0.1352 -0.2630 -0.5019
  512TMC3    C4 7606   0.410   1.551  12.711 -0.2616 -0.1984  0.5577
  512TMC3    C5 7607   0.325   1.443  12.742  0.0360  0.1454 -0.0786
  512TMC3    C6 7608   0.289   1.421  12.873 -0.4740 -0.9508  0.0501
  512TMC3     C 7609   0.517   1.757  12.795  0.4052 -0.2815 -0.1836
  512TMC3     O 7610   0.524   1.826  12.895  0.5625  0.0590 -0.4189
  512TMC3     H 7611   0.474   1.661  13.022 -0.2542 -3.2362  2.8909
  512TMC3    H1 7612   0.408   1.580  12.606  0.4171  1.1217  0.9001
  512TMC3    H2 7613   0.224   1.335  12.881  0.8658 -2.0062 -0.3861
  512TMC3    C7 7614   0.230   1.397  12.639  0.1536  0.3142 -0.0400
  512TMC3    C8 7615   0.299   1.477  13.109  0.6056 -0.0602  0.1170
  512TMC3    O1 7616   0.206   1.483  12.550 -0.6983 -0.0204 -0.2666
  512TMC3    O2 7617   0.276   1.362  13.137  0.2340  0.2797 -0.3886
  513MPD2     C 7618   1.525   0.895  13.457  0.5257 -0.2064 -0.0572
  513MPD2    C1 7619   1.631   0.936  13.379  0.4813 -0.9594  0.1924
  513MPD2    C2 7620   1.709   1.050  13.408 -0.2948  0.6461  0.2159
  513MPD2    C3 7621   1.666   1.128  13.516  0.4325 -0.0716  0.0734
  513MPD2    C4 7622   1.556   1.089  13.591 -0.1135 -0.3429  0.0757
  513MPD2    C5 7623   1.488   0.973  13.564 -0.4915 -0.2058 -0.9492
  513MPD2     H 7624   1.802   1.077  13.358 -0.3928  1.8732  0.6846
  513MPD2    H1 7625   1.512   1.142  13.675 -1.5307 -2.2947  0.5908
  513MPD2    H2 7626   1.481   0.798  13.436  1.0087 -0.4400  0.0047
  513MPD2    H3 7627   1.403   0.936  13.621 -0.6766  0.6522 -0.6688
  513MPD2     N 7628   1.730   1.253  13.535  0.3377  0.1080  0.6675
  513MPD2    H5 7629   1.812   1.275  13.479 -1.4924 -0.5815 -2.3055
  513MPD2    N1 7630   1.649   0.859  13.267 -0.2945 -0.2147  0.1295
  513MPD2    H7 7631   1.597   0.772  13.258 -0.1862 -0.1179 -1.5530
  514TMC3    C1 7632   1.771   0.778  13.079  0.0633 -0.2637 -0.1069
  514TMC3    C2 7633   1.715   0.811  12.959 -0.2170  0.8417 -0.0791
  514TMC3    C3 7634   1.777   0.809  12.841  0.3699  0.4872  0.4747
  514TMC3    C4 7635   1.908   0.754  13.079 -0.5365  0.3591  0.1322
  514TMC3    C5 7636   1.974   0.773  12.962  0.6394  0.0662 -0.1233
  514TMC3    C6 7637   1.915   0.799  12.839 -0.6792 -0.0590 -0.3383
  514TMC3     C 7638   1.743   0.886  13.173 -0.2595 -0.0345 -0.6183
  514TMC3     O 7639   1.815   0.983  13.167  0.0055 -0.1633  0.2687
  514TMC3     H 7640   1.612   0.843  12.963 -1.3135 -2.4983 -1.5475
  514TMC3    H1 7641   1.967   0.747  13.170  1.0491  2.0280 -0.7661
  514TMC3    H2 7642   1.969   0.783  12.746  0.2096  0.1716  0.1412
  514TMC3    C7 7643   2.088   0.858  12.978  0.3044 -0.8386  0.0252
  514TMC3    C8 7644   1.690   0.806  12.726  0.2727  0.9024  0.7695
  514TMC3    O1 7645   2.184   0.851  12.903  0.0459  0.5943 -0.0316
  514TMC3    O2 7646   1.576   0.761  12.739 -0.1445  0.0314 -0.6935
  515MPD2     C 7647   4.502   3.501  15.236 -0.3230  0.0988  0.8103
  515MPD2    C1 7648   4.528   3.487  15.099  0.4740 -0.7787  0.0990
  515MPD2    C2 7649   4.619   3.571  15.031 -0.5629  0.4650 -0.1438
  515MPD2    C3 7650   4.696   3.662  15.107  0.1232  0.8709 -0.1659
  515MPD2    C4 7651   4.678   3.672  15.243 -0.1000  0.2345 -0.2038
  515MPD2    C5 7652   4.582   3.588  15.304 -0.2921  0.2428  0.1123
  515MPD2     H 7653   4.618   3.567  14.923 -1.6568 -2.0157 -0.0604
  515MPD2    H1 7654   0.009   3.738  15.306 -0.8157  1.8363 -1.2127
  515MPD2    H2 7655   4.425   3.454  15.295 -2.8075  0.0237 -2.4716
  515MPD2    H3 7656   4.563   3.597  15.410  1.7052  0.3598  0.4745
  515MPD2     N 7657   0.064   3.754  15.061  1.2239 -0.1544 -0.2962
  515MPD2    H5 7658   0.117   3.805  15.131 -0.5272 -1.9331  2.3153
  515MPD2    N1 7659   4.448   3.404  15.019 -0.0408 -0.3788 -0.3441
  515MPD2    H7 7660   4.461   3.404  14.918  2.0340 -0.0654 -0.0941
  516TMC3    C1 7661   4.321   3.220  14.975  0.3322 -0.7977 -0.6143
  516TMC3    C2 7662   4.290   3.265  14.846  0.1367 -0.1799  0.2146
  516TMC3    C3 7663   4.242   3.174  14.760 -0.7890 -0.4541  0.1057
  516TMC3    C4 7664   4.289   3.099  15.020 -0.0187  0.1368  0.5903
  516TMC3    C5 7665   4.239   3.011  14.930 -0.4283  0.2528 -1.0452
  516TMC3    C6 7666   4.212   3.045  14.798 -0.2945 -0.0137  0.3206
  516TMC3     C 7667   4.367   3.311  15.070 -0.6937 -0.2041 -0.1069
  516TMC3     O 7668   4.358   3.276  15.186 -0.1473 -0.6931 -0.0695
  516TMC3     H 7669   4.294   3.371  14.823 -0.7366 -0.3313 -0.6366
  516TMC3    H1 7670   4.305   3.058  15.119 -0.0976 -0.3076  0.4183
  516TMC3    H2 7671   4.182   2.972  14.725 -1.6119  0.8682 -0.0119
  516TMC3    C7 7672   4.266   2.873  14.967 -0.3235 -0.5390 -0.9503
  516TMC3    C8 7673   4.174   3.223  14.642 -1.0505  0.2346 -0.0141
  516TMC3    O1 7674   4.256   2.841  15.084 -0.0294  0.1002 -0.3550
  516TMC3    O2 7675   4.069   3.171  14.614 -0.1356  0.1030 -0.6027
  517MPD2     C 7676   3.516   4.618  16.749  0.0685 -0.1455  0.0453
  517MPD2    C1 7677   3.604   4.608  16.858 -0.5351 -0.3029  0.3668
  517MPD2    C2 7678   3.600   4.711  16.954 -0.5104 -0.0647 -0.4624
  517MPD2    C3 7679   3.497   0.084  16.944 -0.6410  0.1192  0.1082
  517MPD2    C4 7680   3.411   0.082  16.829 -0.7746 -0.5185  0.0676
  517MPD2    C5 7681   3.426   4.712  16.729  0.6296  0.1222  0.3547
  517MPD2     H 7682   3.668   4.710  17.039 -3.2188 -2.7884  1.6838
  517MPD2    H1 7683   3.334   0.159  16.821  0.8619  1.1900  0.7352
  517MPD2    H2 7684   3.513   4.550  16.665 -1.7815 -0.3903  0.3088
  517MPD2    H3 7685   3.372   4.712  16.635 -1.2680 -1.9908  1.4446
  517MPD2     N 7686   3.475   0.182  17.041 -0.4740  0.0683 -0.7109
  517MPD2    H5 7687   3.413   0.259  17.017  0.9383  2.4431  3.2448
  517MPD2    N1 7688   3.699   4.505  16.870  0.0848  0.3651 -0.3458
  517MPD2    H7 7689   3.769   4.512  16.943  2.5524  1.0617 -2.7381
  518TMC3    C1 7690   3.829   4.319  16.810 -0.1967 -0.2102 -0.1004
  518TMC3    C2 7691   3.817   4.194  16.769 -0.2682  0.0271 -0.0887
  518TMC3    C3 7692   3.897   4.105  16.838 -0.6860 -0.4506  0.6568
  518TMC3    C4 7693   3.919   4.366  16.905  0.2480  0.1447 -0.2859
  518TMC3    C5 7694   3.997   4.266  16.962 -0.2442  0.2870 -0.4719
  518TMC3    C6 7695   3.977   4.133  16.938  0.0622  0.4720 -0.2470
  518TMC3     C 7696   3.710   4.399  16.781  0.8378 -0.4787 -0.5218
  518TMC3     O 7697   3.654   4.372  16.673  0.3645  0.0264 -1.0899
  518TMC3     H 7698   3.749   4.159  16.692  2.1690 -2.7872 -0.9305
  518TMC3    H1 7699   3.940   4.471  16.918  0.6182  0.0500 -0.1029
  518TMC3    H2 7700   4.037   4.055  16.985 -1.2292 -0.3900 -0.0341
  518TMC3    C7 7701   4.112   4.308  17.026 -0.2848 -0.0865  0.3983
  518TMC3    C8 7702   3.912   3.968  16.789  0.2085 -0.3529 -0.8498
  518TMC3    O1 7703   4.109   4.418  17.077  0.2168  0.6831  0.0901
  518TMC3    O2 7704   3.959   3.881  16.861  0.1670 -0.0376  0.6281
  519MPD2     C 7705   1.093   3.298  14.325 -0.3102 -0.0602  0.1553
  519MPD2    C1 7706   1.083   3.313  14.187  0.5576  0.3564 -0.4678
  519MPD2    C2 7707   1.151   3.215  14.115  0.6977  0.2018  0.2910
  519MPD2    C3 7708   1.228   3.117  14.169  0.3504  0.3031 -0.1706
  519MPD2    C4 7709   1.246   3.116  14.306  0.5695 -0.3815 -0.3245
  519MPD2    C5 7710   1.170   3.199  14.383  0.5803  0.0856 -0.1534
  519MPD2     H 7711   1.138   3.210  14.008  0.1584  0.2683  0.3532
  519MPD2    H1 7712   1.315   3.051  14.360  0.0414 -0.5644  0.1326
  519MPD2    H2 7713   1.049   3.374  14.389  2.0979  1.3194  0.1863
  519MPD2    H3 7714   1.174   3.195  14.491 -1.2451  0.8924 -0.0486
  519MPD2     N 7715   1.289   3.024  14.083 -0.0942  0.0686  0.1739
  519MPD2    H5 7716   1.276   3.037  13.983  0.5861  0.4657  0.1369
  519MPD2    N1 7717   1.005   3.418  14.124  0.0685  0.5445 -0.1655
  519MPD2    H7 7718   0.942   3.475  14.179 -1.2271 -0.3938 -0.6632
  520TMC3    C1 7719   1.412   2.838  14.006 -0.0272  0.4570 -0.2493
  520TMC3    C2 7720   1.336   2.831  13.899 -0.2460 -0.6194 -0.4175
  520TMC3    C3 7721   1.397   2.802  13.781  0.0153  0.1304 -0.4252
  520TMC3    C4 7722   1.547   2.799  14.014  0.1953  0.0613 -0.5582
  520TMC3    C5 7723   1.604   2.763  13.899 -0.2114  0.2794 -0.4019
  520TMC3    C6 7724   1.526   2.760  13.783  0.8672  0.8947  0.4323
  520TMC3     C 7725   1.372   2.920  14.119  0.0728 -0.2698  0.0193
  520TMC3     O 7726   1.419   2.886  14.227 -0.5277 -0.4689 -0.0610
  520TMC3     H 7727   1.229   2.842  13.912 -0.1174 -2.0138  1.7960
  520TMC3    H1 7728   1.609   2.819  14.101 -0.9312 -0.5405  0.3713
  520TMC3    H2 7729   1.576   2.752  13.688  0.0344  0.1259  0.0571
  520TMC3    C7 7730   1.737   2.706  13.905 -0.4009  0.2005 -0.3653
  520TMC3    C8 7731   1.324   2.773  13.656  0.3320 -0.8854  0.4522
  520TMC3    O1 7732   1.790   2.707  14.014 -0.1322  0.0591  0.6310
  520TMC3    O2 7733   1.382   2.711  13.570  0.7587 -0.5695 -0.1458
  521MPD2     C 7734   1.934   1.339  16.988 -0.3383  0.7622  0.6930
  521MPD2    C1 7735   1.896   1.253  16.879 -0.3354 -0.4077 -0.3140
  521MPD2    C2 7736   1.982   1.165  16.836  0.6740 -0.0454  0.3084
  521MPD2    C3 7737   2.114   1.154  16.891 -0.4437  0.5005 -0.1526
  521MPD2    C4 7738   2.151   1.234  16.991 -0.8485  0.3093 -0.3645
  521MPD2    C5 7739   2.061   1.324  17.044  0.0023  0.3533  0.5911
  521MPD2     H 7740   1.960   1.108  16.747 -0.3362 -0.4604  0.8251
  521MPD2    H1 7741   2.247   1.219  17.037 -0.2223 -1.3197 -2.2004
  521MPD2    H2 7742   1.861   1.403  17.036 -2.3405 -0.7608 -0.3130
  521MPD2    H3 7743   2.092   1.384  17.129 -1.0768  0.6925  0.7421
  521MPD2     N 7744   2.204   1.070  16.818 -0.0107  0.0901 -0.2052
  521MPD2    H5 7745   2.169   1.032  16.730 -1.6485  0.1789  0.4113
  521MPD2    N1 7746   1.769   1.282  16.826  0.0974  0.4179 -0.2136
  521MPD2    H7 7747   1.713   1.352  16.874  2.3398  0.7568  1.8988
  522TMC3    C1 7748   2.402   0.993  16.740  0.3973 -0.0838 -0.0485
  522TMC3    C2 7749   2.517   0.926  16.775  0.3199 -0.6664 -0.6541
  522TMC3    C3 7750   2.597   0.886  16.675  0.3792 -1.0600 -0.9462
  522TMC3    C4 7751   2.361   1.014  16.610 -0.3127  0.1541  0.0445
  522TMC3    C5 7752   2.456   0.979  16.515  0.3940 -0.3055  0.7920
  522TMC3    C6 7753   2.574   0.911  16.547 -0.6020 -0.0343 -0.3102
  522TMC3     C 7754   2.339   1.065  16.841 -0.2607 -0.1999  0.8994
  522TMC3     O 7755   2.408   1.111  16.933 -0.0643  0.2814  0.7961
  522TMC3     H 7756   2.543   0.916  16.880 -2.0772  1.5396  0.1597
  522TMC3    H1 7757   2.305   1.107  16.606 -0.4902  0.1924  2.9481
  522TMC3    H2 7758   2.652   0.895  16.474 -0.4118  2.2270 -0.5857
  522TMC3    C7 7759   2.451   1.038  16.382  0.7154  0.3462  0.7653
  522TMC3    C8 7760   2.714   0.805  16.708  0.7646 -0.0347 -0.1265
  522TMC3    O1 7761   2.556   1.058  16.323 -0.1894  0.0269  0.0065
  522TMC3    O2 7762   2.771   0.831  16.816  0.3380  0.5239  0.1364
  523MPD2     C 7763   4.657   0.888   9.909 -0.3060  0.5408  0.0931
  523MPD2    C1 7764   4.521   0.853   9.921  0.0168 -0.4566 -0.1325
  523MPD2    C2 7765   4.425   0.936   9.863  0.6324 -0.4891  0.5696
  523MPD2    C3 7766   4.469   1.059   9.814 -0.2290  0.3492  0.2319
  523MPD2    C4 7767   4.602   1.088   9.803  0.0534 -0.5861 -1.3689
  523MPD2    C5 7768   4.698   1.007   9.855 -0.3158 -0.2624  0.4550
  523MPD2     H 7769   4.325   0.896   9.861  0.1471  0.7475  0.2866
  523MPD2    H1 7770   4.641   1.176   9.753  1.0885  1.0705  2.3828
  523MPD2    H2 7771   0.008   0.814   9.925 -1.7937 -1.3829 -1.5592
  523MPD2    H3 7772   0.077   1.028   9.862 -0.1316 -0.8368 -0.6212
  523MPD2     N 7773   4.384   1.160   9.765  0.6297  0.0890 -0.1216
  523MPD2    H5 7774   4.432   1.246   9.738  0.6970 -0.0865 -0.5709
  523MPD2    N1 7775   4.485   0.738   9.991 -0.3177 -0.0324  0.1209
  523MPD2    H7 7776   4.562   0.695  10.042 -0.7375  0.7984  1.4435
  524TMC3    C1 7777   4.195   1.269   9.702  0.0152  0.1483 -0.2073
  524TMC3    C2 7778   4.260   1.338   9.598  0.5115 -0.4091 -0.9296
  524TMC3    C3 7779   4.184   1.426   9.532 -0.3577  0.5269  0.6829
  524TMC3    C4 7780   4.067   1.301   9.739  0.8026 -0.1616  0.1280
  524TMC3    C5 7781   3.997   1.395   9.672 -0.6951  0.6388  0.1773
  524TMC3    C6 7782   4.056   1.467   9.571 -0.0295 -0.3014  0.5096
  524TMC3     C 7783   4.252   1.164   9.781 -0.3462 -0.3194  0.4238
  524TMC3     O 7784   4.179   1.095   9.847 -0.4597 -0.0909 -0.0640
  524TMC3     H 7785   4.335   1.281   9.545  0.5412 -0.4403 -0.8546
  524TMC3    H1 7786   4.010   1.240   9.809 -0.2085 -0.8734 -1.3208
  524TMC3    H2 7787   3.998   1.531   9.506  2.7848  0.5603 -1.1675
  524TMC3    C7 7788   3.864   1.431   9.718 -0.0757 -0.8725 -0.2594
  524TMC3    C8 7789   4.235   1.492   9.412 -0.0733 -0.3531  0.0655
  524TMC3    O1 7790   3.795   1.351   9.775  0.1175  0.6531  0.1553
  524TMC3    O2 7791   4.170   1.517   9.311 -0.1827 -0.7263  0.1219
  525MPD2     C 7792   2.751   2.537  14.328  0.2600  0.2295 -0.0926
  525MPD2    C1 7793   2.853   2.480  14.402  0.3047 -0.0159 -0.4091
  525MPD2    C2 7794   2.968   2.556  14.422 -0.7576 -0.5390  0.1760
  525MPD2    C3 7795   2.986   2.676  14.358  0.7364 -0.0241 -0.6753
  525MPD2    C4 7796   2.884   2.719  14.274  0.2729 -0.0051  0.0436
  525MPD2    C5 7797   2.768   2.654  14.265 -0.3311  0.3967 -0.4268
  525MPD2     H 7798   3.032   2.518  14.501  1.3215 -0.6485 -1.5713
  525MPD2    H1 7799   2.897   2.811  14.219 -0.1080 -0.4517 -0.7867
  525MPD2    H2 7800   2.655   2.490  14.313 -0.0480  0.7226  0.3395
  525MPD2    H3 7801   2.690   2.681  14.195 -0.3527  0.0429 -0.5404
  525MPD2     N 7802   3.108   2.756  14.379  0.6197  0.7575  0.0968
  525MPD2    H5 7803   3.110   2.850  14.341  0.5200  1.0869  0.9083
  525MPD2    N1 7804   2.841   2.363  14.477 -0.7698  0.1938  0.0348
  525MPD2    H7 7805   2.924   2.331  14.525 -1.6836  1.5448  2.5102
  526TMC3    C1 7806   2.766   2.175  14.577 -0.0137 -0.2249  0.0122
  526TMC3    C2 7807   2.673   2.128  14.662  0.2373 -0.3679 -0.1660
  526TMC3    C3 7808   2.717   2.080  14.784  0.2418 -0.6353 -0.2353
  526TMC3    C4 7809   2.902   2.153  14.611 -0.1401 -0.2583  0.4617
  526TMC3    C5 7810   2.942   2.097  14.729 -0.7328  0.2368  1.0573
  526TMC3    C6 7811   2.845   2.060  14.820  0.3839 -0.6930  0.4118
  526TMC3     C 7812   2.731   2.281  14.494  0.7609  0.9724  0.3977
  526TMC3     O 7813   2.615   2.302  14.468  0.1888 -0.0713  0.3451
  526TMC3     H 7814   2.566   2.141  14.660  0.1332 -1.3416 -0.9339
  526TMC3    H1 7815   2.982   2.170  14.540  0.5983 -0.5404  1.2287
  526TMC3    H2 7816   2.878   2.014  14.913  1.8631  0.5334  0.5000
  526TMC3    C7 7817   3.056   2.009  14.729  0.2354 -0.3533 -0.2955
  526TMC3    C8 7818   2.627   2.070  14.899  0.0220 -0.3865  0.1232
  526TMC3    O1 7819   3.061   1.914  14.806  0.0404  0.2559  0.0435
  526TMC3    O2 7820   2.678   2.075  15.009 -0.5112  0.5009 -0.2261
  527MPD2     C 7821   4.206   1.255   0.584 -0.4866  0.1758  0.4052
  527MPD2    C1 7822   4.276   1.165   0.663  0.6049  0.2078 -0.3063
  527MPD2    C2 7823   4.372   1.085   0.601 -0.3153  0.1254 -0.5541
  527MPD2    C3 7824   4.392   1.090   0.468 -0.8636 -0.7019  0.6034
  527MPD2    C4 7825   4.324   1.183   0.394  0.1043 -0.5189  0.7661
  527MPD2    C5 7826   4.230   1.254   0.454 -0.4341 -0.0819  0.1096
  527MPD2     H 7827   4.431   1.016   0.661  0.4586 -0.2224 -1.7262
  527MPD2    H1 7828   4.339   1.196   0.287  1.4198 -1.4464  0.8294
  527MPD2    H2 7829   4.131   1.322   0.624  0.9612  2.2861 -0.4204
  527MPD2    H3 7830   4.159   1.318   0.403  0.1797 -0.5549 -1.3269
  527MPD2     N 7831   4.480   0.999   0.402 -0.3852  0.4981  0.0771
  527MPD2    H5 7832   4.539   0.948   0.467 -0.6973  0.5552  0.4079
  527MPD2    N1 7833   4.244   1.164   0.802  0.2020 -0.1624  0.2733
  527MPD2    H7 7834   4.315   1.112   0.854 -1.0420 -0.7118  1.4280
  528TMC3    C1 7835   4.152   1.177   1.015  0.3967 -0.2236  0.5859
  528TMC3    C2 7836   4.263   1.113   1.073 -0.3454 -0.0566 -0.1413
  528TMC3    C3 7837   4.257   1.089   1.207 -0.6035 -0.1317 -0.6811
  528TMC3    C4 7838   4.041   1.193   1.087 -0.2392 -0.0346 -0.5945
  528TMC3    C5 7839   4.036   1.155   1.223 -0.5282  0.4897  0.2650
  528TMC3    C6 7840   4.143   1.102   1.280  0.3387 -0.8193 -0.2882
  528TMC3     C 7841   4.154   1.230   0.880 -0.3574  0.1960  0.3335
  528TMC3     O 7842   4.056   1.294   0.849  1.1346 -0.5351  0.0947
  528TMC3     H 7843   4.362   1.116   1.030 -0.8863 -0.0761 -1.4064
  528TMC3    H1 7844   3.952   1.225   1.033 -1.7248 -3.3925 -0.1334
  528TMC3    H2 7845   4.138   1.088   1.387  0.7441  1.5138  0.0437
  528TMC3    C7 7846   3.936   1.202   1.313 -0.0166  0.5056  0.4968
  528TMC3    C8 7847   4.386   1.080   1.273  0.4803  0.8011  0.0370
  528TMC3    O1 7848   3.970   1.218   1.432 -0.0240 -0.2201 -0.7367
  528TMC3    O2 7849   4.486   1.118   1.215  0.4883  0.3142 -0.5726
  529MPD2     C 7850   1.881   4.177   1.104  0.3569 -0.2441 -0.4630
  529MPD2    C1 7851   1.947   4.068   1.046  0.0510  0.0610  0.8791
  529MPD2    C2 7852   1.897   4.011   0.935 -0.8193  0.2310  0.0810
  529MPD2    C3 7853   1.773   4.053   0.879 -0.1608 -0.0792  0.2728
  529MPD2    C4 7854   1.696   4.149   0.942 -0.4991  0.2808 -0.1592
  529MPD2    C5 7855   1.757   4.207   1.050 -0.3660  0.4131 -0.0622
  529MPD2     H 7856   1.948   3.930   0.885 -2.2402 -0.8856  0.4286
  529MPD2    H1 7857   1.600   4.183   0.904 -1.1846  0.2605  1.5456
  529MPD2    H2 7858   1.912   4.229   1.194  0.9307 -0.6305 -0.4385
  529MPD2    H3 7859   1.701   4.279   1.108  3.0157  1.3922  1.9502
  529MPD2     N 7860   1.742   4.006   0.747  0.2530 -0.5206  0.2403
  529MPD2    H5 7861   1.799   3.929   0.715 -0.1657 -0.9402  0.4871
  529MPD2    N1 7862   2.070   4.009   1.089 -0.1909  0.0642  0.2960
  529MPD2    H7 7863   2.107   3.937   1.028 -2.7695 -0.1616 -1.0041
  530TMC3    C1 7864   2.265   3.992   1.214  0.2668  0.0247 -0.0676
  530TMC3    C2 7865   2.370   4.074   1.250  0.2504  0.3942  0.1124
  530TMC3    C3 7866   2.472   4.027   1.324  0.0600  0.0615  0.2124
  530TMC3    C4 7867   2.269   3.862   1.241  0.8353 -0.1016 -0.1250
  530TMC3    C5 7868   2.368   3.816   1.327 -0.1419  0.0930 -0.9222
  530TMC3    C6 7869   2.473   3.894   1.365  0.3291 -0.1970  0.1557
  530TMC3     C 7870   2.144   4.065   1.187 -0.3918 -0.6655  0.8305
  530TMC3     O 7871   2.108   4.143   1.274  0.3800 -0.4649  0.0068
  530TMC3     H 7872   2.364   4.180   1.224 -0.5780 -0.4896 -3.3012
  530TMC3    H1 7873   2.197   3.794   1.197 -1.1504  1.7230  0.3235
  530TMC3    H2 7874   2.551   3.850   1.425  0.0186  0.0941  0.7728
  530TMC3    C7 7875   2.374   3.682   1.365 -0.0855  0.2005 -0.2284
  530TMC3    C8 7876   2.531   4.131   1.409 -0.5864 -0.1266  0.4883
  530TMC3    O1 7877   2.481   3.627   1.377 -0.4163 -0.0908  0.2990
  530TMC3    O2 7878   2.457   4.229   1.425  0.5470 -0.0577  0.1105
  531MPD2     C 7879   2.352   1.202  13.247 -0.7355 -0.0281  0.2598
  531MPD2    C1 7880   2.214   1.219  13.279  1.1822 -0.2979 -0.0936
  531MPD2    C2 7881   2.128   1.125  13.218 -0.2912 -0.1185  0.7722
  531MPD2    C3 7882   2.174   1.023  13.138 -0.3056 -0.1286  0.1610
  531MPD2    C4 7883   2.306   1.012  13.117  0.2895 -0.0558  0.2957
  531MPD2    C5 7884   2.389   1.096  13.170 -0.7172 -0.8934 -0.1239
  531MPD2     H 7885   2.020   1.136  13.220 -0.3186  0.2421 -3.6011
  531MPD2    H1 7886   2.343   0.930  13.056 -2.4159  1.1979 -3.0575
  531MPD2    H2 7887   2.419   1.272  13.296  0.6641 -0.0479 -1.6288
  531MPD2    H3 7888   2.495   1.088  13.150 -0.4926  0.2032  0.6263
  531MPD2     N 7889   2.075   0.941  13.082 -0.2363  0.6608  0.1332
  531MPD2    H5 7890   1.982   0.947  13.122 -0.9048 -2.7490 -0.8696
  531MPD2    N1 7891   2.167   1.321  13.371 -0.2115  0.1516  0.5503
  531MPD2    H7 7892   2.237   1.382  13.411  0.6091 -2.8079  3.6454
  532TMC3    C1 7893   2.000   1.443  13.504 -0.9095 -0.0139  0.9448
  532TMC3    C2 7894   1.865   1.447  13.502  0.5831 -0.1242  0.1464
  532TMC3    C3 7895   1.803   1.447  13.624  0.4868 -0.1078  0.3305
  532TMC3    C4 7896   2.065   1.416  13.625 -0.0326 -0.1805 -0.2132
  532TMC3    C5 7897   2.000   1.414  13.744  0.2920 -0.5613  0.0648
  532TMC3    C6 7898   1.865   1.442  13.744  0.7105  0.4746 -0.1044
  532TMC3     C 7899   2.036   1.353  13.388  0.8365  0.6920 -0.7043
  532TMC3     O 7900   1.942   1.297  13.334  0.1960 -0.3475  0.3740
  532TMC3     H 7901   1.810   1.461  13.409  0.3097 -0.5974  0.2400
  532TMC3    H1 7902   2.172   1.431  13.632  0.4437 -2.0243 -3.4722
  532TMC3    H2 7903   1.802   1.449  13.832 -1.1745  1.3422 -1.5175
  532TMC3    C7 7904   2.051   1.361  13.868  0.2558  0.4557  0.3741
  532TMC3    C8 7905   1.698   1.343  13.635  0.1384 -0.3712 -0.4928
  532TMC3    O1 7906   1.982   1.382  13.965 -0.3602 -0.2417 -0.1816
  532TMC3    O2 7907   1.624   1.342  13.733 -0.5483 -0.2576  0.0465
  533TMC3    C1 7908   3.316   2.820  14.478 -0.5530  0.6632 -0.4771
  533TMC3    C2 7909   3.281   2.934  14.411 -0.0543  0.4102  0.7388
  533TMC3    C3 7910   3.292   3.057  14.472  0.4382 -0.1498 -0.1017
  533TMC3    C4 7911   3.360   2.832  14.608  0.3577  0.2671  0.9294
  533TMC3    C5 7912   3.349   2.952  14.665  0.5791 -0.3054  0.1258
  533TMC3    C6 7913   3.329   3.073  14.602 -0.2137  0.6598 -0.1336
  533TMC3     C 7914   3.214   2.720  14.464  0.0824 -0.3397 -0.5626
  533TMC3     O 7915   3.236   2.622  14.528  0.6974 -0.3768  0.4234
  533TMC3     H 7916   3.263   2.924  14.304  0.6281 -0.9249  0.7513
  533TMC3    H1 7917   3.375   2.742  14.667 -1.5436  0.9921  2.5065
  533TMC3    H2 7918   3.321   3.167  14.655  1.0064  2.2477 -2.7674
  533TMC3    C7 7919   3.263   2.938  14.784  0.3385 -0.0916 -0.0147
  533TMC3    C8 7920   3.281   3.169  14.380  0.5079 -0.2868 -0.2621
  533TMC3    O1 7921   3.280   2.828  14.840 -0.1848 -0.3988  0.5847
  533TMC3    O2 7922   3.223   3.157  14.272  0.1632 -0.1249 -0.5760
  534MPD2     C 7923   4.690   0.055   1.101 -0.7218 -0.0298 -0.0742
  534MPD2    C1 7924   4.580   0.141   1.096  0.2323  0.3469  0.0908
  534MPD2    C2 7925   4.465   0.100   1.037 -0.5378 -0.3843  0.5159
  534MPD2    C3 7926   4.451   4.694   0.987 -0.0282  0.2807  0.3381
  534MPD2    C4 7927   4.569   4.615   0.984  0.0067 -0.1971 -0.1860
  534MPD2    C5 7928   4.684   4.653   1.052 -0.4184 -0.2965  0.4203
  534MPD2     H 7929   4.387   0.174   1.021 -0.1582  0.5058  2.7895
  534MPD2    H1 7930   4.566   4.513   0.946 -0.2805  0.5556 -2.1933
  534MPD2    H2 7931   0.060   0.074   1.143 -0.4959 -1.4709  0.0695
  534MPD2    H3 7932   0.042   4.588   1.069 -1.2467 -1.2575  0.8985
  534MPD2     N 7933   4.334   4.648   0.920 -0.5184 -0.3402 -0.3578
  534MPD2    H5 7934   4.345   4.557   0.877 -1.8084 -0.6875  0.0576
  534MPD2    N1 7935   4.582   0.270   1.158 -0.0261 -0.4145 -0.3151
  534MPD2    H7 7936   4.492   0.315   1.148 -0.0947 -0.0532  1.9244
  535TMC3    C1 7937   4.120   4.641   0.830  0.4628 -0.0705  0.0902
  535TMC3    C2 7938   3.997   4.637   0.883  0.0303 -0.2671  0.0617
  535TMC3    C3 7939   3.902   4.549   0.836  0.2077  0.4659 -0.4971
  535TMC3    C4 7940   4.162   4.547   0.739 -0.1850 -0.0800 -0.2424
  535TMC3    C5 7941   4.063   4.469   0.687  0.5390  0.2522  0.1485
  535TMC3    C6 7942   3.934   4.464   0.730 -0.1606  0.3550  0.1507
  535TMC3     C 7943   4.216   4.720   0.902  0.2267  0.2322 -0.3359
  535TMC3     O 7944   4.185   0.102   0.946 -0.3759 -0.1556  0.7373
  535TMC3     H 7945   3.970   4.698   0.969 -0.5868 -0.7198  0.1930
  535TMC3    H1 7946   4.258   4.557   0.689  1.2522 -1.1265  2.3434
  535TMC3    H2 7947   3.861   4.387   0.704 -0.8127  0.6524  1.0909
  535TMC3    C7 7948   4.118   4.377   0.587 -0.1497 -0.5899 -0.2624
  535TMC3    C8 7949   3.781   4.540   0.913 -0.2077 -0.1509  0.4588
  535TMC3    O1 7950   4.237   4.378   0.572 -0.3212  0.2312  0.3846
  535TMC3    O2 7951   3.718   4.434   0.908 -0.0737 -0.4188  0.3799
  536MPD2     C 7952   4.056   2.667  16.517 -0.3166 -0.2664 -0.1414
  536MPD2    C1 7953   3.923   2.668  16.553 -0.3830  0.6536 -0.1453
  536MPD2    C2 7954   3.832   2.670  16.448  0.1360 -0.9716  0.1028
  536MPD2    C3 7955   3.869   2.649  16.317  0.0595 -0.1423  0.0763
  536MPD2    C4 7956   4.002   2.637  16.293  0.0043  0.3262  0.5463
  536MPD2    C5 7957   4.097   2.649  16.392  0.0426  0.2676  0.4289
  536MPD2     H 7958   3.728   2.695  16.458 -0.1494 -1.9604 -0.3800
  536MPD2    H1 7959   4.036   2.628  16.191  1.9810 -2.0341  1.3934
  536MPD2    H2 7960   4.133   2.663  16.593  1.2564 -0.7098 -1.7466
  536MPD2    H3 7961   4.204   2.641  16.373  0.1487  1.4369  0.5402
  536MPD2     N 7962   3.780   2.646  16.205 -0.2023 -0.1281  0.3246
  536MPD2    H5 7963   3.826   2.653  16.115 -1.9743  1.3743 -0.4713
  536MPD2    N1 7964   3.885   2.675  16.691  0.1642 -1.0361  0.3393
  536MPD2    H7 7965   3.958   2.703  16.756 -1.2411  0.4350  1.3046
  537TMC3    C1 7966   3.746   2.687  16.884 -0.5743  0.8820 -0.5976
  537TMC3    C2 7967   3.858   2.746  16.954  0.1430  0.8141 -0.7903
  537TMC3    C3 7968   3.858   2.746  17.090  0.0185 -0.2470  0.4113
  537TMC3    C4 7969   3.637   2.642  16.946 -0.3138 -0.3161 -0.1198
  537TMC3    C5 7970   3.644   2.638  17.083  0.1546  0.8347  0.7307
  537TMC3    C6 7971   3.755   2.679  17.156 -0.1127 -0.1326  0.7931
  537TMC3     C 7972   3.754   2.670  16.740  0.1252 -0.0577  0.3978
  537TMC3     O 7973   3.646   2.645  16.687 -0.6980 -0.6461  0.3878
  537TMC3     H 7974   3.949   2.773  16.903  0.5694  1.3085  0.2317
  537TMC3    H1 7975   3.567   2.574  16.898 -1.2808  1.1871 -0.8150
  537TMC3    H2 7976   3.746   2.673  17.264 -1.7646 -0.7545  0.6304
  537TMC3    C7 7977   3.535   2.556  17.140 -0.5423  0.3715  0.0996
  537TMC3    C8 7978   3.961   2.800  17.173 -0.0864 -0.0055 -0.3590
  537TMC3    O1 7979   3.426   2.560  17.093  0.1736 -0.0144 -0.7214
  537TMC3    O2 7980   3.939   2.793  17.291  0.3689  0.8411  0.4818
  538TMC3    C1 7981   0.701   1.051  10.941  0.2885 -0.0619  0.1696
  538TMC3    C2 7982   0.727   0.923  10.892  0.0370  0.2106  0.2458
  538TMC3    C3 7983   0.628   0.839  10.856  0.1163  0.0800 -0.2252
  538TMC3    C4 7984   0.574   1.100  10.949 -1.0155  0.1234 -0.1948
  538TMC3    C5 7985   0.476   1.023  10.898  0.5921  0.3302 -0.6631
  538TMC3    C6 7986   0.502   0.891  10.862  0.9415  1.0278 -0.5962
  538TMC3     C 7987   0.816   1.133  10.980  0.2925  0.3763 -0.0237
  538TMC3     O 7988   0.832   1.243  10.928  0.3631 -0.6059 -0.1460
  538TMC3     H 7989   0.828   0.885  10.888 -0.2341  0.1251 -5.0450
  538TMC3    H1 7990   0.563   1.200  10.988 -1.0829  0.1572 -0.3013
  538TMC3    H2 7991   0.419   0.836  10.818  0.4147  0.1842  1.4477
  538TMC3    C7 7992   0.341   1.061  10.890 -0.7090 -0.0500 -0.1919
  538TMC3    C8 7993   0.648   0.746  10.747  0.7605 -0.0867 -0.4928
  538TMC3    O1 7994   0.254   0.973  10.886  0.2097  0.3070 -0.5367
  538TMC3    O2 7995   0.572   0.649  10.751  0.3143 -0.5107 -0.0622
  539MPD2     C 7996   4.721   4.345  11.723 -0.1924  0.2571  0.3423
  539MPD2    C1 7997   0.053   4.383  11.599 -0.8298 -0.0143  0.5709
  539MPD2    C2 7998   0.089   4.516  11.580  0.2854 -0.4939  0.0072
  539MPD2    C3 7999   0.070   4.607  11.680 -0.2913 -0.2533  0.3196
  539MPD2    C4 8000   4.723   4.566  11.792 -0.8017 -0.1107 -0.4755
  539MPD2    C5 8001   4.692   4.434  11.816 -0.6326 -0.4218 -0.4420
  539MPD2     H 8002   0.146   4.546  11.492  0.0085  1.2295  0.4061
  539MPD2    H1 8003   4.685   4.635  11.866 -0.3468  1.4742 -1.7212
  539MPD2    H2 8004   4.719   4.240  11.751 -0.9856  0.7544  2.1089
  539MPD2    H3 8005   4.637   4.394  11.900  1.2060 -2.5047 -0.2416
  539MPD2     N 8006   0.094   0.018  11.665  0.0355 -0.3731  0.3329
  539MPD2    H5 8007   0.060   0.082  11.736  0.1597 -0.1045  0.1557
  539MPD2    N1 8008   0.096   4.294  11.496 -0.2371  0.1287 -0.4906
  539MPD2    H7 8009   0.151   4.334  11.420 -0.6985  0.6228 -0.5611
  540TMC3    C1 8010   0.162   0.224  11.569  0.6961 -0.2654  0.1211
  540TMC3    C2 8011   0.137   0.286  11.447  0.1632  0.2815 -0.3093
  540TMC3    C3 8012   0.073   0.406  11.461  0.1529 -0.0048  0.1580
  540TMC3    C4 8013   0.133   0.280  11.690  0.4257 -0.7206 -0.2341
  540TMC3    C5 8014   0.083   0.405  11.697  0.1280  0.3824 -0.6304
  540TMC3    C6 8015   0.048   0.469  11.579  0.1643 -0.0660 -0.2704
  540TMC3     C 8016   0.144   0.083  11.559  0.1470 -0.3578 -0.4974
  540TMC3     O 8017   0.173   0.037  11.451 -0.2141  0.2051  0.1857
  540TMC3     H 8018   0.149   0.241  11.349 -0.6646  1.1603 -0.8208
  540TMC3    H1 8019   0.170   0.235  11.782  0.3110  0.8459  0.5834
  540TMC3    H2 8020   4.725   0.565  11.575  0.1054 -0.0920 -0.1403
  540TMC3    C7 8021   0.010   0.444  11.819 -0.1477  0.3972  0.2926
  540TMC3    C8 8022   4.718   0.455  11.350  0.2100  0.1260 -0.4541
  540TMC3    O1 8023   4.668   0.353  11.871 -0.0747 -0.5838  0.2043
  540TMC3    O2 8024   4.685   0.573  11.349 -0.6756  0.4498  0.0184
  541MPD2     C 8025   3.036   1.810  13.458 -0.2767 -0.2201 -0.1097
  541MPD2    C1 8026   3.084   1.708  13.387  0.6285 -0.9766 -0.0441
  541MPD2    C2 8027   3.139   1.724  13.264 -0.3512 -1.1230 -0.0106
  541MPD2    C3 8028   3.142   1.848  13.198  0.8806 -0.5613  0.0110
  541MPD2    C4 8029   3.080   1.957  13.264  0.0704  1.1157 -0.6200
  541MPD2    C5 8030   3.034   1.929  13.390  0.5650  0.2606 -0.5266
  541MPD2     H 8031   3.189   1.644  13.211 -0.1792 -0.1177 -1.3602
  541MPD2    H1 8032   3.074   2.054  13.217 -1.7286  1.7334  0.9019
  541MPD2    H2 8033   2.999   1.814  13.559  3.4462  0.2918  1.2438
  541MPD2    H3 8034   3.002   2.017  13.446  2.2305  0.0156  0.8154
  541MPD2     N 8035   3.198   1.882  13.072 -0.6841 -0.1453 -1.0119
  541MPD2    H5 8036   3.200   1.982  13.054 -1.9680  0.1214  0.3298
  541MPD2    N1 8037   3.113   1.586  13.451  0.2014 -0.8712 -0.5483
  541MPD2    H7 8038   3.147   1.512  13.390 -0.1635 -1.6992  0.2543
  542TMC3    C1 8039   3.280   1.861  12.854 -0.0726  0.0507  0.3818
  542TMC3    C2 8040   3.234   1.810  12.736  0.1154  0.5517  0.0744
  542TMC3    C3 8041   3.246   1.890  12.627 -0.6084  0.0211 -0.3333
  542TMC3    C4 8042   3.343   1.985  12.864 -0.1717 -0.4810 -0.0447
  542TMC3    C5 8043   3.348   2.067  12.751 -0.3753 -0.7431  0.3345
  542TMC3    C6 8044   3.303   2.016  12.629 -0.7459 -0.0251 -0.0566
  542TMC3     C 8045   3.237   1.794  12.974  0.0294  0.2248 -0.4083
  542TMC3     O 8046   3.235   1.671  12.969  0.6620  0.2026  0.4586
  542TMC3     H 8047   3.176   1.719  12.738  1.1760 -0.1597 -1.2907
  542TMC3    H1 8048   3.372   2.020  12.963  0.0095 -0.7341 -0.0077
  542TMC3    H2 8049   3.328   2.065  12.536  0.5899 -0.0373  0.2924
  542TMC3    C7 8050   3.377   2.207  12.779 -0.9734  0.0082  0.3428
  542TMC3    C8 8051   3.221   1.843  12.495 -0.5732 -0.3796  0.0630
  542TMC3    O1 8052   3.437   2.250  12.876  0.0218  0.2675  0.8832
  542TMC3    O2 8053   3.280   1.896  12.399  0.3634 -0.0066 -0.0048
  543TMC3    C1 8054   2.281   2.883  17.482 -0.1618  0.0765  0.3249
  543TMC3    C2 8055   2.342   2.784  17.561 -0.0228  0.2507 -0.8221
  543TMC3    C3 8056   2.322   2.781  17.696 -0.5801 -0.3820 -0.5643
  543TMC3    C4 8057   2.203   2.987  17.539 -0.0045  0.0586 -0.0594
  543TMC3    C5 8058   2.199   2.984  17.677  0.2623 -0.4412 -0.2615
  543TMC3    C6 8059   2.255   2.886   0.046 -0.3083  0.5044  0.2189
  543TMC3     C 8060   2.323   2.888  17.345  0.4882  0.9974  0.1522
  543TMC3     O 8061   2.407   2.806  17.309  0.1944 -0.1200  0.2994
  543TMC3     H 8062   2.411   2.709  17.522  0.3656  1.4382 -2.4468
  543TMC3    H1 8063   2.154   3.058  17.474  2.6362  1.1268 -0.8703
  543TMC3    H2 8064   2.243   2.892   0.154  1.8305 -0.5932  0.5065
  543TMC3    C7 8065   2.117   3.079   0.033 -0.4564  0.0626 -0.1756
  543TMC3    C8 8066   2.344   2.652   0.039 -0.9344  1.0055 -0.2995
  543TMC3    O1 8067   2.092   3.056   0.149  0.2537 -0.2158  0.2382
  543TMC3    O2 8068   2.404   2.566  17.684 -0.1373  0.0575  0.1207
  544MPD2     C 8069   2.362   2.317   0.427 -0.2658 -0.0611 -0.4720
  544MPD2    C1 8070   2.408   2.304   0.299  0.3767 -0.0654  0.3482
  544MPD2    C2 8071   2.377   2.395   0.205  0.4457 -0.1863  0.5199
  544MPD2    C3 8072   2.327   2.521   0.250  1.2576 -0.2065  0.7205
  544MPD2    C4 8073   2.286   2.536   0.374 -0.1946 -0.2155 -0.0896
  544MPD2    C5 8074   2.293   2.432   0.463 -1.0636 -0.6694  0.3632
  544MPD2     H 8075   2.406   2.388   0.101 -0.1567 -0.9701  0.4044
  544MPD2    H1 8076   2.261   2.640   0.394 -0.9592 -0.7333  1.5925
  544MPD2    H2 8077   2.370   2.233   0.495  0.1300  1.8889  1.8725
  544MPD2    H3 8078   2.270   2.455   0.566  2.0074  0.2203  0.8563
  544MPD2     N 8079   2.313   2.643   0.171 -0.1769  0.5870 -0.4166
  544MPD2    H5 8080   2.257   2.717   0.212  0.7108  0.7832  0.4275
  544MPD2    N1 8081   2.461   2.173   0.272  0.1016 -0.3584 -0.1655
  544MPD2    H7 8082   2.478   2.114   0.353 -2.6349 -1.9279 -0.7146
  545TMC3    C1 8083   2.576   2.001   0.154  0.6992  0.3192  0.4076
  545TMC3    C2 8084   2.590   1.929   0.269  0.4351  0.4326 -0.4382
  545TMC3    C3 8085   2.648   1.804   0.265  0.3648 -0.1533  0.5691
  545TMC3    C4 8086   2.639   1.950   0.037 -0.0298 -0.1340  0.1177
  545TMC3    C5 8087   2.717   1.829   0.048  0.1254  0.8491 -0.2042
  545TMC3    C6 8088   2.704   1.745   0.151  0.1092  0.6600 -0.3457
  545TMC3     C 8089   2.520   2.128   0.155  0.9086  0.9639 -0.2661
  545TMC3     O 8090   2.530   2.184   0.044 -0.3446 -0.1305 -0.1891
  545TMC3     H 8091   2.544   1.963   0.361  1.6373 -1.6628  0.9141
  545TMC3    H1 8092   2.628   2.007  17.656  0.3164 -0.2322  0.0167
  545TMC3    H2 8093   2.769   1.659   0.169  0.5054  1.3381  1.4554
  545TMC3    C7 8094   2.851   1.851   0.006  0.0649  0.1090 -0.0749
  545TMC3    C8 8095   2.635   1.725   0.389  0.3430 -0.6655  0.2044
  545TMC3    O1 8096   2.934   1.760   0.017 -0.3839  0.5376  0.1758
  545TMC3    O2 8097   2.589   1.779   0.489 -0.6598  0.1282 -0.0928
  546MPD2     C 8098   4.119   3.309  17.452  0.0840  0.1342 -0.5205
  546MPD2    C1 8099   4.047   3.237  17.355  0.1034 -0.2045  0.3559
  546MPD2    C2 8100   4.080   3.252  17.221 -0.4304  0.1378 -0.0944
  546MPD2    C3 8101   4.195   3.311  17.185 -0.5116  0.2479  0.1046
  546MPD2    C4 8102   4.269   3.380  17.278  0.2200  0.2887 -0.3183
  546MPD2    C5 8103   4.232   3.383  17.411  0.6572  0.5872 -0.2518
  546MPD2     H 8104   4.024   3.187  17.155  1.6820 -0.2999 -1.4529
  546MPD2    H1 8105   4.355   3.436  17.244  0.1430  1.4910  1.4757
  546MPD2    H2 8106   4.099   3.304  17.558  0.2905 -1.4048 -0.5495
  546MPD2    H3 8107   4.283   3.437  17.490  1.4343 -0.4595 -0.0252
  546MPD2     N 8108   4.249   3.316  17.056 -0.1740  0.1636  0.9886
  546MPD2    H5 8109   4.341   3.358  17.047  0.0064 -0.8418 -1.7500
  546MPD2    N1 8110   3.942   3.159  17.403 -0.2838  0.8878  0.0234
  546MPD2    H7 8111   3.924   3.153  17.503  0.3569  0.7863  0.1377
  547TMC3    C1 8112   3.736   3.049  17.402 -0.8705 -0.4073  0.7960
  547TMC3    C2 8113   3.660   2.974  17.326 -0.3917  0.3676  0.0236
  547TMC3    C3 8114   3.559   2.909  17.386  0.1970 -0.0309 -0.1950
  547TMC3    C4 8115   3.728   3.051  17.541 -0.0150  0.0043 -0.8091
  547TMC3    C5 8116   3.632   2.968  17.596  0.5972 -0.4961  0.2694
  547TMC3    C6 8117   3.538   2.908  17.518  0.3918  0.2219 -0.3256
  547TMC3     C 8118   3.836   3.125  17.329 -1.0857 -0.3136  0.3026
  547TMC3     O 8119   3.806   3.164  17.218  0.1515  0.0969 -0.4652
  547TMC3     H 8120   3.684   2.967  17.221  0.5206 -0.3561  0.2885
  547TMC3    H1 8121   3.793   3.115  17.598 -1.1163 -0.4795  1.0037
  547TMC3    H2 8122   3.464   2.848  17.569  0.4786 -0.7391 -1.3372
  547TMC3    C7 8123   3.611   2.958   0.030  0.0829  0.1075  0.7897
  547TMC3    C8 8124   3.445   2.865  17.305  0.1727 -0.1617  0.2433
  547TMC3    O1 8125   3.516   2.900   0.076  0.3338 -0.6771  0.4064
  547TMC3    O2 8126   3.431   2.923  17.198  0.1206  0.2962 -0.2913
  548MPD2     C 8127   4.251   3.404  12.187 -0.2533  0.2922  0.1092
  548MPD2    C1 8128   4.253   3.348  12.311 -0.7369 -0.3410 -0.0383
  548MPD2    C2 8129   4.333   3.236  12.321  0.3641  0.0202  0.4700
  548MPD2    C3 8130   4.402   3.180  12.215 -0.6756  0.6831 -0.6291
  548MPD2    C4 8131   4.401   3.241  12.088  0.5700 -0.3571  0.2932
  548MPD2    C5 8132   4.327   3.356  12.085 -0.1203  0.1706  0.7999
  548MPD2     H 8133   4.331   3.191  12.420 -0.9611 -0.0491  0.4130
  548MPD2    H1 8134   4.459   3.208  12.002 -0.1712  2.2476 -1.1825
  548MPD2    H2 8135   4.189   3.491  12.164  0.2372  0.3323 -1.0443
  548MPD2    H3 8136   4.327   3.405  11.988 -0.8720 -2.5919 -0.6083
  548MPD2     N 8137   4.461   3.054  12.236  0.6679  0.4499  0.3515
  548MPD2    H5 8138   4.487   3.038  12.332 -2.4773  0.2819  1.1921
  548MPD2    N1 8139   4.173   3.404  12.413 -0.2097  0.0906  0.1832
  548MPD2    H7 8140   4.111   3.481  12.390 -0.3519 -0.0510  0.0961
  549TMC3    C1 8141   4.065   3.428  12.627 -0.4540  0.4887 -0.9563
  549TMC3    C2 8142   4.004   3.543  12.579  0.2233  0.0310  1.0369
  549TMC3    C3 8143   3.906   3.589  12.661  0.1842 -0.3241 -0.3449
  549TMC3    C4 8144   4.024   3.367  12.744  0.4439  0.0760  0.2849
  549TMC3    C5 8145   3.925   3.425  12.820  0.2131  0.1334  0.5711
  549TMC3    C6 8146   3.861   3.540  12.774  0.2144 -0.2485 -0.4718
  549TMC3     C 8147   4.157   3.350  12.539  0.0704  0.3313 -0.8662
  549TMC3     O 8148   4.201   3.248  12.594 -0.4515  0.0455 -0.1254
  549TMC3     H 8149   4.038   3.600  12.493  3.7667  1.3005  3.2602
  549TMC3    H1 8150   4.082   3.281  12.774  0.6297  0.1869  0.2442
  549TMC3    H2 8151   3.798   3.595  12.843  0.4348 -0.7201  0.1110
  549TMC3    C7 8152   3.887   3.362  12.944 -0.0355  0.4075 -0.1391
  549TMC3    C8 8153   3.859   3.721  12.621  0.5636  0.5640  0.5901
  549TMC3    O1 8154   3.834   3.433  13.029  0.4076 -0.0484  0.0078
  549TMC3    O2 8155   3.938   3.803  12.574 -0.1209  0.0757  0.5393
  550TMC3    C1 8156   2.858   1.384  12.658 -0.9737 -0.1501  0.2764
  550TMC3    C2 8157   2.767   1.464  12.719  0.0676  0.0678  0.4730
  550TMC3    C3 8158   2.635   1.448  12.694 -0.0127 -0.0170  0.5063
  550TMC3    C4 8159   2.820   1.284  12.570 -0.6523  0.3831 -0.3503
  550TMC3    C5 8160   2.687   1.291  12.525  0.3218  0.3680 -0.0519
  550TMC3    C6 8161   2.586   1.366  12.590  0.0531  0.0685  0.5217
  550TMC3     C 8162   2.999   1.411  12.692  0.0322 -1.0468 -0.1366
  550TMC3     O 8163   3.019   1.457  12.803  0.5192  0.0635 -0.2257
  550TMC3     H 8164   2.805   1.539  12.787  0.9988  0.8374 -0.8964
  550TMC3    H1 8165   2.890   1.208  12.540 -0.3806  0.7464 -0.6380
  550TMC3    H2 8166   2.484   1.379  12.556 -0.0900 -0.6172  0.6946
  550TMC3    C7 8167   2.643   1.219  12.416 -0.3473 -0.1454 -0.3807
  550TMC3    C8 8168   2.558   1.565  12.712  0.5222 -0.4246  0.5523
  550TMC3    O1 8169   2.524   1.216  12.393  0.0902  0.0279  0.4305
  550TMC3    O2 8170   2.462   1.591  12.640  0.0186  0.2207  0.1709
  551TMC3    C1 8171   0.323   3.817  13.389 -0.2181 -0.2461 -0.2150
  551TMC3    C2 8172   0.391   3.843  13.277 -0.3108 -0.3980  0.3513
  551TMC3    C3 8173   0.470   3.955  13.271 -0.3897 -0.2641  0.1619
  551TMC3    C4 8174   0.337   3.899  13.502 -0.3094 -0.6517  0.9858
  551TMC3    C5 8175   0.416   4.013  13.496  0.1946 -0.5387 -0.2062
  551TMC3    C6 8176   0.488   4.046  13.378 -0.1349  0.5497 -0.9061
  551TMC3     C 8177   0.194   3.758  13.357  0.0756 -1.5461  0.4248
  551TMC3     O 8178   0.198   3.658  13.285  0.2622  0.4933 -0.1448
  551TMC3     H 8179   0.365   3.794  13.184 -1.2495  1.0840 -0.1835
  551TMC3    H1 8180   0.284   3.867  13.591 -1.3569 -1.4115  0.0811
  551TMC3    H2 8181   0.548   4.136  13.367  0.3953  0.5704  2.0527
  551TMC3    C7 8182   0.449   4.077  13.624  0.5896 -0.2570 -0.3595
  551TMC3    C8 8183   0.541   3.971  13.145  0.2951  0.0889 -0.0807
  551TMC3    O1 8184   0.436   4.006  13.723  0.1472  1.1599 -0.2192
  551TMC3    O2 8185   0.607   3.875  13.104 -0.1324  0.9413  0.3574
  552MPD2     C 8186   1.963   1.058  14.652 -0.0356 -0.0774  0.7324
  552MPD2    C1 8187   2.007   0.970  14.555 -0.0824 -0.3765  0.3544
  552MPD2    C2 8188   2.114   0.883  14.578  0.1855 -0.2103  0.4658
  552MPD2    C3 8189   2.174   0.882  14.697 -0.5733  0.4283 -0.2366
  552MPD2    C4 8190   2.124   0.965  14.796 -0.0312  0.7602  0.2555
  552MPD2    C5 8191   2.024   1.058  14.779  0.5573  1.2252  0.3759
  552MPD2     H 8192   2.146   0.815  14.500  0.3955  0.2563  0.1491
  552MPD2    H1 8193   2.182   0.984  14.885 -0.2219 -0.5350  0.6541
  552MPD2    H2 8194   1.885   1.130  14.632 -0.3334 -0.6746 -0.2241
  552MPD2    H3 8195   2.002   1.139  14.847  1.4266 -0.2942  2.4647
  552MPD2     N 8196   2.281   0.796  14.732 -0.2906  0.5466  0.6736
  552MPD2    H5 8197   2.309   0.791  14.829  0.7939  1.4568  0.4120
  552MPD2    N1 8198   1.942   0.963  14.433  0.4732 -0.5035  0.8534
  552MPD2    H7 8199   1.975   0.894  14.367 -1.1453  0.1229 -0.6044
  553TMC3    C1 8200   1.779   0.970  14.283  0.6238  0.4843  0.5282
  553TMC3    C2 8201   1.845   0.962  14.160  0.5509  0.2841  0.0793
  553TMC3    C3 8202   1.832   0.843  14.095 -0.0239 -0.3715  0.8351
  553TMC3    C4 8203   1.705   0.866  14.337  0.5914  0.5279 -0.0425
  553TMC3    C5 8204   1.731   0.744  14.286  0.5887 -0.3067  0.5089
  553TMC3    C6 8205   1.795   0.736  14.166  0.3767  0.6320 -0.4288
  553TMC3     C 8206   1.837   1.038  14.392  0.4128 -0.2069  0.3771
  553TMC3     O 8207   1.766   1.115  14.453 -0.0534  0.0210 -0.1197
  553TMC3     H 8208   1.915   1.041  14.134 -1.9619  3.4230  2.8350
  553TMC3    H1 8209   1.668   0.871  14.439  0.1175  1.5640 -0.2604
  553TMC3    H2 8210   1.798   0.638  14.121 -1.7255  0.2084  0.3579
  553TMC3    C7 8211   1.794   0.654  14.390  0.0962 -0.1766  0.2594
  553TMC3    C8 8212   1.937   0.824  14.000 -0.0393  0.5173  0.9439
  553TMC3    O1 8213   1.732   0.628  14.493 -0.0782 -0.5321  0.5945
  553TMC3    O2 8214   2.011   0.730  14.013  0.6785 -0.2524  0.6123
  554TMC3    C1 8215   4.022   0.238  11.365  0.2247  0.2590  0.1241
  554TMC3    C2 8216   4.054   0.177  11.252  0.4382  0.0368  0.2177
  554TMC3    C3 8217   4.158   0.223  11.179 -1.0314  0.0324 -0.0698
  554TMC3    C4 8218   4.076   0.356  11.409  0.0961  0.1147  0.4876
  554TMC3    C5 8219   4.176   0.408  11.324 -0.2939 -0.5582  0.8455
  554TMC3    C6 8220   4.220   0.340  11.210  0.0663  0.2864  0.3938
  554TMC3     C 8221   3.924   0.171  11.445  0.3333 -0.0374  0.0579
  554TMC3     O 8222   3.827   0.124  11.394  0.0288 -0.0691 -0.1717
  554TMC3     H 8223   4.001   0.092  11.212  2.0140 -0.4930 -0.7297
  554TMC3    H1 8224   4.034   0.398  11.500 -0.7529  2.2130 -0.8449
  554TMC3    H2 8225   4.302   0.372  11.146  0.3436 -1.7059 -0.2597
  554TMC3    C7 8226   4.188   0.550  11.303  0.4498  0.4239  1.1797
  554TMC3    C8 8227   4.146   0.206  11.038 -0.2384  0.4358 -0.2133
  554TMC3    O1 8228   4.227   0.581  11.190  0.1229 -0.5222 -0.3527
  554TMC3    O2 8229   4.146   0.299  10.961  0.2409  0.4283 -0.5507
  555TMC3    C1 8230   2.833   4.565  15.374  0.4557 -0.7655 -0.3721
  555TMC3    C2 8231   2.765   4.606  15.480  0.0871 -0.3951 -0.2115
  555TMC3    C3 8232   2.759   4.532  15.598  0.1987 -0.0751 -0.5529
  555TMC3    C4 8233   2.900   4.439  15.380 -0.1607  0.1447  0.6630
  555TMC3    C5 8234   2.888   4.372  15.497  0.0185 -0.3683 -0.1841
  555TMC3    C6 8235   2.828   4.417  15.608  0.6288  0.0672 -0.4395
  555TMC3     C 8236   2.839   4.640  15.255 -0.8062 -0.1401  0.6096
  555TMC3     O 8237   2.945   4.625  15.199 -0.8914 -0.4773 -0.3385
  555TMC3     H 8238   2.716   4.703  15.476 -2.7017 -1.8556 -1.2225
  555TMC3    H1 8239   2.953   4.400  15.293 -2.1596 -0.3709 -0.3262
  555TMC3    H2 8240   2.835   4.353  15.696  1.6602  1.2638  0.3456
  555TMC3    C7 8241   2.933   4.235  15.507 -0.1890  0.2180 -0.6701
  555TMC3    C8 8242   2.724   4.604  15.716  0.3081 -0.3114  0.3917
  555TMC3    O1 8243   2.948   4.197  15.621 -0.4435  0.2661 -0.0610
  555TMC3    O2 8244   2.645   4.699  15.707  0.3241 -0.1688  0.0052
  556MPD2     C 8245   1.221   1.768  10.166  0.6890 -0.6764 -0.5958
  556MPD2    C1 8246   1.197   1.685  10.279  0.2547  0.2669  1.1351
  556MPD2    C2 8247   1.191   1.551  10.258 -0.7642  0.1787  0.0007
  556MPD2    C3 8248   1.210   1.487  10.132 -0.2975 -0.0006  0.1036
  556MPD2    C4 8249   1.236   1.572  10.025 -0.4296 -0.5251  0.1460
  556MPD2    C5 8250   1.250   1.707  10.046 -0.2464  0.0809 -0.1466
  556MPD2     H 8251   1.158   1.497  10.346  0.5973 -0.9299 -0.1755
  556MPD2    H1 8252   1.251   1.538   9.924  2.2428  0.8828  0.0572
  556MPD2    H2 8253   1.242   1.874  10.175  0.1564 -0.4004 -2.5890
  556MPD2    H3 8254   1.268   1.775   9.964 -2.6423  1.4787  0.5041
  556MPD2     N 8255   1.181   1.352  10.114  0.6532  0.2056 -0.5533
  556MPD2    H5 8256   1.134   1.297  10.185  0.6406 -0.1274 -0.8139
  556MPD2    N1 8257   1.175   1.737  10.408  0.4751 -0.2682  0.4521
  556MPD2    H7 8258   1.173   1.676  10.489 -1.4703 -0.3348  0.3629
  557TMC3    C1 8259   1.158   1.140  10.023 -0.6403 -0.2037 -0.0762
  557TMC3    C2 8260   1.161   1.061   9.908  0.5726 -0.3807  0.0479
  557TMC3    C3 8261   1.123   0.931   9.913 -0.3836  0.0961  0.0082
  557TMC3    C4 8262   1.134   1.081  10.148  0.0183 -0.4573 -0.4203
  557TMC3    C5 8263   1.111   0.945  10.146 -0.0598 -1.3480  0.6255
  557TMC3    C6 8264   1.101   0.870  10.034  0.1649 -0.3844  0.1715
  557TMC3     C 8265   1.210   1.278  10.007 -0.4100  0.0801  0.0002
  557TMC3     O 8266   1.268   1.301   9.900  0.3614  0.0739 -0.1373
  557TMC3     H 8267   1.199   1.101   9.815 -2.3501 -0.1522 -1.0567
  557TMC3    H1 8268   1.146   1.144  10.235  0.7245 -2.6350  1.0549
  557TMC3    H2 8269   1.064   0.769  10.035  0.3175 -0.4456 -0.4004
  557TMC3    C7 8270   1.059   0.891  10.270 -0.8426  0.5137 -0.5698
  557TMC3    C8 8271   1.105   0.865   9.790  0.4163 -0.6965 -0.7866
  557TMC3    O1 8272   1.042   0.972  10.358  0.4316 -0.2840 -0.5165
  557TMC3    O2 8273   1.033   0.924   9.711  0.1085 -0.0811 -0.1970
  558TMC3    C1 8274   3.539   3.590   9.846  0.2655 -0.2617  1.3061
  558TMC3    C2 8275   3.453   3.531   9.933 -0.3693 -0.5926  0.1543
  558TMC3    C3 8276   3.340   3.487   9.874  1.0097  0.0164 -0.6740
  558TMC3    C4 8277   3.518   3.598   9.714  0.3520 -0.6352  0.1090
  558TMC3    C5 8278   3.391   3.568   9.668  0.4506 -0.3666  0.0276
  558TMC3    C6 8279   3.303   3.498   9.742 -0.2788 -0.6199 -0.7236
  558TMC3     C 8280   3.675   3.607   9.887  0.3447  0.4187  0.2382
  558TMC3     O 8281   3.689   3.628  10.011 -0.0336  0.0321  0.0968
  558TMC3     H 8282   3.476   3.521  10.039  2.2664  2.3595 -0.1210
  558TMC3    H1 8283   3.584   3.649   9.645 -0.7313  2.0686  1.0429
  558TMC3    H2 8284   3.204   3.471   9.707  0.1513 -3.7087  0.3820
  558TMC3    C7 8285   3.360   3.575   9.535 -0.8175 -0.2966  0.1810
  558TMC3    C8 8286   3.267   3.386   9.953 -0.2674  0.3643  0.1394
  558TMC3    O1 8287   3.364   3.673   9.464 -0.7126  0.1602  0.1283
  558TMC3    O2 8288   3.177   3.324   9.895  0.1145 -0.2847 -0.0146
  559MPD2     C 8289   3.683   4.294  10.334  0.4237  0.7783  0.6820
  559MPD2    C1 8290   3.576   4.267  10.416  0.2047  0.5184 -0.4013
  559MPD2    C2 8291   3.599   4.258  10.551  0.2195  0.0684  0.6903
  559MPD2    C3 8292   3.726   4.262  10.605 -0.1993  0.1551  0.2132
  559MPD2    C4 8293   3.834   4.287  10.523 -0.3728 -0.9216 -0.5366
  559MPD2    C5 8294   3.811   4.312  10.389  0.7700  0.4967 -0.9783
  559MPD2     H 8295   3.511   4.238  10.612 -0.3700 -1.0052 -0.5137
  559MPD2    H1 8296   3.935   4.305  10.557 -0.7600 -0.3585  0.3389
  559MPD2    H2 8297   3.671   4.311  10.228 -0.8952  0.7981  0.8286
  559MPD2    H3 8298   3.902   4.339  10.338  0.9840  0.8650 -0.4044
  559MPD2     N 8299   3.738   4.260  10.745  0.0884 -0.1212 -0.4914
  559MPD2    H5 8300   3.646   4.249  10.787 -0.4198  1.7019 -1.1385
  559MPD2    N1 8301   3.448   4.238  10.368  0.4798 -0.2283 -0.1884
  559MPD2    H7 8302   3.383   4.228  10.445 -0.2285  0.8000 -0.6361
  560TMC3    C1 8303   3.851   4.240  10.962 -0.1276 -0.2722  0.3402
  560TMC3    C2 8304   3.758   4.146  10.999 -0.2986 -0.5734 -0.2510
  560TMC3    C3 8305   3.792   4.060  11.096 -0.0605  0.0747 -0.1594
  560TMC3    C4 8306   3.973   4.257  11.023 -0.8155 -0.1282  0.6251
  560TMC3    C5 8307   3.999   4.174  11.132  0.5576 -0.0454  0.3447
  560TMC3    C6 8308   3.909   4.082  11.171  0.5803  0.6401  0.4210
  560TMC3     C 8309   3.858   4.266  10.816  0.5125  0.6905  0.4002
  560TMC3     O 8310   3.970   4.287  10.779  0.4829  0.2648 -0.4569
  560TMC3     H 8311   3.669   4.136  10.937 -1.5001 -0.2845  1.4245
  560TMC3    H1 8312   4.051   4.326  10.992 -1.5773  0.4249 -0.0703
  560TMC3    H2 8313   3.941   4.017  11.252  1.9174  0.8357  0.0475
  560TMC3    C7 8314   4.111   4.205  11.223 -0.0525  0.4183 -0.6013
  560TMC3    C8 8315   3.725   3.927  11.099  0.4005  0.6414 -0.1774
  560TMC3    O1 8316   4.089   4.185  11.342 -0.1902  0.3594  0.2866
  560TMC3    O2 8317   3.796   3.828  11.119  0.4063  0.3780  0.3039
  561TMC3    C1 8318   1.422   3.625  10.947  0.7309 -0.0365 -0.0034
  561TMC3    C2 8319   1.402   3.592  11.080  0.7375 -0.5192  0.0822
  561TMC3    C3 8320   1.401   3.697  11.172  0.5718 -0.8278 -0.3367
  561TMC3    C4 8321   1.448   3.755  10.905  0.4040  0.1923 -0.1106
  561TMC3    C5 8322   1.437   3.858  11.000  0.2373 -0.4283  0.4282
  561TMC3    C6 8323   1.402   3.828  11.133  0.0382 -0.7563 -0.4373
  561TMC3     C 8324   1.422   3.523  10.853  0.0696 -0.4583 -0.3195
  561TMC3     O 8325   1.332   3.439  10.860 -0.9705  0.3763  0.0702
  561TMC3     H 8326   1.366   3.493  11.107 -0.0261 -1.2664 -3.7109
  561TMC3    H1 8327   1.453   3.780  10.800  0.4926  0.3429 -0.0704
  561TMC3    H2 8328   1.374   3.905  11.204  0.9622 -0.4469 -0.4149
  561TMC3    C7 8329   1.465   3.993  10.968 -0.0310  0.7804  0.2990
  561TMC3    C8 8330   1.368   3.679  11.314  0.2014  0.8935  0.2115
  561TMC3    O1 8331   1.436   4.077  11.055  0.2378  0.1236  0.1147
  561TMC3    O2 8332   1.305   3.773  11.366 -0.5720 -0.0899  0.1308
  562TMC3    C1 8333   2.825   0.065  16.760 -0.0646 -0.5871 -0.3934
  562TMC3    C2 8334   2.726   0.108  16.671  0.2896  0.2305 -0.6587
  562TMC3    C3 8335   2.608   0.038  16.676  0.1088 -0.2052 -0.0433
  562TMC3    C4 8336   2.807   4.688  16.844  0.1277 -0.2265  0.0867
  562TMC3    C5 8337   2.685   4.628  16.854  0.6065  0.7594  0.0155
  562TMC3    C6 8338   2.582   4.676  16.775  0.2194  0.9225  0.3138
  562TMC3     C 8339   2.947   0.135  16.764 -0.0365  0.4865 -0.1244
  562TMC3     O 8340   3.049   0.070  16.747  0.3507  0.1225  0.2299
  562TMC3     H 8341   2.751   0.195  16.611 -1.1140  0.6650 -0.6095
  562TMC3    H1 8342   2.883   4.660  16.916  0.9317 -0.5152 -0.8720
  562TMC3    H2 8343   2.487   4.623  16.779  1.0367 -0.7243 -1.5418
  562TMC3    C7 8344   2.637   4.556  16.972 -0.5537 -0.7705 -0.1025
  562TMC3    C8 8345   2.487   0.098  16.620  0.3757 -0.2283 -0.4167
  562TMC3    O1 8346   2.518   4.563  17.004  0.0523 -0.1908  0.0638
  562TMC3    O2 8347   2.379   0.066  16.671 -0.1700  0.0998  0.0969
  563MPD2     C 8348   0.198   1.257  15.684  0.0026  0.0497 -0.5094
  563MPD2    C1 8349   0.223   1.349  15.786 -0.2729  1.1692 -0.6733
  563MPD2    C2 8350   0.350   1.378  15.826 -0.9233 -0.3247  0.4349
  563MPD2    C3 8351   0.456   1.319  15.767 -1.0989 -0.1498  0.2134
  563MPD2    C4 8352   0.437   1.235  15.665  0.4053 -0.4811  0.0522
  563MPD2    C5 8353   0.306   1.207  15.626 -0.3369 -0.0052  0.4393
  563MPD2     H 8354   0.365   1.427  15.921 -2.8648 -0.0500  0.5945
  563MPD2    H1 8355   0.513   1.168  15.627 -1.4099 -2.6076  0.1621
  563MPD2    H2 8356   0.100   1.232  15.647 -0.8966 -3.0993  3.9900
  563MPD2    H3 8357   0.293   1.153  15.533  0.4338 -1.8134  1.3856
  563MPD2     N 8358   0.587   1.330  15.822 -0.4635  0.3010  0.2342
  563MPD2    H5 8359   0.580   1.386  15.907 -1.1353  1.2397 -0.4414
  563MPD2    N1 8360   0.108   1.387  15.857  0.5893 -0.1973 -0.0156
  563MPD2    H7 8361   0.020   1.356  15.817  0.1058  0.8778  0.1873
  564TMC3    C1 8362   4.713   1.484  16.045  0.1279 -0.2106 -0.3583
  564TMC3    C2 8363   4.610   1.397  16.001 -0.3654  1.0665  0.6215
  564TMC3    C3 8364   4.571   1.298  16.087  0.2103  0.4312  0.3950
  564TMC3    C4 8365   0.036   1.478  16.174 -0.7730  0.4661 -0.4845
  564TMC3    C5 8366   0.006   1.364  16.247  0.0544 -0.3432 -0.3342
  564TMC3    C6 8367   4.626   1.289  16.209 -0.2889  0.2109 -0.5078
  564TMC3     C 8368   0.108   1.486  15.957  0.1290 -0.3632 -1.0835
  564TMC3     O 8369   0.196   1.565  15.975  0.5033  0.5056  0.3797
  564TMC3     H 8370   4.574   1.409  15.900  1.0824  1.4342  0.1395
  564TMC3    H1 8371   0.120   1.538  16.208  0.0783 -1.8020  1.4526
  564TMC3    H2 8372   4.585   1.221  16.283 -0.7180 -0.3237 -1.2394
  564TMC3    C7 8373   0.124   1.291  16.277 -0.5313  0.0751 -0.1727
  564TMC3    C8 8374   4.531   1.168  16.033  0.3819  0.3383  0.3651
  564TMC3    O1 8375   0.219   1.351  16.326  0.4510  0.0380 -0.1944
  564TMC3    O2 8376   4.512   1.081  16.116 -0.2921  0.0306  0.0226
  565TMC3    C1 8377   0.950   2.492  10.239 -0.1942 -0.0463  0.3522
  565TMC3    C2 8378   0.979   2.438  10.365  0.2178  0.2055 -0.4563
  565TMC3    C3 8379   0.915   2.320  10.405 -0.4692 -0.2009 -0.8722
  565TMC3    C4 8380   0.882   2.423  10.145 -0.1750 -0.6137  0.3146
  565TMC3    C5 8381   0.829   2.296  10.185  0.4796 -0.2716  0.2311
  565TMC3    C6 8382   0.836   2.251  10.316  0.1463 -0.5100  0.4673
  565TMC3     C 8383   1.016   2.610  10.190 -0.6845 -0.5719  0.4932
  565TMC3     O 8384   1.015   2.633  10.071 -0.6111  0.3684  0.3212
  565TMC3     H 8385   1.050   2.483  10.434 -1.8881  0.0596  1.8303
  565TMC3    H1 8386   0.853   2.476  10.056  0.7120  0.6695  0.7869
  565TMC3    H2 8387   0.766   2.176  10.350 -2.4196  1.5737 -0.2594
  565TMC3    C7 8388   0.726   2.235  10.104 -0.0399 -1.0245  0.1231
  565TMC3    C8 8389   0.942   2.278  10.541 -0.2856 -0.2710  0.5248
  565TMC3    O1 8390   0.667   2.137  10.147 -0.5469  0.3333  0.2300
  565TMC3    O2 8391   1.012   2.350  10.614 -0.1404  0.3259 -0.2367
  566MPD2     C 8392   2.302   4.612  14.190 -0.3131 -0.0235 -0.4285
  566MPD2    C1 8393   2.371   4.679  14.091  0.1462  0.1460 -0.5022
  566MPD2    C2 8394   2.333   4.652  13.958  0.0242  0.6155 -0.6012
  566MPD2    C3 8395   2.229   4.564  13.935 -0.6683 -0.2624 -0.2918
  566MPD2    C4 8396   2.161   4.509  14.038  0.0915  0.4124  0.1366
  566MPD2    C5 8397   2.198   4.535  14.165 -0.6199  0.6447 -0.1371
  566MPD2     H 8398   2.392   4.695  13.878 -0.6751 -0.4675 -1.6863
  566MPD2    H1 8399   2.081   4.438  14.020 -0.6729  1.3146 -0.0220
  566MPD2    H2 8400   2.316   4.625  14.297 -1.2439 -0.5200 -0.2474
  566MPD2    H3 8401   2.147   4.490  14.250 -1.3758 -1.1937 -1.5486
  566MPD2     N 8402   2.185   4.532  13.806  0.5853 -1.0235 -0.2079
  566MPD2    H5 8403   2.106   4.469  13.804  1.0279 -1.5668 -0.4115
  566MPD2    N1 8404   2.463   0.049  14.129  0.1175 -0.1927  0.3930
  566MPD2    H7 8405   2.495   0.055  14.226 -1.4694 -2.9141  1.1123
  567TMC3    C1 8406   2.643   0.200  14.085  0.6741 -0.4413  0.0233
  567TMC3    C2 8407   2.698   0.295  14.001 -0.4450 -0.1465  0.3567
  567TMC3    C3 8408   2.830   0.319  14.007  0.5870 -0.2920 -0.6862
  567TMC3    C4 8409   2.722   0.134  14.179 -0.6725  0.2869  0.1844
  567TMC3    C5 8410   2.849   0.174  14.192 -0.2300  0.1078 -0.4565
  567TMC3    C6 8411   2.909   0.259  14.098 -0.1497 -0.3620  0.0818
  567TMC3     C 8412   2.517   0.142  14.042  0.4508 -0.3936  0.6507
  567TMC3     O 8413   2.483   0.171  13.930 -0.1048 -0.1751  0.3731
  567TMC3     H 8414   2.634   0.340  13.927  1.4520  3.5780  0.9754
  567TMC3    H1 8415   2.696   0.044  14.234 -2.2344 -0.9533 -2.5862
  567TMC3    H2 8416   3.011   0.295  14.105 -0.0383 -1.1274  2.5606
  567TMC3    C7 8417   2.932   0.131  14.304  0.0027 -0.0262 -0.4388
  567TMC3    C8 8418   2.871   0.360  13.876  0.0502  0.3852 -0.5061
  567TMC3    O1 8419   3.051   0.146  14.298  0.4390  0.0656 -0.0070
  567TMC3    O2 8420   2.788   0.427  13.811  0.6693 -0.0070  0.4404
  568MPD2     C 8421   0.140   4.536  16.446  0.7318  0.3647 -0.6765
  568MPD2    C1 8422   0.054   4.619  16.510  0.0580  0.9505 -0.0144
  568MPD2    C2 8423   0.034   0.016  16.458  0.0186 -0.7428 -1.0398
  568MPD2    C3 8424   0.103   0.063  16.345  0.0724 -0.7407  0.2802
  568MPD2    C4 8425   0.199   4.709  16.291  0.6897 -0.7127  0.1452
  568MPD2    C5 8426   0.216   4.579  16.340 -0.1700 -0.0895  0.0435
  568MPD2     H 8427   4.701   0.080  16.521  3.4298 -0.2977  1.7951
  568MPD2    H1 8428   0.263   0.009  16.208  0.4705  2.2640  0.9225
  568MPD2    H2 8429   0.134   4.430  16.467  1.2396  0.2630 -1.0274
  568MPD2    H3 8430   0.273   4.505  16.286 -1.5517 -2.3107  1.6252
  568MPD2     N 8431   0.076   0.197  16.310  0.1960  0.0562  0.4777
  568MPD2    H5 8432   0.013   0.251  16.368 -0.2087  0.6432 -0.5048
  568MPD2    N1 8433   4.703   4.567  16.622  0.3193  0.0249 -0.2925
  568MPD2    H7 8434   4.713   4.470  16.650 -1.7454 -0.0511  0.1848
  569TMC3    C1 8435   0.075   0.385  16.166 -0.5042 -0.3766 -0.2935
  569TMC3    C2 8436   4.721   0.443  16.267  0.0936  0.3850  0.0336
  569TMC3    C3 8437   4.607   0.506  16.231  0.4535  0.8566  0.6199
  569TMC3    C4 8438   0.039   0.403  16.035 -0.6098  0.7049 -0.2445
  569TMC3    C5 8439   4.649   0.466  16.005  0.2320  0.4415  1.1625
  569TMC3    C6 8440   4.569   0.505  16.101  0.1172 -0.6079 -0.7598
  569TMC3     C 8441   0.126   0.250  16.191 -0.3813  0.2915  0.4289
  569TMC3     O 8442   0.190   0.205  16.098  0.2142 -0.0656  0.4193
  569TMC3     H 8443   0.030   0.445  16.370 -0.9504 -1.0960  0.4341
  569TMC3    H1 8444   0.105   0.358  15.962  2.6535  1.8058  2.0085
  569TMC3    H2 8445   4.465   0.527  16.079  0.3597 -0.0354 -1.3151
  569TMC3    C7 8446   4.646   0.537  15.880  0.3850 -0.4337 -0.3024
  569TMC3    C8 8447   4.566   0.634  16.289  0.1465 -0.1955 -0.2274
  569TMC3    O1 8448   4.719   0.499  15.788 -0.0289  0.1881  0.2619
  569TMC3    O2 8449   4.464   0.682  16.238 -0.1527  0.3089 -0.4073
  570TMC3    C1 8450   4.021   3.725  15.790  0.0449 -0.1862 -0.4152
  570TMC3    C2 8451   4.158   3.713  15.766 -0.6304 -0.2525 -0.1459
  570TMC3    C3 8452   4.221   3.824  15.722 -0.5082 -0.3092  0.8477
  570TMC3    C4 8453   3.949   3.837  15.762 -1.0979 -0.0122  0.0887
  570TMC3    C5 8454   4.024   3.942  15.717 -0.1665  0.2063  0.0887
  570TMC3    C6 8455   4.156   3.941  15.689 -0.0389 -0.6673  0.0142
  570TMC3     C 8456   3.969   3.629  15.881  0.0942 -0.4988 -0.0791
  570TMC3     O 8457   4.012   3.518  15.866  0.5631  0.2408 -0.6563
  570TMC3     H 8458   4.211   3.624  15.796  1.0381  0.3897 -1.1994
  570TMC3    H1 8459   3.841   3.835  15.772 -1.0428  0.2727  0.7388
  570TMC3    H2 8460   4.216   4.026  15.659  0.5874 -0.3590  2.1263
  570TMC3    C7 8461   3.962   4.067  15.683  0.0411  0.0189  0.8123
  570TMC3    C8 8462   4.363   3.824  15.695 -0.4419 -0.1142 -0.2219
  570TMC3    O1 8463   4.040   4.164  15.665  0.0900 -0.7923 -0.1916
  570TMC3    O2 8464   4.409   3.929  15.650 -0.4864 -0.2819  0.2899
  571MPD2     C 8465   2.213   0.756  17.391 -0.2376 -0.1650 -0.1735
  571MPD2    C1 8466   2.198   0.891  17.379 -0.7504  0.1321  0.3637
  571MPD2    C2 8467   2.269   0.978  17.457  0.1077 -0.1124  0.3561
  571MPD2    C3 8468   2.358   0.923  17.551  1.0668  0.1437  0.0019
  571MPD2    C4 8469   2.372   0.786  17.564  0.7335 -0.2315 -0.4659
  571MPD2    C5 8470   2.298   0.705  17.482 -0.2264  0.4212  1.1141
  571MPD2     H 8471   2.252   1.084  17.444 -3.3295 -0.6207  0.6605
  571MPD2    H1 8472   2.439   0.737  17.634  1.5875  1.1767 -0.3045
  571MPD2    H2 8473   2.160   0.701  17.314 -0.7599 -1.1295  0.8667
  571MPD2    H3 8474   2.304   0.597  17.490  0.6036  0.3757 -0.1110
  571MPD2     N 8475   2.421   1.005  17.643  0.1855 -0.4784  0.2615
  571MPD2    H5 8476   2.447   0.955   0.018  1.7832  0.0832  0.0985
  571MPD2    N1 8477   2.094   0.933  17.299 -0.0493 -0.2761  0.9086
  571MPD2    H7 8478   2.045   0.860  17.248  0.4932  0.5010 -0.7353
  572TMC3    C1 8479   2.407   1.200   0.066  0.2169  0.2185 -0.1346
  572TMC3    C2 8480   2.420   1.124   0.185  0.3934  0.3782  0.3502
  572TMC3    C3 8481   2.400   1.188   0.309  0.1791 -0.0809 -0.2208
  572TMC3    C4 8482   2.416   1.336   0.079  0.0148  0.1801  0.6321
  572TMC3    C5 8483   2.395   1.400   0.199  0.6169 -0.3827  0.4276
  572TMC3    C6 8484   2.387   1.325   0.318  0.1969  0.1176  0.2245
  572TMC3     C 8485   2.412   1.145  17.642  0.5292 -0.5090  0.2178
  572TMC3     O 8486   2.399   1.223  17.543 -0.0011 -0.1695  0.0860
  572TMC3     H 8487   2.426   1.016   0.179 -3.3163  0.1888  0.4393
  572TMC3    H1 8488   2.424   1.403  17.705 -3.1578  0.6452  0.6792
  572TMC3    H2 8489   2.387   1.374   0.415 -0.5248 -0.2248  0.4015
  572TMC3    C7 8490   2.373   1.544   0.197 -0.5228 -0.2988 -0.0727
  572TMC3    C8 8491   2.426   1.112   0.436  0.3025  0.0653 -0.7939
  572TMC3    O1 8492   2.415   1.603   0.098 -0.8417  0.0927  0.4295
  572TMC3    O2 8493   2.478   1.001   0.425  0.4131 -0.7472  0.1214
  573MPD2     C 8494   2.733   2.318   0.763  0.4755 -0.1353  0.1784
  573MPD2    C1 8495   2.873   2.320   0.771 -1.0050 -0.1088  0.7807
  573MPD2    C2 8496   2.944   2.386   0.671  0.2477  0.1580  0.5120
  573MPD2    C3 8497   2.882   2.439   0.560  0.1039  0.1668 -0.0828
  573MPD2    C4 8498   2.744   2.416   0.545 -0.3252  0.1462 -0.5063
  573MPD2    C5 8499   2.674   2.361   0.646  0.2804 -0.4271  0.1277
  573MPD2     H 8500   3.051   2.403   0.678  0.4914 -1.4020  0.6209
  573MPD2    H1 8501   2.691   2.458   0.460  0.8249  1.2519 -0.6755
  573MPD2    H2 8502   2.677   2.273   0.844 -0.5013  1.3544  0.3244
  573MPD2    H3 8503   2.566   2.363   0.648  0.1943 -2.9557 -1.6051
  573MPD2     N 8504   2.945   2.502   0.457 -0.1278  0.1129  0.5592
  573MPD2    H5 8505   2.897   2.498   0.368 -0.8566 -0.8520  1.0034
  573MPD2    N1 8506   2.944   2.269   0.883  0.0618 -0.0261 -0.3096
  573MPD2    H7 8507   3.043   2.288   0.884 -0.2999  1.8567 -0.0617
  574TMC3    C1 8508   3.150   2.588   0.347  0.2187 -0.7944 -0.1675
  574TMC3    C2 8509   3.102   2.557   0.225  0.4929  0.0563 -0.4377
  574TMC3    C3 8510   3.183   2.585   0.111 -0.7318  0.4724 -0.6391
  574TMC3    C4 8511   3.272   2.647   0.352 -0.4029 -0.1883  0.4644
  574TMC3    C5 8512   3.343   2.689   0.249 -0.3013 -0.0037 -0.0145
  574TMC3    C6 8513   3.299   2.655   0.126  0.3748 -1.1863 -0.3034
  574TMC3     C 8514   3.077   2.549   0.469 -0.2687  0.1047 -0.3448
  574TMC3     O 8515   3.145   2.581   0.564 -0.5371  0.4587  0.0446
  574TMC3     H 8516   3.027   2.479   0.222  0.5752  0.0239 -1.9526
  574TMC3    H1 8517   3.328   2.659   0.444  1.8449 -1.0666 -0.7778
  574TMC3    H2 8518   3.365   2.681   0.044  0.0915  1.6116  0.3569
  574TMC3    C7 8519   3.485   2.661   0.264  0.3769  0.2876  0.0482
  574TMC3    C8 8520   3.212   2.472   0.025 -0.5934  0.7208 -0.0272
  574TMC3    O1 8521   3.531   2.695   0.371  0.1752 -0.3688  0.6412
  574TMC3    O2 8522   3.333   2.444   0.016 -1.0743  0.2473  0.1241
  575TMC3    C1 8523   1.271   2.284  11.327  0.3556 -0.3600 -0.0177
  575TMC3    C2 8524   1.317   2.197  11.433  0.3354  0.0446 -0.0376
  575TMC3    C3 8525   1.303   2.061  11.413  0.1860 -1.0314 -0.1223
  575TMC3    C4 8526   1.214   2.237  11.216 -0.5801 -0.1262  0.1077
  575TMC3    C5 8527   1.198   2.098  11.213  0.2660  0.3900  0.2118
  575TMC3    C6 8528   1.248   2.014  11.303 -0.0978  0.5258 -0.1610
  575TMC3     C 8529   1.343   2.407  11.310  0.7176 -0.2513 -0.0812
  575TMC3     O 8530   1.369   2.474  11.412  0.1684  0.1034  0.0412
  575TMC3     H 8531   1.375   2.230  11.518  1.0823 -0.3754 -0.3858
  575TMC3    H1 8532   1.171   2.298  11.138 -0.4954 -0.2405 -0.0273
  575TMC3    H2 8533   1.234   1.906  11.306  1.3538  0.3318 -0.3692
  575TMC3    C7 8534   1.077   2.053  11.141 -0.4545 -0.7499 -0.0722
  575TMC3    C8 8535   1.366   1.971  11.506  0.0133  0.1449 -0.1993
  575TMC3    O1 8536   1.018   1.961  11.195 -0.0777 -0.5889  0.4285
  575TMC3    O2 8537   1.294   1.889  11.565 -0.3974  0.1398 -0.2805
  576MPD2     C 8538   0.729   3.596  12.562  0.1776 -0.3839 -0.3372
  576MPD2    C1 8539   0.690   3.690  12.469  0.0039 -0.7740 -0.5450
  576MPD2    C2 8540   0.593   3.786  12.499  0.1465 -0.3901  0.4133
  576MPD2    C3 8541   0.529   3.789  12.624  0.1998  0.2869 -1.2081
  576MPD2    C4 8542   0.572   3.696  12.719  0.9729  0.3781  0.5874
  576MPD2    C5 8543   0.667   3.602  12.682 -0.4956  0.0047  0.1156
  576MPD2     H 8544   0.570   3.866  12.429  0.0876 -1.4320 -0.7437
  576MPD2    H1 8545   0.530   3.689  12.819  1.1699 -0.7209  0.6022
  576MPD2    H2 8546   0.813   3.528  12.549  0.7186  0.4111 -1.0366
  576MPD2    H3 8547   0.697   3.521  12.747 -0.2004 -0.4194 -0.5513
  576MPD2     N 8548   0.431   3.881  12.656 -0.3653  0.0212  0.1386
  576MPD2    H5 8549   0.419   3.952  12.585  1.3067  1.4179  1.2794
  576MPD2    N1 8550   0.747   3.707  12.340 -0.2673 -0.5349  0.2730
  576MPD2    H7 8551   0.711   3.778  12.277  1.4361  0.4589  0.4382
  577TMC3    C1 8552   0.909   3.660  12.162  0.2403 -0.7930 -0.7256
  577TMC3    C2 8553   1.013   3.589  12.108 -0.0133 -0.7173  0.7636
  577TMC3    C3 8554   1.053   3.609  11.982 -0.4675  0.0739 -0.0874
  577TMC3    C4 8555   0.839   3.741  12.081 -0.4980 -0.8595  0.0577
  577TMC3    C5 8556   0.888   3.767  11.958 -0.0213  0.3748 -0.0501
  577TMC3    C6 8557   0.989   3.696  11.900 -0.6399  0.2303 -1.2347
  577TMC3     C 8558   0.845   3.621  12.288  0.3017  0.6606  0.1856
  577TMC3     O 8559   0.867   3.504  12.316  0.0381  0.2711 -0.5970
  577TMC3     H 8560   1.063   3.516  12.171  0.5282 -0.7304  0.3144
  577TMC3    H1 8561   0.755   3.800  12.115 -0.1236 -0.5074  0.3754
  577TMC3    H2 8562   1.009   3.696  11.794  1.7306  0.4277 -0.7951
  577TMC3    C7 8563   0.814   3.844  11.862 -0.4637 -0.5345  0.6323
  577TMC3    C8 8564   1.166   3.527  11.930  0.0636  0.7788 -0.1099
  577TMC3    O1 8565   0.692   3.844  11.885 -0.1174  0.2436  0.1315
  577TMC3    O2 8566   1.221   3.440  11.995 -0.1538  0.0636 -0.1183
  578MPD2     C 8567   2.268   4.535   1.118  0.6116 -0.0471 -0.0184
  578MPD2    C1 8568   2.335   4.442   1.049 -0.0457  1.2863  0.3567
  578MPD2    C2 8569   2.471   4.413   1.081  0.0012  0.5626 -0.1243
  578MPD2    C3 8570   2.545   4.486   1.171  0.2598 -0.5018 -0.1622
  578MPD2    C4 8571   2.468   4.578   1.241 -0.6149 -0.3159 -0.0809
  578MPD2    C5 8572   2.333   4.598   1.219 -0.0927  0.2964  0.8402
  578MPD2     H 8573   2.524   4.346   1.014 -2.4641  0.4180 -1.9225
  578MPD2    H1 8574   2.511   4.622   1.330 -0.8579  0.9348 -0.5791
  578MPD2    H2 8575   2.161   4.556   1.111  0.7128  0.8752  1.1852
  578MPD2    H3 8576   2.276   4.662   1.286 -1.8312 -0.9422  0.5640
  578MPD2     N 8577   2.682   4.463   1.206 -0.0814 -0.3879  0.5101
  578MPD2    H5 8578   2.719   4.381   1.159 -2.1365  1.0009 -3.5367
  578MPD2    N1 8579   2.264   4.363   0.951 -0.1526 -0.3563  0.0932
  578MPD2    H7 8580   2.165   4.384   0.948 -0.0317 -0.1442 -2.5767
  579TMC3    C1 8581   2.889   4.489   1.309 -0.1653  0.1493  0.1433
  579TMC3    C2 8582   2.992   4.578   1.324 -0.7740  0.0430  0.4879
  579TMC3    C3 8583   3.122   4.528   1.315  0.0581 -0.0369  0.1680
  579TMC3    C4 8584   2.913   4.355   1.282 -0.3885  0.5646  0.2939
  579TMC3    C5 8585   3.038   4.310   1.275  0.0961 -0.3524 -0.1673
  579TMC3    C6 8586   3.146   4.397   1.300 -0.3907  0.0829 -0.1925
  579TMC3     C 8587   2.756   4.545   1.291 -0.7233  0.4599 -0.7957
  579TMC3     O 8588   2.741   4.662   1.319  0.4398 -0.0048  0.3620
  579TMC3     H 8589   2.965   4.682   1.341 -1.0528  0.1989 -0.8878
  579TMC3    H1 8590   2.825   4.293   1.273  1.2522 -1.5858 -0.8859
  579TMC3    H2 8591   3.244   4.352   1.284  0.6404  2.1446  0.3931
  579TMC3    C7 8592   3.070   4.172   1.250 -0.2340 -0.6219 -0.4732
  579TMC3    C8 8593   3.209   4.637   1.275  1.0045 -0.3740 -0.1732
  579TMC3    O1 8594   3.187   4.143   1.244  0.3876  0.0644  0.0431
  579TMC3    O2 8595   3.186   0.020   1.329  0.6002  0.2650  0.0957
  580TMC3    C1 8596   3.192   3.008  12.046  0.0756 -0.3055 -0.7485
  580TMC3    C2 8597   3.310   3.079  12.045 -0.3123 -0.2592 -0.7857
  580TMC3    C3 8598   3.422   3.008  12.077 -0.7226 -0.5659 -0.1512
  580TMC3    C4 8599   3.185   2.881  12.083 -0.1247 -0.5146  0.5094
  580TMC3    C5 8600   3.294   2.818  12.127  0.0158  0.2859  0.4012
  580TMC3    C6 8601   3.418   2.877  12.122 -0.1013  0.1262  0.0442
  580TMC3     C 8602   3.080   3.071  11.976 -0.3806  0.3374 -0.1477
  580TMC3     O 8603   2.967   3.017  11.996  0.0371  0.1720 -0.4789
  580TMC3     H 8604   3.306   3.184  12.021  0.1496 -0.1346 -0.3322
  580TMC3    H1 8605   3.089   2.830  12.076 -0.3513 -0.2083  1.3089
  580TMC3    H2 8606   3.512   2.826  12.136  1.0253  2.1067 -0.2211
  580TMC3    C7 8607   3.289   2.683  12.162  0.1067 -0.0845  0.2085
  580TMC3    C8 8608   3.534   3.042  11.995  0.4473 -0.3523  0.0811
  580TMC3    O1 8609   3.205   2.612  12.113 -0.1204  0.2957 -0.2035
  580TMC3    O2 8610   3.613   2.954  11.964 -0.1000  0.3662 -0.2154
  581MPD2     C 8611   1.509   2.309  14.841  0.7405  0.2866 -0.5596
  581MPD2    C1 8612   1.437   2.352  14.946 -0.1718 -0.9452  0.7407
  581MPD2    C2 8613   1.321   2.442  14.924 -0.1765 -0.2342  0.1838
  581MPD2    C3 8614   1.283   2.474  14.793 -0.3195  0.3680 -0.0536
  581MPD2    C4 8615   1.356   2.418  14.696 -0.8764  0.6181 -0.1255
  581MPD2    C5 8616   1.464   2.334  14.718 -0.4154 -0.5365 -0.2483
  581MPD2     H 8617   1.274   2.501  15.002 -0.4606 -0.9826  0.5753
  581MPD2    H1 8618   1.324   2.418  14.593 -2.4286  0.5476  0.3529
  581MPD2    H2 8619   1.588   2.238  14.863 -1.0676 -1.7349 -0.6378
  581MPD2    H3 8620   1.514   2.279  14.639  0.1001  1.5517 -1.3679
  581MPD2     N 8621   1.168   2.557  14.766 -0.1513  0.5026 -0.3717
  581MPD2    H5 8622   1.124   2.606  14.843  2.9836 -3.2701  3.8801
  581MPD2    N1 8623   1.466   2.307  15.073 -0.0856  0.1273 -0.3524
  581MPD2    H7 8624   1.538   2.237  15.087 -1.2705 -1.1596 -0.6175
  582TMC3    C1 8625   1.437   2.257  15.302 -0.0245  0.1117 -0.5485
  582TMC3    C2 8626   1.462   2.327  15.414  0.1187  0.2489 -0.0357
  582TMC3    C3 8627   1.390   2.294  15.527 -0.4020 -0.6006  0.3693
  582TMC3    C4 8628   1.334   2.164  15.312  0.3148  0.4172 -0.0047
  582TMC3    C5 8629   1.245   2.160  15.419 -0.0050  0.1245 -0.0666
  582TMC3    C6 8630   1.272   2.234  15.527  0.4753  0.7998 -0.1564
  582TMC3     C 8631   1.414   2.351  15.190  0.4913 -0.7539  0.2309
  582TMC3     O 8632   1.318   2.423  15.208 -0.0887 -0.4455 -0.2965
  582TMC3     H 8633   1.540   2.401  15.424  0.4002  0.1204 -1.3760
  582TMC3    H1 8634   1.300   2.111  15.224  1.9412  0.9017 -0.9178
  582TMC3    H2 8635   1.215   2.216  15.617  2.7225  0.8901  1.2638
  582TMC3    C7 8636   1.106   2.159  15.375  0.3714  0.1408  0.0470
  582TMC3    C8 8637   1.447   2.338  15.652  0.1027  0.1007  0.4139
  582TMC3    O1 8638   1.033   2.063  15.401  0.1425  0.4147  0.1095
  582TMC3    O2 8639   1.376   2.330  15.750  0.0731  0.4434  0.4111
  583MPD2     C 8640   0.976   4.321  16.516  0.0845 -0.8147  0.3623
  583MPD2    C1 8641   1.061   4.416  16.451  0.6786 -0.1182  0.0637
  583MPD2    C2 8642   1.027   4.545  16.466 -0.0743 -0.0345  0.7416
  583MPD2    C3 8643   0.916   4.580  16.541  0.0551  0.0302  0.0195
  583MPD2    C4 8644   0.828   4.484  16.592  0.5543 -0.6552  0.3950
  583MPD2    C5 8645   0.862   4.353  16.582 -0.0558 -0.5513 -0.3124
  583MPD2     H 8646   1.091   4.619  16.419  0.3304  0.8188  2.6399
  583MPD2    H1 8647   0.730   4.512  16.631  1.1289 -1.0108  2.0993
  583MPD2    H2 8648   0.992   4.214  16.520  1.5096 -0.6216  0.0090
  583MPD2    H3 8649   0.806   4.266  16.616 -0.3714 -0.6229 -1.0238
  583MPD2     N 8650   0.906   4.721  16.572  0.1680  0.1964  0.1124
  583MPD2    H5 8651   0.975   0.057  16.534 -0.9502  1.9870  1.0368
  583MPD2    N1 8652   1.183   4.380  16.378 -0.6760  0.0892  0.2754
  583MPD2    H7 8653   1.230   4.454  16.328 -0.2441  0.9630  1.9809
  584TMC3    C1 8654   0.809   0.201  16.663  0.4608  0.3056  0.3604
  584TMC3    C2 8655   0.893   0.275  16.590 -0.2482  0.4544 -0.1162
  584TMC3    C3 8656   0.906   0.408  16.621  0.3666  0.7226 -0.2556
  584TMC3    C4 8657   0.728   0.249  16.765  0.0476 -0.4960 -0.2178
  584TMC3    C5 8658   0.731   0.384  16.778 -0.0770 -0.1162  0.5596
  584TMC3    C6 8659   0.818   0.464  16.709  1.0097 -0.3157 -0.6541
  584TMC3     C 8660   0.810   0.054  16.658  1.1782 -0.6350  0.1082
  584TMC3     O 8661   0.738   4.721  16.735  1.0564 -0.0798 -0.2249
  584TMC3     H 8662   0.956   0.235  16.512  0.9314  0.1360  1.0125
  584TMC3    H1 8663   0.662   0.183  16.820 -0.9222 -1.0904 -2.1161
  584TMC3    H2 8664   0.796   0.570  16.696 -2.4791 -1.1696 -1.8175
  584TMC3    C7 8665   0.632   0.440  16.869  0.1606  0.2063  0.0584
  584TMC3    C8 8666   0.985   0.482  16.530  0.3369 -0.8370  0.2151
  584TMC3    O1 8667   0.549   0.360  16.909  0.2323  0.7202 -0.4634
  584TMC3    O2 8668   1.030   0.420  16.439  0.7825 -0.6748 -0.1966
  585MPD2     C 8669   4.686   3.778   0.803  0.7200 -0.0206 -0.2695
  585MPD2    C1 8670   4.718   3.699   0.697  0.2584 -0.2620 -0.3150
  585MPD2    C2 8671   0.053   3.577   0.723  0.5713 -0.8315 -0.4767
  585MPD2    C3 8672   0.080   3.531   0.847 -0.6213  0.1299  0.4932
  585MPD2    C4 8673   0.053   3.612   0.946 -0.1237 -0.5261 -0.7634
  585MPD2    C5 8674   4.725   3.733   0.926  1.0268  0.3985  0.0177
  585MPD2     H 8675   0.068   3.510   0.639 -2.6139 -1.6520 -0.4102
  585MPD2    H1 8676   0.074   3.576   1.047  0.4243  0.5164 -0.5080
  585MPD2    H2 8677   4.641   3.876   0.792  1.3549  0.5350  2.0155
  585MPD2    H3 8678   4.708   3.795   1.013  1.1451 -1.6495  1.5071
  585MPD2     N 8679   0.137   3.403   0.873 -0.3187  0.2562 -0.1588
  585MPD2    H5 8680   0.170   3.389   0.968 -1.0915 -0.4825  0.0049
  585MPD2    N1 8681   4.682   3.751   0.574 -0.4529 -0.6996  0.5737
  585MPD2    H7 8682   4.629   3.837   0.565 -1.5777 -1.3031  1.4239
  586TMC3    C1 8683   0.266   3.206   0.847 -0.2012 -0.3183 -0.4633
  586TMC3    C2 8684   0.375   3.177   0.761  0.3217  0.0825  0.3406
  586TMC3    C3 8685   0.401   3.043   0.739  0.0247  1.0014  0.3051
  586TMC3    C4 8686   0.185   3.105   0.901  0.7594  0.8575 -0.7666
  586TMC3    C5 8687   0.210   2.971   0.874  0.2742 -0.2198  0.3400
  586TMC3    C6 8688   0.326   2.939   0.801  0.2183 -0.1783  0.1499
  586TMC3     C 8689   0.190   3.316   0.786 -0.4701 -0.0975  0.0278
  586TMC3     O 8690   0.204   3.322   0.662 -0.5561 -0.2487 -0.2905
  586TMC3     H 8691   0.433   3.252   0.708  0.2720  1.3518  2.0848
  586TMC3    H1 8692   0.091   3.141   0.942  1.3928 -0.4345  1.8407
  586TMC3    H2 8693   0.363   2.839   0.784  1.7937  0.6219 -1.0824
  586TMC3    C7 8694   0.090   2.898   0.836 -0.6439 -0.4816  0.0192
  586TMC3    C8 8695   0.461   3.012   0.612 -0.1679 -0.0695  0.2501
  586TMC3    O1 8696   4.725   2.970   0.808  0.3553 -0.5678 -0.5611
  586TMC3    O2 8697   0.509   2.902   0.594  0.8793  0.6357 -0.1101
  587TMC3    C1 8698   2.855   2.026  16.933 -0.5430  0.2967  0.5775
  587TMC3    C2 8699   2.808   2.155  16.967  0.2523 -0.1108 -0.0852
  587TMC3    C3 8700   2.895   2.253  17.008  0.9024  1.0959 -0.2302
  587TMC3    C4 8701   2.991   2.013  16.928 -0.9294 -0.1842 -0.0255
  587TMC3    C5 8702   3.071   2.110  16.974 -0.3479  0.2023  0.7458
  587TMC3    C6 8703   3.026   2.221  17.023  0.3035 -0.0717  0.1692
  587TMC3     C 8704   2.772   1.932  16.861 -0.7786  0.1726 -0.6258
  587TMC3     O 8705   2.824   1.836  16.800 -0.3998  0.2198 -0.0914
  587TMC3     H 8706   2.701   2.170  16.965  0.3910  1.1664  2.9843
  587TMC3    H1 8707   3.030   1.938  16.861  1.1094 -0.0187  0.9881
  587TMC3    H2 8708   3.090   2.302  17.057 -0.6572  1.0872 -0.8051
  587TMC3    C7 8709   3.212   2.088  16.955 -0.5258  0.0188  0.0399
  587TMC3    C8 8710   2.883   2.368  16.922  0.2477 -0.1211 -0.1000
  587TMC3    O1 8711   3.271   2.184  16.906 -0.1477 -0.0502 -0.3090
  587TMC3    O2 8712   2.986   2.405  16.867 -0.7079  0.2389  0.4354
  588TMC3    C1 8713   0.222   4.611   9.734 -0.3483 -0.1199 -0.0244
  588TMC3    C2 8714   0.180   4.484   9.736  0.1108  0.3908 -0.8676
  588TMC3    C3 8715   0.268   4.395   9.798 -0.3623 -0.3223 -0.2981
  588TMC3    C4 8716   0.347   4.649   9.781 -0.4621  0.6582 -0.3808
  588TMC3    C5 8717   0.424   4.561   9.849 -0.7262  0.0298 -0.2816
  588TMC3    C6 8718   0.387   4.432   9.853 -0.1492 -0.3867 -0.2244
  588TMC3     C 8719   0.126   4.716   9.718  0.2290 -0.7452  0.7221
  588TMC3     O 8720   0.045   4.719   9.628 -0.7911 -0.1651  0.0483
  588TMC3     H 8721   0.074   4.467   9.718  0.0571  1.4883 -1.5735
  588TMC3    H1 8722   0.379   0.024   9.770 -0.0065  0.6768  1.0662
  588TMC3    H2 8723   0.448   4.364   9.912  0.8933 -0.0774 -0.9454
  588TMC3    C7 8724   0.531   4.603   9.944  0.8049 -0.2340 -0.2835
  588TMC3    C8 8725   0.208   4.270   9.820  0.0587  0.1427 -0.0780
  588TMC3    O1 8726   0.596   4.515  10.000 -0.6013 -0.2867  0.3490
  588TMC3    O2 8727   0.086   4.274   9.828 -0.2028 -0.0022  0.1746
  589TMC3    C1 8728   3.495   2.897   1.349 -1.0682 -0.3407 -0.5788
  589TMC3    C2 8729   3.604   2.911   1.435 -0.0836  0.9005  0.0518
  589TMC3    C3 8730   3.730   2.880   1.393  0.0958 -0.0214  0.7514
  589TMC3    C4 8731   3.513   2.861   1.218  0.7041  0.6646 -0.5245
  589TMC3    C5 8732   3.641   2.831   1.179 -0.3261 -0.1678  0.0775
  589TMC3    C6 8733   3.744   2.840   1.270  0.0405 -0.0327 -0.0007
  589TMC3     C 8734   3.358   2.922   1.385  0.2652  0.9071  0.0236
  589TMC3     O 8735   3.278   2.932   1.296 -0.4590 -0.4058 -0.0556
  589TMC3     H 8736   3.579   2.954   1.532 -2.0919  2.6130 -1.2206
  589TMC3    H1 8737   3.430   2.844   1.150 -1.3158 -0.5797  2.2674
  589TMC3    H2 8738   3.842   2.810   1.235 -0.9637  0.9837 -3.7019
  589TMC3    C7 8739   3.675   2.798   1.039  0.4383  0.7010  0.4099
  589TMC3    C8 8740   3.833   2.887   1.498  0.1547  0.7845 -0.3408
  589TMC3    O1 8741   3.600   2.723   0.979 -0.0767  0.3345 -0.1049
  589TMC3    O2 8742   3.812   2.947   1.604 -0.0632 -0.0270 -0.4488
  590MPD2     C 8743   3.547   4.624  16.255  0.1450  0.1829 -0.3343
  590MPD2    C1 8744   3.491   4.701  16.154  0.1943 -0.5017 -0.2830
  590MPD2    C2 8745   3.577   0.034  16.056  0.3072  0.1531  1.2969
  590MPD2    C3 8746   3.713   0.028  16.070  0.6241 -0.1147  0.7390
  590MPD2    C4 8747   3.761   4.686  16.177 -0.1986  0.1551 -0.5263
  590MPD2    C5 8748   3.676   4.620  16.260 -0.0903 -0.2572  0.0856
  590MPD2     H 8749   3.538   0.107  15.985  1.9396  0.5710  0.8062
  590MPD2    H1 8750   3.867   4.686  16.200  0.3834  0.0652 -3.1529
  590MPD2    H2 8751   3.490   4.558  16.319 -0.3236  1.7400  0.8506
  590MPD2    H3 8752   3.731   4.558  16.330  1.9787  1.7680  0.2674
  590MPD2     N 8753   3.794   0.106  15.982  0.4662 -0.5666  0.4838
  590MPD2    H5 8754   3.746   0.151  15.905  0.3898 -2.4049 -0.5529
  590MPD2    N1 8755   3.348   0.009  16.151 -0.5935  0.4395  0.2704
  590MPD2    H7 8756   3.312   0.039  16.061  2.1339  0.4268 -0.8301
  591TMC3    C1 8757   3.977   0.208  15.879  1.1071  0.5603 -1.2732
  591TMC3    C2 8758   4.110   0.198  15.843  0.1895  0.3067 -0.4207
  591TMC3    C3 8759   4.167   0.287  15.763  0.1457 -0.3145 -0.3441
  591TMC3    C4 8760   3.901   0.310  15.830  0.1173 -0.7098 -1.0383
  591TMC3    C5 8761   3.960   0.395  15.749  0.5195  1.1417  0.0098
  591TMC3    C6 8762   4.096   0.394  15.716  0.3613 -0.0435 -0.2339
  591TMC3     C 8763   3.930   0.132  15.990  0.4050  0.4849 -0.5770
  591TMC3     O 8764   4.013   0.083  16.063 -0.5410 -0.2093 -0.0491
  591TMC3     H 8765   4.175   0.121  15.883 -0.6606 -0.2634 -0.1622
  591TMC3    H1 8766   3.796   0.328  15.847  0.3488  0.0228 -0.3933
  591TMC3    H2 8767   4.128   0.450  15.628  0.1032  0.3503 -0.0755
  591TMC3    C7 8768   3.883   0.510  15.716 -0.3229 -0.3779  0.5795
  591TMC3    C8 8769   4.298   0.272  15.715  0.1869 -0.3393  0.0833
  591TMC3    O1 8770   3.762   0.495  15.694 -0.1673 -0.5323  0.0167
  591TMC3    O2 8771   4.348   0.161  15.714 -0.1677  0.0343  0.1926
  592MPD2     C 8772   4.181   2.480  11.109 -0.0243  0.0492 -0.2609
  592MPD2    C1 8773   4.208   2.530  11.234  0.5804  0.0135 -0.4240
  592MPD2    C2 8774   4.171   2.450  11.346 -0.6966 -0.3869  0.3502
  592MPD2    C3 8775   4.116   2.328  11.327  0.4313 -0.8080 -0.7358
  592MPD2    C4 8776   4.117   2.270  11.205 -0.3748 -0.5418  0.1252
  592MPD2    C5 8777   4.152   2.341  11.095  0.3520  0.0299  0.2956
  592MPD2     H 8778   4.182   2.490  11.446 -3.6284 -0.3302  0.6303
  592MPD2    H1 8779   4.073   2.172  11.187 -0.2968 -0.4116 -0.7976
  592MPD2    H2 8780   4.197   2.541  11.021 -0.2094  3.4104  2.0625
  592MPD2    H3 8781   4.136   2.292  11.000 -1.6365  0.1190  0.5694
  592MPD2     N 8782   4.060   2.261  11.438 -0.3666 -0.6057  0.0259
  592MPD2    H5 8783   4.074   2.305  11.529 -2.9511  0.6666 -0.1832
  592MPD2    N1 8784   4.287   2.647  11.248 -0.0632  0.0420 -0.2528
  592MPD2    H7 8785   4.326   2.682  11.161 -0.6500  1.4932  0.0646
  593TMC3    C1 8786   4.413   2.827  11.328 -0.8468 -0.2656  0.4628
  593TMC3    C2 8787   4.433   2.917  11.429  0.6817  0.0084  0.1913
  593TMC3    C3 8788   4.539   3.003  11.433 -0.3519  1.0204  0.1850
  593TMC3    C4 8789   4.496   2.828  11.220 -0.2398 -0.2664 -0.1216
  593TMC3    C5 8790   4.604   2.913  11.221 -0.3418  0.6623 -0.0934
  593TMC3    C6 8791   4.629   3.002  11.327 -0.2467  0.4546 -0.4531
  593TMC3     C 8792   4.325   2.715  11.361  0.3162  0.5288 -0.3400
  593TMC3     O 8793   4.284   2.705  11.473  0.2402 -0.3127  0.3828
  593TMC3     H 8794   4.366   2.905  11.513  1.0996  0.4230  0.5847
  593TMC3    H1 8795   4.505   2.750  11.145 -2.7913 -0.2686 -0.4463
  593TMC3    H2 8796   4.707   3.076  11.315  1.6334 -1.1578  1.7322
  593TMC3    C7 8797   4.675   2.946  11.101  0.2146 -0.3740  0.2418
  593TMC3    C8 8798   4.523   3.125  11.506 -0.5305 -0.6563 -0.3430
  593TMC3    O1 8799   0.050   3.014  11.109  0.0256  0.1457  0.0735
  593TMC3    O2 8800   4.407   3.169  11.517 -1.1749 -0.1233 -0.3464
  594MPD2     C 8801   3.146   0.634  14.813  0.5421 -0.1467  0.4196
  594MPD2    C1 8802   3.046   0.694  14.747  0.2544 -0.2774 -0.3554
  594MPD2    C2 8803   3.064   0.825  14.704  0.0148  0.4749  0.1075
  594MPD2    C3 8804   3.185   0.892  14.716 -0.0680 -0.2064  0.0241
  594MPD2    C4 8805   3.290   0.830  14.785 -0.5095 -0.3339 -0.6610
  594MPD2    C5 8806   3.269   0.703  14.821  0.3766  0.3442  0.5919
  594MPD2     H 8807   2.986   0.880  14.653 -0.0494  0.1515 -0.1450
  594MPD2    H1 8808   3.386   0.875  14.811 -0.7357 -1.0611  1.4639
  594MPD2    H2 8809   3.135   0.534  14.853  2.4672 -0.2955  0.5780
  594MPD2    H3 8810   3.359   0.654  14.857 -0.3928  0.7876  3.1074
  594MPD2     N 8811   3.202   1.025  14.671  0.0521 -0.5408 -0.2797
  594MPD2    H5 8812   3.129   1.084  14.632  0.0449 -1.2623 -1.3478
  594MPD2    N1 8813   2.922   0.623  14.738  0.5508  0.5004 -0.2109
  594MPD2    H7 8814   2.907   0.543  14.799 -3.1712  1.5689  0.2979
  595TMC3    C1 8815   3.445   1.302  14.386  0.3443 -0.6135 -0.0556
  595TMC3    C2 8816   3.437   1.192  14.473  0.2222  0.5639 -0.4061
  595TMC3    C3 8817   3.325   1.182  14.554 -0.4922  0.6156 -0.1256
  595TMC3    C4 8818   3.352   1.408  14.397 -0.3393 -0.7080  0.2099
  595TMC3    C5 8819   3.246   1.393  14.478  0.2489  0.5249  0.3706
  595TMC3    C6 8820   3.230   1.280  14.558 -0.0789 -0.3489  0.0650
  595TMC3     C 8821   3.568   1.377  14.397  0.6498 -0.0292 -0.4222
  595TMC3     O 8822   3.556   1.478  14.462 -0.0900  0.0006  0.2382
  595TMC3     H 8823   3.510   1.113  14.487  1.9100  1.8770 -1.7966
  595TMC3    H1 8824   3.357   1.499  14.338  1.1828 -1.0654 -0.2174
  595TMC3    H2 8825   3.153   1.286  14.634 -0.6654  1.8730 -0.6882
  595TMC3    C7 8826   3.227   1.516  14.556  0.3912  0.5634 -0.0816
  595TMC3    C8 8827   3.325   1.082  14.660 -0.1227  1.2106 -0.6887
  595TMC3    O1 8828   3.113   1.541  14.599 -0.2918  0.4933 -0.3030
  595TMC3    O2 8829   3.436   1.032  14.682 -0.0537 -0.3022  0.4569
  596MPD2     C 8830   1.903   4.256  17.072 -0.3870 -0.3035  0.0000
  596MPD2    C1 8831   1.911   4.356  16.986 -0.1241 -0.5245 -0.0439
  596MPD2    C2 8832   1.962   4.337  16.857 -0.4985  0.3649 -0.5076
  596MPD2    C3 8833   1.997   4.209  16.812 -0.7860 -0.2302 -0.3821
  596MPD2    C4 8834   1.979   4.098  16.902  0.1870 -0.0579 -0.1214
  596MPD2    C5 8835   1.932   4.126  17.031 -0.7546 -0.3630 -0.1902
  596MPD2     H 8836   1.975   4.422  16.792  2.4699  1.0148  0.9265
  596MPD2    H1 8837   2.005   3.997  16.871  0.6949 -0.0537  0.2817
  596MPD2    H2 8838   1.868   4.269  17.174 -0.4765 -0.1516 -0.0521
  596MPD2    H3 8839   1.927   4.041  17.097  3.0243 -1.0700 -0.8326
  596MPD2     N 8840   2.053   4.180  16.684 -0.4299 -0.0271  0.8663
  596MPD2    H5 8841   2.060   4.081  16.664  0.5723  0.3154 -0.4371
  596MPD2    N1 8842   1.871   4.487  17.019  0.3567 -0.1102  0.3589
  596MPD2    H7 8843   1.889   4.553  16.944  1.5493 -2.3658 -1.3337
  597TMC3    C1 8844   1.807   4.679  17.118  0.4090 -0.3249  0.1846
  597TMC3    C2 8845   1.889   0.031  17.042  0.2094 -0.6823  0.4683
  597TMC3    C3 8846   1.868   0.165  17.053  0.0448 -0.2061  0.5549
  597TMC3    C4 8847   1.697   0.001  17.177 -0.5736  1.1664  0.2049
  597TMC3    C5 8848   1.677   0.132  17.172  0.4627  0.2509  0.5982
  597TMC3    C6 8849   1.763   0.217  17.117 -0.3902  0.5151  0.4692
  597TMC3     C 8850   1.824   4.543  17.136  0.1056  0.0429 -0.5110
  597TMC3     O 8851   1.763   4.485  17.222  0.0936 -0.1002 -0.0996
  597TMC3     H 8852   1.982   4.724  16.999  0.5452 -1.8930  2.1910
  597TMC3    H1 8853   1.625   4.664  17.226 -0.2030  1.0109  0.5474
  597TMC3    H2 8854   1.748   0.323  17.132  1.5452  1.0003 -1.0023
  597TMC3    C7 8855   1.538   0.152  17.164  0.2473 -0.3374 -0.3880
  597TMC3    C8 8856   1.967   0.260  16.997  0.1692 -0.0198  0.0665
  597TMC3    O1 8857   1.457   0.075  17.216 -0.3642 -0.1115 -1.4093
  597TMC3    O2 8858   1.918   0.370  16.979  0.3329  0.1445  0.2123
  598TMC3    C1 8859   0.375   1.445  15.223 -0.1549 -0.6810  0.2062
  598TMC3    C2 8860   0.374   1.321  15.274  0.2111  0.7707 -0.1971
  598TMC3    C3 8861   0.348   1.217  15.191 -0.0232  0.4948 -0.5328
  598TMC3    C4 8862   0.369   1.463  15.088  0.5515 -0.5922 -0.0326
  598TMC3    C5 8863   0.345   1.361  15.004  0.1515  0.2463  0.1550
  598TMC3    C6 8864   0.327   1.234  15.056 -0.2456  0.4084 -0.2553
  598TMC3     C 8865   0.442   1.545  15.300  0.1880  0.3777 -0.7347
  598TMC3     O 8866   0.512   1.497  15.388 -0.1648 -0.4876  0.5129
  598TMC3     H 8867   0.385   1.303  15.381  1.2274 -0.9558 -0.6078
  598TMC3    H1 8868   0.374   1.565  15.051 -0.2061 -0.5877 -0.1080
  598TMC3    H2 8869   0.347   1.152  14.988  1.4812 -0.9786  1.9048
  598TMC3    C7 8870   0.370   1.376  14.852  0.1969 -0.3543  0.0872
  598TMC3    C8 8871   0.322   1.086  15.244 -0.8080 -0.0502 -0.0716
  598TMC3    O1 8872   0.354   1.271  14.789  0.0028  0.2206  0.0141
  598TMC3    O2 8873   0.244   1.017  15.182  0.7385 -0.1822  0.3583
  599MPD2     C 8874   0.473   3.542  16.059  0.3406  0.5739 -0.4889
  599MPD2    C1 8875   0.414   3.438  15.994  0.0863  0.5893  0.6209
  599MPD2    C2 8876   0.277   3.420  16.000  0.3861  0.4008  0.9697
  599MPD2    C3 8877   0.201   3.509  16.070 -0.4871 -0.3728  0.3743
  599MPD2    C4 8878   0.265   3.610  16.144  0.4279 -0.0549  0.2870
  599MPD2    C5 8879   0.399   3.630  16.131  0.2978 -0.2453  0.0147
  599MPD2     H 8880   0.237   3.337  15.943 -0.9505 -0.2708  2.8600
  599MPD2    H1 8881   0.218   3.681  16.211  0.0904  1.6124 -1.6853
  599MPD2    H2 8882   0.581   3.551  16.065  0.3063  3.3098 -4.0557
  599MPD2    H3 8883   0.450   3.702  16.194  0.8486  0.0824 -0.8061
  599MPD2     N 8884   0.058   3.505  16.074  0.7064  0.2759 -0.6608
  599MPD2    H5 8885   0.015   3.576  16.132 -1.3278 -0.0062 -1.8514
  599MPD2    N1 8886   0.498   3.348  15.927  0.4489  0.6809 -0.1154
  599MPD2    H7 8887   0.597   3.364  15.940  0.9853 -2.3725 -0.4451
  600TMC3    C1 8888   4.574   3.425  16.049 -0.4875 -0.1734 -0.1669
  600TMC3    C2 8889   4.493   3.315  16.079 -0.2613  0.1672  0.0684
  600TMC3    C3 8890   4.362   3.325  16.105  0.6413  0.0175 -0.5193
  600TMC3    C4 8891   4.521   3.547  16.056  0.5029 -0.1848 -0.0028
  600TMC3    C5 8892   4.387   3.562  16.075 -0.2034  0.0704 -0.3146
  600TMC3    C6 8893   4.303   3.453  16.106 -0.3435 -0.5135  0.0041
  600TMC3     C 8894   4.711   3.401  16.024  0.4580 -0.1359  0.0119
  600TMC3     O 8895   0.020   3.304  15.953  0.1296 -0.1128 -0.0457
  600TMC3     H 8896   4.538   3.223  16.042  1.9047  1.3959 -0.3864
  600TMC3    H1 8897   4.584   3.627  16.019  1.9511 -1.1862  0.3101
  600TMC3    H2 8898   4.196   3.465  16.118 -0.1626  1.6254 -0.5530
  600TMC3    C7 8899   4.335   3.698  16.082 -0.2569 -0.0170  0.0109
  600TMC3    C8 8900   4.306   3.207  16.163 -0.0516 -0.0289  0.7730
  600TMC3    O1 8901   4.213   3.712  16.081 -0.3400  1.1231 -0.7714
  600TMC3    O2 8902   4.377   3.139  16.233 -0.0780  0.8527 -0.3875
  601MPD2     C 8903   2.183   1.949   0.416 -0.3582  0.3922 -0.0856
  601MPD2    C1 8904   2.209   1.923   0.284  0.5601  0.2702  0.2450
  601MPD2    C2 8905   2.270   1.807   0.242  0.4151 -0.2738  0.3522
  601MPD2    C3 8906   2.300   1.720   0.339  0.0367 -0.6056  0.2940
  601MPD2    C4 8907   2.282   1.743   0.473  0.3374 -0.0806  0.0564
  601MPD2    C5 8908   2.223   1.861   0.514 -0.8500 -0.1960  0.1148
  601MPD2     H 8909   2.286   1.777   0.139 -3.1378 -0.3106 -0.2021
  601MPD2    H1 8910   2.295   1.664   0.545  1.4087 -0.2219 -0.2941
  601MPD2    H2 8911   2.129   2.038   0.446 -1.2481 -0.2983  0.3599
  601MPD2    H3 8912   2.190   1.885   0.615  1.5316  1.0044  0.5912
  601MPD2     N 8913   2.324   1.583   0.318 -0.1565  0.1431 -0.0206
  601MPD2    H5 8914   2.311   1.525   0.400  0.6320 -0.6343 -0.4455
  601MPD2    N1 8915   2.175   2.005   0.180  0.3914 -0.0888  0.0143
  601MPD2    H7 8916   2.195   1.966   0.089 -0.6782 -0.9454  0.1462
  602TMC3    C1 8917   2.081   2.170   0.051 -0.0292  0.4028 -0.2001
  602TMC3    C2 8918   2.171   2.119  17.664 -0.6827  0.1380  0.3365
  602TMC3    C3 8919   2.128   2.096  17.538  0.4699 -0.5139 -0.8196
  602TMC3    C4 8920   1.947   2.190   0.019  0.2298  0.3280 -0.4513
  602TMC3    C5 8921   1.909   2.166  17.605  0.3674  0.3857  0.0396
  602TMC3    C6 8922   1.996   2.121  17.509 -0.4103 -0.5173 -0.3966
  602TMC3     C 8923   2.091   2.108   0.182 -1.1285 -0.1207  0.3400
  602TMC3     O 8924   2.007   2.147   0.260 -0.6417  0.2986 -0.5155
  602TMC3     H 8925   2.278   2.118  17.686 -0.7442  1.5717  0.7584
  602TMC3    H1 8926   1.875   2.211   0.097  2.9009 -1.6355  2.5697
  602TMC3    H2 8927   1.956   2.085  17.415 -1.1415  0.4315 -0.4470
  602TMC3    C7 8928   1.779   2.202  17.561 -0.0276  0.2170  0.1184
  602TMC3    C8 8929   2.234   2.108  17.436 -0.0410  0.4192  0.2764
  602TMC3    O1 8930   1.680   2.204  17.628  0.2812  0.2670 -0.2315
  602TMC3    O2 8931   2.349   2.082  17.460  0.3343  0.0053 -0.6848
  603TMC3    C1 8932   0.434   2.302  10.782 -0.4872  0.4743 -0.0032
  603TMC3    C2 8933   0.512   2.307  10.896  0.3348 -0.4763  0.0013
  603TMC3    C3 8934   0.636   2.368  10.879  0.3595  1.1738  0.2409
  603TMC3    C4 8935   0.479   2.334  10.659 -0.1219 -0.1721  0.0212
  603TMC3    C5 8936   0.603   2.385  10.645  0.1952 -0.1531  0.4615
  603TMC3    C6 8937   0.677   2.415  10.754 -0.2484  0.4008  0.1552
  603TMC3     C 8938   0.303   2.242  10.772 -0.2336 -0.4711 -0.3047
  603TMC3     O 8939   0.234   2.273  10.680 -0.1463 -0.4336 -0.3021
  603TMC3     H 8940   0.467   2.294  10.995  1.5408 -3.2644  0.1798
  603TMC3    H1 8941   0.422   2.314  10.569 -0.9540 -1.2932  0.7945
  603TMC3    H2 8942   0.782   2.444  10.745 -0.3600  0.5480 -0.6518
  603TMC3    C7 8943   0.634   2.470  10.527  0.1450 -0.6864  0.0799
  603TMC3    C8 8944   0.719   2.425  10.983  0.0241 -0.3301 -0.5180
  603TMC3    O1 8945   0.713   2.561  10.554 -0.2097  0.0569 -0.3121
  603TMC3    O2 8946   0.768   2.536  10.962 -0.2125 -0.1063  0.3192
  604MPD2     C 8947   1.216   1.011  15.741  0.1465 -0.4702  0.6452
  604MPD2    C1 8948   1.153   0.929  15.834  0.0707  0.2953  0.1949
  604MPD2    C2 8949   1.165   0.792  15.824  0.2479  0.5007 -0.3042
  604MPD2    C3 8950   1.222   0.736  15.706  0.1873 -0.0522 -0.4653
  604MPD2    C4 8951   1.281   0.824  15.615  0.1794  0.4682 -0.6284
  604MPD2    C5 8952   1.286   0.957  15.636  0.5192 -0.3259  0.2079
  604MPD2     H 8953   1.118   0.732  15.901 -0.7234 -2.3524 -3.1317
  604MPD2    H1 8954   1.339   0.792  15.529 -0.2112  0.3987 -0.8658
  604MPD2    H2 8955   1.226   1.116  15.770 -0.0584 -0.1140 -0.6067
  604MPD2    H3 8956   1.360   1.019  15.585  0.9196  0.2405  1.4828
  604MPD2     N 8957   1.239   0.599  15.690 -0.0509  0.1860  0.5925
  604MPD2    H5 8958   1.221   0.543  15.773  1.3726 -0.2311  0.6298
  604MPD2    N1 8959   1.098   0.989  15.945  0.5734  0.5525  0.5816
  604MPD2    H7 8960   1.134   1.084  15.956  1.4601  0.2498  0.3004
  605TMC3    C1 8961   0.949   1.034  16.115 -0.3400  0.3851  0.0738
  605TMC3    C2 8962   1.034   1.116  16.183  0.1039 -0.3163  0.7961
  605TMC3    C3 8963   0.979   1.200  16.276 -0.9431  0.0610  0.4640
  605TMC3    C4 8964   0.820   1.007  16.156  0.4892 -0.0773 -1.0231
  605TMC3    C5 8965   0.767   1.085  16.255 -0.4046 -0.6778 -0.2299
  605TMC3    C6 8966   0.844   1.185  16.309  0.3360  0.2209  0.1184
  605TMC3     C 8967   1.000   0.937  16.024 -1.0116 -0.0456  0.2504
  605TMC3     O 8968   0.959   0.822  16.038 -0.3434 -0.2206  0.0027
  605TMC3     H 8969   1.138   1.140  16.161  0.2461 -2.5004 -0.9665
  605TMC3    H1 8970   0.757   0.941  16.098  0.8105  0.9099 -2.4945
  605TMC3    H2 8971   0.804   1.248  16.389  1.1261  0.2095  0.5171
  605TMC3    C7 8972   0.619   1.094  16.274 -0.1560  0.6028 -0.7518
  605TMC3    C8 8973   1.075   1.295  16.339 -0.3829 -0.0991 -0.5340
  605TMC3    O1 8974   0.579   1.204  16.306  0.1156  0.4077  0.7734
  605TMC3    O2 8975   1.192   1.255  16.351  0.7352 -0.4757 -0.6723
  606TMC3    C1 8976   1.098   4.566  17.384 -0.0287  0.5383  0.5864
  606TMC3    C2 8977   1.061   4.487  17.488 -0.0863 -0.5002  0.4608
  606TMC3    C3 8978   1.063   4.354  17.473 -0.1337  0.1876  0.8898
  606TMC3    C4 8979   1.125   4.521  17.260 -0.4010 -0.3474 -0.0505
  606TMC3    C5 8980   1.125   4.384  17.257 -0.4980  0.1362 -0.0765
  606TMC3    C6 8981   1.098   4.303  17.357 -0.0177 -0.1468 -0.3930
  606TMC3     C 8982   1.070   4.709  17.390 -0.1686  0.2495 -0.0062
  606TMC3     O 8983   1.108   0.044  17.290  0.0547  0.1280 -0.2661
  606TMC3     H 8984   1.044   4.528  17.586  0.3289 -0.8800  0.6890
  606TMC3    H1 8985   1.160   4.580  17.176 -0.0583  0.3748  0.6006
  606TMC3    H2 8986   1.085   4.197  17.338  0.1350 -0.0627 -0.9742
  606TMC3    C7 8987   1.212   4.332  17.159  0.4311  0.1674  0.1291
  606TMC3    C8 8988   1.076   4.261  17.588 -0.1620  0.6457 -0.4354
  606TMC3    O1 8989   1.215   4.371  17.043 -0.2403  0.8713  0.3729
  606TMC3    O2 8990   1.166   4.177  17.569  0.0351 -0.0609 -0.7778
  607MPD2     C 8991   4.476   2.089  11.737  0.1534  0.2152 -0.5854
  607MPD2    C1 8992   4.528   2.194  11.807 -0.0656  0.0382  0.1751
  607MPD2    C2 8993   4.570   2.171  11.935  0.2926  0.1317  0.9717
  607MPD2    C3 8994   4.574   2.041  11.980  0.1635  0.2893  0.3349
  607MPD2    C4 8995   4.547   1.934  11.905  0.1461 -0.3337 -0.2513
  607MPD2    C5 8996   4.492   1.965  11.782 -0.1705 -0.2365 -0.0819
  607MPD2     H 8997   4.598   2.255  11.997  0.7806 -0.3624  1.4217
  607MPD2    H1 8998   4.551   1.835  11.948  0.6177 -0.5616 -0.8128
  607MPD2    H2 8999   4.432   2.089  11.638 -1.8159 -1.0588  0.2878
  607MPD2    H3 9000   4.449   1.888  11.718 -0.3983 -0.8166  0.7707
  607MPD2     N 9001   4.621   2.044  12.114  0.6496 -0.2376 -0.0958
  607MPD2    H5 9002   4.627   2.136  12.155 -0.3111 -0.0909 -0.2842
  607MPD2    N1 9003   4.548   2.327  11.757  0.2775 -0.3722  0.1046
  607MPD2    H7 9004   4.608   2.393  11.806  1.2322 -0.7023 -0.6053
  608TMC3    C1 9005   4.575   2.502  11.610 -0.0286 -0.1017  0.6463
  608TMC3    C2 9006   4.607   2.582  11.723  0.5911  0.2088 -0.6260
  608TMC3    C3 9007   4.690   2.696  11.698  0.1018  0.1123 -0.4040
  608TMC3    C4 9008   4.632   2.522  11.492 -0.3648 -0.3608 -0.1218
  608TMC3    C5 9009   4.722   2.625  11.482  0.4177 -0.5425 -0.1326
  608TMC3    C6 9010   0.030   2.711  11.580 -0.4017  0.0819  0.2777
  608TMC3     C 9011   4.510   2.377  11.632 -0.4843 -0.2391  0.1042
  608TMC3     O 9012   4.456   2.319  11.541  0.3885  0.0864 -0.4105
  608TMC3     H 9013   4.535   2.582  11.805  0.4946 -1.4382 -0.7070
  608TMC3    H1 9014   4.615   2.458  11.405  1.2471 -2.6724  1.2558
  608TMC3    H2 9015   0.088   2.802  11.565 -1.6184  1.2122  2.4183
  608TMC3    C7 9016   0.082   2.620  11.364  0.4153  0.4781  0.0042
  608TMC3    C8 9017   0.036   2.750  11.807 -0.2576 -0.4269  0.7403
  608TMC3    O1 9018   0.056   2.547  11.273 -0.3197 -0.2179  0.0770
  608TMC3    O2 9019   0.111   2.845  11.788  0.3034  0.1560  0.4059
  609TMC3    C1 9020   3.003   1.518   8.608 -0.2285  0.4463  0.0209
  609TMC3    C2 9021   3.017   1.594   8.498 -1.0687 -0.0198  0.8088
  609TMC3    C3 9022   3.138   1.589   8.433 -0.5561 -0.0049 -0.1727
  609TMC3    C4 9023   3.111   1.444   8.655 -0.3514 -0.0095 -0.1032
  609TMC3    C5 9024   3.234   1.462   8.604  0.0987  0.2194 -0.6667
  609TMC3    C6 9025   3.249   1.522   8.477  0.6575 -0.2222 -0.6382
  609TMC3     C 9026   2.886   1.524   8.696  0.4971  0.1845 -0.4044
  609TMC3     O 9027   2.871   1.437   8.784  0.5963 -0.3375 -0.1930
  609TMC3     H 9028   2.946   1.665   8.457  1.5753  1.2915 -1.4957
  609TMC3    H1 9029   3.088   1.392   8.747  0.4880  1.3003  0.8316
  609TMC3    H2 9030   3.349   1.527   8.435 -0.1630  1.1698 -2.3927
  609TMC3    C7 9031   3.336   1.373   8.645 -0.0680  0.1239 -0.5167
  609TMC3    C8 9032   3.143   1.675   8.318 -0.3840 -0.0052 -0.9146
  609TMC3    O1 9033   3.309   1.254   8.655  0.3146  0.0693  0.1980
  609TMC3    O2 9034   3.046   1.677   8.251 -0.2484  0.0541  0.3515
  610TMC3    C1 9035   0.967   1.840  12.890  0.0309  0.9525  0.2978
  610TMC3    C2 9036   1.000   1.976  12.903  0.3795  0.8516 -0.3465
  610TMC3    C3 9037   1.078   2.024  12.802  0.3407  0.8960  0.2224
  610TMC3    C4 9038   1.011   1.761  12.794  1.0258 -0.0161 -0.2516
  610TMC3    C5 9039   1.097   1.811  12.706 -0.4078 -0.0499 -0.1367
  610TMC3    C6 9040   1.136   1.946  12.710 -0.2671  0.0286  0.2654
  610TMC3     C 9041   0.873   1.782  12.991  0.0168 -0.0231  0.4045
  610TMC3     O 9042   0.833   1.669  12.971 -0.0410  0.2733 -0.2945
  610TMC3     H 9043   0.962   2.057  12.964  0.0729 -0.4279  1.1588
  610TMC3    H1 9044   0.963   1.665  12.781 -0.2756  0.4290  1.1817
  610TMC3    H2 9045   1.205   1.989  12.639 -0.0405 -1.2438 -0.2833
  610TMC3    C7 9046   1.186   1.713  12.657 -0.2916 -0.5397 -0.0864
  610TMC3    C8 9047   1.091   2.174  12.790 -0.2496 -0.0164  0.8265
  610TMC3    O1 9048   1.164   1.595  12.690  0.6699 -0.5715 -0.2940
  610TMC3    O2 9049   1.098   2.249  12.892 -0.0430 -0.1301  0.4448
  611MPD2     C 9050   4.566   1.804  10.108  0.1006 -0.2659  0.2244
  611MPD2    C1 9051   4.477   1.891  10.042 -0.1888  0.4488 -0.5939
  611MPD2    C2 9052   4.517   2.015   9.987 -0.1984 -0.6566  0.3236
  611MPD2    C3 9053   4.651   2.049   9.995  0.0473  0.7305 -0.0619
  611MPD2    C4 9054   0.009   1.976  10.076  0.4671 -0.3091  0.1463
  611MPD2    C5 9055   4.696   1.851  10.122 -0.4406 -0.3143  0.3133
  611MPD2     H 9056   4.450   2.067   9.920 -0.1589  2.8652  2.9883
  611MPD2    H1 9057   0.112   1.999  10.098  0.1806  2.2236 -1.1632
  611MPD2    H2 9058   4.540   1.704  10.141  0.3836 -0.4560 -0.1185
  611MPD2    H3 9059   0.034   1.797  10.190  0.3736  0.7119  0.3392
  611MPD2     N 9060   4.709   2.169   9.945 -0.2215  0.0889 -0.0951
  611MPD2    H5 9061   0.077   2.190   9.972 -0.8007 -0.3156  2.2960
  611MPD2    N1 9062   4.346   1.841  10.032  0.2042  0.4216  0.0475
  611MPD2    H7 9063   4.334   1.747  10.068  0.0454  0.0939 -0.8382
  612TMC3    C1 9064   4.715   2.383   9.822 -0.2619 -0.5345 -0.1710
  612TMC3    C2 9065   0.124   2.400   9.854 -0.3043  0.4595 -0.2208
  612TMC3    C3 9066   0.184   2.518   9.808 -0.1431 -0.9172  0.3195
  612TMC3    C4 9067   4.651   2.479   9.753  0.3524 -0.1996  0.4820
  612TMC3    C5 9068   4.710   2.596   9.719  0.5277  0.2340  0.2263
  612TMC3    C6 9069   0.117   2.614   9.743  0.1291 -0.2316  0.4019
  612TMC3     C 9070   4.642   2.252   9.854  0.2619 -0.1633 -0.8576
  612TMC3     O 9071   4.521   2.247   9.813 -0.1389 -0.2320 -0.0610
  612TMC3     H 9072   0.185   2.328   9.906 -0.4444  1.0395  0.7567
  612TMC3    H1 9073   4.543   2.466   9.746  0.2148  0.4849  1.3003
  612TMC3    H2 9074   0.158   2.712   9.723  3.1971 -1.1019  2.4856
  612TMC3    C7 9075   4.622   2.713   9.722 -0.1604  0.0194  0.1108
  612TMC3    C8 9076   0.315   2.560   9.868  0.0838 -0.3500 -0.1023
  612TMC3    O1 9077   4.515   2.701   9.666 -0.1149 -0.7027  0.6978
  612TMC3    O2 9078   0.365   2.658   9.806  0.5975 -0.3417 -0.0487
  613MPD2     C 9079   3.165   4.657  17.019 -0.3390  0.6081 -0.5972
  613MPD2    C1 9080   3.166   4.529  16.965 -0.2818 -0.6020  0.6009
  613MPD2    C2 9081   3.169   4.420  17.055  0.2810 -0.6454 -0.4252
  613MPD2    C3 9082   3.190   4.435  17.193  0.1711 -0.3176  0.1042
  613MPD2    C4 9083   3.172   4.559  17.242  0.0022  1.0134 -0.8780
  613MPD2    C5 9084   3.169   4.670  17.154  0.0372 -0.1215 -0.1186
  613MPD2     H 9085   3.178   4.320  17.014 -0.5258 -1.0828  0.4660
  613MPD2    H1 9086   3.178   4.579  17.348 -2.1591 -0.0736 -0.5449
  613MPD2    H2 9087   3.160   0.013  16.950  0.8398  0.0429 -1.3675
  613MPD2    H3 9088   3.173   0.043  17.193  0.3814 -1.3501  3.0333
  613MPD2     N 9089   3.213   4.318  17.270  0.1016  0.6495 -0.3685
  613MPD2    H5 9090   3.237   4.232  17.222 -1.1929 -0.7546  1.5205
  613MPD2    N1 9091   3.155   4.511  16.823 -0.3221  0.1900 -0.1422
  613MPD2    H7 9092   3.136   4.592  16.766  2.8651  1.5856  0.7761
  614TMC3    C1 9093   3.120   4.378  16.624 -0.1952 -0.6515 -0.3106
  614TMC3    C2 9094   3.153   4.257  16.566 -0.5522 -0.7603 -0.3646
  614TMC3    C3 9095   3.067   4.197  16.487 -0.7364 -0.3276  0.1008
  614TMC3    C4 9096   3.016   4.451  16.584 -0.4805 -0.0556  0.2335
  614TMC3    C5 9097   2.940   4.389  16.483  0.3019 -0.5844  0.0320
  614TMC3    C6 9098   2.957   4.258  16.441 -0.2796 -0.1930  0.6640
  614TMC3     C 9099   3.170   4.386  16.762 -0.8789 -0.1509 -0.9631
  614TMC3     O 9100   3.242   4.292  16.796 -0.8407  0.5732 -0.0256
  614TMC3     H 9101   3.259   4.237  16.572 -0.7510 -1.8848 -0.6389
  614TMC3    H1 9102   2.998   4.554  16.615  0.0129  0.2343 -0.4519
  614TMC3    H2 9103   2.880   4.215  16.377 -2.1704  3.0088  0.8087
  614TMC3    C7 9104   2.851   4.479  16.420 -0.0043  0.8166 -0.3486
  614TMC3    C8 9105   3.047   4.060  16.524  0.0320 -0.0900  0.5779
  614TMC3    O1 9106   2.804   4.573  16.479  0.4080  0.5461 -0.8868
  614TMC3    O2 9107   2.970   3.986  16.460  0.0534 -0.3299 -0.6566
  615MPD2     C 9108   2.972   0.551  15.735 -0.5823 -0.2736  0.2785
  615MPD2    C1 9109   3.039   0.667  15.717 -0.0861 -0.5132 -0.1579
  615MPD2    C2 9110   2.975   0.773  15.647 -0.8811  0.4851 -0.1391
  615MPD2    C3 9111   2.861   0.752  15.576  0.4677 -0.2277 -0.0754
  615MPD2    C4 9112   2.794   0.631  15.584  0.6276 -1.0676 -0.5027
  615MPD2    C5 9113   2.849   0.539  15.667 -0.0004  0.2806 -0.2341
  615MPD2     H 9114   3.035   0.862  15.640  0.4252 -0.3728  0.2013
  615MPD2    H1 9115   2.702   0.624  15.528 -0.0754  0.4371  0.4491
  615MPD2    H2 9116   3.000   0.468  15.799  0.8094 -0.1481 -0.1583
  615MPD2    H3 9117   2.796   0.448  15.693  0.4888  0.1253  0.2159
  615MPD2     N 9118   2.792   0.847  15.497 -0.8652  0.0426  0.6776
  615MPD2    H5 9119   2.697   0.829  15.467 -1.0211 -0.1870  1.3180
  615MPD2    N1 9120   3.173   0.684  15.762  0.0476 -0.2257 -0.3883
  615MPD2    H7 9121   3.208   0.779  15.756 -1.2681  0.3030  0.1512
  616TMC3    C1 9122   3.393   0.651  15.862  0.1631 -0.4503 -0.2792
  616TMC3    C2 9123   3.437   0.769  15.816  0.0517  0.0293 -0.3438
  616TMC3    C3 9124   3.552   0.818  15.874  0.3151 -0.4478  0.2542
  616TMC3    C4 9125   3.477   0.560  15.916  0.0513  0.5356 -0.2709
  616TMC3    C5 9126   3.594   0.606  15.959 -0.1903  0.8437  0.2343
  616TMC3    C6 9127   3.640   0.732  15.934 -0.1169  0.1714 -0.1077
  616TMC3     C 9128   3.258   0.592  15.824 -0.1638  0.2938 -0.4187
  616TMC3     O 9129   3.244   0.472  15.840  0.0952  0.2298  0.7478
  616TMC3     H 9130   3.380   0.832  15.749  3.0409 -0.5182 -3.4137
  616TMC3    H1 9131   3.451   0.456  15.932  1.8664  0.4496  2.1565
  616TMC3    H2 9132   3.742   0.761  15.956 -0.1251 -0.5926  0.9597
  616TMC3    C7 9133   3.667   0.517  16.043  0.1826 -1.3417 -0.2389
  616TMC3    C8 9134   3.600   0.945  15.832 -0.3823 -0.0036  0.0652
  616TMC3    O1 9135   3.648   0.394  16.023 -0.0885  0.4562  0.2162
  616TMC3    O2 9136   3.525   0.998  15.749 -0.2505  0.2117  0.4022
  617MPD2     C 9137   1.320   3.925  13.843  0.3034  0.7617  0.3867
  617MPD2    C1 9138   1.285   3.823  13.921 -0.4964 -0.2379 -0.3068
  617MPD2    C2 9139   1.174   3.819  14.002 -0.2618 -0.2506 -0.0127
  617MPD2    C3 9140   1.074   3.913  13.981 -0.3639 -0.9782 -0.2832
  617MPD2    C4 9141   1.099   4.020  13.898 -0.0778  0.0894  1.0675
  617MPD2    C5 9142   1.221   4.021  13.824  0.0174  0.3766  0.0739
  617MPD2     H 9143   1.148   3.723  14.045 -0.3980 -0.8957 -1.5086
  617MPD2    H1 9144   1.029   4.102  13.890 -3.0595 -2.4158  1.5085
  617MPD2    H2 9145   1.411   3.926  13.785 -0.5519  1.5704 -0.9392
  617MPD2    H3 9146   1.251   4.108  13.767  0.3334  0.0334 -0.2800
  617MPD2     N 9147   0.942   3.910  14.032  0.0597  0.2904  0.2919
  617MPD2    H5 9148   0.871   3.958  13.978  0.0723 -0.6805 -0.5825
  617MPD2    N1 9149   1.368   3.716  13.906 -0.3570  0.7039  0.0611
  617MPD2    H7 9150   1.432   3.722  13.828  1.1688 -0.9734  1.2101
  618TMC3    C1 9151   1.463   3.494  13.952  0.1325  0.3388 -0.3181
  618TMC3    C2 9152   1.475   3.391  14.034  0.1181 -0.2245 -0.1014
  618TMC3    C3 9153   1.508   3.262  14.004  0.4148 -0.5450  0.4244
  618TMC3    C4 9154   1.465   3.466  13.815 -0.0153  0.5334  0.3538
  618TMC3    C5 9155   1.492   3.342  13.783  0.4424 -0.3803 -0.1915
  618TMC3    C6 9156   1.523   3.241  13.873 -0.3263  0.8239  0.0282
  618TMC3     C 9157   1.378   3.609  13.996  0.7076 -0.4528  0.1933
  618TMC3     O 9158   1.344   3.601  14.113 -0.9768 -0.1097  0.1502
  618TMC3     H 9159   1.469   3.416  14.139  1.1314 -0.7800  0.0971
  618TMC3    H1 9160   1.445   3.542  13.740 -0.1248  0.4623  0.3105
  618TMC3    H2 9161   1.527   3.136  13.848  1.1651  1.0403 -0.6050
  618TMC3    C7 9162   1.479   3.299  13.645  0.4920  0.4520 -0.1450
  618TMC3    C8 9163   1.624   3.228  14.078  0.4979  0.2062 -0.8764
  618TMC3    O1 9164   1.410   3.363  13.566  0.3773 -0.1200 -0.6897
  618TMC3    O2 9165   1.642   3.107  14.105 -0.3100  0.0045 -0.3780
  619MPD2     C 9166   2.202   0.257  14.119  0.2641  0.5009 -0.1392
  619MPD2    C1 9167   2.182   0.307  13.993 -0.3811  0.5814  0.5029
  619MPD2    C2 9168   2.087   0.262  13.901 -0.1100  0.3499 -0.3459
  619MPD2    C3 9169   1.996   0.163  13.945  0.2867 -0.6031  0.6830
  619MPD2    C4 9170   2.009   0.121  14.074 -1.2879  0.1683 -0.5943
  619MPD2    C5 9171   2.114   0.160  14.161 -0.3708 -0.0786 -0.0382
  619MPD2     H 9172   2.088   0.313  13.805 -1.1319  0.1446 -0.4660
  619MPD2    H1 9173   1.941   0.044  14.108  0.8925 -1.8676 -0.8781
  619MPD2    H2 9174   2.284   0.290  14.181  0.3392  0.0905 -0.0244
  619MPD2    H3 9175   2.123   0.124  14.263  0.2981  0.1905 -0.0055
  619MPD2     N 9176   1.879   0.121  13.874  0.1228  0.2672 -0.1645
  619MPD2    H5 9177   1.808   0.067  13.921  0.7954 -0.3212  0.1769
  619MPD2    N1 9178   2.271   0.406  13.940 -0.0163 -0.0349 -0.2921
  619MPD2    H7 9179   2.252   0.449  13.850  0.8945  2.3766  0.6397
  620TMC3    C1 9180   2.444   0.546  13.916 -0.2591  0.0370  0.5109
  620TMC3    C2 9181   2.432   0.514  13.786  0.6553 -0.1715 -0.2126
  620TMC3    C3 9182   2.463   0.618  13.700  0.2681 -0.5031  0.2290
  620TMC3    C4 9183   2.501   0.659  13.959 -0.2451  0.2448  0.7624
  620TMC3    C5 9184   2.551   0.754  13.871  0.2318  0.1147  0.1557
  620TMC3    C6 9185   2.542   0.724  13.741  0.4593  0.6766  0.2882
  620TMC3     C 9186   2.368   0.467  14.011  0.5926 -0.0722 -0.4885
  620TMC3     O 9187   2.398   0.473  14.130 -0.5129  0.5309 -0.3337
  620TMC3     H 9188   2.395   0.422  13.743  0.8011 -1.0299  1.4952
  620TMC3    H1 9189   2.520   0.678  14.064  4.2024 -1.6686  0.3103
  620TMC3    H2 9190   2.559   0.805  13.672 -0.5926  0.6495  0.0048
  620TMC3    C7 9191   2.522   0.895  13.891  0.2047 -0.0703 -0.6030
  620TMC3    C8 9192   2.323   0.657  13.670  0.0784  0.2310 -0.4492
  620TMC3    O1 9193   2.539   0.977  13.801 -0.0572 -0.0345  0.0032
  620TMC3    O2 9194   2.234   0.576  13.680 -0.0366  0.2567 -0.1569
  621MPD2     C 9195   2.741   0.364   9.987  0.2624  0.3192 -0.2882
  621MPD2    C1 9196   2.770   0.415   9.861  0.3533  0.0640  0.2718
  621MPD2    C2 9197   2.897   0.475   9.845  0.0684 -0.2940 -0.3080
  621MPD2    C3 9198   2.998   0.462   9.940 -0.0996  0.5382 -0.9876
  621MPD2    C4 9199   2.965   0.408  10.066 -0.2742  0.2326 -0.5317
  621MPD2    C5 9200   2.834   0.370  10.087 -0.1877  0.0384 -0.5842
  621MPD2     H 9201   2.918   0.522   9.750  0.2507 -1.5775 -0.9043
  621MPD2    H1 9202   3.029   0.394  10.152 -1.8088  0.8076  0.6860
  621MPD2    H2 9203   2.644   0.329  10.021  0.3515  0.0681 -0.2964
  621MPD2    H3 9204   2.803   0.338  10.186  0.1410 -0.6435 -0.7057
  621MPD2     N 9205   3.122   0.518   9.937 -0.3577 -0.0846 -0.6757
  621MPD2    H5 9206   3.181   0.503  10.018 -1.2375  0.1827  0.0060
  621MPD2    N1 9207   2.679   0.428   9.758 -0.7530 -0.4211  0.2035
  621MPD2    H7 9208   2.700   0.476   9.671 -0.6309 -2.9049 -1.1330
  622TMC3    C1 9209   2.481   0.366   9.644  0.3038  0.1380 -0.0407
  622TMC3    C2 9210   2.351   0.320   9.646 -0.3147 -0.1741  0.3597
  622TMC3    C3 9211   2.272   0.331   9.535 -0.0777 -0.1634  0.3261
  622TMC3    C4 9212   2.529   0.423   9.526 -0.2993 -0.2355  0.3026
  622TMC3    C5 9213   2.447   0.427   9.416 -0.1103  0.6524 -0.4020
  622TMC3    C6 9214   2.313   0.389   9.417  0.3430  0.7764  0.6105
  622TMC3     C 9215   2.572   0.345   9.754  0.4267  0.1005  0.6803
  622TMC3     O 9216   2.545   0.253   9.828  0.5257  0.2506 -0.1230
  622TMC3     H 9217   2.324   0.289   9.747 -1.4443 -0.4396 -0.0209
  622TMC3    H1 9218   2.628   0.467   9.513 -1.1345  1.2452 -1.1081
  622TMC3    H2 9219   2.240   0.420   9.343  1.7075  0.3989 -0.8968
  622TMC3    C7 9220   2.497   0.503   9.305 -0.0778  0.5372 -0.1926
  622TMC3    C8 9221   2.127   0.309   9.559 -0.3749  0.7437  0.4559
  622TMC3    O1 9222   2.600   0.569   9.325 -0.6514 -0.8259  0.2241
  622TMC3    O2 9223   2.053   0.296   9.461  0.1081  0.6890  0.6939
  623MPD2     C 9224   1.394   1.547  15.682 -0.4874  0.5319  0.9151
  623MPD2    C1 9225   1.352   1.570  15.809 -0.7596 -0.4896 -0.1629
  623MPD2    C2 9226   1.439   1.627  15.905 -0.5305 -0.3431  0.0774
  623MPD2    C3 9227   1.571   1.634  15.879 -0.0190  0.1786 -0.9230
  623MPD2    C4 9228   1.623   1.590  15.758 -0.4745  0.4540 -0.2185
  623MPD2    C5 9229   1.532   1.555  15.662 -0.6354 -0.9864  0.1102
  623MPD2     H 9230   1.411   1.631  16.010 -2.2485 -0.1446 -0.3916
  623MPD2    H1 9231   1.730   1.578  15.742 -0.5232  0.1822 -0.3485
  623MPD2    H2 9232   1.336   1.515  15.597 -1.5544  3.5425  0.5077
  623MPD2    H3 9233   1.560   1.538  15.559 -1.2402  2.0659 -0.5690
  623MPD2     N 9234   1.666   1.670  15.977 -0.6396 -0.1572  0.6186
  623MPD2    H5 9235   1.755   1.622  15.968 -0.7031  0.1435 -1.6687
  623MPD2    N1 9236   1.217   1.548  15.851  0.1650 -0.2763 -0.3209
  623MPD2    H7 9237   1.197   1.568  15.949  0.1110 -1.1849 -0.1419
  624TMC3    C1 9238   1.790   1.445  16.276  0.3332  0.0123  0.2736
  624TMC3    C2 9239   1.723   1.458  16.389 -0.3267 -0.0827 -0.3504
  624TMC3    C3 9240   1.640   1.558  16.415  0.0921 -0.0623  0.0896
  624TMC3    C4 9241   1.779   1.537  16.174 -0.2178  0.6994 -0.3026
  624TMC3    C5 9242   1.696   1.644  16.205 -0.0417 -0.0685  0.1171
  624TMC3    C6 9243   1.631   1.657  16.325 -0.1325  0.4853 -0.3750
  624TMC3     C 9244   1.894   1.348  16.269  0.1542 -0.1277 -0.0806
  624TMC3     O 9245   1.894   1.265  16.358  0.0455  0.1670  0.2283
  624TMC3     H 9246   1.717   1.376  16.460  0.2950  1.2228  1.2065
  624TMC3    H1 9247   1.812   1.505  16.075  0.1053 -0.1236  0.0753
  624TMC3    H2 9248   1.580   1.751  16.345 -1.5470 -0.1357 -1.1356
  624TMC3    C7 9249   1.633   1.718  16.099 -0.0193  0.4464  0.1408
  624TMC3    C8 9250   1.514   1.520  16.466 -0.2773  0.1163  0.1752
  624TMC3    O1 9251   1.535   1.787  16.127  0.5149 -0.6472  0.2876
  624TMC3    O2 9252   1.498   1.399  16.462 -0.2843 -0.3781 -0.0960
  625MPD2     C 9253   1.303   2.099   0.521 -0.3829  0.2807 -0.3752
  625MPD2    C1 9254   1.344   2.197   0.608  0.3741 -0.1389 -0.1867
  625MPD2    C2 9255   1.420   2.155   0.718 -1.2733 -0.3353  0.2070
  625MPD2    C3 9256   1.446   2.024   0.747  0.7156 -0.2384  0.0732
  625MPD2    C4 9257   1.392   1.930   0.658 -1.1471  0.1000 -0.0459
  625MPD2    C5 9258   1.330   1.971   0.547  0.5470  0.1518 -0.2848
  625MPD2     H 9259   1.465   2.226   0.787  1.6139 -2.9445  1.0204
  625MPD2    H1 9260   1.408   1.824   0.675  0.2832  0.3928  0.4423
  625MPD2    H2 9261   1.248   2.114   0.429 -2.9575 -0.3468  1.0390
  625MPD2    H3 9262   1.294   1.891   0.483  0.0098  0.3138 -0.1864
  625MPD2     N 9263   1.531   1.991   0.855 -0.0903  0.5078  0.1718
  625MPD2    H5 9264   1.566   2.067   0.912 -0.5758  2.2022 -1.8177
  625MPD2    N1 9265   1.333   2.332   0.591  0.9748 -0.6216  0.0500
  625MPD2    H7 9266   1.380   2.388   0.661 -1.4453 -0.9524  1.9296
  626TMC3    C1 9267   1.254   2.539   0.495 -0.2506 -0.3719 -0.0081
  626TMC3    C2 9268   1.207   2.597   0.380  0.3278  0.2114 -0.4692
  626TMC3    C3 9269   1.172   2.727   0.374  0.6475 -0.1332  0.0945
  626TMC3    C4 9270   1.242   2.599   0.615  0.0065  0.4068 -0.1145
  626TMC3    C5 9271   1.198   2.727   0.614  0.3944 -0.3857  0.3489
  626TMC3    C6 9272   1.173   2.799   0.491  0.4096  0.3397 -0.5496
  626TMC3     C 9273   1.260   2.397   0.487 -0.4476 -0.0411 -0.0715
  626TMC3     O 9274   1.229   2.340   0.381 -0.6278  0.1583  0.6130
  626TMC3     H 9275   1.210   2.543   0.285  1.9777 -1.2548  0.4136
  626TMC3    H1 9276   1.270   2.550   0.708 -0.7459 -0.8952 -0.5771
  626TMC3    H2 9277   1.152   2.905   0.497  1.1235  0.3807  1.0420
  626TMC3    C7 9278   1.195   2.807   0.736  0.0685  0.2223  0.6912
  626TMC3    C8 9279   1.132   2.781   0.243  0.0236 -0.8052 -0.5052
  626TMC3    O1 9280   1.215   2.926   0.735 -0.2624 -0.1344 -0.3073
  626TMC3    O2 9281   1.172   2.717   0.144 -0.3509  0.5905  0.3335
  627MPD2     C 9282   0.795   2.486  14.106  0.3118 -0.2104 -0.3818
  627MPD2    C1 9283   0.712   2.468  14.214  0.3640  0.8202 -0.0141
  627MPD2    C2 9284   0.598   2.396  14.207  0.0466 -0.7460  0.5692
  627MPD2    C3 9285   0.558   2.342  14.086 -0.2276  0.6091  0.0332
  627MPD2    C4 9286   0.637   2.359  13.977 -0.0043 -0.1775  0.1792
  627MPD2    C5 9287   0.758   2.432  13.992 -0.2932 -0.2736 -0.1234
  627MPD2     H 9288   0.530   2.400  14.291 -0.6090 -2.4263  0.0995
  627MPD2    H1 9289   0.613   2.318  13.880 -1.2183 -1.3238  0.9615
  627MPD2    H2 9290   0.885   2.546  14.117  0.9100 -1.3050  0.6417
  627MPD2    H3 9291   0.823   2.446  13.906 -2.0314  2.1478 -1.0250
  627MPD2     N 9292   0.432   2.276  14.086  0.2098 -0.1687  0.4599
  627MPD2    H5 9293   0.379   2.277  14.173 -0.8992 -1.7976 -0.1974
  627MPD2    N1 9294   0.748   2.537  14.337 -0.4494  0.3388  0.2113
  627MPD2    H7 9295   0.685   2.531  14.416  2.3224  3.3418  2.6424
  628TMC3    C1 9296   0.842   2.690  14.475  0.1571  0.1426 -0.0245
  628TMC3    C2 9297   0.895   2.593  14.553 -0.1679  0.3966 -0.4796
  628TMC3    C3 9298   0.971   2.629  14.657 -0.2525 -0.7793  0.1100
  628TMC3    C4 9299   0.852   2.828  14.494 -0.0838 -0.3895  0.1468
  628TMC3    C5 9300   0.934   2.859  14.597  0.5587  0.2230  0.1416
  628TMC3    C6 9301   0.991   2.764  14.677  0.0462 -0.0159  0.6188
  628TMC3     C 9302   0.815   2.656  14.336  0.3864  0.2119 -0.4232
  628TMC3     O 9303   0.851   2.731  14.244  0.3565  0.3050  0.7919
  628TMC3     H 9304   0.896   2.491  14.517  0.0496  0.3952 -0.4716
  628TMC3    H1 9305   0.829   2.899  14.416  0.0892  1.7952  2.0830
  628TMC3    H2 9306   1.069   2.793  14.747  0.5377  2.8488 -1.1570
  628TMC3    C7 9307   0.951   2.994  14.650  0.0376  0.6052  0.3144
  628TMC3    C8 9308   1.096   2.556  14.653  0.2328  0.3292 -0.4351
  628TMC3    O1 9309   1.040   3.007  14.733 -0.1123 -0.1218 -0.4195
  628TMC3    O2 9310   1.120   2.511  14.543 -0.1457  0.0572 -0.6424
  629MPD2     C 9311   3.800   1.413  15.861 -0.6780 -0.0083 -0.4463
  629MPD2    C1 9312   3.828   1.348  15.982 -0.4905  0.4610 -0.0175
  629MPD2    C2 9313   3.799   1.215  15.995  0.2694 -0.7347  0.1614
  629MPD2    C3 9314   3.739   1.149  15.892  0.4302  0.1544 -0.3149
  629MPD2    C4 9315   3.711   1.213  15.774 -0.9639 -0.1005 -0.0056
  629MPD2    C5 9316   3.736   1.345  15.764  0.2307  0.0523 -0.8638
  629MPD2     H 9317   3.823   1.167  16.089 -0.5990 -0.1501  0.6698
  629MPD2    H1 9318   3.652   1.164  15.698 -1.1925  1.4645 -0.8242
  629MPD2    H2 9319   3.837   1.514  15.844  0.3116 -0.3953 -0.6261
  629MPD2    H3 9320   3.698   1.406  15.682 -0.5845  1.0368  0.2487
  629MPD2     N 9321   3.702   1.007  15.911 -0.3762 -0.2238 -0.0635
  629MPD2    H5 9322   3.729   0.959  15.996  1.4826  0.4646 -0.2797
  629MPD2    N1 9323   3.898   1.426  16.086 -0.4236 -0.4228  0.0373
  629MPD2    H7 9324   3.932   1.515  16.052  3.2004 -1.3666  1.1585
  630TMC3    C1 9325   4.000   1.504  16.277 -0.5957 -0.2976 -0.1017
  630TMC3    C2 9326   4.037   1.619  16.216  0.0365  0.2173  0.4735
  630TMC3    C3 9327   4.080   1.721  16.299  0.0795 -0.5022  0.4761
  630TMC3    C4 9328   3.995   1.488  16.411 -0.2792 -0.6604  0.1419
  630TMC3    C5 9329   4.048   1.592  16.484  0.3638  0.4321  0.4702
  630TMC3    C6 9330   4.086   1.717  16.440 -0.5836  0.4290  0.7102
  630TMC3     C 9331   3.930   1.394  16.212 -0.1198 -0.1474 -0.5580
  630TMC3     O 9332   3.891   1.300  16.280 -0.2021  0.0034 -0.0378
  630TMC3     H 9333   4.048   1.632  16.109  0.5792 -2.8307  0.1635
  630TMC3    H1 9334   3.961   1.398  16.461 -1.2221  0.6496  1.8684
  630TMC3    H2 9335   4.125   1.799  16.499  1.1272  0.7294 -0.8386
  630TMC3    C7 9336   4.062   1.569  16.628 -0.0619  1.2101 -0.1436
  630TMC3    C8 9337   4.125   1.848  16.240 -0.3063  0.4971  0.2049
  630TMC3    O1 9338   3.992   1.489  16.682  0.1974 -0.0112  0.1357
  630TMC3    O2 9339   4.203   1.924  16.299 -0.0514 -0.5578  0.4898
  631MPD2     C 9340   1.948   1.181  15.201  0.4783  0.8168 -0.2971
  631MPD2    C1 9341   2.014   1.299  15.204 -0.3219 -0.3437  0.2955
  631MPD2    C2 9342   2.153   1.292  15.199  0.8243 -0.0579 -0.2166
  631MPD2    C3 9343   2.222   1.174  15.204 -0.0240 -0.4829  0.2678
  631MPD2    C4 9344   2.151   1.058  15.199  0.7256  0.5023  1.0186
  631MPD2    C5 9345   2.013   1.066  15.186 -0.7660 -0.0287 -0.0372
  631MPD2     H 9346   2.217   1.379  15.208 -0.7958  1.1813 -0.7228
  631MPD2    H1 9347   2.201   0.962  15.200  0.1615  0.2166  2.8200
  631MPD2    H2 9348   1.840   1.184  15.200  0.4526 -0.4804 -1.5442
  631MPD2    H3 9349   1.965   0.969  15.183 -2.9674  1.0117  1.4310
  631MPD2     N 9350   2.362   1.175  15.216  0.2472 -0.0233  0.4449
  631MPD2    H5 9351   2.412   1.263  15.221 -0.2385  0.2859 -0.2812
  631MPD2    N1 9352   1.952   1.426  15.208 -0.1196 -0.2255 -0.4041
  631MPD2    H7 9353   1.851   1.419  15.201 -0.3955  4.1161 -0.7244
  632TMC3    C1 9354   1.924   1.649  15.175  0.2885  0.1306  0.5121
  632TMC3    C2 9355   1.937   1.752  15.261  0.2937  0.2597  0.4304
  632TMC3    C3 9356   1.863   1.868  15.232 -0.2222  0.0269  0.1580
  632TMC3    C4 9357   1.857   1.658  15.055 -0.4635  0.3431  0.4332
  632TMC3    C5 9358   1.795   1.773  15.025 -0.5445 -0.2320 -0.0213
  632TMC3    C6 9359   1.794   1.880  15.111  0.0465  0.8169  1.2071
  632TMC3     C 9360   2.014   1.546  15.196 -0.4006  0.3933 -0.2424
  632TMC3     O 9361   2.132   1.583  15.206 -0.1768 -0.6231  0.2372
  632TMC3     H 9362   1.996   1.738  15.351  0.5321  0.2244  0.2696
  632TMC3    H1 9363   1.856   1.574  14.986  0.9061 -0.4304  1.3401
  632TMC3    H2 9364   1.745   1.974  15.087 -0.2693 -0.0005 -1.3725
  632TMC3    C7 9365   1.718   1.773  14.900 -0.5363 -0.0524 -0.0358
  632TMC3    C8 9366   1.809   1.943  15.345  0.1292  0.6038 -0.2184
  632TMC3    O1 9367   1.738   1.672  14.833  0.3770 -0.4378  0.0522
  632TMC3    O2 9368   1.702   1.992  15.328 -0.8165 -0.1307 -0.1324
  633MPD2     C 9369   1.073   3.902  17.200  0.2664  0.0769 -0.9901
  633MPD2    C1 9370   1.117   3.825  17.098 -0.4893  0.0113 -0.0069
  633MPD2    C2 9371   1.135   3.687  17.114 -0.0715 -0.4155  0.2004
  633MPD2    C3 9372   1.120   3.635  17.245  0.6773 -0.9276  0.2098
  633MPD2    C4 9373   1.078   3.724  17.341  0.0541 -0.2804 -0.9418
  633MPD2    C5 9374   1.052   3.855  17.329 -0.1281 -0.0531 -1.3172
  633MPD2     H 9375   1.175   3.629  17.032 -1.7232 -1.3113  0.0310
  633MPD2    H1 9376   1.071   3.682  17.440  1.7798  1.1847 -0.1807
  633MPD2    H2 9377   1.065   4.010  17.193  2.5654  0.1398 -2.5992
  633MPD2    H3 9378   1.021   3.915  17.414 -0.0883 -0.4017 -1.0589
  633MPD2     N 9379   1.143   3.500  17.287  0.0850  0.2018  0.0580
  633MPD2    H5 9380   1.092   3.475  17.371  1.1002  0.0230  0.6255
  633MPD2    N1 9381   1.139   3.877  16.966  0.0361 -0.1653 -0.8025
  633MPD2    H7 9382   1.185   3.811  16.904 -0.3994 -1.0042 -0.2301
  634TMC3    C1 9383   1.227   4.047  16.825  0.3668 -0.4731 -0.5992
  634TMC3    C2 9384   1.315   3.958  16.767  0.3889 -0.3929 -0.3316
  634TMC3    C3 9385   1.416   4.019  16.693 -0.3113  0.4147  1.2750
  634TMC3    C4 9386   1.231   4.180  16.804 -0.2915  0.1000  0.2900
  634TMC3    C5 9387   1.339   4.230  16.733 -0.7131 -0.0394 -0.5836
  634TMC3    C6 9388   1.431   4.151  16.674  0.1565  0.6250 -0.3008
  634TMC3     C 9389   1.131   4.010  16.929 -0.4477 -0.4902 -1.1253
  634TMC3     O 9390   1.057   4.096  16.976 -0.0986 -0.0239  0.0148
  634TMC3     H 9391   1.325   3.851  16.782 -1.7048 -0.3030  1.7025
  634TMC3    H1 9392   1.147   4.243  16.830 -0.0845  1.1451 -1.5724
  634TMC3    H2 9393   1.501   4.200  16.607 -0.0470  1.2284 -0.0722
  634TMC3    C7 9394   1.356   4.373  16.706  0.3768  0.0650  0.2152
  634TMC3    C8 9395   1.513   3.929  16.639  0.2464 -0.1504  1.0891
  634TMC3    O1 9396   1.447   4.406  16.633 -0.0454  0.1361 -0.4253
  634TMC3    O2 9397   1.488   3.813  16.640 -0.3365 -0.1437  0.4814
  635TMC3    C1 9398   1.931   1.055  17.203  0.0561 -0.4813 -0.2442
  635TMC3    C2 9399   1.911   0.956  17.105  0.4244  0.9593 -0.0367
  635TMC3    C3 9400   1.788   0.956  17.046  0.0739  0.2999 -0.2700
  635TMC3    C4 9401   1.830   1.142  17.241 -0.9578  0.3647  0.0828
  635TMC3    C5 9402   1.705   1.127  17.181  0.1186 -0.2243  0.2927
  635TMC3    C6 9403   1.682   1.034  17.086  0.0837 -0.2891 -0.6032
  635TMC3     C 9404   2.047   1.059  17.278  0.3290 -0.8067 -0.4071
  635TMC3     O 9405   2.083   1.165  17.330 -0.4869  0.5409 -0.3837
  635TMC3     H 9406   1.989   0.891  17.070  1.0719  1.1200  1.0982
  635TMC3    H1 9407   1.846   1.212  17.322  1.6905  1.6330 -1.5315
  635TMC3    H2 9408   1.583   1.028  17.041  1.1415  1.2975 -3.1417
  635TMC3    C7 9409   1.593   1.217  17.199 -0.3994 -0.5090  0.3434
  635TMC3    C8 9410   1.772   0.885  16.917 -0.5372  0.3225 -0.3458
  635TMC3    O1 9411   1.521   1.238  17.101  0.1949  0.2562 -0.6285
  635TMC3    O2 9412   1.875   0.859  16.857 -0.0557  0.7384  0.2533
  636MPD2     C 9413   2.592   4.381  17.211  0.7430 -0.3359  0.5242
  636MPD2    C1 9414   2.715   4.410  17.155 -0.9660 -0.0726 -0.0901
  636MPD2    C2 9415   2.822   4.338  17.215  1.0227  1.1927  0.2633
  636MPD2    C3 9416   2.797   4.233  17.307 -0.3861  0.0731 -0.6738
  636MPD2    C4 9417   2.674   4.200  17.352  0.2885  0.0406 -0.3467
  636MPD2    C5 9418   2.574   4.286  17.309 -0.1122 -0.2971  0.0476
  636MPD2     H 9419   2.919   4.358  17.170  0.6265 -0.5810 -1.3381
  636MPD2    H1 9420   2.656   4.133  17.435  0.7540 -0.1178 -0.3718
  636MPD2    H2 9421   2.499   4.430  17.184  0.6976 -0.9154 -0.3592
  636MPD2    H3 9422   2.476   4.260  17.346 -0.5186 -0.5319 -1.2069
  636MPD2     N 9423   2.910   4.159  17.352 -0.3182 -0.2640 -0.4202
  636MPD2    H5 9424   3.005   4.192  17.335 -0.7601  0.4903 -1.4730
  636MPD2    N1 9425   2.735   4.496  17.048  0.4493 -0.0782  0.4061
  636MPD2    H7 9426   2.828   4.494  17.009  0.4404 -0.5017  0.4047
  637TMC3    C1 9427   3.050   4.020  17.455  0.8660  0.1864 -0.0514
  637TMC3    C2 9428   3.117   4.131  17.507 -0.6076 -0.2113 -0.3907
  637TMC3    C3 9429   3.227   4.167  17.441 -0.6690  0.0762 -0.2147
  637TMC3    C4 9430   3.096   3.936  17.360  0.3276  0.1912 -0.8680
  637TMC3    C5 9431   3.209   3.974  17.295  0.1261  0.4990  0.2885
  637TMC3    C6 9432   3.275   4.087  17.338  0.6535 -0.2118  0.1915
  637TMC3     C 9433   2.911   4.047  17.440 -0.3776  0.1243 -0.5384
  637TMC3     O 9434   2.825   3.974  17.481  0.7979 -0.3537  0.1571
  637TMC3     H 9435   3.078   4.199  17.583  1.1579  2.0870 -1.5138
  637TMC3    H1 9436   3.025   3.860  17.329  0.7947 -0.5439 -0.1122
  637TMC3    H2 9437   3.369   4.121  17.294  1.2094 -0.5926  1.0923
  637TMC3    C7 9438   3.191   3.980  17.156 -1.2463 -0.4508 -0.4771
  637TMC3    C8 9439   3.210   4.305  17.407  0.3925 -0.3098  0.0566
  637TMC3    O1 9440   3.206   4.094  17.111 -0.2541  0.2860  0.3423
  637TMC3    O2 9441   3.184   4.390  17.489 -0.4272  0.2507  0.0475
  638MPD2     C 9442   2.993   3.147  14.921  0.9786 -0.3534  0.9081
  638MPD2    C1 9443   3.085   3.044  14.920 -0.2315 -0.2361 -0.7268
  638MPD2    C2 9444   3.070   2.939  15.004  0.0684  1.1329 -0.0937
  638MPD2    C3 9445   2.965   2.935  15.096 -0.2314 -0.1318  0.3555
  638MPD2    C4 9446   2.884   3.050  15.112 -0.2443 -0.7993 -0.9832
  638MPD2    C5 9447   2.894   3.150  15.018  0.2080  0.5376 -0.1845
  638MPD2     H 9448   3.135   2.852  15.002 -0.4609  0.7341  0.0206
  638MPD2    H1 9449   2.806   3.054  15.187 -0.5192  0.0610 -1.3075
  638MPD2    H2 9450   3.013   3.236  14.863 -1.1641 -1.1765 -1.0802
  638MPD2    H3 9451   2.844   3.244  15.040 -0.5063  0.3320 -0.9480
  638MPD2     N 9452   2.948   2.810  15.166  0.1118 -0.0435 -0.0261
  638MPD2    H5 9453   3.014   2.734  15.150  0.8581  0.5925  0.0548
  638MPD2    N1 9454   3.185   3.047  14.820 -0.6648  0.5735 -0.3669
  638MPD2    H7 9455   3.184   3.124  14.754 -2.2619 -0.9478 -2.1321
  639TMC3    C1 9456   2.816   2.618  15.205  0.2209 -0.2036 -0.1155
  639TMC3    C2 9457   2.728   2.585  15.103 -0.1871 -0.2288 -0.9307
  639TMC3    C3 9458   2.769   2.500  14.998 -0.1260  0.2428 -0.3466
  639TMC3    C4 9459   2.941   2.565  15.200  0.5574 -0.9953  0.4263
  639TMC3    C5 9460   2.983   2.495  15.089 -0.7504 -1.2036  0.6052
  639TMC3    C6 9461   2.903   2.463  14.982 -0.2549  0.3020 -0.1849
  639TMC3     C 9462   2.829   2.761  15.218  0.4298 -0.6176 -0.0853
  639TMC3     O 9463   2.725   2.824  15.228  0.4527  0.2034  0.0536
  639TMC3     H 9464   2.627   2.623  15.096 -1.0455 -2.0899  0.9792
  639TMC3    H1 9465   3.010   2.602  15.274  1.0272 -1.4878  0.2371
  639TMC3    H2 9466   2.933   2.404  14.896 -1.3124 -0.2848 -0.1581
  639TMC3    C7 9467   3.126   2.504  15.059  0.0287 -0.2739 -0.0260
  639TMC3    C8 9468   2.670   2.460  14.899 -0.1350  0.6983 -0.5454
  639TMC3    O1 9469   3.182   2.604  15.104  0.1021 -0.3420 -0.0308
  639TMC3    O2 9470   2.718   2.402  14.801  0.1499 -0.8237 -0.8729
  640MPD2     C 9471   2.726   1.761   9.487 -0.0909 -0.2829  0.0492
  640MPD2    C1 9472   2.806   1.856   9.430 -0.0865  0.1171  0.6411
  640MPD2    C2 9473   2.750   1.977   9.410  0.3760  0.2669 -0.5628
  640MPD2    C3 9474   2.612   1.995   9.435 -0.0380  0.1643  0.5508
  640MPD2    C4 9475   2.533   1.900   9.482 -0.8428  0.8364  0.5445
  640MPD2    C5 9476   2.601   1.786   9.523 -0.0336  0.0456 -0.1777
  640MPD2     H 9477   2.804   2.045   9.346 -0.4625  0.7591 -0.7556
  640MPD2    H1 9478   2.430   1.916   9.507 -0.5800 -0.3336  2.3779
  640MPD2    H2 9479   2.750   1.656   9.490  0.1334 -0.2374 -0.1167
  640MPD2    H3 9480   2.535   1.711   9.566  1.2831 -1.4306 -0.7578
  640MPD2     N 9481   2.548   2.120   9.413 -0.3386 -0.5669 -0.4374
  640MPD2    H5 9482   2.450   2.131   9.440  0.0326  0.0086  0.6675
  640MPD2    N1 9483   2.937   1.821   9.397 -0.6798  0.1777  0.1711
  640MPD2    H7 9484   2.971   1.727   9.408  1.1991  1.1873  2.8378
  641TMC3    C1 9485   3.155   1.834   9.312  0.6249 -0.4671  0.4842
  641TMC3    C2 9486   3.200   1.727   9.387  0.0924 -0.6539 -0.1178
  641TMC3    C3 9487   3.330   1.692   9.359  0.0814 -0.0593  0.3065
  641TMC3    C4 9488   3.226   1.907   9.229 -1.2324  0.6273 -0.4553
  641TMC3    C5 9489   3.350   1.864   9.197  0.3831  0.5035  0.0726
  641TMC3    C6 9490   3.409   1.759   9.266 -0.6374 -0.6961  0.2813
  641TMC3     C 9491   3.037   1.906   9.357 -0.1526 -0.5090  0.5854
  641TMC3     O 9492   3.033   2.028   9.346  0.4651 -0.3311  0.0149
  641TMC3     H 9493   3.142   1.663   9.452  2.1418 -0.5869  1.8214
  641TMC3    H1 9494   3.183   1.999   9.190  0.0618  0.8115 -1.4465
  641TMC3    H2 9495   3.512   1.732   9.245  0.1164  1.7598  0.7766
  641TMC3    C7 9496   3.436   1.948   9.119 -0.5447 -0.2988  0.7393
  641TMC3    C8 9497   3.394   1.570   9.418  0.3192  0.4093 -0.0596
  641TMC3    O1 9498   3.554   1.935   9.143  0.1829  0.1041 -0.2713
  641TMC3    O2 9499   3.506   1.547   9.373  0.7860 -0.3191 -0.0635
  642TMC3    C1 9500   4.546   2.842  12.176 -1.3090  1.1919 -0.7398
  642TMC3    C2 9501   4.599   2.842  12.296 -0.1438  1.0380 -0.1784
  642TMC3    C3 9502   4.592   2.728  12.364 -1.0346  0.1295 -0.6478
  642TMC3    C4 9503   4.493   2.730  12.112  0.3535 -0.0384 -0.0244
  642TMC3    C5 9504   4.488   2.615  12.184 -0.4287  0.3444 -0.4452
  642TMC3    C6 9505   4.543   2.611  12.311 -0.5148  0.4998 -1.1288
  642TMC3     C 9506   4.488   2.967  12.131  0.1916  0.6074  0.5452
  642TMC3     O 9507   4.461   2.975  12.014 -0.2020  0.5388 -0.3427
  642TMC3     H 9508   4.624   2.924  12.362 -0.8661  0.8489  0.3280
  642TMC3    H1 9509   4.463   2.734  12.008 -1.0027  1.0850  0.4066
  642TMC3    H2 9510   4.527   2.529  12.380  1.5346  0.4057 -0.7481
  642TMC3    C7 9511   4.429   2.500  12.122  0.0867 -0.0881  0.0661
  642TMC3    C8 9512   4.676   2.719  12.485 -0.7865 -0.4572  0.7483
  642TMC3    O1 9513   4.416   2.497  12.001 -0.3322 -0.4354 -0.1266
  642TMC3    O2 9514   4.641   2.657  12.589  0.0673  0.1768 -0.0190
  643TMC3    C1 9515   3.150   3.015   0.776 -0.1797 -0.4693  0.7257
  643TMC3    C2 9516   3.030   2.972   0.725  0.6802 -0.3701  0.2861
  643TMC3    C3 9517   3.030   2.927   0.601  0.3639  0.9237 -0.2312
  643TMC3    C4 9518   3.262   3.037   0.700  0.0354 -0.7115 -0.0082
  643TMC3    C5 9519   3.258   2.984   0.573  0.3108 -0.3205  0.3503
  643TMC3    C6 9520   3.143   2.933   0.524 -0.3512  0.4841  0.5020
  643TMC3     C 9521   3.155   3.064   0.915 -0.1415 -0.5025  0.2996
  643TMC3     O 9522   3.052   3.063   0.981 -0.0401 -0.2177  0.3090
  643TMC3     H 9523   2.939   2.979   0.784 -0.0560 -1.1458 -0.7514
  643TMC3    H1 9524   3.350   3.086   0.740  0.0187 -0.1949 -0.6075
  643TMC3    H2 9525   3.146   2.884   0.427  1.7090 -2.3288  1.9901
  643TMC3    C7 9526   3.368   3.001   0.477 -0.0809 -0.5177  0.5447
  643TMC3    C8 9527   2.904   2.882   0.550  0.1071  0.3136  0.8250
  643TMC3    O1 9528   3.330   3.019   0.357  0.4225  0.6231  0.0675
  643TMC3    O2 9529   2.804   2.854   0.616 -0.6497  0.1768  0.1086
  644MPD2     C 9530   3.426   2.725   9.106  0.7585  0.6623  0.6200
  644MPD2    C1 9531   3.356   2.610   9.128 -0.0404  0.0017 -0.2690
  644MPD2    C2 9532   3.245   2.583   9.055  0.2635  0.0509 -0.3999
  644MPD2    C3 9533   3.209   2.668   8.958 -0.2324 -0.2295  0.0700
  644MPD2    C4 9534   3.268   2.789   8.937 -0.5228  1.0454 -0.1240
  644MPD2    C5 9535   3.383   2.807   9.008  0.1348  0.4833 -0.5708
  644MPD2     H 9536   3.191   2.491   9.075 -0.7752  0.8641  0.4903
  644MPD2    H1 9537   3.244   2.862   8.860  0.8213  0.5638 -1.0104
  644MPD2    H2 9538   3.514   2.748   9.165 -0.0227  1.6227  1.4052
  644MPD2    H3 9539   3.429   2.904   8.993 -1.1541  1.1413 -0.3402
  644MPD2     N 9540   3.090   2.627   8.891 -0.3674  0.5392 -0.2653
  644MPD2    H5 9541   3.055   2.533   8.906  0.6551  0.6297  2.5843
  644MPD2    N1 9542   3.414   2.528   9.226 -0.4776  0.4618  0.7446
  644MPD2    H7 9543   3.495   2.566   9.274 -1.1908 -1.8102  3.7468
  645TMC3    C1 9544   2.888   2.661   8.767  0.3387 -0.5484  0.1453
  645TMC3    C2 9545   2.887   2.536   8.725  1.0292  0.1521 -0.3174
  645TMC3    C3 9546   2.765   2.487   8.664  0.0462 -0.0798 -0.2390
  645TMC3    C4 9547   2.793   2.751   8.742 -0.1493 -0.4771  0.0089
  645TMC3    C5 9548   2.680   2.706   8.681 -0.0935  0.0271  0.2162
  645TMC3    C6 9549   2.661   2.573   8.644 -0.0152  0.9866  0.2018
  645TMC3     C 9550   3.010   2.714   8.813  0.2347 -0.5452  0.4644
  645TMC3     O 9551   3.032   2.832   8.779  0.0028 -0.2192  0.2407
  645TMC3     H 9552   2.969   2.466   8.736  0.3683 -0.1743  2.6029
  645TMC3    H1 9553   2.816   2.856   8.759 -1.0758 -0.4268  0.9553
  645TMC3    H2 9554   2.565   2.538   8.608  1.9461 -1.3158 -2.7266
  645TMC3    C7 9555   2.568   2.796   8.653 -0.2369  0.3794 -0.3943
  645TMC3    C8 9556   2.760   2.352   8.632 -0.3915 -0.1242  0.2001
  645TMC3    O1 9557   2.486   2.751   8.574  0.0226 -0.3043  0.0680
  645TMC3    O2 9558   2.830   2.273   8.692  0.1601 -0.3383  0.0896
  646MPD2     C 9559   2.973   1.809  14.398 -0.4518 -0.6804  0.2723
  646MPD2    C1 9560   2.872   1.801  14.487 -0.1731  0.0269 -0.0952
  646MPD2    C2 9561   2.756   1.865  14.451  0.2377  0.3407 -0.2505
  646MPD2    C3 9562   2.748   1.948  14.340  0.5293 -0.0053  0.3156
  646MPD2    C4 9563   2.863   1.963  14.265 -0.2566  0.6210  0.9059
  646MPD2    C5 9564   2.970   1.895  14.290  0.3184 -0.2729 -0.3530
  646MPD2     H 9565   2.668   1.857  14.514  0.5758  2.5509  0.5049
  646MPD2    H1 9566   2.863   2.036  14.185  0.3819 -1.1879 -0.7353
  646MPD2    H2 9567   3.063   1.754  14.422  0.2027  0.2605 -0.0497
  646MPD2    H3 9568   3.056   1.896  14.224  1.0406  2.8980  0.6151
  646MPD2     N 9569   2.633   2.012  14.320 -0.6154 -0.7910 -0.2701
  646MPD2    H5 9570   2.559   2.014  14.388 -1.0023 -0.6567 -0.6947
  646MPD2    N1 9571   2.880   1.719  14.603 -0.0197 -0.0686 -0.2218
  646MPD2    H7 9572   2.965   1.666  14.612  0.9535  1.1656 -2.2249
  647TMC3    C1 9573   2.836   1.621  14.810  0.0805 -0.4776 -0.4320
  647TMC3    C2 9574   2.746   1.566  14.901  0.7382 -0.8628  0.1798
  647TMC3    C3 9575   2.798   1.531  15.022 -0.6211  0.0866  0.9167
  647TMC3    C4 9576   2.967   1.642  14.847 -0.1713  0.0485 -0.8441
  647TMC3    C5 9577   3.004   1.621  14.973 -0.1857 -0.4489 -0.4722
  647TMC3    C6 9578   2.921   1.564  15.065 -0.4159  0.2186  0.2701
  647TMC3     C 9579   2.785   1.702  14.700 -0.3874  0.6006  0.9262
  647TMC3     O 9580   2.680   1.765  14.719  0.0479 -0.3570  0.3670
  647TMC3     H 9581   2.642   1.561  14.872  0.5319 -0.0238  0.8171
  647TMC3    H1 9582   3.042   1.677  14.778 -0.0744 -0.0609 -0.7931
  647TMC3    H2 9583   2.958   1.535  15.163  0.0405  0.1039  0.0630
  647TMC3    C7 9584   3.140   1.598  14.992  0.2878  0.8866 -0.5799
  647TMC3    C8 9585   2.779   1.387  15.047  0.6161 -0.0158 -0.3451
  647TMC3    O1 9586   3.173   1.499  15.061  0.1132  0.0847 -1.1746
  647TMC3    O2 9587   2.838   1.350  15.147 -0.0607  0.7268 -0.0950
  648TMC3    C1 9588   2.136   4.216  16.456  0.0811  0.3291  0.2098
  648TMC3    C2 9589   2.206   4.098  16.464  1.0674 -0.3530  0.6946
  648TMC3    C3 9590   2.260   4.042  16.353 -0.2571 -0.4422 -0.0175
  648TMC3    C4 9591   2.097   4.275  16.337 -0.4036 -0.4641  0.5168
  648TMC3    C5 9592   2.149   4.207  16.222 -0.3221  0.3576 -0.2649
  648TMC3    C6 9593   2.227   4.093  16.226  0.1147  0.5014  0.4214
  648TMC3     C 9594   2.076   4.275  16.577  0.3188  0.4692 -0.1441
  648TMC3     O 9595   2.024   4.386  16.566 -0.3607  0.2111  0.2436
  648TMC3     H 9596   2.239   4.064  16.561  0.5431 -1.0083  0.6438
  648TMC3    H1 9597   2.038   4.364  16.322 -1.9996 -1.3551  1.5737
  648TMC3    H2 9598   2.254   4.040  16.136  0.1124  0.8039  0.2423
  648TMC3    C7 9599   2.121   4.256  16.086  0.5148 -0.1178 -0.7904
  648TMC3    C8 9600   2.303   3.903  16.370  0.1879  1.2506 -0.3580
  648TMC3    O1 9601   2.180   4.210  15.987 -0.3304  0.7886  0.4404
  648TMC3    O2 9602   2.305   3.855  16.483 -0.2261 -0.3766  0.1122
  649TMC3    C1 9603   1.187   0.339  12.598  0.1900 -0.2198 -0.4195
  649TMC3    C2 9604   1.301   0.401  12.648 -0.2365  0.0563  0.2159
  649TMC3    C3 9605   1.336   0.374  12.778  0.2155 -0.0075 -0.2933
  649TMC3    C4 9606   1.133   0.226  12.661 -0.0157  0.7013  0.2007
  649TMC3    C5 9607   1.172   0.201  12.790  0.4439  0.2694 -0.1003
  649TMC3    C6 9608   1.265   0.276  12.851 -0.3263 -0.7150 -0.1232
  649TMC3     C 9609   1.096   0.421  12.504  0.2603  0.2358 -0.1454
  649TMC3     O 9610   1.091   0.542  12.521 -0.3248 -0.5340 -0.0001
  649TMC3     H 9611   1.332   0.497  12.608 -1.1200  0.9657  1.7066
  649TMC3    H1 9612   1.040   0.188  12.622  1.2641 -0.2680 -1.8972
  649TMC3    H2 9613   1.290   0.256  12.954  0.1330 -0.4316 -0.1808
  649TMC3    C7 9614   1.088   0.118  12.869 -0.9989  0.1347  0.4326
  649TMC3    C8 9615   1.462   0.413  12.839 -0.3804 -1.0671  0.4320
  649TMC3    O1 9616   1.102   0.132  12.994  0.1286 -0.1832  0.0848
  649TMC3    O2 9617   1.489   0.359  12.943 -0.0509  0.5442  1.4832
  650TMC3    C1 9618   3.982   2.367  12.870  0.2416  0.2674  0.1619
  650TMC3    C2 9619   3.956   2.491  12.926 -0.4624  0.7116 -0.1620
  650TMC3    C3 9620   3.855   2.569  12.871  0.0168 -0.8418  0.6047
  650TMC3    C4 9621   3.911   2.318  12.766 -0.2072  0.4061 -0.5920
  650TMC3    C5 9622   3.839   2.412  12.696  0.0890 -0.2364  0.0574
  650TMC3    C6 9623   3.811   2.536  12.751 -0.3806  0.4749  0.6452
  650TMC3     C 9624   4.074   2.277  12.935 -0.0969  0.5742 -0.6161
  650TMC3     O 9625   4.136   2.324  13.032 -0.0454 -0.2331  0.0765
  650TMC3     H 9626   4.029   2.525  12.998  0.1076 -1.3359  0.2405
  650TMC3    H1 9627   3.931   2.222  12.721 -0.1963  0.0585  0.1519
  650TMC3    H2 9628   3.725   2.592  12.718 -0.0923 -1.0510 -2.6878
  650TMC3    C7 9629   3.748   2.346  12.608 -0.0539 -0.0833 -0.1855
  650TMC3    C8 9630   3.859   2.711  12.906 -0.0272 -0.3868  0.5419
  650TMC3    O1 9631   3.717   2.228  12.605  0.2649  0.4440 -1.0391
  650TMC3    O2 9632   3.801   2.781  12.826  0.1800  0.1304 -0.6604
  651MPD2     C 9633   2.491   3.815  10.113 -0.2569 -0.1607  0.0865
  651MPD2    C1 9634   2.478   3.953  10.138  0.0255  0.4605 -0.3498
  651MPD2    C2 9635   2.590   4.037  10.129  0.5922 -0.6899  0.1594
  651MPD2    C3 9636   2.716   3.978  10.125  0.1099  0.8740 -0.1700
  651MPD2    C4 9637   2.722   3.846  10.081 -0.5278  0.0635 -0.1273
  651MPD2    C5 9638   2.614   3.763  10.075  0.2629 -0.0855  0.5593
  651MPD2     H 9639   2.570   4.141  10.152 -0.8480 -1.3048  1.7981
  651MPD2    H1 9640   2.815   3.798  10.054 -0.2054 -0.2999  1.6227
  651MPD2    H2 9641   2.406   3.748  10.111 -0.1291 -0.2684 -2.8847
  651MPD2    H3 9642   2.623   3.663  10.033  0.0050 -0.4348  1.3256
  651MPD2     N 9643   2.831   4.057  10.141  0.3069  0.0699  0.7836
  651MPD2    H5 9644   2.805   4.152  10.165 -1.3127  0.1910 -1.4353
  651MPD2    N1 9645   2.361   4.019  10.173 -0.4160 -0.4306  0.2218
  651MPD2    H7 9646   2.373   4.120  10.173  0.5436 -0.5319 -2.7542
  652TMC3    C1 9647   3.264   4.219  10.229  0.9002  0.7118 -0.6763
  652TMC3    C2 9648   3.185   4.118  10.172  0.1713 -0.2035  0.5326
  652TMC3    C3 9649   3.048   4.128  10.183  0.2973 -0.8782 -0.1183
  652TMC3    C4 9650   3.208   4.320  10.297  0.2541  0.2544  0.0392
  652TMC3    C5 9651   3.070   4.328  10.306 -0.0020 -0.0069  0.2211
  652TMC3    C6 9652   2.988   4.234  10.250  0.2582 -0.2303 -0.1560
  652TMC3     C 9653   3.409   4.212  10.240 -0.2001  0.4667 -0.6681
  652TMC3     O 9654   3.478   4.175  10.144  0.7587 -0.4875  0.8260
  652TMC3     H 9655   3.220   4.041  10.104 -0.9580  0.0116 -0.3097
  652TMC3    H1 9656   3.275   4.393  10.340  1.8748 -0.6792 -0.9131
  652TMC3    H2 9657   2.883   4.242  10.277 -0.0184 -0.0508 -1.2905
  652TMC3    C7 9658   3.005   4.397  10.423  0.1228  0.2738  0.5742
  652TMC3    C8 9659   2.962   4.016  10.147 -0.3880 -0.1594  0.4228
  652TMC3    O1 9660   2.889   4.382  10.456  0.1882 -0.1595 -0.4025
  652TMC3    O2 9661   3.010   3.902  10.129  0.0635  0.3959  0.4226
  653MPD2     C 9662   0.740   4.462  17.471 -0.3268 -0.1711 -0.0630
  653MPD2    C1 9663   0.746   4.506  17.342  0.7916  0.7292  0.6166
  653MPD2    C2 9664   0.765   4.414  17.241 -0.0642  0.8672 -0.7209
  653MPD2    C3 9665   0.765   4.275  17.268 -0.8732  0.4466  0.1064
  653MPD2    C4 9666   0.759   4.230  17.399  0.0594 -0.3830  0.4727
  653MPD2    C5 9667   0.752   4.324  17.492 -0.0906 -0.7187 -0.0889
  653MPD2     H 9668   0.761   4.440  17.136  0.1722  0.9504 -0.7102
  653MPD2    H1 9669   0.743   4.125  17.423  0.6655 -0.1869  1.7288
  653MPD2    H2 9670   0.746   4.533  17.553 -2.3995 -1.5704  1.2942
  653MPD2    H3 9671   0.751   4.301  17.598 -1.6879 -0.5905 -0.0746
  653MPD2     N 9672   0.753   4.199  17.152  0.9453 -0.0513  0.4682
  653MPD2    H5 9673   0.752   4.251  17.065  2.0551 -0.6630  0.0886
  653MPD2    N1 9674   0.726   4.644  17.302 -0.7527  0.4099 -0.4651
  653MPD2    H7 9675   0.746   4.679  17.209 -3.1012 -0.0454 -1.1371
  654TMC3    C1 9676   0.705   4.036  17.000 -0.4790 -0.4153  1.6429
  654TMC3    C2 9677   0.634   4.113  16.922 -0.2580 -0.5237  0.1774
  654TMC3    C3 9678   0.599   4.073  16.794  0.2055 -0.2164 -0.3270
  654TMC3    C4 9679   0.764   3.921  16.960  0.1738  0.0671 -0.3393
  654TMC3    C5 9680   0.745   3.891  16.829  0.1881 -0.3761  0.1669
  654TMC3    C6 9681   0.660   3.963  16.743  0.1230 -0.8007 -0.1526
  654TMC3     C 9682   0.729   4.068  17.141 -0.1960  0.6783  0.0138
  654TMC3     O 9683   0.741   3.976  17.220  0.1014 -0.7416 -0.0513
  654TMC3     H 9684   0.582   4.194  16.971  3.3950  0.7850  1.8819
  654TMC3    H1 9685   0.832   3.866  17.025  0.9365 -0.2027 -1.3797
  654TMC3    H2 9686   0.636   3.929  16.643 -0.3073  2.7850 -1.2536
  654TMC3    C7 9687   0.817   3.780  16.773  0.5406  0.2492 -0.3117
  654TMC3    C8 9688   0.462   4.089  16.772  0.7806  0.3941 -0.6744
  654TMC3    O1 9689   0.842   3.802  16.652  0.4944  0.1636  0.4198
  654TMC3    O2 9690   0.409   4.190  16.804 -0.1001 -0.1050 -0.0091
  655MPD2     C 9691   2.553   4.157  15.712  0.2065  0.2968  0.1523
  655MPD2    C1 9692   2.516   4.274  15.652  1.0372 -0.2116  0.7698
  655MPD2    C2 9693   2.533   4.292  15.519 -0.6951 -0.4383 -0.0328
  655MPD2    C3 9694   2.597   4.194  15.443 -0.1018  0.1391  0.3465
  655MPD2    C4 9695   2.640   4.073  15.498 -0.4373  0.1265  0.2512
  655MPD2    C5 9696   2.609   4.051  15.634  0.7832 -0.8221  0.8616
  655MPD2     H 9697   2.495   4.384  15.476 -0.2948 -1.0232 -1.6533
  655MPD2    H1 9698   2.689   3.994  15.442  0.3052  1.4195 -0.9426
  655MPD2    H2 9699   2.550   4.149  15.820  0.6285 -2.5553 -0.0572
  655MPD2    H3 9700   2.636   3.955  15.676  0.0809 -1.9160 -1.1709
  655MPD2     N 9701   2.622   4.209  15.301 -0.8188  0.1504 -0.7323
  655MPD2    H5 9702   2.666   4.126  15.262  1.2207  0.4705  0.8921
  655MPD2    N1 9703   2.444   4.374  15.718  0.0229  0.2125 -0.0115
  655MPD2    H7 9704   2.392   4.437  15.659 -1.7925 -2.8235 -1.6340
  656TMC3    C1 9705   2.362   4.513  15.892  0.1366  1.1602 -0.7582
  656TMC3    C2 9706   2.318   4.528  16.020 -0.7688  0.3477  0.3269
  656TMC3    C3 9707   2.236   4.638  16.050  0.3713  0.1051  0.3993
  656TMC3    C4 9708   2.349   4.618  15.803  0.2262 -0.5897  0.4938
  656TMC3    C5 9709   2.278   4.725  15.837 -0.7945  0.8402 -0.1334
  656TMC3    C6 9710   2.210   0.011  15.959  0.8031  0.0210  0.4642
  656TMC3     C 9711   2.430   4.390  15.860  0.5641  0.4575  0.3076
  656TMC3     O 9712   2.455   4.311  15.948 -0.8784 -0.0740 -0.5334
  656TMC3     H 9713   2.332   4.445  16.088 -0.1102  0.2283  0.0457
  656TMC3    H1 9714   2.391   4.606  15.704 -0.5774  0.5999  0.0071
  656TMC3    H2 9715   2.152   0.097  15.990 -1.5422 -0.7125 -1.8887
  656TMC3    C7 9716   2.252   0.091  15.732 -0.1150  0.5849  0.3708
  656TMC3    C8 9717   2.156   4.624  16.174 -0.0882 -0.0428  0.3002
  656TMC3    O1 9718   2.344   0.119  15.660 -0.3163  0.2219 -0.3524
  656TMC3    O2 9719   2.180   4.527  16.241 -0.1445 -0.0362 -0.0760
  657TMC3    C1 9720   1.504   3.816  14.742  0.4829  0.0462 -0.6117
  657TMC3    C2 9721   1.477   3.793  14.875  0.1090 -0.0847 -0.5107
  657TMC3    C3 9722   1.355   3.847  14.917 -0.0343 -0.4530  0.7763
  657TMC3    C4 9723   1.436   3.905  14.667  0.5392  0.0375  0.1594
  657TMC3    C5 9724   1.339   3.976  14.731  0.1726 -0.1406 -0.2344
  657TMC3    C6 9725   1.287   3.943  14.849 -0.0208 -0.0158 -0.8798
  657TMC3     C 9726   1.631   3.772  14.686 -0.7096 -0.5082 -0.3473
  657TMC3     O 9727   1.676   3.844  14.591  0.1308  0.1267  0.2191
  657TMC3     H 9728   1.552   3.758  14.944  0.8881  1.5191 -0.5418
  657TMC3    H1 9729   1.472   3.932  14.569 -0.5779  0.3776 -0.1642
  657TMC3    H2 9730   1.195   3.992  14.879 -0.5888 -1.2768 -0.5583
  657TMC3    C7 9731   1.283   4.080  14.645 -0.4885  0.4359  0.6945
  657TMC3    C8 9732   1.315   3.831  15.059  0.1291 -0.4922  0.1262
  657TMC3    O1 9733   1.317   4.088  14.531 -0.4913  0.4021 -0.1366
  657TMC3    O2 9734   1.247   3.915  15.115 -0.0797  0.6647  0.5653
  658MPD2     C 9735   2.997   4.655  14.760  0.2629 -0.0760 -0.2655
  658MPD2    C1 9736   2.871   4.616  14.715  0.5492 -0.1901  0.1077
  658MPD2    C2 9737   2.816   4.686  14.605 -0.2903 -0.3464  0.2097
  658MPD2    C3 9738   2.905   0.038  14.532  0.4221 -0.2529  0.4506
  658MPD2    C4 9739   3.035   0.058  14.573  0.0231  0.3811 -0.5688
  658MPD2    C5 9740   3.078   0.008  14.692 -0.1853 -0.0423 -0.7452
  658MPD2     H 9741   2.715   4.680  14.565 -0.3621 -3.6426  0.9475
  658MPD2    H1 9742   3.112   0.107  14.515  0.1423 -0.8382 -1.4456
  658MPD2    H2 9743   3.031   4.598  14.845 -1.2214  1.2402  1.2040
  658MPD2    H3 9744   3.176   0.031  14.733 -2.1413  1.8744  2.8485
  658MPD2     N 9745   2.857   0.085  14.409  0.0479  0.1470  0.4173
  658MPD2    H5 9746   2.756   0.089  14.399  0.1849  1.6551 -0.4589
  658MPD2    N1 9747   2.802   4.523  14.796  0.3273 -0.0187  0.3443
  658MPD2    H7 9748   2.847   4.492  14.882  0.9016 -2.8121 -0.9305
  659TMC3    C1 9749   2.645   4.372  14.864 -0.3508 -0.1660 -0.1564
  659TMC3    C2 9750   2.674   4.387  14.997  0.0050  0.2136 -0.3659
  659TMC3    C3 9751   2.626   4.291  15.081 -0.4623 -0.9639  0.1491
  659TMC3    C4 9752   2.569   4.269  14.813  0.3184 -0.4131  0.2113
  659TMC3    C5 9753   2.523   4.174  14.895  0.4922  0.4804 -0.5886
  659TMC3    C6 9754   2.547   4.190  15.028  0.4511  0.0643 -0.6907
  659TMC3     C 9755   2.682   4.468  14.764  0.4101 -0.2126  0.4291
  659TMC3     O 9756   2.632   4.459  14.654  0.7998  0.3837  0.6530
  659TMC3     H 9757   2.720   4.479  15.032 -0.6227  0.5981 -0.5464
  659TMC3    H1 9758   2.552   4.256  14.706  1.6930  3.0346 -0.4223
  659TMC3    H2 9759   2.506   4.118  15.099  1.0310 -0.4032 -0.8303
  659TMC3    C7 9760   2.395   4.108  14.861  0.4442  0.0104  0.1035
  659TMC3    C8 9761   2.608   4.320  15.225 -0.2697  0.2981 -0.3981
  659TMC3    O1 9762   2.325   4.066  14.954  0.5108  0.1540  0.4274
  659TMC3    O2 9763   2.556   4.426  15.249 -0.7608  0.7488 -0.1487
  660MPD2     C 9764   0.747   3.258  12.548  0.1437 -0.1260 -0.6300
  660MPD2    C1 9765   0.615   3.279  12.508  0.2689  0.9975  0.3595
  660MPD2    C2 9766   0.519   3.259  12.609  0.2854 -0.0766  0.0083
  660MPD2    C3 9767   0.547   3.201  12.730  0.1356  0.0779 -0.3633
  660MPD2    C4 9768   0.675   3.174  12.760  0.0080 -0.6605  0.2213
  660MPD2    C5 9769   0.771   3.212  12.679  0.4622  0.3869 -0.5014
  660MPD2     H 9770   0.417   3.286  12.584 -0.3513 -0.4690  2.1502
  660MPD2    H1 9771   0.705   3.120  12.850  0.3314  0.7921  0.9868
  660MPD2    H2 9772   0.835   3.277  12.487  2.4288  1.0072  2.9965
  660MPD2    H3 9773   0.874   3.192  12.709 -0.9928 -1.4853  3.1868
  660MPD2     N 9774   0.448   3.177  12.833  0.0967  0.1126 -0.1084
  660MPD2    H5 9775   0.479   3.147  12.925 -0.5132  1.0845  0.4134
  660MPD2    N1 9776   0.599   3.347  12.383  0.1959  0.7783 -0.0842
  660MPD2    H7 9777   0.685   3.373  12.335  1.0182 -0.1442  0.8924
  661TMC3    C1 9778   0.491   3.437  12.194  0.7410 -0.2816  0.7531
  661TMC3    C2 9779   0.595   3.411  12.110 -0.0422 -1.1012 -0.7364
  661TMC3    C3 9780   0.570   3.408  11.972 -0.5500  0.2358 -0.4037
  661TMC3    C4 9781   0.373   3.476  12.138 -0.0883 -1.0158 -0.3796
  661TMC3    C5 9782   0.362   3.472  12.002 -0.2534 -1.1907  1.0243
  661TMC3    C6 9783   0.449   3.424  11.918  0.0897 -0.3213 -0.1993
  661TMC3     C 9784   0.480   3.391  12.331 -0.1127 -0.9154 -0.1831
  661TMC3     O 9785   0.371   3.398  12.384  0.1272 -0.1529  0.2600
  661TMC3     H 9786   0.696   3.390  12.143 -0.4182 -0.0550  1.0735
  661TMC3    H1 9787   0.289   3.503  12.201 -0.5108 -0.7532 -1.0484
  661TMC3    H2 9788   0.431   3.414  11.811 -1.3429  1.2149 -0.0996
  661TMC3    C7 9789   0.226   3.499  11.952 -0.0718 -0.0515 -0.0738
  661TMC3    C8 9790   0.679   3.366  11.888 -0.2847  0.6619 -0.3883
  661TMC3    O1 9791   0.159   3.585  12.013 -0.1312 -0.0509  0.3511
  661TMC3    O2 9792   0.761   3.290  11.944  0.2046 -0.3154  0.4846
  662MPD2     C 9793   0.483   3.116   0.109  0.5411  0.3173 -0.8835
  662MPD2    C1 9794   0.518   2.996   0.173  0.6912  0.1385  0.2323
  662MPD2    C2 9795   0.507   2.996   0.310 -0.3991  0.4820 -0.2011
  662MPD2    C3 9796   0.454   3.106   0.377 -0.1164 -0.5288  0.6817
  662MPD2    C4 9797   0.418   3.220   0.313 -0.7512  0.2255 -0.1484
  662MPD2    C5 9798   0.436   3.224   0.180 -0.6559  0.4140 -0.3498
  662MPD2     H 9799   0.554   2.914   0.362  0.0559 -0.0611 -1.4702
  662MPD2    H1 9800   0.372   3.303   0.366  1.0676  0.6064  0.8336
  662MPD2    H2 9801   0.482   3.123   0.001 -0.4218 -1.2651 -0.9822
  662MPD2    H3 9802   0.417   3.323   0.141  1.3936  0.4067 -1.3743
  662MPD2     N 9803   0.433   3.106   0.516  0.4137 -0.0302 -0.8030
  662MPD2    H5 9804   0.413   3.200   0.550 -2.8959  0.2827 -3.6275
  662MPD2    N1 9805   0.563   2.878   0.115 -0.4383 -0.2434  0.3513
  662MPD2    H7 9806   0.573   2.794   0.171 -0.1243 -0.7892 -0.5157
  663TMC3    C1 9807   0.621   2.720  17.664 -0.0938  0.3683 -0.5299
  663TMC3    C2 9808   0.721   2.664   0.029 -0.3615  0.4580 -0.5527
  663TMC3    C3 9809   0.748   2.531   0.033 -0.4818  0.1506 -0.3381
  663TMC3    C4 9810   0.526   2.640  17.616  0.3086  0.4838 -0.1412
  663TMC3    C5 9811   0.538   2.507  17.628  0.3352  0.3288  0.3075
  663TMC3    C6 9812   0.648   2.454  17.693 -0.1231 -0.3097 -0.1758
  663TMC3     C 9813   0.571   2.858  17.687  0.0346  0.4498  0.0516
  663TMC3     O 9814   0.515   2.917  17.599  0.1240 -0.0245 -0.3427
  663TMC3     H 9815   0.796   2.736   0.060 -1.4108  0.6478  1.5874
  663TMC3    H1 9816   0.436   2.683  17.572  0.2790  1.1535  0.5615
  663TMC3    H2 9817   0.629   2.362   0.036 -0.6634  0.0933  0.3302
  663TMC3    C7 9818   0.428   2.419  17.593  0.6128 -0.5719 -0.8086
  663TMC3    C8 9819   0.805   2.477   0.158  0.2162 -0.5445  0.4207
  663TMC3    O1 9820   0.316   2.462  17.596 -0.1283  0.1108  0.3511
  663TMC3    O2 9821   0.802   2.356   0.180  0.6142 -0.0226  0.7634
  664MPD2     C 9822   3.340   1.331  17.576  0.4625  0.2401 -0.6515
  664MPD2    C1 9823   3.355   1.466  17.597 -0.1175 -0.3128 -0.4355
  664MPD2    C2 9824   3.280   1.535  17.692  0.6113  0.0146 -0.2806
  664MPD2    C3 9825   3.191   1.462   0.056  0.6206  0.8335  0.2684
  664MPD2    C4 9826   3.176   1.329   0.040  0.6908  0.5679 -0.8072
  664MPD2    C5 9827   3.253   1.262  17.659  0.5808 -0.2789  0.0839
  664MPD2     H 9828   3.296   1.641  17.707  0.8230  0.1316 -1.3354
  664MPD2    H1 9829   3.095   1.277   0.090  1.2002  0.2532 -0.3078
  664MPD2    H2 9830   3.398   1.272  17.506  1.5363  0.3195  0.1644
  664MPD2    H3 9831   3.229   1.159  17.636  0.2543 -0.4375  1.1359
  664MPD2     N 9832   3.126   1.540   0.155 -0.2011  0.4057  0.0208
  664MPD2    H5 9833   3.142   1.640   0.159  1.7460  0.1095 -0.3278
  664MPD2    N1 9834   3.456   1.539  17.532 -0.1078 -0.0290 -0.4213
  664MPD2    H7 9835   3.479   1.634  17.560  1.3326 -0.8910  1.3491
  665TMC3    C1 9836   3.027   1.580   0.369  0.5296  0.5160  0.9200
  665TMC3    C2 9837   3.030   1.546   0.502 -0.2407 -0.3756 -0.6647
  665TMC3    C3 9838   3.011   1.652   0.591 -0.0159 -1.2125  0.2739
  665TMC3    C4 9839   3.032   1.712   0.329  0.7471  0.1129  0.0971
  665TMC3    C5 9840   3.038   1.815   0.420  0.2925  0.2743 -0.6199
  665TMC3    C6 9841   3.034   1.783   0.551 -0.1215 -0.3459  0.1651
  665TMC3     C 9842   3.073   1.480   0.272  0.1301 -0.0642 -0.5182
  665TMC3     O 9843   3.063   1.362   0.306  1.0304  0.4652 -0.3536
  665TMC3     H 9844   3.025   1.444   0.537 -2.0675  0.2062  0.7289
  665TMC3    H1 9845   3.041   1.742   0.225  1.7538 -1.6084 -0.3038
  665TMC3    H2 9846   3.022   1.871   0.614  4.0692  0.8680 -0.7076
  665TMC3    C7 9847   3.096   1.940   0.378 -0.4188  0.5938 -0.5796
  665TMC3    C8 9848   3.052   1.622   0.728  0.0698 -0.0459 -1.0053
  665TMC3    O1 9849   3.069   1.967   0.262  0.1228 -0.3329 -0.2228
  665TMC3    O2 9850   3.137   1.533   0.737 -0.0378 -0.2456  0.0366
  666TMC3    C1 9851   3.292   0.665   9.866 -0.4615  0.6030  0.3702
  666TMC3    C2 9852   3.380   0.606   9.953  0.3538  0.2060 -0.3416
  666TMC3    C3 9853   3.482   0.681  10.004  0.0158 -0.2162 -0.2854
  666TMC3    C4 9854   3.314   0.793   9.820 -0.0264  0.0153  0.4155
  666TMC3    C5 9855   3.391   0.869   9.899  0.2801 -0.2654  0.4194
  666TMC3    C6 9856   3.489   0.818   9.983 -0.0005 -0.5760  0.4224
  666TMC3     C 9857   3.166   0.606   9.839  0.5475  0.1622  0.0631
  666TMC3     O 9858   3.101   0.655   9.751 -0.3002  0.8624  0.0273
  666TMC3     H 9859   3.384   0.498   9.966 -4.7109 -0.2485 -2.6265
  666TMC3    H1 9860   3.240   0.838   9.756  1.2201  1.3155 -0.1160
  666TMC3    H2 9861   3.535   0.881  10.058 -2.2444  1.1807  0.3033
  666TMC3    C7 9862   3.328   0.986   9.948  0.2971  0.3651 -0.0142
  666TMC3    C8 9863   3.532   0.630  10.127 -0.9439 -0.3779  0.1493
  666TMC3    O1 9864   3.210   0.972   9.951  1.2981  0.1786  0.3919
  666TMC3    O2 9865   3.487   0.527  10.178 -0.3145  0.1056  0.6908
  667MPD2     C 9866   4.564   0.832  14.465  0.3442 -0.4509 -0.3186
  667MPD2    C1 9867   4.492   0.852  14.586 -0.8281 -0.4907  0.3734
  667MPD2    C2 9868   4.400   0.751  14.611  0.3529 -0.4790 -0.0856
  667MPD2    C3 9869   4.388   0.638  14.538  0.0323  0.2398  0.1844
  667MPD2    C4 9870   4.474   0.620  14.432  0.2771 -0.0974 -0.0796
  667MPD2    C5 9871   4.552   0.723  14.392 -0.1162  0.0925  0.0404
  667MPD2     H 9872   4.335   0.776  14.694  1.1130 -1.6468  0.8581
  667MPD2    H1 9873   4.483   0.533  14.369 -0.0675  0.4299 -0.8603
  667MPD2    H2 9874   4.632   0.909  14.431 -1.9429  0.0672 -3.7382
  667MPD2    H3 9875   4.615   0.721  14.304 -0.2174 -1.3572 -0.0034
  667MPD2     N 9876   4.304   0.530  14.566 -0.0831  0.0195 -0.3497
  667MPD2    H5 9877   4.300   0.449  14.505  2.9217 -0.3992  0.0267
  667MPD2    N1 9878   4.496   0.964  14.677 -0.1818  0.3472  0.3037
  667MPD2    H7 9879   4.437   0.960  14.759 -0.8021 -1.2075 -0.2166
  668TMC3    C1 9880   4.599   1.158  14.775 -0.8407  0.1815  0.3124
  668TMC3    C2 9881   4.659   1.280  14.754  0.0020  0.3875  0.1152
  668TMC3    C3 9882   4.658   1.369  14.863  0.3736 -0.4936 -0.3193
  668TMC3    C4 9883   4.540   1.125  14.891 -0.0684  0.2013 -0.0743
  668TMC3    C5 9884   4.534   1.218  14.988 -0.6474  0.3093  0.2029
  668TMC3    C6 9885   4.588   1.343  14.978 -0.1695  0.4358 -0.0209
  668TMC3     C 9886   4.584   1.068  14.658 -0.5195  0.0786 -0.1967
  668TMC3     O 9887   4.671   1.079  14.571 -0.3936  0.2840  0.6531
  668TMC3     H 9888   4.689   1.310  14.654  1.1145 -1.1381 -0.0119
  668TMC3    H1 9889   4.495   1.027  14.907 -1.5012  0.6076 -1.6271
  668TMC3    H2 9890   4.588   1.401  15.069 -0.9003 -0.9453  0.8658
  668TMC3    C7 9891   4.496   1.170  15.119 -0.0916 -0.3587 -0.3830
  668TMC3    C8 9892   4.722   1.501  14.847  0.2717 -0.0570 -0.4003
  668TMC3    O1 9893   4.555   1.223  15.211 -0.2200  0.0366 -0.7418
  668TMC3    O2 9894   4.721   1.573  14.947  0.0216  0.1505  0.9774
  669TMC3    C1 9895   2.552   0.535  14.873 -1.0029  0.3806 -0.5102
  669TMC3    C2 9896   2.440   0.575  14.810 -0.3726 -0.2747 -0.1406
  669TMC3    C3 9897   2.458   0.639  14.694 -0.2101 -0.6972  0.5391
  669TMC3    C4 9898   2.681   0.540  14.816 -0.5765 -0.4027 -0.7635
  669TMC3    C5 9899   2.695   0.606  14.707 -0.2007 -0.6520  0.6562
  669TMC3    C6 9900   2.585   0.669  14.648 -0.2325 -0.0006 -0.3641
  669TMC3     C 9901   2.545   0.519  15.017 -1.2646  0.5048  0.2395
  669TMC3     O 9902   2.437   0.545  15.069  0.3740  0.4489  0.3052
  669TMC3     H 9903   2.340   0.556  14.846  0.0923 -0.4141  1.0965
  669TMC3    H1 9904   2.764   0.518  14.882 -2.5453  1.9716  2.4641
  669TMC3    H2 9905   2.592   0.727  14.557  3.9685 -0.8719 -0.5792
  669TMC3    C7 9906   2.813   0.677  14.683 -0.2873 -0.6615  0.2624
  669TMC3    C8 9907   2.359   0.734  14.638  0.5963  0.5980 -0.1442
  669TMC3    O1 9908   2.807   0.766  14.601  0.4160 -0.4511  0.1522
  669TMC3    O2 9909   2.377   0.764  14.520  0.0273  0.5127 -0.4311
  670MPD2     C 9910   1.106   3.577  13.111 -0.3473 -0.0120  0.2482
  670MPD2    C1 9911   1.025   3.470  13.136  0.2084 -0.4253  0.3006
  670MPD2    C2 9912   0.957   3.459  13.252 -0.7432 -0.5562  0.0804
  670MPD2    C3 9913   0.977   3.556  13.352  0.1268 -0.2563  0.8309
  670MPD2    C4 9914   1.054   3.665  13.320 -0.4893 -0.5458  0.3559
  670MPD2    C5 9915   1.128   3.670  13.209  0.6662  0.5987 -0.2025
  670MPD2     H 9916   0.908   3.363  13.266  2.6417 -2.3000  0.0573
  670MPD2    H1 9917   1.053   3.753  13.384  1.0461  0.1958 -0.6495
  670MPD2    H2 9918   1.170   3.585  13.024 -0.4610  0.3870  0.2038
  670MPD2    H3 9919   1.193   3.755  13.192 -0.7115  2.0606  1.9072
  670MPD2     N 9920   0.908   3.539  13.475 -0.8149 -0.6869 -0.0197
  670MPD2    H5 9921   0.861   3.449  13.480 -0.0131 -1.1040 -0.0129
  670MPD2    N1 9922   1.035   3.365  13.044 -0.3387 -0.1746 -0.1095
  670MPD2    H7 9923   1.102   3.382  12.970 -0.2372 -2.4470 -0.5465
  671TMC3    C1 9924   0.876   3.552  13.707 -0.1626  0.6637  1.1455
  671TMC3    C2 9925   0.929   3.591  13.831 -0.7829 -0.2421  0.6071
  671TMC3    C3 9926   0.908   3.506  13.940 -0.2657 -0.7772  0.1880
  671TMC3    C4 9927   0.792   3.445  13.696  0.5615  0.4592 -0.8117
  671TMC3    C5 9928   0.760   3.377  13.811  0.8114 -0.1889  0.2902
  671TMC3    C6 9929   0.821   3.401  13.934  0.4784 -0.9139 -0.3992
  671TMC3     C 9930   0.927   3.618  13.588 -0.0870  0.9712 -0.2678
  671TMC3     O 9931   0.996   3.719  13.597  0.2331 -0.7566 -0.4554
  671TMC3     H 9932   1.026   3.640  13.838 -0.2137 -1.1962 -0.5398
  671TMC3    H1 9933   0.748   3.412  13.603 -3.5754  2.5521  0.4360
  671TMC3    H2 9934   0.817   3.325  14.011  0.3699 -0.8024 -0.2954
  671TMC3    C7 9935   0.658   3.269  13.811  0.2358  0.3991 -0.1832
  671TMC3    C8 9936   1.028   3.457  13.994  0.5997  0.5968  0.4913
  671TMC3    O1 9937   0.638   3.215  13.702 -0.3481  0.4319 -0.2698
  671TMC3    O2 9938   1.117   3.431  13.913  0.1639  0.5113  0.2179
  672MPD2     C 9939   4.630   4.198   0.141 -0.6488 -0.1547  0.0879
  672MPD2    C1 9940   0.029   4.184   0.188 -0.2550 -1.1397 -0.1454
  672MPD2    C2 9941   0.061   4.241   0.307  1.2788 -0.0915  0.1022
  672MPD2    C3 9942   4.694   4.305   0.383  0.3997 -0.1356 -0.3939
  672MPD2    C4 9943   4.564   4.307   0.337 -0.0538 -1.5598 -0.6407
  672MPD2    C5 9944   4.535   4.267   0.211 -0.3485  0.1873 -0.8306
  672MPD2     H 9945   0.154   4.215   0.356 -0.4465  0.0798  3.4571
  672MPD2    H1 9946   4.487   4.349   0.399  0.4883 -2.0627  0.3644
  672MPD2    H2 9947   4.614   4.167   0.039 -1.2893  1.1238 -0.2064
  672MPD2    H3 9948   4.440   4.287   0.164 -0.8809  1.4081  0.7632
  672MPD2     N 9949   0.003   4.365   0.506  0.3790  1.1935 -0.1125
  672MPD2    H5 9950   4.663   4.419   0.559 -1.2516 -0.8390 -0.1068
  672MPD2    N1 9951   0.127   4.120   0.101 -0.5337 -0.1319 -0.1436
  672MPD2    H7 9952   0.095   4.087   0.010 -0.6879  1.7828 -0.7697
  673TMC3    C1 9953   0.347   4.065   0.029 -0.3432  0.2917  0.1974
  673TMC3    C2 9954   0.464   4.000   0.049  0.1168  0.2145 -0.2734
  673TMC3    C3 9955   0.549   3.976  17.657 -0.1988  0.5708 -0.4143
  673TMC3    C4 9956   0.305   4.093  17.613  0.7850  0.1034  0.9340
  673TMC3    C5 9957   0.396   4.071  17.513 -0.3300  0.8823  0.3755
  673TMC3    C6 9958   0.517   4.011  17.532 -0.6138 -0.1434  0.2486
  673TMC3     C 9959   0.256   4.082   0.140 -0.1471  0.1082 -0.0915
  673TMC3     O 9960   0.307   4.090   0.252  0.0434 -0.4684 -0.4607
  673TMC3     H 9961   0.472   3.957   0.148 -0.0883  2.9883  0.9536
  673TMC3    H1 9962   0.203   4.114  17.584  1.2405  1.2338  0.1532
  673TMC3    H2 9963   0.580   3.999  17.445 -0.8311  0.3312  0.0253
  673TMC3    C7 9964   0.387   4.153  17.397  0.5533  0.2262  0.3163
  673TMC3    C8 9965   0.686   3.925  17.686 -0.3761 -0.3164 -0.6671
  673TMC3    O1 9966   0.413   4.095  17.291  0.2163 -0.3139 -0.6645
  673TMC3    O2 9967   0.762   3.918  17.589  0.1651 -0.5477 -0.2810
  674MPD2     C 9968   0.504   3.628  17.476  0.5777 -0.1449 -0.5100
  674MPD2    C1 9969   0.517   3.622  17.611  0.3719  0.0663  0.4224
  674MPD2    C2 9970   0.414   3.660  17.696  0.0922  0.2860  0.3858
  674MPD2    C3 9971   0.293   3.706  17.646  0.3336  0.1206 -0.4666
  674MPD2    C4 9972   0.282   3.715  17.512  0.0637  0.3451 -0.1278
  674MPD2    C5 9973   0.380   3.670  17.427 -0.2726 -0.8432  0.4460
  674MPD2     H 9974   0.421   3.660   0.094 -0.1118  0.5810  0.3988
  674MPD2    H1 9975   0.189   3.745  17.465  0.6668  3.1671  0.5279
  674MPD2    H2 9976   0.587   3.609  17.409  0.1202  1.2729 -1.4822
  674MPD2    H3 9977   0.362   3.686  17.321  0.5334  0.5526  0.5153
  674MPD2     N 9978   0.191   3.733   0.027 -0.1709 -0.0584  0.4084
  674MPD2    H5 9979   0.225   3.721   0.122 -1.3300  1.7966  1.0616
  674MPD2    N1 9980   0.643   3.579  17.669  0.1807 -0.5397 -0.4120
  674MPD2    H7 9981   0.708   3.534  17.605 -0.2604  0.2280 -1.4041
  675TMC3    C1 9982   0.795   3.508   0.113 -0.4188  0.0455  0.0475
  675TMC3    C2 9983   0.807   3.460   0.239 -0.3089  0.0228 -0.0051
  675TMC3    C3 9984   0.931   3.434   0.284  0.2626  0.7666  0.4493
  675TMC3    C4 9985   0.903   3.509   0.023 -0.3360  0.3937 -0.0241
  675TMC3    C5 9986   1.014   3.452   0.072  0.0543 -1.0099  0.0558
  675TMC3    C6 9987   1.038   3.421   0.201  0.8616 -0.8554  0.0620
  675TMC3     C 9988   0.674   3.584   0.091 -0.9297  0.3168 -0.0475
  675TMC3     O 9989   0.616   3.633   0.189  0.1039 -0.2715 -0.4275
  675TMC3     H 9990   0.723   3.455   0.308 -0.6552 -0.2752 -0.4495
  675TMC3    H1 9991   0.898   3.543  17.631  2.8357 -0.5176 -0.4704
  675TMC3    H2 9992   1.137   3.396   0.239  2.3318  1.1538 -2.3647
  675TMC3    C7 9993   1.103   3.410  17.678 -0.1012 -0.4973 -0.5607
  675TMC3    C8 9994   0.963   3.493   0.412 -0.4080  0.1849 -0.4799
  675TMC3    O1 9995   1.118   3.477  17.574  0.3060 -0.1796 -0.8203
  675TMC3    O2 9996   1.060   3.445   0.474 -0.0278  0.1513 -0.2416
  676MPD2     C 9997   3.400   1.948  10.840  0.0501  0.5614  0.3329
  676MPD2    C1 9998   3.390   1.867  10.957 -0.1319  0.6359  0.1860
  676MPD2    C2 9999   3.398   1.734  10.946 -0.1285 -0.4525 -0.6311
  676MPD2    C310000   3.425   1.673  10.829 -0.2999  0.7410  0.4886
  676MPD2    C410001   3.437   1.748  10.724 -0.4864  0.1833  0.2600
  676MPD2    C510002   3.433   1.886  10.725 -0.1349 -0.2944  0.3295
  676MPD2     H10003   3.380   1.682  11.040  1.9154 -0.8509 -0.4737
  676MPD2    H110004   3.468   1.700  10.631  0.3329  1.0087  0.0972
  676MPD2    H210005   3.388   2.055  10.842  0.9515  0.6253  2.3779
  676MPD2    H310006   3.454   1.947  10.638 -0.5007 -1.0221 -0.2636
  676MPD2     N10007   3.422   1.532  10.811  0.5871 -0.4499  0.2781
  676MPD2    H510008   3.426   1.495  10.717  1.4448  0.6221 -0.1131
  676MPD2    N110009   3.366   1.924  11.081 -0.1566 -0.6233 -0.6240
  676MPD2    H710010   3.337   1.858  11.153  1.0951  0.1532  0.6014
  677TMC3    C110011   3.360   2.079  11.249  0.1757 -0.3869  0.8775
  677TMC3    C210012   3.254   2.020  11.317  0.2230  0.4035  0.4013
  677TMC3    C310013   3.220   2.071  11.441  0.0080 -0.3146 -0.7410
  677TMC3    C410014   3.432   2.185  11.306 -0.2836  0.6547 -0.2746
  677TMC3    C510015   3.397   2.225  11.428 -0.3572 -0.2753  0.1384
  677TMC3    C610016   3.291   2.176  11.500  0.0102  0.5712 -0.2914
  677TMC3     C10017   3.379   2.059  11.109  0.3479 -0.4587 -0.3033
  677TMC3     O10018   3.432   2.147  11.043 -0.0028 -0.8611  0.2825
  677TMC3     H10019   3.193   1.946  11.266  1.2768 -2.4736  3.3018
  677TMC3    H110020   3.526   2.211  11.259  0.5091  0.4970  1.2354
  677TMC3    H210021   3.269   2.206  11.601  0.0556 -1.3291  0.2789
  677TMC3    C710022   3.501   2.273  11.513  0.6364  0.1976 -0.3941
  677TMC3    C810023   3.098   2.025  11.491 -0.6982 -0.2370  0.1288
  677TMC3    O110024   3.489   2.247  11.633  0.1274  0.3671 -0.5328
  677TMC3    O210025   3.007   2.024  11.410  0.2153  0.3209 -0.1127
  678MPD2     C10026   4.302   2.848   1.673 -0.3368 -0.4584 -0.2288
  678MPD2    C110027   4.307   2.817   1.534  0.5151  0.0405  0.4646
  678MPD2    C210028   4.191   2.813   1.466  0.3989  0.2144 -0.3959
  678MPD2    C310029   4.071   2.829   1.530  0.4680 -0.3487 -0.2719
  678MPD2    C410030   4.068   2.842   1.668  0.1043 -0.3641  0.0323
  678MPD2    C510031   4.183   2.850   1.742 -0.4227  0.2164  0.6274
  678MPD2     H10032   4.198   2.800   1.358  0.5945  1.8843 -0.5865
  678MPD2    H110033   3.972   2.855   1.717 -0.1514 -1.5231 -0.1693
  678MPD2    H210034   4.386   2.871   1.737 -1.2379  0.7172  0.5298
  678MPD2    H310035   4.178   2.874   1.848  0.3291 -1.2528  1.0043
  678MPD2     N10036   3.956   2.848   1.455 -0.6667 -0.3168  0.2479
  678MPD2    H510037   3.965   2.815   1.359 -1.2961 -0.1861  0.1467
  678MPD2    N110038   4.420   2.807   1.454 -0.3094  0.3063 -0.1857
  678MPD2    H710039   4.408   2.779   1.358 -2.2674 -1.5279  0.6122
  679TMC3    C110040   0.012   2.687   1.240 -0.2950  0.3448 -0.1737
  679TMC3    C210041   4.629   2.718   1.321 -0.0640  0.5465 -0.2526
  679TMC3    C310042   4.654   2.828   1.402  0.1491  0.0798 -0.1862
  679TMC3    C410043   0.135   2.741   1.239  0.1510 -0.2233 -0.4968
  679TMC3    C510044   0.146   2.853   1.324 -0.4151 -0.6003  0.6961
  679TMC3    C610045   0.042   2.903   1.405  0.1571  0.4982  0.2400
  679TMC3     C10046   4.708   2.601   1.130  0.0721 -0.5636 -0.3821
  679TMC3     O10047   0.050   2.499   1.112  0.2866  0.1400 -0.0703
  679TMC3     H10048   4.540   2.658   1.308  0.2788  0.0699 -0.4178
  679TMC3    H110049   0.214   2.696   1.180  0.6901  0.2518 -0.1369
  679TMC3    H210050   0.049   2.981   1.480 -1.9611 -0.8545  1.8537
  679TMC3    C710051   0.274   2.922   1.300 -0.4320  0.0633  0.7222
  679TMC3    C810052   4.548   2.842   1.501 -0.5324 -0.0712 -0.2320
  679TMC3    O110053   0.344   2.874   1.210 -0.0255 -0.1683 -0.1594
  679TMC3    O210054   4.571   2.903   1.604 -0.2769 -0.0872  0.2007
  680MPD2     C10055   0.623   0.720  13.241 -0.7321  0.0945 -1.2262
  680MPD2    C110056   0.626   0.657  13.366  0.5439 -0.4011  0.3788
  680MPD2    C210057   0.673   0.730  13.479  0.3369 -0.5225 -0.3537
  680MPD2    C310058   0.700   0.864  13.472 -0.1127  0.6126 -0.3648
  680MPD2    C410059   0.688   0.923  13.349 -0.6697  1.0274  0.0942
  680MPD2    C510060   0.657   0.852  13.232 -0.0486  0.0454  0.9163
  680MPD2     H10061   0.680   0.681  13.576  0.0191  2.3760  1.1368
  680MPD2    H110062   0.690   1.031  13.358  0.7350  0.9579  0.6215
  680MPD2    H210063   0.574   0.685  13.151 -0.2742 -0.2572 -1.3402
  680MPD2    H310064   0.642   0.908  13.141  2.0784 -1.0696 -0.1157
  680MPD2     N10065   0.745   0.943  13.581  0.4472 -0.0795  0.1049
  680MPD2    H510066   0.770   1.040  13.567  0.1883 -0.3992 -2.4829
  680MPD2    N110067   0.573   0.531  13.386 -0.5870  0.5189  0.5189
  680MPD2    H710068   0.560   0.502  13.482  0.8612 -2.0073 -0.0427
  681TMC3    C110069   0.479   0.318  13.331  0.2236  0.5436 -0.3125
  681TMC3    C210070   0.433   0.300  13.453  1.0846  0.6117  0.8835
  681TMC3    C310071   0.406   0.175  13.504  0.1276 -1.5271  0.1217
  681TMC3    C410072   0.492   0.215  13.244  1.5146  0.1161 -1.4267
  681TMC3    C510073   0.485   0.092  13.293 -0.2309  0.7324  0.3583
  681TMC3    C610074   0.428   0.063  13.419 -0.5085 -0.2659 -0.6042
  681TMC3     C10075   0.513   0.453  13.284 -0.3979  0.4653  0.3509
  681TMC3     O10076   0.525   0.464  13.160  0.0010  0.4439  0.1136
  681TMC3     H10077   0.401   0.383  13.515 -0.1985  0.2291  0.7157
  681TMC3    H110078   0.512   0.235  13.140  0.8592 -3.7271 -2.2996
  681TMC3    H210079   0.432   4.688  13.454 -0.3798  0.4279  1.3947
  681TMC3    C710080   0.546   4.716  13.199 -0.2496  0.4642  0.2468
  681TMC3    C810081   0.376   0.142  13.652 -0.1526 -0.4639  0.6359
  681TMC3    O110082   0.514   4.598  13.206 -0.2224 -0.4574 -0.1578
  681TMC3    O210083   0.340   0.031  13.674 -0.0266 -0.4760 -0.0312
  682MPD2     C10084   2.634   1.651  10.922  0.2721  0.6594  1.0406
  682MPD2    C110085   2.632   1.517  10.899 -0.4751  0.4999 -0.6301
  682MPD2    C210086   2.613   1.433  11.004 -0.3982  0.1109 -0.3254
  682MPD2    C310087   2.603   1.490  11.133 -0.1881 -0.0252 -0.0409
  682MPD2    C410088   2.589   1.627  11.156 -0.5874 -0.7210  0.4022
  682MPD2    C510089   2.605   1.706  11.045  0.0101 -0.1907  0.4215
  682MPD2     H10090   2.626   1.328  10.982 -1.9746 -0.3185  0.8061
  682MPD2    H110091   2.580   1.681  11.249  1.9031  2.2553 -1.0953
  682MPD2    H210092   2.648   1.718  10.837 -1.4347 -0.2076  0.0767
  682MPD2    H310093   2.597   1.813  11.060 -0.4254 -0.4381  1.9651
  682MPD2     N10094   2.610   1.416  11.251 -0.2563 -0.5567  0.0675
  682MPD2    H510095   2.602   1.467  11.338  1.8654 -3.1797  1.7810
  682MPD2    N110096   2.665   1.468  10.769 -0.6191  0.0058 -0.2363
  682MPD2    H710097   2.664   1.366  10.764  4.1509  0.0650 -2.3780
  683TMC3    C110098   2.613   1.268  11.628  0.1953 -0.8231  0.1974
  683TMC3    C210099   2.626   1.134  11.656 -0.4856 -0.0664 -0.5025
  683TMC3    C310100   2.656   1.056  11.545 -0.1974 -0.4872 -0.3960
  683TMC3    C410101   2.622   1.325  11.504 -0.1647 -0.2526 -0.3977
  683TMC3    C510102   2.647   1.239  11.395 -0.4353 -0.3814 -0.4173
  683TMC3    C610103   2.661   1.102  11.418 -0.5057 -0.4919  0.1754
  683TMC3     C10104   2.578   1.353  11.740 -0.2347 -0.3265  1.0624
  683TMC3     O10105   2.591   1.475  11.731 -0.3924 -0.0491  0.8477
  683TMC3     H10106   2.628   1.088  11.755 -0.5482  0.8752 -0.0666
  683TMC3    H110107   2.609   1.431  11.491 -2.9289 -0.5264  0.0798
  683TMC3    H210108   2.677   1.031  11.337  0.5588  0.7505 -0.7228
  683TMC3    C710109   2.614   1.281  11.262 -0.4849 -0.3541  0.4136
  683TMC3    C810110   2.754   0.959  11.563  0.1629 -0.4762 -0.2918
  683TMC3    O110111   2.616   1.191  11.176  0.0373 -0.2820 -0.0046
  683TMC3    O210112   2.765   0.852  11.497  0.2596  0.4994  0.4566
  684MPD2     C10113   0.706   1.773  16.317  0.4516 -0.0339 -0.1365
  684MPD2    C110114   0.764   1.782  16.193  0.1979  0.1998 -0.5682
  684MPD2    C210115   0.774   1.904  16.131 -0.4402  0.3246 -0.3006
  684MPD2    C310116   0.736   2.017  16.207 -1.0865  0.6195  0.8213
  684MPD2    C410117   0.686   2.012  16.337  0.4755  0.2924 -0.1041
  684MPD2    C510118   0.657   1.887  16.384 -0.1174 -0.3277 -0.2555
  684MPD2     H10119   0.810   1.916  16.030 -0.6846 -1.0238 -0.5473
  684MPD2    H110120   0.651   2.100  16.389  1.7838  0.0925  1.1202
  684MPD2    H210121   0.697   1.677  16.366  2.5371  0.0130  0.3492
  684MPD2    H310122   0.610   1.879  16.481 -0.5317  1.4086 -0.3158
  684MPD2     N10123   0.776   2.141  16.165  0.7954 -0.5731 -0.2302
  684MPD2    H510124   0.775   2.211  16.239  0.9524 -1.7271  0.8545
  684MPD2    N110125   0.812   1.674  16.116  0.5565 -0.0888  0.6124
  684MPD2    H710126   0.844   1.697  16.023 -2.9178  1.6679 -0.1700
  685TMC3    C110127   0.863   1.471  16.026  0.1507 -0.1124 -0.5883
  685TMC3    C210128   0.782   1.372  15.983  0.7324 -0.0251  0.0407
  685TMC3    C310129   0.808   1.318  15.860  0.1368  0.4974  0.1999
  685TMC3    C410130   0.970   1.522  15.953 -0.1146  0.1477  0.4623
  685TMC3    C510131   0.993   1.458  15.838  0.7567  0.0707  0.0345
  685TMC3    C610132   0.926   1.355  15.794  0.2811  0.3931 -0.6140
  685TMC3     C10133   0.819   1.546  16.144 -0.3982  0.2532 -0.5538
  685TMC3     O10134   0.777   1.483  16.241  0.5812  0.5166  0.0881
  685TMC3     H10135   0.705   1.330  16.047 -1.2621  3.2396 -0.2184
  685TMC3    H110136   1.030   1.605  15.989 -0.1859  0.7872 -0.9072
  685TMC3    H210137   0.949   1.320  15.694  3.0557  0.3910  0.0274
  685TMC3    C710138   1.125   1.484  15.771 -0.9741  0.2701 -0.1690
  685TMC3    C810139   0.703   1.282  15.769  0.8049  0.5798 -1.1333
  685TMC3    O110140   1.136   1.420  15.669 -0.0822 -0.0220  0.2454
  685TMC3    O210141   0.734   1.249  15.658 -0.0232 -0.4256 -0.1671
  686MPD2     C10142   2.128   1.460  15.646 -0.0280  0.2063  0.1080
  686MPD2    C110143   2.210   1.360  15.688 -0.3891 -0.9706  0.5146
  686MPD2    C210144   2.332   1.341  15.620  0.0808 -0.1459 -0.7310
  686MPD2    C310145   2.360   1.421  15.512  0.1321  0.0469 -1.1990
  686MPD2    C410146   2.271   1.512  15.470 -0.2303 -0.2879  0.3622
  686MPD2    C510147   2.157   1.537  15.535  0.6939 -0.1079 -0.3278
  686MPD2     H10148   2.398   1.256  15.632  1.7651  1.2215 -0.2425
  686MPD2    H110149   2.312   1.582  15.399  0.1180 -1.7073 -0.8354
  686MPD2    H210150   2.038   1.476  15.703 -0.4677  1.6062 -0.9538
  686MPD2    H310151   2.097   1.624  15.511  1.7896  0.8179  0.2816
  686MPD2     N10152   2.480   1.410  15.435  0.0315 -0.1188 -0.0397
  686MPD2    H510153   2.496   1.467  15.353  1.9521  0.0863  0.4625
  686MPD2    N110154   2.169   1.273  15.788  0.2691  0.0980 -0.5831
  686MPD2    H710155   2.088   1.307  15.840  0.7241  1.5859 -0.8419
  687TMC3    C110156   2.667   1.281  15.393  0.1019  0.5146  0.2781
  687TMC3    C210157   2.584   1.243  15.295  1.2550 -0.4405  0.3239
  687TMC3    C310158   2.581   1.116  15.258  0.1066 -0.3050 -0.0411
  687TMC3    C410159   2.761   1.190  15.442 -0.0573  0.0219  0.1137
  687TMC3    C510160   2.750   1.061  15.408  0.2240  0.4300  0.1118
  687TMC3    C610161   2.660   1.020  15.313 -0.2949  0.5633  0.4652
  687TMC3     C10162   2.587   1.346  15.492 -0.0809 -0.8025  0.2353
  687TMC3     O10163   2.607   1.298  15.605  0.1950  0.2242  0.2878
  687TMC3     H10164   2.540   1.319  15.232 -0.7157 -1.2338  0.7218
  687TMC3    H110165   2.813   1.221  15.532 -2.9976  0.3293  1.7228
  687TMC3    H210166   2.661   0.917  15.280 -1.3856  1.3039 -1.8941
  687TMC3    C710167   2.835   0.972  15.479 -0.4514  1.1175  0.7368
  687TMC3    C810168   2.446   1.071  15.220  0.3829  0.7714  0.2889
  687TMC3    O110169   2.950   1.007  15.493 -0.0265 -0.2261  0.6384
  687TMC3    O210170   2.429   0.951  15.193 -0.3909  0.3418 -0.1117
  688MPD2     C10171   1.162   0.409  16.940 -0.0214 -0.4854 -0.4524
  688MPD2    C110172   1.164   0.325  17.053  0.5210 -0.2686  0.4091
  688MPD2    C210173   1.279   0.272  17.090  1.2930 -0.6933 -0.3654
  688MPD2    C310174   1.398   0.292  17.018  0.5475 -0.6341  0.1399
  688MPD2    C410175   1.397   0.376  16.914  0.5408 -0.1919  0.1392
  688MPD2    C510176   1.280   0.434  16.877 -0.1549  0.2828  0.0244
  688MPD2     H10177   1.270   0.193  17.164  0.8998  0.1416  0.4710
  688MPD2    H110178   1.474   0.398  16.841  0.2148  0.0931 -0.1199
  688MPD2    H210179   1.072   0.465  16.915  1.6951  2.5630  0.2198
  688MPD2    H310180   1.277   0.509  16.798  1.3170 -0.4636 -0.7176
  688MPD2     N10181   1.522   0.244  17.061 -0.6513 -0.8554  0.1386
  688MPD2    H510182   1.597   0.247  16.992  0.2652  2.8538  1.2994
  688MPD2    N110183   1.046   0.285  17.124  0.2696  0.3993 -0.4488
  688MPD2    H710184   1.052   0.211  17.193  2.7173  1.9488  1.0225
  689TMC3    C110185   0.812   0.309  17.190  0.7191  0.0859 -0.1349
  689TMC3    C210186   0.719   0.402  17.232 -0.2902  0.0122 -0.3992
  689TMC3    C310187   0.611   0.367  17.316  0.4975  0.2745 -0.5126
  689TMC3    C410188   0.799   0.177  17.230  0.3724  0.7493 -0.0785
  689TMC3    C510189   0.698   0.144  17.322  0.1483  0.4317  0.4519
  689TMC3    C610190   0.603   0.236  17.355  0.0508  0.0319 -0.3103
  689TMC3     C10191   0.927   0.354  17.115 -0.1616  0.3602 -0.1950
  689TMC3     O10192   0.912   0.466  17.069  0.0723 -0.0006 -0.2063
  689TMC3     H10193   0.725   0.503  17.193  0.0772  0.5751  1.1087
  689TMC3    H110194   0.873   0.106  17.195 -0.5794 -0.2300 -0.0627
  689TMC3    H210195   0.539   0.213  17.439  0.2485  2.0063  0.3962
  689TMC3    C710196   0.690   0.016  17.388 -0.6574 -0.3528 -0.2147
  689TMC3    C810197   0.544   0.463  17.407  0.2049  0.0056  0.6386
  689TMC3    O110198   0.639   0.003  17.499  0.0453 -0.5533  0.0419
  689TMC3    O210199   0.470   0.407  17.488  0.0186 -0.2930 -0.4725
  690MPD2     C10200   3.460   2.301  15.205 -0.3680 -0.1093  0.4491
  690MPD2    C110201   3.510   2.195  15.277  0.7713  0.3539  0.5137
  690MPD2    C210202   3.642   2.194  15.313  0.2210 -0.3568  0.2213
  690MPD2    C310203   3.729   2.291  15.289 -0.1017  0.4428  0.0684
  690MPD2    C410204   3.675   2.407  15.232 -0.7190 -0.1047  0.2253
  690MPD2    C510205   3.541   2.412  15.196  0.1815 -0.3639  0.6907
  690MPD2     H10206   3.696   2.106  15.343  0.5081 -0.3760 -0.3497
  690MPD2    H110207   3.737   2.496  15.225 -1.1604  0.2869  1.3882
  690MPD2    H210208   3.361   2.310  15.163  1.3301  4.4607 -2.6021
  690MPD2    H310209   3.499   2.501  15.151 -0.8709 -0.9645  0.4825
  690MPD2     N10210   3.866   2.288  15.306 -0.3409  0.1001  0.3570
  690MPD2    H510211   3.929   2.361  15.275 -0.3089  0.6200  1.6263
  690MPD2    N110212   3.429   2.083  15.307  0.2915 -0.4505  0.2385
  690MPD2    H710213   3.477   2.009  15.358  0.3779  0.0980  0.9535
  691TMC3    C110214   3.245   1.922  15.284 -0.0345 -0.0381 -0.5422
  691TMC3    C210215   3.123   1.907  15.332 -0.2501  0.7289 -0.3069
  691TMC3    C310216   3.089   1.773  15.357 -0.7485 -1.0352  0.6841
  691TMC3    C410217   3.342   1.821  15.283 -0.0288 -0.4196  0.1150
  691TMC3    C510218   3.302   1.695  15.299 -0.2403 -0.2085 -0.2352
  691TMC3    C610219   3.171   1.670  15.328  0.0023 -1.1435 -0.2822
  691TMC3     C10220   3.296   2.054  15.268  1.3207 -0.2712 -0.2441
  691TMC3     O10221   3.214   2.140  15.236 -0.2681  0.0301  0.3806
  691TMC3     H10222   3.066   1.995  15.361 -1.9077 -0.4934  0.1113
  691TMC3    H110223   3.444   1.817  15.246 -0.0613  2.5120 -0.3399
  691TMC3    H210224   3.137   1.568  15.342 -0.0023 -1.3146 -1.6016
  691TMC3    C710225   3.399   1.583  15.315 -0.3008  0.3716  0.7669
  691TMC3    C810226   2.968   1.730  15.423 -0.0977 -0.0229 -0.0844
  691TMC3    O110227   3.502   1.611  15.375 -0.0492 -0.4782  0.7160
  691TMC3    O210228   2.928   1.617  15.401  0.0120  0.1772  0.5099
  692TMC3    C110229   0.590   3.169  15.808  0.0530  0.5420 -0.2621
  692TMC3    C210230   0.694   3.175  15.900 -0.1006 -0.1305 -0.2697
  692TMC3    C310231   0.812   3.128  15.853 -0.6829 -0.3519  1.3699
  692TMC3    C410232   0.605   3.141  15.671  0.5394  0.3748 -0.2642
  692TMC3    C510233   0.729   3.104  15.624  0.0694 -0.3937 -0.0986
  692TMC3    C610234   0.825   3.095  15.719 -0.0345  0.0382 -0.6216
  692TMC3     C10235   0.468   3.242  15.848 -0.4754  0.0164 -0.3427
  692TMC3     O10236   0.361   3.213  15.794  1.0409  0.1029 -0.1220
  692TMC3     H10237   0.675   3.184  16.007 -1.2239  1.1721 -0.5652
  692TMC3    H110238   0.519   3.137  15.606  0.5826 -0.6766 -0.2634
  692TMC3    H210239   0.925   3.089  15.677  2.0888  1.0347  4.1879
  692TMC3    C710240   0.723   2.999  15.524  0.0050 -0.1300 -0.2085
  692TMC3    C810241   0.855   3.011  15.922 -0.3993  0.5905  0.4330
  692TMC3    O110242   0.629   2.994  15.445  0.8497 -0.8568 -0.3902
  692TMC3    O210243   0.893   2.918  15.851 -0.0895 -0.7516 -0.2214
  693MPD2     C10244   0.015   1.450  10.842 -0.4117 -0.1181 -0.1472
  693MPD2    C110245   4.712   1.313  10.846  0.4949 -0.5168  0.7673
  693MPD2    C210246   0.093   1.218  10.851 -0.0653  0.0892 -0.3120
  693MPD2    C310247   0.224   1.274  10.860 -0.0494  0.1002  0.3341
  693MPD2    C410248   0.247   1.408  10.858 -0.2381  0.2375 -0.6851
  693MPD2    C510249   0.140   1.499  10.849  0.0901  0.0019  0.0859
  693MPD2     H10250   0.074   1.111  10.851  0.4438 -0.0009  1.0272
  693MPD2    H110251   0.350   1.441  10.872  0.2167 -1.3805 -0.1842
  693MPD2    H210252   4.665   1.527  10.849  0.3281  0.7099 -1.0601
  693MPD2    H310253   0.162   1.603  10.870 -1.2894  0.1837  0.5693
  693MPD2     N10254   0.336   1.197  10.882 -0.1225  0.0036  0.4595
  693MPD2    H510255   0.419   1.254  10.894 -1.9224  2.2257  2.2883
  693MPD2    N110256   4.585   1.259  10.846  0.7144  0.4227  0.0349
  693MPD2    H710257   4.583   1.158  10.845  0.6314  0.4271 -0.2421
  694TMC3    C110258   4.353   1.246  10.871  0.5435 -0.5502 -0.1077
  694TMC3    C210259   4.350   1.132  10.790 -0.1048 -0.8365 -0.1346
  694TMC3    C310260   4.238   1.056  10.793  0.2006 -0.3505 -0.3893
  694TMC3    C410261   4.252   1.260  10.964  0.3189  0.0662 -0.0850
  694TMC3    C510262   4.148   1.169  10.971 -0.3319  0.6230 -0.3454
  694TMC3    C610263   4.145   1.062  10.891  0.0174  0.0234 -1.1609
  694TMC3     C10264   4.470   1.330  10.871 -0.7078  0.4870 -0.6589
  694TMC3     O10265   4.457   1.447  10.900  0.3344 -0.5808 -0.4652
  694TMC3     H10266   4.421   1.122  10.709 -0.3896  0.5240 -0.5479
  694TMC3    H110267   4.253   1.342  11.035  1.2386 -1.0026  1.1235
  694TMC3    H210268   4.056   1.001  10.878 -0.6120  0.6879  0.0062
  694TMC3    C710269   4.081   1.150  11.099 -0.0667  0.1101 -0.0119
  694TMC3    C810270   4.187   0.996  10.667  0.2856 -0.1189  0.0387
  694TMC3    O110271   4.073   1.245  11.179  0.3444 -0.5599 -0.0881
  694TMC3    O210272   4.101   0.910  10.676  0.3818 -0.0820  0.6190
  695MPD2     C10273   1.156   2.808  13.398  0.2867 -0.4778  1.0455
  695MPD2    C110274   1.115   2.834  13.528  0.3184  0.4446 -0.3555
  695MPD2    C210275   0.983   2.865  13.546  0.3130  0.5455  0.0995
  695MPD2    C310276   0.895   2.887  13.438 -0.1345  0.6049  0.3008
  695MPD2    C410277   0.937   2.877  13.306 -0.1874 -0.2126  0.3075
  695MPD2    C510278   1.067   2.820  13.293 -0.9253 -0.0494 -0.0928
  695MPD2     H10279   0.953   2.881  13.649  1.2242 -0.8228  0.5771
  695MPD2    H110280   0.876   2.893  13.217  1.7700 -0.2824 -1.0405
  695MPD2    H210281   1.256   2.772  13.377 -0.2206 -0.5920 -1.1695
  695MPD2    H310282   1.104   2.803  13.192 -1.8646 -3.5374  0.1777
  695MPD2     N10283   0.764   2.934  13.467 -0.1530 -0.3207  0.2296
  695MPD2    H510284   0.738   2.947  13.565  2.3893  0.8408  0.7321
  695MPD2    N110285   1.200   2.825  13.645 -1.1414 -0.3003  0.6623
  695MPD2    H710286   1.157   2.869  13.726 -1.8612  1.2868 -0.5960
  696TMC3    C110287   0.551   3.007  13.451 -0.0391 -0.1108  0.2278
  696TMC3    C210288   0.505   2.913  13.542  0.2522  0.4723 -0.2718
  696TMC3    C310289   0.387   2.947  13.604 -0.3846  0.1889 -0.2052
  696TMC3    C410290   0.492   3.128  13.422 -0.1632 -0.0940 -0.2499
  696TMC3    C510291   0.375   3.158  13.494 -0.8596 -0.6071 -0.2327
  696TMC3    C610292   0.322   3.062  13.574 -0.1497 -0.7752  1.1363
  696TMC3     C10293   0.669   2.972  13.377 -0.3391 -0.2297 -0.1843
  696TMC3     O10294   0.673   2.999  13.257  0.5462 -0.4675  0.0466
  696TMC3     H10295   0.543   2.812  13.555  3.7093  1.9147  0.8977
  696TMC3    H110296   0.548   3.201  13.365  0.0012 -2.3614 -2.9638
  696TMC3    H210297   0.223   3.078  13.614 -0.2428  0.6567  0.3340
  696TMC3    C710298   0.352   3.292  13.538 -0.0139 -0.5305 -0.2874
  696TMC3    C810299   0.309   2.860  13.690  0.2739 -0.4440  0.2135
  696TMC3    O110300   0.307   3.299  13.653 -0.2599 -1.1913  0.6370
  696TMC3    O210301   0.279   2.745  13.655 -0.1670  0.3594 -0.1781
  697MPD2     C10302   0.662   4.394  15.827  0.1409 -0.5639 -0.1828
  697MPD2    C110303   0.624   4.414  15.697  0.9148 -0.1360 -0.2102
  697MPD2    C210304   0.675   4.528  15.625 -0.0069 -0.1258  0.3509
  697MPD2    C310305   0.748   4.626  15.692  0.4934 -0.5011  0.4661
  697MPD2    C410306   0.789   4.601  15.825 -0.4933  0.7019 -0.3288
  697MPD2    C510307   0.748   4.488  15.888  0.6668  0.5729 -0.4486
  697MPD2     H10308   0.656   4.534  15.519  2.5243  0.5931 -0.0594
  697MPD2    H110309   0.863   4.668  15.868 -0.0538 -0.3281  0.5171
  697MPD2    H210310   0.642   4.305  15.885 -0.1245 -1.5377 -1.7775
  697MPD2    H310311   0.780   4.473  15.990 -0.5530 -2.0148 -0.4374
  697MPD2     N10312   0.787   0.008  15.616  0.5003  0.4011 -0.1180
  697MPD2    H510313   0.758   0.004  15.519  1.1327  1.9997 -0.3769
  697MPD2    N110314   0.556   4.321  15.620 -0.2063 -0.2755  0.3994
  697MPD2    H710315   0.531   4.343  15.524 -0.5282 -0.9716  0.3232
  698TMC3    C110316   0.872   0.219  15.571  0.0882 -0.2430 -0.1379
  698TMC3    C210317   0.887   0.346  15.614 -0.0189 -0.3502 -0.1118
  698TMC3    C310318   0.924   0.445  15.531 -0.2005  0.1006 -0.8942
  698TMC3    C410319   0.909   0.182  15.448 -0.5825  0.2752 -0.3225
  698TMC3    C510320   0.957   0.287  15.367 -0.8360  1.2054  0.1472
  698TMC3    C610321   0.967   0.412  15.403 -0.4135  0.5659  0.1659
  698TMC3     C10322   0.847   0.123  15.675 -1.4786  0.1245 -0.1793
  698TMC3     O10323   0.840   0.164  15.787  0.5487 -0.5068 -0.3939
  698TMC3     H10324   0.865   0.367  15.718  0.5791 -0.0772 -0.0418
  698TMC3    H110325   0.887   0.081  15.416 -0.6770 -0.5195  2.2263
  698TMC3    H210326   1.018   0.484  15.339 -2.0375  0.1944 -1.5564
  698TMC3    C710327   0.978   0.265  15.223 -0.0304  0.0973  0.4999
  698TMC3    C810328   0.913   0.587  15.566  0.2249 -0.4119 -0.4653
  698TMC3    O110329   1.085   0.304  15.178 -0.1533  0.2757  0.3762
  698TMC3    O210330   0.903   0.610  15.685  0.0967 -0.1434 -0.6597
  699TMC3    C110331   0.240   3.146  12.937 -0.2000  0.3021 -0.7475
  699TMC3    C210332   0.305   3.048  13.015 -0.1327 -0.0368  0.2931
  699TMC3    C310333   0.263   3.031  13.148 -0.4720 -0.7368 -0.2141
  699TMC3    C410334   0.137   3.221  12.979  0.5490 -0.0142 -0.0283
  699TMC3    C510335   0.104   3.200  13.105  0.6660  0.6528 -0.9727
  699TMC3    C610336   0.159   3.110  13.186  0.5213  1.0244 -0.3880
  699TMC3     C10337   0.310   3.188  12.825  0.1548 -0.1642  0.2603
  699TMC3     O10338   0.242   3.237  12.735  0.1902  0.4068  0.0610
  699TMC3     H10339   0.384   2.985  12.976  0.3009 -1.8501  4.0456
  699TMC3    H110340   0.090   3.301  12.923  0.3851  0.2888  0.5482
  699TMC3    H210341   0.139   3.113  13.292 -1.9876 -0.1413 -0.8230
  699TMC3    C710342   4.707   3.250  13.170  0.0435 -0.4082  0.0765
  699TMC3    C810343   0.290   2.910  13.229 -0.9751 -0.5530  0.5888
  699TMC3    O110344   4.703   3.272  13.286  0.4360 -0.6583  0.6279
  699TMC3    O210345   0.212   2.891  13.319  0.0248  0.6131  0.2189
  700TMC3    C110346   3.674   0.602  16.936  0.3645 -0.6783 -0.4612
  700TMC3    C210347   3.686   0.468  16.925  0.3464  0.0309 -0.2735
  700TMC3    C310348   3.790   0.412  17.002  0.5218  0.3881 -0.3953
  700TMC3    C410349   3.748   0.684  17.025 -0.1690 -0.5792 -0.5635
  700TMC3    C510350   3.830   0.625  17.115  0.4620 -0.1792  0.3422
  700TMC3    C610351   3.857   0.490  17.104 -0.2872  0.0638 -0.5912
  700TMC3     C10352   3.653   0.675  16.812 -0.3126  0.9883  0.6184
  700TMC3     O10353   3.571   0.648  16.728 -0.0828 -0.0326 -0.0646
  700TMC3     H10354   3.642   0.411  16.844  0.2515  2.0869 -1.6645
  700TMC3    H110355   3.733   0.791  17.032 -1.4802 -0.7530 -0.8279
  700TMC3    H210356   3.935   0.449  17.167 -1.0486 -2.9815 -1.6092
  700TMC3    C710357   3.884   0.699  17.229  0.6949 -0.2633  0.3283
  700TMC3    C810358   3.852   0.298  16.953  0.1130  0.0229  0.4952
  700TMC3    O110359   4.003   0.690  17.256 -0.4108  0.4768 -0.4829
  700TMC3    O210360   3.941   0.259  17.025  0.2485  0.0118  0.1065
  701TMC3    C110361   4.006   4.251  15.341  0.4154  0.4114 -0.5331
  701TMC3    C210362   3.919   4.339  15.290  0.0753  0.3492  0.2472
  701TMC3    C310363   3.966   4.470  15.277  0.0026 -0.7897 -0.1995
  701TMC3    C410364   4.133   4.280  15.381 -0.9623  0.8231 -0.6889
  701TMC3    C510365   4.169   4.412  15.383  0.3786  0.0725 -0.1099
  701TMC3    C610366   4.094   4.501  15.319 -0.0873 -0.7399 -0.8096
  701TMC3     C10367   3.965   4.117  15.330 -0.4242 -0.0320  0.1498
  701TMC3     O10368   3.850   4.099  15.293 -0.7258 -0.4775  0.1956
  701TMC3     H10369   3.825   4.314  15.243  0.0267 -0.1631  0.6232
  701TMC3    H110370   4.194   4.202  15.423 -1.6671  1.4346  1.4409
  701TMC3    H210371   4.145   4.592  15.292 -1.1544  0.6630  2.0018
  701TMC3    C710372   4.313   4.437  15.400  0.5766  0.1837 -0.4736
  701TMC3    C810373   3.941   4.517  15.141 -0.6744  0.0954  0.4065
  701TMC3    O110374   4.356   4.518  15.317 -0.7211  0.3304  0.0719
  701TMC3    O210375   3.924   4.637  15.133  0.2301 -0.5680  0.0544
  702MPD2     C10376   3.838   1.117  10.366  0.2048 -0.5007 -0.1709
  702MPD2    C110377   3.747   1.218  10.388 -0.3212  0.7252  0.6152
  702MPD2    C210378   3.756   1.319  10.307  0.1361  0.6825 -0.7361
  702MPD2    C310379   3.863   1.331  10.210  0.6606  0.5612 -0.2374
  702MPD2    C410380   3.943   1.225  10.185 -0.5553  0.1443 -0.1903
  702MPD2    C510381   3.934   1.121  10.270 -0.1978 -0.1765  0.4221
  702MPD2     H10382   3.689   1.405  10.307 -1.2635 -0.3987 -0.5224
  702MPD2    H110383   4.023   1.221  10.111 -0.6523 -0.7474 -0.2353
  702MPD2    H210384   3.817   1.028  10.423  0.7742  0.5336  1.6627
  702MPD2    H310385   4.005   1.041  10.250 -0.4286 -0.5503  1.0895
  702MPD2     N10386   3.877   1.461  10.153 -0.0126 -0.2359  0.6958
  702MPD2    H510387   3.814   1.533  10.188  0.2313  0.7714 -0.9041
  702MPD2    N110388   3.640   1.225  10.487 -0.6576 -0.4485  0.0373
  702MPD2    H710389   3.576   1.303  10.494 -0.6416 -0.1975 -2.4731
  703TMC3    C110390   3.987   1.635  10.020 -0.1686 -0.2000  0.6518
  703TMC3    C210391   3.864   1.702  10.020  0.2482 -0.2816  0.1421
  703TMC3    C310392   3.864   1.834   9.989 -1.3423  0.1380  0.3771
  703TMC3    C410393   4.109   1.700  10.011  0.2331  1.2276 -0.3357
  703TMC3    C510394   4.101   1.836  10.002  0.5975 -0.1412  0.0835
  703TMC3    C610395   3.981   1.910   9.987 -0.6754 -0.2747 -0.2066
  703TMC3     C10396   3.991   1.502  10.084 -0.8405  0.2767 -0.1093
  703TMC3     O10397   4.095   1.440  10.067 -0.0160 -0.0963 -0.2431
  703TMC3     H10398   3.773   1.644  10.023 -1.3478  2.1685 -0.3292
  703TMC3    H110399   4.204   1.649  10.012 -0.1658  0.5715  2.9338
  703TMC3    H210400   3.981   2.018   9.996  0.9587 -0.0473 -2.9200
  703TMC3    C710401   4.231   1.909   9.993 -0.1329 -1.0545 -0.5079
  703TMC3    C810402   3.742   1.904   9.980 -0.2931  0.4452  0.2048
  703TMC3    O110403   4.213   2.031   9.989  0.3059 -0.4620  0.9839
  703TMC3    O210404   3.745   2.015   9.927 -0.1652  0.5981 -0.9989
  704TMC3    C110405   1.175   4.028  12.383 -0.1725 -0.3018  0.6369
  704TMC3    C210406   1.278   4.106  12.432 -0.1981 -0.6014  0.5613
  704TMC3    C310407   1.349   4.062  12.533  0.1755 -0.0181 -0.6913
  704TMC3    C410408   1.136   3.913  12.445 -0.3478 -0.0866  0.2274
  704TMC3    C510409   1.211   3.867  12.550  0.1726  0.4329  0.7309
  704TMC3    C610410   1.314   3.945  12.600  0.3390 -0.6555 -0.1161
  704TMC3     C10411   1.082   4.081  12.275  0.1556 -0.7996  0.1000
  704TMC3     O10412   0.964   4.044  12.285  0.1511 -0.2260  0.0768
  704TMC3     H10413   1.327   4.188  12.380  2.2791 -0.6744  2.7938
  704TMC3    H110414   1.065   3.849  12.395 -1.6307  1.5579 -0.0256
  704TMC3    H210415   1.388   3.896  12.662  1.1984 -1.0528 -1.4623
  704TMC3    C710416   1.260   3.735  12.527 -0.3694  0.8525 -0.1095
  704TMC3    C810417   1.488   4.085  12.529 -0.4938  0.3870 -0.4458
  704TMC3    O110418   1.369   3.735  12.468  0.0459 -0.0414  0.4090
  704TMC3    O210419   1.538   4.104  12.416 -0.1294  0.1750  0.7986
  705MPD2     C10420   1.007   2.399  16.655 -0.2949 -0.3053  0.1381
  705MPD2    C110421   1.003   2.431  16.516 -0.6534  0.3523  0.3107
  705MPD2    C210422   0.887   2.404  16.442  0.0503  0.4461 -0.0367
  705MPD2    C310423   0.779   2.351  16.510  0.4830  0.4778 -0.8366
  705MPD2    C410424   0.778   2.319  16.639 -0.1594 -0.3922  0.1043
  705MPD2    C510425   0.901   2.333  16.708  0.3800  0.1224 -0.4874
  705MPD2     H10426   0.886   2.430  16.337  1.4885 -0.3770 -0.2631
  705MPD2    H110427   0.694   2.277  16.692  0.7117  0.3437  2.0691
  705MPD2    H210428   1.091   2.409  16.723 -0.5039  1.0600  0.1864
  705MPD2    H310429   0.892   2.321  16.816 -0.0083  1.8619 -0.3153
  705MPD2     N10430   0.657   2.364  16.451 -0.2002 -0.3108  0.6024
  705MPD2    H510431   0.576   2.340  16.508 -0.5759 -0.7690 -0.1066
  705MPD2    N110432   1.118   2.493  16.455  0.6222 -0.3332  0.3587
  705MPD2    H710433   1.114   2.508  16.354  0.0616  1.3954  0.6294
  706TMC3    C110434   1.459   2.674  16.280 -0.0790  0.1063 -0.4623
  706TMC3    C210435   1.391   2.773  16.218 -0.9015 -0.9300 -0.0515
  706TMC3    C310436   1.271   2.813  16.274  0.1177  0.3122 -0.5726
  706TMC3    C410437   1.423   2.613  16.399  0.3330  0.4368 -0.2161
  706TMC3    C510438   1.298   2.649  16.446  0.7880  0.9764  0.1281
  706TMC3    C610439   1.218   2.742  16.387 -0.2538  0.3037 -1.1205
  706TMC3     C10440   1.570   2.616  16.219 -0.1945  0.1351  0.0374
  706TMC3     O10441   1.669   2.573  16.275 -0.5722  0.6478 -0.4563
  706TMC3     H10442   1.434   2.824  16.132  1.6541 -1.6889  0.7781
  706TMC3    H110443   1.484   2.529  16.431 -0.4441 -0.5983 -1.4785
  706TMC3    H210444   1.128   2.763  16.445 -0.7050 -0.8447 -1.4020
  706TMC3    C710445   1.235   2.539  16.516 -0.2127 -0.0109 -0.7770
  706TMC3    C810446   1.214   2.942  16.245  0.0893 -0.0791 -0.2924
  706TMC3    O110447   1.293   2.513  16.620  0.1577 -0.7742  0.0954
  706TMC3    O210448   1.226   2.989  16.134  0.4870  0.0435 -0.3976
  707TMC3    C110449   3.222   2.167   2.090 -0.4465  0.0160 -0.4778
  707TMC3    C210450   3.311   2.058   2.093 -0.9445  0.0352 -0.6415
  707TMC3    C310451   3.413   2.059   2.187  0.4301  0.6223 -0.1092
  707TMC3    C410452   3.239   2.271   2.178  0.5281  0.6623 -0.3277
  707TMC3    C510453   3.351   2.274   2.256  0.4056  0.8168  0.1968
  707TMC3    C610454   3.433   2.162   2.272 -0.2290 -0.1091  0.9451
  707TMC3     C10455   3.133   2.174   1.980 -0.3432  0.5051  0.0428
  707TMC3     O10456   3.159   2.095   1.888 -0.4281  0.0295 -0.3360
  707TMC3     H10457   3.291   1.973   2.029 -0.2233 -1.6862  1.3973
  707TMC3    H110458   3.168   2.352   2.185  0.2096  0.3052  0.5324
  707TMC3    H210459   3.513   2.157   2.346  0.8480 -1.2110 -0.2893
  707TMC3    C710460   3.377   2.374   2.354  0.9626  0.8554 -0.2390
  707TMC3    C810461   3.522   1.960   2.178 -0.0330 -0.3610 -0.0126
  707TMC3    O110462   3.491   2.381   2.396 -1.0878  0.5067  0.8112
  707TMC3    O210463   3.595   1.953   2.271  0.1063 -0.4807  0.0779
  708MPD2     C10464   4.347   1.215  13.609 -0.7384 -0.8212  0.4674
  708MPD2    C110465   4.249   1.135  13.670 -0.0980 -0.2393  0.1045
  708MPD2    C210466   4.270   1.076  13.792  0.0436 -0.7607 -0.5277
  708MPD2    C310467   4.389   1.107  13.862  0.5228 -0.8608 -1.0960
  708MPD2    C410468   4.482   1.198  13.806  0.1859 -0.1059  0.0737
  708MPD2    C510469   4.464   1.245  13.677 -0.2173 -0.0018 -0.3946
  708MPD2     H10470   4.191   1.024  13.845 -0.0978  0.4148  0.4203
  708MPD2    H110471   4.567   1.226  13.867  1.1778 -2.0884 -0.3757
  708MPD2    H210472   4.337   1.233  13.502 -0.3363 -1.1594  0.3713
  708MPD2    H310473   4.543   1.299  13.626  0.1470 -0.6120 -0.4734
  708MPD2     N10474   4.407   1.056  13.993 -0.0825 -0.1627  0.5101
  708MPD2    H510475   4.493   1.084  14.039 -0.0754  0.2441  0.2490
  708MPD2    N110476   4.128   1.125  13.597  0.7290 -0.1115 -0.5882
  708MPD2    H710477   4.118   1.163  13.503  1.3619 -0.4967 -0.8110
  709TMC3    C110478   3.906   1.052  13.555  0.1512 -0.5098 -0.4268
  709TMC3    C210479   3.932   0.973  13.449  0.1106  0.4315  0.2619
  709TMC3    C310480   3.839   0.876  13.421  0.0068  0.9774 -0.7427
  709TMC3    C410481   3.800   1.029  13.636 -0.4604 -0.3596  0.2572
  709TMC3    C510482   3.722   0.924  13.604 -0.0948 -0.5919 -0.2824
  709TMC3    C610483   3.740   0.846  13.501 -0.3961  1.1495  0.7510
  709TMC3     C10484   4.014   1.071  13.649  0.0195  0.3581  0.2021
  709TMC3     O10485   3.984   1.040  13.764 -0.1772 -0.2679  0.0438
  709TMC3     H10486   4.029   0.979  13.402 -0.1117 -1.6977 -0.4535
  709TMC3    H110487   3.768   1.095  13.716 -0.2982  0.3385 -0.2534
  709TMC3    H210488   3.696   0.747  13.490  1.9116 -0.0120  1.8249
  709TMC3    C710489   3.670   0.854  13.723 -0.0339  0.1801 -0.1075
  709TMC3    C810490   3.855   0.818  13.294  0.4091 -0.3550 -0.0304
  709TMC3    O110491   3.574   0.781  13.725  0.6786 -0.4321  0.2556
  709TMC3    O210492   3.816   0.705  13.272 -0.2373 -0.1535 -0.0211
  710TMC3    C110493   0.779   3.264   0.719 -0.2337 -0.0339 -0.3283
  710TMC3    C210494   0.833   3.154   0.657 -0.6797  0.1837 -0.6845
  710TMC3    C310495   0.843   3.031   0.721  0.1139 -0.6431 -1.0017
  710TMC3    C410496   0.744   3.248   0.851 -0.5363 -0.4728 -0.4710
  710TMC3    C510497   0.749   3.129   0.914 -0.6767 -0.0780  0.3298
  710TMC3    C610498   0.787   3.015   0.847  0.3754  0.3331  0.1818
  710TMC3     C10499   0.704   3.353   0.631 -0.2289 -0.4800  0.1569
  710TMC3     O10500   0.701   3.321   0.510 -0.3766  0.3381 -0.2418
  710TMC3     H10501   0.873   3.169   0.558 -0.5820  0.4386 -0.6055
  710TMC3    H110502   0.679   3.325   0.891  0.4073  0.8675 -1.4933
  710TMC3    H210503   0.791   2.918   0.895  1.8354 -0.1810 -0.9696
  710TMC3    C710504   0.698   3.106   1.053  1.2786  0.0771  0.1830
  710TMC3    C810505   0.874   2.921   0.635 -0.2354  1.1082 -0.3279
  710TMC3    O110506   0.672   2.990   1.085  0.1311 -0.1116  0.1301
  710TMC3    O210507   0.923   2.943   0.525 -0.8137 -0.4658  0.3843
  711TMC3    C110508   0.232   3.846  14.936 -0.3764 -0.4744  0.1700
  711TMC3    C210509   0.270   3.889  15.059  0.1692  0.2936 -0.3955
  711TMC3    C310510   0.394   3.859  15.103 -0.5550  0.3077  0.6135
  711TMC3    C410511   0.325   3.788  14.853  0.0199  0.0382 -0.4208
  711TMC3    C510512   0.453   3.763  14.900  0.3159 -0.5998  0.5054
  711TMC3    C610513   0.489   3.792  15.028 -0.5610 -0.3642  0.5045
  711TMC3     C10514   0.108   3.768  14.932 -0.4199  0.2991  0.3811
  711TMC3     O10515   0.100   3.697  14.830 -0.1218  0.4976 -0.6996
  711TMC3     H10516   0.209   3.950  15.125  0.7302  0.5135 -0.0768
  711TMC3    H110517   0.297   3.783  14.748  1.9643  1.8942 -1.0161
  711TMC3    H210518   0.588   3.771  15.069 -1.5661 -2.7595  1.7635
  711TMC3    C710519   0.515   3.642  14.849 -0.6208 -0.0682  0.1770
  711TMC3    C810520   0.384   3.821  15.245  0.5633  0.6823 -0.3285
  711TMC3    O110521   0.624   3.619  14.897  0.7558  0.0170  0.1152
  711TMC3    O210522   0.270   3.800  15.274  0.1075 -0.4922  0.2412
  712MPD2     C10523   1.475   4.094  13.514  0.5195  0.1463 -0.2496
  712MPD2    C110524   1.371   4.190  13.527 -0.1835  0.8992 -0.1247
  712MPD2    C210525   1.413   4.318  13.555 -0.0913  0.1125 -0.2009
  712MPD2    C310526   1.548   4.352  13.561  0.4426  0.5227 -0.4497
  712MPD2    C410527   1.643   4.257  13.528 -0.7477  0.0850 -0.4258
  712MPD2    C510528   1.611   4.126  13.520  0.0075 -0.4544  0.4695
  712MPD2     H10529   1.334   4.391  13.572  0.9923  1.4732 -0.9441
  712MPD2    H110530   1.745   4.288  13.507 -0.5958  0.4900  0.9584
  712MPD2    H210531   1.449   3.991  13.494  0.1549  0.0467  0.7675
  712MPD2    H310532   1.687   4.052  13.499 -0.0728 -0.5051  0.3498
  712MPD2     N10533   1.594   4.485  13.568 -0.2143 -0.5702  0.1391
  712MPD2    H510534   1.694   4.500  13.577 -0.3573  0.5155 -0.1384
  712MPD2    N110535   1.238   4.162  13.529 -0.3337  0.1132 -0.0737
  712MPD2    H710536   1.179   4.240  13.556 -0.9998 -0.3025 -0.3362
  713TMC3    C110537   1.583   4.723  13.585 -0.1531  0.3372 -0.4914
  713TMC3    C210538   1.697   0.001  13.660  0.3848  0.0520  0.1445
  713TMC3    C310539   1.727   0.129  13.693  0.2643 -0.1433  0.2334
  713TMC3    C410540   1.519   0.106  13.529  0.5441 -0.2816  0.2083
  713TMC3    C510541   1.559   0.230  13.558  0.2727  0.4658  0.0606
  713TMC3    C610542   1.656   0.242  13.658  0.1861  0.2815 -0.3567
  713TMC3     C10543   1.515   4.597  13.566  0.3529  0.2416 -0.0607
  713TMC3     O10544   1.399   4.600  13.525  0.0638 -0.4602 -0.4323
  713TMC3     H10545   1.761   4.649  13.696  1.5746 -0.3375 -2.8719
  713TMC3    H110546   1.437   0.086  13.461 -0.5547  1.7527  0.9481
  713TMC3    H210547   1.699   0.338  13.686  1.4337 -0.4568  0.2411
  713TMC3    C710548   1.464   0.337  13.517  0.1119 -0.6163  0.2257
  713TMC3    C810549   1.865   0.155  13.744  0.3193  0.3207 -0.8001
  713TMC3    O110550   1.390   0.316  13.420 -0.4088  1.1190  0.3038
  713TMC3    O210551   1.933   0.227  13.677  0.0719  0.3413  0.2341
  714MPD2     C10552   2.915   4.334   1.689 -0.1691  0.3432 -0.2167
  714MPD2    C110553   2.945   4.204   1.648  0.3230 -0.9194 -0.3224
  714MPD2    C210554   2.852   4.132   1.580 -0.2165  0.3458 -0.4458
  714MPD2    C310555   2.731   4.185   1.545  0.5209 -0.9558 -0.0762
  714MPD2    C410556   2.704   4.319   1.572 -0.0597 -0.3122 -0.1001
  714MPD2    C510557   2.796   4.391   1.650  0.4237 -0.4859  0.2329
  714MPD2     H10558   2.874   4.032   1.545  1.7134  0.6180 -0.0651
  714MPD2    H110559   2.609   4.362   1.541  0.4309  0.9694  0.2188
  714MPD2    H210560   2.989   4.386   1.749  1.1322 -0.2483 -1.2936
  714MPD2    H310561   2.769   4.488   1.690 -0.1736 -0.6785  0.2942
  714MPD2     N10562   2.650   4.101   1.468  0.2247 -0.2229  0.4959
  714MPD2    H510563   2.693   4.014   1.437 -0.4417 -0.6696  0.8367
  714MPD2    N110564   3.070   4.148   1.681  0.1466  0.1652 -0.2620
  714MPD2    H710565   3.141   4.203   1.727 -1.7287 -0.4255  3.3158
  715TMC3    C110566   3.249   4.006   1.638 -0.3939 -0.3835 -0.1026
  715TMC3    C210567   3.314   3.901   1.699 -0.1757  0.1701 -0.8373
  715TMC3    C310568   3.450   3.918   1.728 -0.3103  0.8417 -0.2885
  715TMC3    C410569   3.307   4.115   1.592 -0.0818 -0.3289  0.0632
  715TMC3    C510570   3.439   4.127   1.629  0.7233 -0.2895  1.0534
  715TMC3    C610571   3.515   4.035   1.700 -0.3211  0.0427  0.3442
  715TMC3     C10572   3.107   4.018   1.644  0.4223  0.9331  0.0866
  715TMC3     O10573   3.037   3.917   1.648  0.9286 -0.1728  0.0513
  715TMC3     H10574   3.262   3.810   1.727 -0.3562  0.7189  0.6255
  715TMC3    H110575   3.250   4.182   1.529 -0.9328 -1.3806 -0.2870
  715TMC3    H210576   3.621   4.048   1.716 -0.7119  1.4117  1.6872
  715TMC3    C710577   3.509   4.242   1.586  0.0707 -0.2201 -0.2546
  715TMC3    C810578   3.535   3.801   1.736  0.5733  0.3403  0.3246
  715TMC3    O110579   3.618   4.234   1.537  0.3392  0.1044 -0.4812
  715TMC3    O210580   3.486   3.709   1.672  0.5899 -0.4339 -0.4291
  716MPD2     C10581   3.263   1.308   9.628  0.5271  0.0980 -0.2189
  716MPD2    C110582   3.342   1.367   9.534 -0.2310  0.1479  0.4226
  716MPD2    C210583   3.432   1.292   9.464 -0.3191  0.6178 -0.4404
  716MPD2    C310584   3.450   1.163   9.500 -1.0773 -0.4833  0.1042
  716MPD2    C410585   3.379   1.107   9.603  0.5898  0.0431 -0.0225
  716MPD2    C510586   3.284   1.178   9.671  0.5032  0.3163 -0.5855
  716MPD2     H10587   3.476   1.329   9.373 -0.2397  1.6389  0.0177
  716MPD2    H110588   3.384   1.000   9.619 -1.9500  0.1144  1.2119
  716MPD2    H210589   3.181   1.363   9.672 -0.2606 -3.5228  2.8218
  716MPD2    H310590   3.227   1.129   9.749 -0.9132  1.1865 -1.0705
  716MPD2     N10591   3.517   1.082   9.403 -0.7619  0.5474  0.3453
  716MPD2    H510592   3.540   1.128   9.316  1.1879 -0.9156  0.0751
  716MPD2    N110593   3.318   1.501   9.510 -0.4151  0.1762 -0.2877
  716MPD2    H710594   3.250   1.551   9.567  0.3874  2.9198 -1.7374
  717TMC3    C110595   3.618   0.898   9.311  0.3467 -0.7180 -0.8298
  717TMC3    C210596   3.574   0.948   9.193  0.0984  0.1433 -0.1890
  717TMC3    C310597   3.655   0.942   9.082 -0.0028 -0.6167  0.3747
  717TMC3    C410598   3.746   0.848   9.326 -0.0318  0.5637  0.2261
  717TMC3    C510599   3.826   0.839   9.214  0.0302 -1.0114 -0.2898
  717TMC3    C610600   3.784   0.895   9.094 -0.0236  0.1267  1.0258
  717TMC3     C10601   3.559   0.956   9.429 -0.4310  0.0220  0.3312
  717TMC3     O10602   3.578   0.909   9.542 -0.4471 -0.4887  0.6488
  717TMC3     H10603   3.474   0.987   9.177  0.0281  0.1141  0.1774
  717TMC3    H110604   3.783   0.800   9.416 -2.2816 -2.7536 -0.6286
  717TMC3    H210605   3.835   0.887   8.999 -3.3401 -4.5032 -0.3894
  717TMC3    C710606   3.956   0.777   9.231 -1.1773 -0.5052  0.2748
  717TMC3    C810607   3.607   1.018   8.966  0.5167  0.1094  0.0767
  717TMC3    O110608   3.966   0.677   9.304  0.0757  0.0428 -0.4771
  717TMC3    O210609   3.488   1.036   8.954  0.1559  0.3273 -0.3693
  718MPD2     C10610   2.937   1.013  12.892 -0.1424 -0.1459  0.0754
  718MPD2    C110611   2.868   0.956  12.786  0.4680  0.1114  0.1229
  718MPD2    C210612   2.755   0.887  12.824 -0.3210 -0.0701  0.9091
  718MPD2    C310613   2.714   0.879  12.960 -0.0659 -0.4586 -0.1448
  718MPD2    C410614   2.777   0.948  13.056  0.0104  0.0511  0.0987
  718MPD2    C510615   2.887   1.010  13.017  0.0920 -0.3136 -0.1847
  718MPD2     H10616   2.715   0.820  12.748  1.4704  0.0373 -0.1189
  718MPD2    H110617   2.742   0.954  13.159 -1.3867 -0.7706 -0.3347
  718MPD2    H210618   3.027   1.073  12.883  1.1849 -2.3487 -1.2067
  718MPD2    H310619   2.949   1.063  13.089 -0.8446 -0.8206  0.9971
  718MPD2     N10620   2.611   0.788  12.983 -0.0958 -0.2879  0.0714
  718MPD2    H510621   2.549   0.766  12.906 -0.8216  1.2453  0.1976
  718MPD2    N110622   2.927   0.948  12.659 -0.4712  0.6830  0.1436
  718MPD2    H710623   3.015   0.999  12.660 -0.6036  0.9229 -0.4911
  719TMC3    C110624   2.968   0.865  12.442 -0.0734 -0.3493 -0.3872
  719TMC3    C210625   2.900   0.800  12.342 -0.7550  0.0899  0.8668
  719TMC3    C310626   2.947   0.683  12.290  0.0611  0.1983  0.3573
  719TMC3    C410627   3.081   0.814  12.493 -0.4554 -0.1131  0.6852
  719TMC3    C510628   3.135   0.704  12.425  0.0870  0.4599  0.2427
  719TMC3    C610629   3.072   0.634  12.323  0.5010  0.0450 -0.1816
  719TMC3     C10630   2.872   0.894  12.546  0.3799  0.3786  0.0739
  719TMC3     O10631   2.760   0.864  12.527  0.0965  0.2277  0.1086
  719TMC3     H10632   2.804   0.835  12.304 -0.4685  1.8287  1.7495
  719TMC3    H110633   3.128   0.848  12.585  2.0216 -0.7795 -0.3487
  719TMC3    H210634   3.117   0.544  12.283  0.2275  0.2378 -0.9182
  719TMC3    C710635   3.277   0.687  12.436 -0.5882 -0.2081 -0.0149
  719TMC3    C810636   2.843   0.585  12.280 -0.0866  0.1301  0.6733
  719TMC3    O110637   3.323   0.610  12.355  0.0890  0.2760 -0.2231
  719TMC3    O210638   2.874   0.474  12.238 -0.5472 -0.3683 -0.7625
  720MPD2     C10639   1.577   1.810  13.428  0.3141  0.3602  0.6482
  720MPD2    C110640   1.707   1.838  13.449  0.8050  0.1102 -0.3839
  720MPD2    C210641   1.766   1.813  13.574 -0.1954  0.5845  0.0291
  720MPD2    C310642   1.685   1.757  13.676  0.0432 -0.2609  0.4356
  720MPD2    C410643   1.548   1.727  13.653 -0.2514  0.1907  0.4321
  720MPD2    C510644   1.499   1.755  13.524 -0.2971  0.2557 -0.5605
  720MPD2     H10645   1.868   1.848  13.586 -0.0395  0.1974 -0.1713
  720MPD2    H110646   1.488   1.662  13.716  0.6010  1.3370  2.4028
  720MPD2    H210647   1.523   1.842  13.340  2.3102 -0.5192 -0.9023
  720MPD2    H310648   1.401   1.715  13.501  0.7029 -1.1662 -2.3593
  720MPD2     N10649   1.745   1.745  13.803 -0.3035  0.4488 -0.1047
  720MPD2    H510650   1.841   1.779  13.805  0.5061 -1.8230 -0.0154
  720MPD2    N110651   1.775   1.914  13.352  0.2169 -0.6869 -0.0831
  720MPD2    H710652   1.874   1.900  13.333  0.2719  1.1170 -1.1734
  721TMC3    C110653   1.766   1.688  14.025 -0.2895 -0.6226 -0.6006
  721TMC3    C210654   1.700   1.681  14.141 -0.3086 -0.8831 -0.5380
  721TMC3    C310655   1.778   1.658  14.253 -0.4723 -0.1583  0.2199
  721TMC3    C410656   1.900   1.681  14.011 -0.4975  0.6241  1.1820
  721TMC3    C510657   1.972   1.656  14.119  0.2089 -0.1408 -0.0863
  721TMC3    C610658   1.916   1.648  14.240  0.9046  0.5113  0.0884
  721TMC3     C10659   1.679   1.704  13.909  0.2092  0.6341 -0.5393
  721TMC3     O10660   1.561   1.676  13.933  0.2840 -0.6548  0.2151
  721TMC3     H10661   1.593   1.698  14.145 -0.0419  0.6184  0.2658
  721TMC3    H110662   1.949   1.666  13.916 -0.4280 -2.2858  1.6567
  721TMC3    H210663   1.973   1.632  14.330 -0.6050 -1.3802  0.7197
  721TMC3    C710664   2.111   1.628  14.096  0.3507  0.0055 -0.1064
  721TMC3    C810665   1.731   1.680  14.386 -0.2540  0.0731  0.1462
  721TMC3    O110666   2.161   1.689  14.004  0.1281 -0.3754  0.0733
  721TMC3    O210667   1.811   1.651  14.472 -0.1973  0.1210 -0.1611
  722MPD2     C10668   0.729   0.354  12.863 -0.6215  0.4009  0.2642
  722MPD2    C110669   0.690   0.486  12.868  0.0469 -0.4911  0.8280
  722MPD2    C210670   0.567   0.514  12.811  0.7267  0.0358  0.1648
  722MPD2    C310671   0.480   0.421  12.762  0.2610  0.6272 -0.1010
  722MPD2    C410672   0.519   0.291  12.766  0.1967  0.0792 -0.2948
  722MPD2    C510673   0.648   0.258  12.810  0.7011  0.0261 -0.4995
  722MPD2     H10674   0.536   0.617  12.822  0.9396  0.1163  0.0089
  722MPD2    H110675   0.455   0.216  12.722  2.2664 -1.5253 -0.5507
  722MPD2    H210676   0.830   0.319  12.879 -0.9177  0.1833  1.6366
  722MPD2    H310677   0.673   0.153  12.801 -2.8448 -0.9763  1.1746
  722MPD2     N10678   0.355   0.462  12.709  0.0303  0.1144  0.1473
  722MPD2    H510679   0.343   0.563  12.703  0.1608  0.1923  1.2108
  722MPD2    N110680   0.778   0.593  12.917  0.3456 -0.0133 -0.2117
  722MPD2    H710681   0.740   0.686  12.906  2.4951  0.6447 -1.8573
  723TMC3    C110682   0.150   0.454  12.611  0.0343  0.1275  0.7864
  723TMC3    C210683   0.027   0.406  12.618  0.2115  0.0049 -0.6963
  723TMC3    C310684   4.651   0.476  12.568  0.9106  0.6681  0.1870
  723TMC3    C410685   0.172   0.568  12.548  0.7937 -0.7701  0.1081
  723TMC3    C510686   0.061   0.652  12.521 -0.2144 -0.2596  0.3711
  723TMC3    C610687   4.661   0.607  12.532  0.0030 -0.1342  0.6164
  723TMC3     C10688   0.252   0.378  12.676  0.6245 -0.5235 -0.3527
  723TMC3     O10689   0.236   0.261  12.710 -0.1952  0.0901 -0.7083
  723TMC3     H10690   0.007   0.312  12.670 -0.4006  0.5938  0.1310
  723TMC3    H110691   0.275   0.595  12.528  0.7142 -1.0963 -0.7729
  723TMC3    H210692   4.572   0.653  12.491 -0.9405 -1.9075  0.6740
  723TMC3    C710693   0.089   0.791  12.525 -0.7932  0.1789 -0.3233
  723TMC3    C810694   4.519   0.419  12.590  0.6292 -0.2134 -0.2669
  723TMC3    O110695   0.206   0.830  12.535 -0.4979 -0.1425  0.3180
  723TMC3    O210696   4.434   0.509  12.604 -1.0832  0.2295  0.1282
  724TMC3    C110697   0.613   3.025   9.532  0.1784  0.5021  0.0597
  724TMC3    C210698   0.522   3.127   9.545  0.6262 -0.5958 -0.4682
  724TMC3    C310699   0.569   3.256   9.519  0.0671 -0.1595 -0.2613
  724TMC3    C410700   0.748   3.055   9.536  0.3376 -0.3619  0.1103
  724TMC3    C510701   0.788   3.184   9.544  0.3752 -0.2688 -0.0667
  724TMC3    C610702   0.702   3.284   9.513 -0.3496 -0.5797 -0.5868
  724TMC3     C10703   0.560   2.896   9.495  0.5550 -0.3354 -0.2000
  724TMC3     O10704   0.439   2.884   9.493 -0.3507  0.2298  0.1109
  724TMC3     H10705   0.417   3.105   9.536  0.5043  0.6595 -2.2855
  724TMC3    H110706   0.819   2.976   9.555  0.9920  0.5197  1.3100
  724TMC3    H210707   0.738   3.386   9.516  0.8273 -1.0091  0.0916
  724TMC3    C710708   0.925   3.223   9.582 -0.4575  0.0473 -0.5307
  724TMC3    C810709   0.466   3.363   9.527 -0.0041 -0.2944  0.3482
  724TMC3    O110710   0.974   3.317   9.516  0.3791  0.0111  0.4314
  724TMC3    O210711   0.376   3.337   9.604  0.4277 -0.4737 -0.6459
  725TMC3    C110712   2.490   2.454  12.541  0.1088  0.0385 -0.0614
  725TMC3    C210713   2.493   2.462  12.401  0.0041  0.8612  0.6519
  725TMC3    C310714   2.484   2.346  12.327 -0.1836 -0.8178  0.8796
  725TMC3    C410715   2.478   2.331  12.605  0.1422 -0.5709 -0.9040
  725TMC3    C510716   2.475   2.217  12.527 -0.0047  0.2398 -0.0644
  725TMC3    C610717   2.485   2.226  12.392  0.0274 -0.2957  0.2801
  725TMC3     C10718   2.523   2.574  12.615 -0.5105 -0.0574  0.0546
  725TMC3     O10719   2.517   2.679  12.550  0.1704 -0.0567  0.0248
  725TMC3     H10720   2.497   2.557  12.350  0.7679 -1.3694 -3.4952
  725TMC3    H110721   2.468   2.321  12.712 -1.5982 -0.7550 -1.0784
  725TMC3    H210722   2.483   2.131  12.338 -0.7081 -0.3905  0.4658
  725TMC3    C710723   2.456   2.083  12.591  0.4008  0.5735 -0.4226
  725TMC3    C810724   2.434   2.367  12.189  0.6612 -0.0624 -0.2695
  725TMC3    O110725   2.454   1.986  12.516 -0.2831 -0.1628  0.3058
  725TMC3    O210726   2.438   2.488  12.150 -0.5329  0.3526 -0.4908
  726MPD2     C10727   0.548   3.519  10.235 -0.2534  0.0510 -0.1802
  726MPD2    C110728   0.452   3.614  10.207  0.5027  0.2217 -0.0404
  726MPD2    C210729   0.322   3.573  10.220  0.0312 -0.1088  0.4000
  726MPD2    C310730   0.290   3.443  10.262 -0.3108  0.3326  0.0416
  726MPD2    C410731   0.388   3.356  10.298 -0.0110 -0.3066  0.4033
  726MPD2    C510732   0.521   3.397  10.288 -0.5539 -0.3584 -0.1244
  726MPD2     H10733   0.241   3.642  10.200 -0.1549 -0.1921  0.8761
  726MPD2    H110734   0.370   3.260  10.345 -1.3693 -1.3932 -2.2951
  726MPD2    H210735   0.653   3.547  10.231 -0.3001  0.3677  0.7057
  726MPD2    H310736   0.605   3.335  10.318  0.1342  1.3642  1.4331
  726MPD2     N10737   0.147   3.424  10.301  0.2653 -0.4841 -0.2937
  726MPD2    H510738   0.091   3.500  10.264  1.9799  1.0300  0.1938
  726MPD2    N110739   0.490   3.747  10.167  0.1680  0.5655  0.1234
  726MPD2    H710740   0.412   3.811  10.159 -1.3412 -1.4153 -1.0505
  727TMC3    C110741   0.622   3.920  10.072  0.4096  0.1906  0.3746
  727TMC3    C210742   0.743   3.968  10.036 -0.1285  0.7126 -0.4421
  727TMC3    C310743   0.772   4.097  10.034  0.0547 -0.1155 -0.0722
  727TMC3    C410744   0.520   4.010  10.107  0.7101  0.1858  0.2112
  727TMC3    C510745   0.554   4.140  10.111 -0.6058  0.4779  0.0889
  727TMC3    C610746   0.680   4.189  10.078  0.5081 -0.2295 -0.4583
  727TMC3     C10747   0.616   3.783  10.117  0.8870  0.1167  0.6209
  727TMC3     O10748   0.719   3.720  10.108 -0.5991 -0.0725 -0.5663
  727TMC3     H10749   0.817   3.905   9.988  0.4405 -1.0294  2.7589
  727TMC3    H110750   0.421   3.978  10.136  0.0988 -0.8479 -2.9943
  727TMC3    H210751   0.705   4.293  10.093  0.2091 -0.2648  0.2666
  727TMC3    C710752   0.454   4.233  10.165  1.0063  0.6992 -0.6316
  727TMC3    C810753   0.912   4.132  10.021  0.2489 -0.0714  0.3768
  727TMC3    O110754   0.335   4.221  10.135  0.5083 -0.2613  0.2502
  727TMC3    O210755   0.969   4.069   9.942  0.1253 -1.2275  0.5432
  728TMC3    C110756   4.074   2.183  15.336 -0.4674  0.9085 -0.0754
  728TMC3    C210757   4.157   2.106  15.419 -0.2015  0.5594 -0.0579
  728TMC3    C310758   4.272   2.066  15.364 -0.7319 -0.6814 -0.0034
  728TMC3    C410759   4.109   2.202  15.204  0.4251  0.4756  0.0836
  728TMC3    C510760   4.224   2.149  15.160 -0.1205  0.9274 -0.1903
  728TMC3    C610761   4.295   2.057  15.229 -0.1352 -0.2725  0.3700
  728TMC3     C10762   3.931   2.188  15.375  0.3482 -0.9673  0.1176
  728TMC3     O10763   3.895   2.118  15.472  0.4730 -0.1760 -0.6207
  728TMC3     H10764   4.133   2.084  15.523 -0.0490 -1.7541 -0.5133
  728TMC3    H110765   4.057   2.280  15.151 -0.6403 -0.6498 -0.5434
  728TMC3    H210766   4.383   2.014  15.184 -0.6825 -0.4080 -0.5614
  728TMC3    C710767   4.290   2.217  15.049 -0.3055  0.5191 -0.9404
  728TMC3    C810768   4.363   2.004  15.457  0.2088 -0.0227  0.4564
  728TMC3    O110769   4.362   2.149  14.976  0.0491 -0.5836 -0.3294
  728TMC3    O210770   4.320   1.944  15.551 -0.1112  0.2429 -0.4164
  729MPD2     C10771   1.534   2.898  16.565  0.3727  0.1776 -0.3257
  729MPD2    C110772   1.545   3.035  16.548 -0.2240 -0.2862 -0.3020
  729MPD2    C210773   1.516   3.113  16.657  0.3717 -1.0003  0.2078
  729MPD2    C310774   1.507   3.067  16.786 -0.7437  0.2856  0.6214
  729MPD2    C410775   1.492   2.929  16.805  0.1091 -0.2059  0.5483
  729MPD2    C510776   1.504   2.855  16.693  0.4846 -0.4772 -0.1991
  729MPD2     H10777   1.501   3.219  16.643 -0.7762 -0.7886  2.9282
  729MPD2    H110778   1.459   2.884  16.898 -1.2982  0.7136  0.4908
  729MPD2    H210779   1.557   2.825  16.488  0.4087 -1.0817  0.8648
  729MPD2    H310780   1.483   2.749  16.701  0.7145 -0.4463  0.8295
  729MPD2     N10781   1.489   3.154  16.891  0.0747 -0.1618 -0.3129
  729MPD2    H510782   1.461   3.105  16.976 -0.1019  2.7914  1.3501
  729MPD2    N110783   1.586   3.087  16.428  0.4597 -0.5758  0.3119
  729MPD2    H710784   1.617   3.016  16.362 -0.4086 -2.1446  1.6036
  730TMC3    C110785   1.494   3.364  16.996  0.0902 -0.1709 -0.3275
  730TMC3    C210786   1.560   3.484  17.005  0.1943 -0.2762 -0.0346
  730TMC3    C310787   1.509   3.578  17.090 -0.1956  0.6400 -0.3955
  730TMC3    C410788   1.379   3.340  17.068  0.0625  0.0615  0.2277
  730TMC3    C510789   1.327   3.439  17.144 -0.2862 -0.4002 -0.4281
  730TMC3    C610790   1.399   3.554  17.168  0.4105 -0.7625 -0.3724
  730TMC3     C10791   1.520   3.287  16.881  0.0659 -0.2559  0.6088
  730TMC3     O10792   1.578   3.353  16.795  0.0097  0.7051  0.5296
  730TMC3     H10793   1.653   3.487  16.950  1.3692  1.3383  2.0268
  730TMC3    H110794   1.333   3.244  17.047 -0.2200  0.3940 -0.6546
  730TMC3    H210795   1.377   3.605  17.261  2.0706  2.7738 -1.9333
  730TMC3    C710796   1.207   3.397  17.218  0.6635  0.1593 -0.1320
  730TMC3    C810797   1.562   3.712  17.069  0.4754 -0.2012 -0.4475
  730TMC3    O110798   1.184   3.277  17.230 -0.0651 -0.2097 -0.2183
  730TMC3    O210799   1.657   3.730  16.993 -0.6042  0.0292  0.0546
  731MPD2     C10800   1.646   0.740  12.220 -0.2987 -0.7323 -0.5993
  731MPD2    C110801   1.782   0.760  12.244 -0.0856 -0.7593 -1.0643
  731MPD2    C210802   1.817   0.787  12.374 -0.6748 -0.4431 -0.4000
  731MPD2    C310803   1.721   0.793  12.476 -0.3151 -0.2850 -0.0382
  731MPD2    C410804   1.589   0.783  12.446 -1.0036 -0.1563 -0.5698
  731MPD2    C510805   1.555   0.743  12.318  0.0724  0.1511 -0.0567
  731MPD2     H10806   1.921   0.796  12.404 -0.7927 -0.5633  0.0466
  731MPD2    H110807   1.503   0.808  12.507 -0.0891 -1.4243  1.2203
  731MPD2    H210808   1.616   0.727  12.116  1.8655  1.6790 -1.5221
  731MPD2    H310809   1.450   0.753  12.294 -0.0598  0.6635  0.7304
  731MPD2     N10810   1.763   0.828  12.608 -0.7330  0.1633 -0.4319
  731MPD2    H510811   1.860   0.858  12.612 -0.4016 -1.2158  1.9032
  731MPD2    N110812   1.876   0.761  12.139  0.3163 -0.1807 -1.0328
  731MPD2    H710813   1.844   0.726  12.049 -0.8133  0.1797 -0.7790
  732TMC3    C110814   2.069   0.808  12.016 -0.3483 -0.4031 -0.7375
  732TMC3    C210815   2.002   0.868  11.910 -0.1685  0.2970  0.3060
  732TMC3    C310816   2.068   0.901  11.796  0.4495 -0.8282 -0.4339
  732TMC3    C410817   2.205   0.799  12.017  0.0174 -0.1478 -0.3764
  732TMC3    C510818   2.267   0.841  11.904 -0.6134 -0.6854 -0.1670
  732TMC3    C610819   2.205   0.873  11.786  0.4995  0.0682  0.4691
  732TMC3     C10820   2.005   0.796  12.144  0.2119 -0.1575 -0.4720
  732TMC3     O10821   2.069   0.834  12.240  0.6597  0.2644  0.3385
  732TMC3     H10822   1.895   0.888  11.913 -0.2785 -0.2755  0.2643
  732TMC3    H110823   2.264   0.763  12.100  0.5178 -0.1666 -0.7399
  732TMC3    H210824   2.271   0.895  11.702  0.6048  3.3755  1.3968
  732TMC3    C710825   2.412   0.871  11.918 -0.5270 -0.1596  0.4443
  732TMC3    C810826   2.006   0.981  11.692  0.3602 -0.1319 -0.5216
  732TMC3    O110827   2.475   0.875  11.814  0.1091 -0.1086  0.0968
  732TMC3    O210828   2.066   0.983  11.584 -0.3433  0.2188  0.4446
  733TMC3    C110829   2.263   0.529  13.136  0.6067  0.7751  0.8189
  733TMC3    C210830   2.368   0.615  13.177  0.3459 -0.0746 -0.5576
  733TMC3    C310831   2.461   0.646  13.079 -0.5543  0.9689 -0.1748
  733TMC3    C410832   2.257   0.474  13.005 -0.9269  0.7821 -0.6103
  733TMC3    C510833   2.359   0.501  12.921 -0.2879 -0.1889  0.1359
  733TMC3    C610834   2.461   0.584  12.960  0.2372  0.4015  0.0132
  733TMC3     C10835   2.155   0.501  13.229  0.6012  0.4535  0.0263
  733TMC3     O10836   2.135   0.590  13.311  0.2780  0.2243  0.1790
  733TMC3     H10837   2.355   0.662  13.273 -0.5923  0.0806 -0.7605
  733TMC3    H110838   2.175   0.409  12.974 -0.4833  0.6333 -1.4707
  733TMC3    H210839   2.551   0.585  12.899  0.2549 -1.1809  0.0085
  733TMC3    C710840   2.360   0.444  12.791  0.2993  0.5814 -0.3101
  733TMC3    C810841   2.571   0.738  13.100  0.4952 -0.4242  0.4155
  733TMC3    O110842   2.290   0.343  12.786 -0.2845 -0.3555 -0.2889
  733TMC3    O210843   2.613   0.767  13.214  0.0578 -0.2366  0.4131
  734MPD2     C10844   0.280   2.619  12.237 -0.2280  0.1285  0.2853
  734MPD2    C110845   0.181   2.526  12.210 -0.5363 -0.1579  0.1160
  734MPD2    C210846   0.097   2.557  12.109 -0.5449 -0.3385 -0.0580
  734MPD2    C310847   0.112   2.668  12.028  0.2778  0.4024  0.4743
  734MPD2    C410848   0.208   2.760  12.058  0.0616 -0.0944  0.1454
  734MPD2    C510849   0.288   2.735  12.169  0.0106  0.0465  0.1826
  734MPD2     H10850   0.012   2.491  12.094 -0.5079 -0.6353  1.0054
  734MPD2    H110851   0.216   2.854  12.005  0.5199 -0.8173 -1.0802
  734MPD2    H210852   0.360   2.606  12.310 -0.8095 -1.5629  0.6016
  734MPD2    H310853   0.366   2.807  12.195 -0.2584  0.3202  0.2345
  734MPD2     N10854   0.032   2.666  11.909  0.0728 -0.3099 -0.1026
  734MPD2    H510855   4.706   2.581  11.896  1.2756 -0.8332 -1.6351
  734MPD2    N110856   0.170   2.409  12.292  0.2539 -0.3130  0.8789
  734MPD2    H710857   0.233   2.396  12.371  0.7544  0.2452  0.5713
  735TMC3    C110858   0.108   2.194  12.341 -0.3738  0.1325  0.1546
  735TMC3    C210859   4.724   2.112  12.324 -0.1582 -0.6076 -0.3205
  735TMC3    C310860   0.019   1.981  12.293 -0.0928  0.4014  0.0459
  735TMC3    C410861   0.231   2.143  12.320 -0.0939 -0.0071  0.0597
  735TMC3    C510862   0.249   2.007  12.299  0.3243 -0.0724 -0.6988
  735TMC3    C610863   0.143   1.920  12.296 -0.5520 -0.0312 -0.4133
  735TMC3     C10864   0.076   2.310  12.274  0.2167 -0.6564 -0.1919
  735TMC3     O10865   4.700   2.305  12.208 -0.3272  0.1004  0.4836
  735TMC3     H10866   4.627   2.147  12.355  0.1162  0.2710 -0.4410
  735TMC3    H110867   0.317   2.209  12.321  1.3676 -1.8793 -3.0546
  735TMC3    H210868   0.154   1.819  12.259  1.1474  0.2357 -0.6379
  735TMC3    C710869   0.382   1.951  12.269  0.8165  0.0595 -0.0089
  735TMC3    C810870   4.664   1.934  12.181  0.0802 -0.2169 -0.2385
  735TMC3    O110871   0.461   2.036  12.224  0.2190 -0.4377 -0.1366
  735TMC3    O210872   4.683   1.818  12.136  0.7118 -0.4122 -0.0847
  736MPD2     C10873   0.492   1.604  12.237 -0.2871 -0.4834  0.1855
  736MPD2    C110874   0.504   1.742  12.225  0.2148 -0.0105  0.3795
  736MPD2    C210875   0.613   1.793  12.164  0.1147  0.0065  0.2603
  736MPD2    C310876   0.706   1.708  12.106  0.2802  0.4480  0.6432
  736MPD2    C410877   0.690   1.571  12.116  0.1885  0.2615 -0.0655
  736MPD2    C510878   0.583   1.518  12.186  0.0531 -0.2946 -0.6304
  736MPD2     H10879   0.621   1.898  12.137 -0.2700 -0.1453 -0.4518
  736MPD2    H110880   0.764   1.499  12.083 -0.2883  0.0581 -0.6810
  736MPD2    H210881   0.412   1.561  12.297  1.3804 -1.5237  1.6489
  736MPD2    H310882   0.588   1.411  12.200  0.0241 -0.2428 -0.2302
  736MPD2     N10883   0.816   1.740  12.027  0.1596 -0.1030 -0.6247
  736MPD2    H510884   0.855   1.655  11.989 -0.9955 -0.7411 -0.3905
  736MPD2    N110885   0.391   1.818  12.280 -0.1722 -0.3075  0.5092
  736MPD2    H710886   0.311   1.779  12.329 -0.0040 -1.2958  0.0164
  737TMC3    C110887   0.931   1.887  11.873  0.7340  0.3890 -0.0943
  737TMC3    C210888   0.953   2.014  11.819  0.0910 -0.4341 -0.3841
  737TMC3    C310889   0.968   2.013  11.680 -0.5694  0.4053 -0.5125
  737TMC3    C410890   0.955   1.771  11.796  0.5792  0.1303  0.6356
  737TMC3    C510891   1.011   1.781  11.669  0.4019 -0.5981 -0.0768
  737TMC3    C610892   1.001   1.904  11.609 -0.2937  0.3078 -0.2775
  737TMC3     C10893   0.848   1.870  11.991 -0.0557  0.9659 -0.0815
  737TMC3     O10894   0.835   1.968  12.064  0.1811 -0.1334 -0.1977
  737TMC3     H10895   0.923   2.105  11.869 -2.2812 -1.3885 -0.0620
  737TMC3    H110896   0.941   1.668  11.826  1.9257 -0.4161 -0.6405
  737TMC3    H210897   1.010   1.913  11.501 -2.7680  0.8412 -0.4354
  737TMC3    C710898   1.016   1.659  11.584  0.3026  0.2970  0.5063
  737TMC3    C810899   0.968   2.135  11.610  0.1268  0.4032  0.0264
  737TMC3    O110900   0.948   1.566  11.623  0.8878  0.1024 -0.2245
  737TMC3    O210901   0.994   2.237  11.674 -0.4269  0.6805 -0.5583
  738MPD2     C10902   0.929   0.880  15.584  0.3369 -0.0147  0.1033
  738MPD2    C110903   0.913   0.809  15.469  0.4334 -0.2012 -0.3161
  738MPD2    C210904   0.900   0.875  15.349  0.5208 -0.0678  0.2412
  738MPD2    C310905   0.914   1.009  15.337  0.4652  0.0011 -0.1142
  738MPD2    C410906   0.928   1.084  15.451 -0.0650  0.3292 -0.7279
  738MPD2    C510907   0.927   1.019  15.569  0.5198 -0.1315  0.4865
  738MPD2     H10908   0.877   0.817  15.260 -1.9782 -1.8325  2.0472
  738MPD2    H110909   0.934   1.192  15.452  2.1766  0.2005 -1.9583
  738MPD2    H210910   0.941   0.836  15.682  1.8104  2.1636  0.8916
  738MPD2    H310911   0.926   1.079  15.660  0.3753  2.0346 -0.9267
  738MPD2     N10912   0.911   1.085  15.218 -0.0540 -0.0140  0.1757
  738MPD2    H510913   0.904   1.186  15.228  0.0742 -0.2337  2.3320
  738MPD2    N110914   0.911   0.671  15.458  0.6485 -0.2124  0.1353
  738MPD2    H710915   0.897   0.637  15.364 -0.4846 -2.0984  0.9997
  739TMC3    C110916   0.828   1.100  14.989  0.2634 -1.1135  0.7102
  739TMC3    C210917   0.865   1.076  14.858  0.1556 -0.5953 -0.2779
  739TMC3    C310918   0.829   1.173  14.765  0.0738 -0.2322 -0.1683
  739TMC3    C410919   0.741   1.203  15.023 -0.4257 -0.2631 -0.4793
  739TMC3    C510920   0.724   1.304  14.929  0.4184 -0.0811  0.0376
  739TMC3    C610921   0.759   1.288  14.800 -0.0366 -0.2287 -0.2147
  739TMC3     C10922   0.891   1.019  15.091 -0.2465  0.2241 -0.1146
  739TMC3     O10923   0.904   0.902  15.054 -0.2257 -0.1525 -0.0760
  739TMC3     H10924   0.937   0.999  14.834 -0.0610 -0.2128 -2.1818
  739TMC3    H110925   0.711   1.216  15.126  0.2508  0.1577 -0.3310
  739TMC3    H210926   0.738   1.361  14.722  0.2311 -0.0795 -0.1464
  739TMC3    C710927   0.719   1.436  14.984  0.4778 -0.0575  0.7353
  739TMC3    C810928   0.888   1.164  14.633  0.1033  0.0277 -0.2987
  739TMC3    O110929   0.677   1.439  15.097  0.3365  0.0691 -0.1687
  739TMC3    O210930   0.839   1.232  14.545 -0.3268  0.4155 -0.0938
  740TMC3    C110931   1.765   2.207  14.010 -0.4396  0.1992  0.2391
  740TMC3    C210932   1.824   2.169  14.127 -0.5196 -0.4213 -0.0680
  740TMC3    C310933   1.930   2.077  14.115  0.0527  0.2734 -0.1169
  740TMC3    C410934   1.809   2.174  13.886 -0.0849  0.1164 -0.4579
  740TMC3    C510935   1.923   2.097  13.885  0.1991  0.2489 -0.2554
  740TMC3    C610936   1.987   2.049  13.994 -0.3916 -0.2502 -0.3493
  740TMC3     C10937   1.645   2.296  14.008  0.1935 -0.2648  0.7913
  740TMC3     O10938   1.636   2.369  13.911 -0.6778  0.1431 -0.5765
  740TMC3     H10939   1.794   2.217  14.220 -1.9898  1.2895 -1.4077
  740TMC3    H110940   1.752   2.196  13.797  0.6781  0.3269 -0.8863
  740TMC3    H210941   2.076   1.987  13.984 -0.1682 -0.1826  1.2444
  740TMC3    C710942   1.955   2.022  13.769 -0.3193  0.1788 -0.2293
  740TMC3    C810943   1.989   2.022  14.234  0.0293 -0.8240 -0.3395
  740TMC3    O110944   2.002   1.906  13.775 -0.3780 -0.4714 -0.5760
  740TMC3    O210945   2.073   1.936  14.221 -0.6879  0.2193 -0.3437
  741TMC3    C110946   0.814   1.356  13.185 -0.2295  0.2190 -0.5478
  741TMC3    C210947   0.769   1.310  13.303  0.8063  0.0793  0.0817
  741TMC3    C310948   0.823   1.359  13.423  0.6845 -0.0289  0.3037
  741TMC3    C410949   0.916   1.445  13.174 -0.4111 -0.0565 -0.0285
  741TMC3    C510950   0.969   1.487  13.297  0.4427  0.6724  0.2399
  741TMC3    C610951   0.924   1.451  13.420 -0.3156 -0.4652 -0.1573
  741TMC3     C10952   0.742   1.300  13.067 -0.4704  0.2441  0.0850
  741TMC3     O10953   0.689   1.192  13.091  0.3601 -0.2063 -0.9392
  741TMC3     H10954   0.682   1.246  13.307  1.5318 -0.8433  1.1944
  741TMC3    H110955   0.953   1.490  13.083  1.0614 -1.1366  0.0374
  741TMC3    H210956   0.979   1.487  13.507 -1.6476 -2.4328  1.4942
  741TMC3    C710957   1.064   1.591  13.310  0.7401  0.0633  0.0132
  741TMC3    C810958   0.771   1.312  13.545  0.3542  0.1941  0.4538
  741TMC3    O110959   1.063   1.658  13.414  0.5294  0.2508  0.2177
  741TMC3    O210960   0.696   1.212  13.545 -0.4127 -0.1206  0.2489
  742TMC3    C110961   0.978   4.401  15.444 -0.4174 -0.9596 -0.0153
  742TMC3    C210962   0.902   4.466  15.354  0.0660  0.0801 -0.1769
  742TMC3    C310963   0.963   4.532  15.254 -0.2479  0.4957 -0.6025
  742TMC3    C410964   1.112   4.393  15.442 -0.0775 -0.2454  0.0229
  742TMC3    C510965   1.168   4.454  15.338  0.8658  0.8196 -0.7164
  742TMC3    C610966   1.101   4.525  15.241  0.1408  0.4866  0.0461
  742TMC3     C10967   0.910   4.308  15.531  0.4292  0.1851 -0.2814
  742TMC3     O10968   0.815   4.250  15.483 -0.0530  0.1925  0.0120
  742TMC3     H10969   0.797   4.484  15.374  0.7749  1.4177  2.3631
  742TMC3    H110970   1.166   4.315  15.495 -1.0353 -1.0109 -0.1292
  742TMC3    H210971   1.145   4.577  15.157 -1.4617  2.5345  0.4795
  742TMC3    C710972   1.308   4.440  15.303  0.3032  0.0876  0.2598
  742TMC3    C810973   0.906   4.512  15.123  1.2278  0.3724 -0.7173
  742TMC3    O110974   1.337   4.409  15.184 -0.4831  0.4345  0.6649
  742TMC3    O210975   0.978   4.464  15.040 -0.0159  0.0172 -0.0047
  743MPD2     C10976   4.217   1.446   1.346 -0.2853  0.4869 -0.2131
  743MPD2    C110977   4.142   1.491   1.243  0.4261  0.2288  0.1328
  743MPD2    C210978   4.204   1.514   1.123 -0.1528  0.7935 -0.3439
  743MPD2    C310979   4.334   1.481   1.101  0.1370 -0.5352  1.0057
  743MPD2    C410980   4.412   1.442   1.211  0.2109  0.1499  0.9446
  743MPD2    C510981   4.348   1.408   1.326 -0.4557  0.2454 -0.4990
  743MPD2     H10982   4.143   1.550   1.040 -1.4181  1.0015  0.6852
  743MPD2    H110983   4.507   1.391   1.210 -1.3116 -2.6099 -1.3511
  743MPD2    H210984   4.169   1.430   1.442 -0.3186  0.9047 -0.1612
  743MPD2    H310985   4.400   1.368   1.413  1.1235  2.5455 -0.3878
  743MPD2     N10986   4.380   1.493   0.971  0.4526 -0.2628  0.1782
  743MPD2    H510987   4.319   1.528   0.898 -2.3836 -0.1274  2.6245
  743MPD2    N110988   4.003   1.525   1.271  0.0657 -0.2461 -0.4870
  743MPD2    H710989   3.972   1.516   1.367 -0.4511  0.9814 -0.5348
  744TMC3    C110990   3.793   1.634   1.243 -0.0236 -0.1734 -0.0108
  744TMC3    C210991   3.795   1.666   1.375 -0.2768  0.0153 -0.1077
  744TMC3    C310992   3.667   1.695   1.428  0.7681 -0.5842 -0.5887
  744TMC3    C410993   3.677   1.630   1.166 -0.2009  0.1573 -0.5968
  744TMC3    C510994   3.556   1.662   1.225 -0.5150 -0.1984 -0.2926
  744TMC3    C610995   3.546   1.694   1.361  0.5479  0.6641  0.0012
  744TMC3     C10996   3.916   1.583   1.182 -0.0362 -0.2555  0.2597
  744TMC3     O10997   3.928   1.597   1.060  0.3261 -0.1632  0.2021
  744TMC3     H10998   3.882   1.682   1.437 -0.4334  0.2926  0.0369
  744TMC3    H110999   3.686   1.608   1.061 -0.9285  1.2440 -0.8870
  744TMC3    H211000   3.459   1.725   1.417  0.8862  0.6918  0.5076
  744TMC3    C711001   3.437   1.656   1.140  0.0114  0.1698  0.0701
  744TMC3    C811002   3.671   1.768   1.561  0.2845  0.8489 -0.4757
  744TMC3    O111003   3.449   1.617   1.023 -0.0476 -0.3419  0.6026
  744TMC3    O211004   3.578   1.847   1.570 -1.0317 -0.1081 -0.2161
  745TMC3    C111005   1.034   4.080  13.434 -0.2253 -1.0133 -0.0131
  745TMC3    C211006   0.966   4.180  13.491 -0.0140 -0.7184 -0.2197
  745TMC3    C311007   0.868   4.238  13.418 -0.0598 -0.3111 -0.1637
  745TMC3    C411008   1.001   4.019  13.315  1.3496 -0.3994  0.1537
  745TMC3    C511009   0.896   4.068  13.248 -0.3193 -0.0997  0.5324
  745TMC3    C611010   0.835   4.179  13.297 -0.2686  0.2745 -0.5544
  745TMC3     C11011   1.180   4.057  13.459 -0.1991 -0.2536  0.0121
  745TMC3     O11012   1.243   3.973  13.391  0.2989 -0.5082 -0.5451
  745TMC3     H11013   0.984   4.200  13.595 -1.8013 -1.8476  0.3071
  745TMC3    H111014   1.063   3.940  13.274 -0.9066 -1.3002 -1.5166
  745TMC3    H211015   0.763   4.230  13.234 -0.3288  1.2137  0.2686
  745TMC3    C711016   0.929   4.075  13.107  0.4958 -0.8522  0.8864
  745TMC3    C811017   0.826   4.376  13.437  0.1322  0.4032 -0.5751
  745TMC3    O111018   0.936   3.968  13.046 -0.0208  0.2949  0.3352
  745TMC3    O211019   0.746   4.421  13.359 -0.3336  0.2908 -0.0097
  746TMC3    C111020   3.438   1.302  10.842  0.2808  1.4333  0.8620
  746TMC3    C211021   3.487   1.294  10.713  0.9519 -0.4124  0.0888
  746TMC3    C311022   3.501   1.161  10.665  0.8217 -0.0443  0.0235
  746TMC3    C411023   3.396   1.195  10.920 -0.3317  0.3407 -0.1628
  746TMC3    C511024   3.386   1.073  10.864  0.0436  0.7090 -0.4878
  746TMC3    C611025   3.447   1.059  10.742 -0.3481  0.3848  0.3657
  746TMC3     C11026   3.425   1.435  10.908  0.4004  0.1905 -0.5326
  746TMC3     O11027   3.412   1.457  11.028  0.5976  0.0172 -0.0941
  746TMC3     H11028   3.558   1.369  10.681  1.9226 -0.5747  1.8091
  746TMC3    H111029   3.371   1.212  11.024 -0.2541  1.2517 -0.2940
  746TMC3    H211030   3.448   0.961  10.695  0.3104  0.6095 -0.0931
  746TMC3    C711031   3.283   0.975  10.904 -0.6459 -0.0784  0.0169
  746TMC3    C811032   3.608   1.128  10.574 -0.4972 -0.5206 -0.3358
  746TMC3    O111033   3.237   0.899  10.816 -0.1147 -0.2104  0.0318
  746TMC3    O211034   3.680   1.036  10.608  0.4594 -0.3549 -0.1870
  747TMC3    C111035   1.167   1.889  10.588  0.2032  0.2889  0.4954
  747TMC3    C211036   1.107   1.796  10.664 -0.0934  0.7416 -1.0465
  747TMC3    C311037   1.140   1.794  10.794 -0.6036 -1.1627  0.5191
  747TMC3    C411038   1.259   1.979  10.638  0.3664 -0.4143 -0.6297
  747TMC3    C511039   1.304   1.961  10.765 -0.0945  0.5483  0.4577
  747TMC3    C611040   1.242   1.867  10.844 -0.3325 -0.4936 -0.1592
  747TMC3     C11041   1.167   1.869  10.446 -0.0534 -0.1620  0.1251
  747TMC3     O11042   1.174   1.970  10.375  0.0266  0.5514 -0.0795
  747TMC3     H11043   1.041   1.723  10.620  1.2708 -1.9142  1.2931
  747TMC3    H111044   1.280   2.060  10.570  0.4525  1.0179  1.1109
  747TMC3    H211045   1.272   1.865  10.949  2.7610  0.5224 -1.0356
  747TMC3    C711046   1.425   2.029  10.821 -0.2175 -0.2185  0.3145
  747TMC3    C811047   1.085   1.682  10.867  0.3418  0.5327  0.8329
  747TMC3    O111048   1.451   1.991  10.933  0.2862 -0.5954 -0.2386
  747TMC3    O211049   1.027   1.583  10.815  0.2464 -0.1813  0.2373
  748MPD2     C11050   2.106   3.121   2.111  0.6844  0.0730  0.5577
  748MPD2    C111051   2.072   3.064   1.988 -0.3379 -0.2128 -0.8728
  748MPD2    C211052   2.168   3.021   1.903 -0.5696  0.1797  0.1920
  748MPD2    C311053   2.299   3.021   1.950 -0.1478  0.3822 -0.4582
  748MPD2    C411054   2.331   3.073   2.072 -0.2242 -0.4078 -0.7431
  748MPD2    C511055   2.232   3.132   2.148  0.2837  0.3828  0.5325
  748MPD2     H11056   2.153   2.998   1.799  0.3732 -0.5935  0.2299
  748MPD2    H111057   2.433   3.074   2.109 -0.5194  0.6321  0.0577
  748MPD2    H211058   2.023   3.156   2.172 -0.0801 -0.8794  0.0560
  748MPD2    H311059   2.253   3.183   2.241  0.8949 -1.6696  1.5358
  748MPD2     N11060   2.403   2.978   1.859  0.3575 -0.2695 -0.7971
  748MPD2    H511061   2.371   2.943   1.769  0.2634  1.8500 -1.5937
  748MPD2    N111062   1.937   3.055   1.943 -0.1465 -0.2271 -0.8081
  748MPD2    H711063   1.861   3.107   1.986  0.2427 -0.3133 -0.0207
  749TMC3    C111064   2.615   2.935   1.768 -0.4515 -0.4107 -0.6832
  749TMC3    C211065   2.734   2.878   1.791  0.3533  0.2316 -0.8792
  749TMC3    C311066   2.814   2.856   1.688  0.3108 -0.1415  0.8301
  749TMC3    C411067   2.576   2.977   1.640  0.2236  0.1623  0.0188
  749TMC3    C511068   2.658   2.933   1.534  0.2372  0.6162  0.5392
  749TMC3    C611069   2.781   2.885   1.555 -0.6888  0.1426  0.2071
  749TMC3     C11070   2.539   2.983   1.883  0.2159 -0.3493  0.0924
  749TMC3     O11071   2.604   2.999   1.984 -0.2744  0.7722 -0.1794
  749TMC3     H11072   2.750   2.846   1.893 -1.0385 -0.5571 -0.9013
  749TMC3    H111073   2.484   3.032   1.627 -0.5483 -0.9836  0.7136
  749TMC3    H211074   2.848   2.867   1.472  0.1223 -0.4272  0.9766
  749TMC3    C711075   2.638   3.011   1.408  0.6962 -0.9830  0.1217
  749TMC3    C811076   2.926   2.778   1.721  0.9724 -0.0520 -0.3703
  749TMC3    O111077   2.592   3.123   1.435 -0.2020 -0.0334 -0.5307
  749TMC3    O211078   2.943   2.747   1.839  0.2346  0.5095 -0.1062
  750MPD2     C11079   3.857   3.254  11.085  0.5812  0.3304 -0.2727
  750MPD2    C111080   3.724   3.220  11.099 -0.1610 -0.2764  0.3237
  750MPD2    C211081   3.678   3.104  11.042  0.0805 -0.2508 -0.1282
  750MPD2    C311082   3.763   3.014  10.975 -0.0157 -0.0442 -0.6943
  750MPD2    C411083   3.896   3.051  10.961  0.5962 -0.4345  0.4701
  750MPD2    C511084   3.943   3.175  11.011  0.2506  0.0375 -0.2953
  750MPD2     H11085   3.571   3.087  11.035 -0.0287  0.7881 -0.9885
  750MPD2    H111086   3.954   2.982  10.901  2.7316  1.3381  0.4842
  750MPD2    H211087   3.898   3.346  11.125  1.9081 -0.8431  1.0673
  750MPD2    H311088   4.043   3.200  10.979  0.3782 -0.0172  0.0643
  750MPD2     N11089   3.722   2.896  10.908  0.3792 -0.6486 -0.0196
  750MPD2    H511090   3.798   2.844  10.867  1.6617 -0.7403  2.4531
  750MPD2    N111091   3.644   3.316  11.162  0.5548 -0.6466  0.6740
  750MPD2    H711092   3.692   3.405  11.176  2.2593 -1.2275 -1.4497
  751TMC3    C111093   3.583   2.723  10.842  0.0757 -0.2986  0.0401
  751TMC3    C211094   3.484   2.650  10.901 -0.5465 -0.2147 -1.0157
  751TMC3    C311095   3.490   2.524  10.852  0.1496 -0.2239 -0.0771
  751TMC3    C411096   3.676   2.686  10.742  0.1198  0.2124  0.5104
  751TMC3    C511097   3.673   2.559  10.705 -0.0711  0.2595 -0.3794
  751TMC3    C611098   3.577   2.480  10.756 -0.5430 -0.2272  0.5918
  751TMC3     C11099   3.597   2.846  10.915  0.4167 -0.3641  0.2246
  751TMC3     O11100   3.502   2.890  10.975  0.6813 -0.3999  0.3576
  751TMC3     H11101   3.409   2.680  10.973  0.3889  1.1257 -0.5909
  751TMC3    H111102   3.747   2.755  10.698  0.4533  0.1961  1.0193
  751TMC3    H211103   3.564   2.378  10.721  0.2267  0.7427 -2.5307
  751TMC3    C711104   3.748   2.521  10.579  0.0019 -0.5003 -0.1608
  751TMC3    C811105   3.374   2.451  10.853  0.5337  0.7838 -0.2635
  751TMC3    O111106   3.816   2.609  10.528  0.2866  0.4647 -0.1504
  751TMC3    O211107   3.337   2.412  10.741  0.2723 -0.2239 -0.5004
  752TMC3    C111108   1.762   3.291  17.226  0.1594  0.3909 -0.2476
  752TMC3    C211109   1.813   3.171  17.275 -0.0948  0.1839  0.5514
  752TMC3    C311110   1.790   3.131  17.405  0.4213 -0.0413 -0.1860
  752TMC3    C411111   1.697   3.372  17.317 -0.1062 -0.0638 -0.2107
  752TMC3    C511112   1.673   3.326  17.449  0.7923  0.3773 -1.0927
  752TMC3    C611113   1.719   3.204  17.495  0.2615 -0.5383 -0.0901
  752TMC3     C11114   1.830   3.341  17.112  0.4209  0.3483 -0.8029
  752TMC3     O11115   1.871   3.455  17.126 -0.1440  0.1456  0.5947
  752TMC3     H11116   1.876   3.106  17.215 -0.5007  1.2545 -1.0234
  752TMC3    H111117   1.672   3.473  17.285  1.0863 -0.2062 -1.5613
  752TMC3    H211118   1.721   3.182  17.601 -0.6742  0.3176  0.1008
  752TMC3    C711119   1.603   3.418  17.536 -0.2341  0.2941 -0.5073
  752TMC3    C811120   1.869   3.012  17.447 -0.5720 -0.0316 -0.2243
  752TMC3    O111121   1.572   3.523  17.483  0.0995 -0.1532 -0.7286
  752TMC3    O211122   1.965   2.983  17.377  0.7009  1.1687  0.2010
  753TMC3    C111123   4.685   4.621  13.598 -0.1168 -0.2982 -0.1514
  753TMC3    C211124   0.017   4.567  13.706  0.0825  0.5602 -0.3826
  753TMC3    C311125   4.727   4.432  13.718  0.5386  0.1912  0.6859
  753TMC3    C411126   4.613   4.541  13.510  0.5703  0.1982 -0.5852
  753TMC3    C511127   4.575   4.415  13.534  0.2966 -0.0248  0.8402
  753TMC3    C611128   4.636   4.362  13.644 -0.3280  0.3865 -0.4382
  753TMC3     C11129   4.682   0.032  13.578 -0.1793  0.3523  0.4448
  753TMC3     O11130   4.672   0.065  13.461  0.1424  0.2549  0.1572
  753TMC3     H11131   0.098   4.625  13.749  0.8497 -1.3700  0.7776
  753TMC3    H111132   4.551   4.597  13.441  0.8704 -0.8834 -1.7289
  753TMC3    H211133   4.627   4.255  13.662  1.4882  0.0167 -1.7098
  753TMC3    C711134   4.484   4.333  13.446 -0.0816 -0.3916  0.0022
  753TMC3    C811135   0.060   4.354  13.820 -0.1002  0.0114 -0.0450
  753TMC3    O111136   4.432   4.228  13.485 -0.0889 -0.1306  0.3647
  753TMC3    O211137   0.073   4.238  13.795  0.0073 -0.4344 -0.4611
  754MPD2     C11138   3.461   3.201  13.187 -0.2268 -0.2406  0.1664
  754MPD2    C111139   3.348   3.123  13.178 -0.6307 -0.8170  0.3851
  754MPD2    C211140   3.247   3.155  13.089  0.7727 -0.1212 -0.5603
  754MPD2    C311141   3.261   3.257  13.000  0.0239  0.2048  0.6499
  754MPD2    C411142   3.375   3.332  13.010 -0.2319 -0.2999 -0.6481
  754MPD2    C511143   3.467   3.305  13.105 -0.2635  0.1458 -0.4118
  754MPD2     H11144   3.153   3.102  13.085  1.5503 -1.4166 -1.7781
  754MPD2    H111145   3.388   3.418  12.946  0.6632 -1.2540 -1.7481
  754MPD2    H211146   3.543   3.172  13.252  1.0397  2.0055 -0.4191
  754MPD2    H311147   3.558   3.364  13.108 -1.0964  1.3740  0.7447
  754MPD2     N11148   3.162   3.294  12.908  0.3143 -0.2967 -0.5879
  754MPD2    H511149   3.180   3.371  12.845  1.4852 -1.1826 -1.3514
  754MPD2    N111150   3.345   3.013  13.273 -0.0413 -0.0027 -0.7647
  754MPD2    H711151   3.408   3.017  13.352 -1.1348  0.2496  0.0787
  755MPD2     C11152   2.608   3.781  13.253  0.0782  0.7443 -0.2453
  755MPD2    C111153   2.544   3.670  13.212  0.2512  0.4221  0.0337
  755MPD2    C211154   2.579   3.606  13.093  0.2270 -0.0968 -0.6816
  755MPD2    C311155   2.685   3.652  13.018  0.4128 -0.9100 -0.5461
  755MPD2    C411156   2.753   3.762  13.060 -0.0997 -0.2192  0.0599
  755MPD2    C511157   2.716   3.824  13.176  0.2642  0.5262  0.5276
  755MPD2     H11158   2.526   3.514  13.072 -1.2991  0.4134  0.9367
  755MPD2    H111159   2.832   3.808  13.002 -2.0054  1.9908 -0.7629
  755MPD2    H211160   2.593   3.830  13.348  0.1165  2.7494 -1.2761
  755MPD2    H311161   2.780   3.906  13.207 -1.4524  1.8881  0.5170
  755MPD2     N11162   2.731   3.596  12.898 -0.0585  0.3091 -0.2506
  755MPD2    H511163   2.820   3.631  12.864 -0.8815 -0.8774 -3.6136
  755MPD2    N111164   2.449   3.598  13.289 -0.0342 -0.1982 -0.1641
  755MPD2    H711165   2.405   3.517  13.247  1.0400 -0.3179 -1.0629
  756MPD2     C11166   3.220   3.496   9.268  0.3468 -0.0376 -0.3622
  756MPD2    C111167   3.273   3.406   9.372 -0.5010  0.2435 -0.0654
  756MPD2    C211168   3.252   3.273   9.354 -0.0168 -0.4376  0.3540
  756MPD2    C311169   3.193   3.223   9.239 -0.0240 -0.2856 -0.6150
  756MPD2    C411170   3.155   3.311   9.140  0.3325 -0.0146  0.1366
  756MPD2    C511171   3.161   3.448   9.154 -0.0194 -0.0320 -0.3959
  756MPD2     H11172   3.288   3.209   9.433 -0.7592  1.2460  2.0565
  756MPD2    H111173   3.111   3.271   9.049  1.2859  0.5609 -0.5821
  756MPD2    H211174   3.226   3.604   9.273  1.4271 -0.0456 -1.7202
  756MPD2    H311175   3.120   3.519   9.083 -0.2953 -0.2672 -0.4700
  756MPD2     N11176   3.186   3.087   9.218  0.1475  0.3220 -0.6185
  756MPD2    H511177   3.116   3.057   9.151 -1.3742  1.9037  0.2747
  756MPD2    N111178   3.328   3.446   9.495 -0.0899  0.3556  0.6449
  756MPD2    H711179   3.349   3.369   9.558  1.3096 -0.0897 -0.3427
  757MPD2     C11180   2.542   2.392   8.929 -0.1564 -0.2469 -0.8974
  757MPD2    C111181   2.632   2.320   9.001 -0.3998 -0.0680 -0.7351
  757MPD2    C211182   2.735   2.385   9.072  0.4078 -0.7431 -0.2637
  757MPD2    C311183   2.738   2.526   9.084 -0.0403 -0.2381 -0.4328
  757MPD2    C411184   2.638   2.591   9.025 -0.1809 -0.3058  0.0377
  757MPD2    C511185   2.551   2.529   8.946 -0.0701 -0.1768 -0.8124
  757MPD2     H11186   2.799   2.333   9.143  0.3575 -0.7438 -0.2189
  757MPD2    H111187   2.634   2.699   9.029  0.9125 -0.2788  0.4886
  757MPD2    H211188   2.457   2.356   8.871  0.7000  0.1662 -2.4256
  757MPD2    H311189   2.469   2.590   8.910 -0.4357  0.0081  0.3137
  757MPD2     N11190   2.840   2.584   9.156  0.0332 -0.1100 -0.2956
  757MPD2    H511191   2.901   2.513   9.196 -0.1752  0.6346  1.3668
  757MPD2    N111192   2.631   2.178   8.995 -0.1477  0.0079 -0.6842
  757MPD2    H711193   2.542   2.136   8.969  0.2930 -1.3671  0.0381
  758MPD2     C11194   3.019   2.897  15.985 -0.1356 -0.3591  0.0794
  758MPD2    C111195   3.083   2.827  16.082  0.0409  0.1291 -0.7220
  758MPD2    C211196   3.035   2.838  16.205 -0.6818  0.2668  0.4413
  758MPD2    C311197   2.945   2.935  16.255  0.1876  0.4061  0.0686
  758MPD2    C411198   2.888   3.006  16.159 -0.1797 -0.1239  0.2547
  758MPD2    C511199   2.916   2.984  16.026 -0.0263  0.6755  1.1627
  758MPD2     H11200   3.090   2.778  16.276  0.6818  0.4340 -0.4704
  758MPD2    H111201   2.813   3.081  16.183 -2.3900 -2.1276 -0.3378
  758MPD2    H211202   3.042   2.889  15.879 -2.2200  1.3105 -0.4972
  758MPD2    H311203   2.873   3.045  15.947 -0.4046 -1.2118 -0.0992
  758MPD2     N11204   2.911   2.950  16.393  0.1576 -0.1881  0.1569
  758MPD2    H511205   2.824   3.000  16.411  0.3972  0.5187 -0.6303
  758MPD2    N111206   3.190   2.743  16.060  0.3565 -0.3461 -0.7380
  758MPD2    H711207   3.232   2.704  16.144 -0.3862  1.0697  0.2814
  759MPD2     C11208   2.257   1.068   9.818 -0.8623  0.2419 -0.3392
  759MPD2    C111209   2.137   1.048   9.757 -0.5214  0.2746  0.4250
  759MPD2    C211210   2.121   1.084   9.623  0.2017  0.7208 -0.1075
  759MPD2    C311211   2.232   1.134   9.552 -0.4857  0.4030 -0.4423
  759MPD2    C411212   2.347   1.160   9.620  0.0641  0.2733  0.1861
  759MPD2    C511213   2.361   1.126   9.751 -0.4366  0.1553  0.5728
  759MPD2     H11214   2.025   1.050   9.586  0.0323  0.0711  0.9187
  759MPD2    H111215   2.437   1.204   9.578 -1.0877 -0.2083 -2.7278
  759MPD2    H211216   2.280   1.042   9.921 -2.2169 -1.5956 -0.5044
  759MPD2    H311217   2.455   1.153   9.799  0.0625 -0.1812 -0.2097
  759MPD2     N11218   2.213   1.152   9.411 -0.0703 -0.1007 -0.2964
  759MPD2    H511219   2.126   1.114   9.375  1.5227 -4.5104  0.4850
  759MPD2    N111220   2.034   0.984   9.832  0.3398 -0.1533 -0.0448
  759MPD2    H711221   1.955   0.956   9.776  0.6348  1.0648 -1.0695
  760MPD2     C11222   1.884   3.153  11.718 -0.1292  0.0819  0.2277
  760MPD2    C111223   2.014   3.201  11.715  0.4186 -0.3476 -0.2556
  760MPD2    C211224   2.115   3.117  11.668  0.2049  0.8859  0.3383
  760MPD2    C311225   2.099   2.981  11.639  0.3491 -0.3945 -0.5648
  760MPD2    C411226   1.969   2.934  11.644  0.2147  0.3094  0.0250
  760MPD2    C511227   1.868   3.021  11.678 -0.8741 -0.2008  0.2474
  760MPD2     H11228   2.214   3.161  11.669  0.3555  0.6202 -1.6943
  760MPD2    H111229   1.941   2.833  11.615 -1.3594  0.7096  0.1049
  760MPD2    H211230   1.795   3.211  11.739 -1.7349 -2.0751 -0.5613
  760MPD2    H311231   1.767   2.983  11.692 -1.2534  1.3170  1.6727
  760MPD2     N11232   2.199   2.886  11.590  0.1522 -0.1527 -0.6916
  760MPD2    H511233   2.172   2.788  11.584  2.5409 -0.8124 -0.7577
  760MPD2    N111234   2.055   3.336  11.749 -0.2753 -0.1590  0.6471
  760MPD2    H711235   2.155   3.347  11.733 -0.2992  0.2559  0.7948
  761MPD2     C11236   2.996   2.197  11.069 -0.9954  0.5148  0.2745
  761MPD2    C111237   3.062   2.177  10.953  0.2785 -0.0306 -0.3446
  761MPD2    C211238   3.161   2.267  10.920 -0.5903  0.1606  0.9214
  761MPD2    C311239   3.205   2.364  11.005  0.3313  0.4299 -0.2142
  761MPD2    C411240   3.145   2.383  11.125  0.2870  0.0968  0.6858
  761MPD2    C511241   3.035   2.305  11.148 -0.3410  0.2818 -0.4049
  761MPD2     H11242   3.219   2.249  10.830 -1.0108 -1.5594  0.9958
  761MPD2    H111243   3.181   2.458  11.195  2.4771 -1.4872  1.2541
  761MPD2    H211244   2.929   2.119  11.103  1.4541 -0.1115  3.6024
  761MPD2    H311245   2.987   2.318  11.245 -0.5249 -2.2585 -0.1520
  761MPD2     N11246   3.312   2.446  10.983 -0.1517 -0.6399  0.2478
  761MPD2    H511247   3.367   2.492  11.055  2.7957  0.0345 -2.4304
  761MPD2    N111248   3.050   2.051  10.881  0.4096 -0.2601 -0.2249
  761MPD2    H711249   3.001   1.978  10.933  4.1791 -1.3179  1.8462
  762MPD2     C11250   3.247   1.959  10.083 -0.6534 -0.4018  0.0779
  762MPD2    C111251   3.303   1.894  10.196 -0.4420  0.2046 -0.0224
  762MPD2    C211252   3.433   1.856  10.182  0.2663  0.3639  0.5710
  762MPD2    C311253   3.511   1.889  10.071 -0.1124 -0.5486  0.1903
  762MPD2    C411254   3.455   1.959   9.964 -0.1820  0.1598  0.3430
  762MPD2    C511255   3.321   1.995   9.974 -0.7605  0.3727  0.3822
  762MPD2     H11256   3.480   1.800  10.263  0.2577  1.4701  1.3434
  762MPD2    H111257   3.503   1.993   9.873 -0.5216 -1.1680 -0.3348
  762MPD2    H211258   3.139   1.970  10.083 -0.7085 -0.9158 -0.0305
  762MPD2    H311259   3.275   2.042   9.888  1.7003  1.5848 -0.2791
  762MPD2     N11260   3.644   1.851  10.069 -0.2746 -0.4399  0.3537
  762MPD2    H511261   3.677   1.788  10.140 -0.2671 -1.0931 -0.2246
  762MPD2    N111262   3.219   1.869  10.307 -0.8734 -0.5570 -0.8705
  762MPD2    H711263   3.134   1.924  10.313  0.3389  1.2873 -0.7714
  763MPD2     C11264   0.560   2.567  15.810 -0.2391 -0.9308 -0.6241
  763MPD2    C111265   0.500   2.688  15.782 -0.0504  0.3706 -0.8013
  763MPD2    C211266   0.484   2.783  15.878 -0.1377 -0.3476  0.3528
  763MPD2    C311267   0.530   2.764  16.005  0.6926  0.4093  0.0353
  763MPD2    C411268   0.600   2.646  16.040  0.4219  0.6529  0.2225
  763MPD2    C511269   0.611   2.549  15.936  0.0025  0.4044  0.0560
  763MPD2     H11270   0.427   2.870  15.848 -0.0583 -0.0434  1.0852
  763MPD2    H111271   0.634   2.634  16.143  0.2595 -0.5217  0.1446
  763MPD2    H211272   0.569   2.481  15.744  0.1928 -0.1840 -1.5369
  763MPD2    H311273   0.651   2.451  15.957 -2.6713  0.0998  4.0129
  763MPD2     N11274   0.516   2.845  16.124  0.0178  0.0085 -0.0336
  763MPD2    H511275   0.572   2.816  16.204 -3.1570 -2.6249  1.2506
  763MPD2    N111276   0.441   2.713  15.657  0.4206  0.3229 -0.0670
  763MPD2    H711277   0.396   2.802  15.641  2.5076  1.6753  1.4278
  764MPD2     C11278   2.199   3.988  17.597  0.3740  0.4722 -0.5797
  764MPD2    C111279   2.099   4.076  17.576  0.0073 -0.0083 -0.0306
  764MPD2    C211280   1.998   4.082  17.665 -0.1674 -0.0203 -0.0073
  764MPD2    C311281   2.000   3.999   0.067  0.0563  0.2627 -0.2541
  764MPD2    C411282   2.106   3.908   0.083 -0.8982 -0.5102 -0.0647
  764MPD2    C511283   2.205   3.910  17.708  0.3177  0.4999 -0.1077
  764MPD2     H11284   1.914   4.149  17.653 -0.2000  0.4291  2.8399
  764MPD2    H111285   2.109   3.829   0.157 -0.0241 -1.4203 -1.0602
  764MPD2    H211286   2.290   3.969  17.541  0.6403  2.9954 -0.9925
  764MPD2    H311287   2.284   3.838   0.012  0.0612  0.6425  2.0151
  764MPD2     N11288   1.888   4.007   0.157  0.5544 -0.5799 -0.4802
  764MPD2    H511289   1.817   4.077   0.135  2.1982  0.4565 -2.4403
  764MPD2    N111290   2.099   4.161  17.462 -0.1612 -0.7363  0.3552
  764MPD2    H711291   2.018   4.222  17.459  0.3161 -0.1602 -0.6991
  765MPD2     C11292   2.505   1.869  15.577 -0.3245  0.1979  0.4592
  765MPD2    C111293   2.591   1.974  15.594  0.1073 -0.6944  0.1419
  765MPD2    C211294   2.723   1.958  15.558 -0.5964 -0.2346 -1.3006
  765MPD2    C311295   2.772   1.838  15.525 -0.1019 -0.3768  0.2375
  765MPD2    C411296   2.689   1.728  15.530  0.6129  1.4424  0.0923
  765MPD2    C511297   2.555   1.744  15.559  0.1246  0.2770  0.8439
  765MPD2     H11298   2.785   2.043  15.531 -0.7524  0.2101 -0.2449
  765MPD2    H111299   2.719   1.634  15.486  0.0936  1.7062 -0.8264
  765MPD2    H211300   2.398   1.881  15.590 -0.4215 -0.9880  0.8281
  765MPD2    H311301   2.480   1.666  15.564  1.0813 -0.8500 -2.2667
  765MPD2     N11302   2.901   1.842  15.465  0.0742  0.1820  0.5757
  765MPD2    H511303   2.947   1.932  15.462  0.9189 -0.3665 -3.5109
  765MPD2    N111304   2.538   2.100  15.627  0.3483 -0.3003 -0.0776
  765MPD2    H711305   2.439   2.114  15.644  0.3856  0.4144 -0.4711
  766MPD2     C11306   2.174   2.124  15.138  0.9917 -0.5386  0.0572
  766MPD2    C111307   2.299   2.181  15.168  0.3454  0.3412  0.1393
  766MPD2    C211308   2.413   2.147  15.087  0.1120 -0.8731  0.1609
  766MPD2    C311309   2.393   2.077  14.970 -0.2767 -0.1197  0.8594
  766MPD2    C411310   2.269   2.021  14.941  0.3863  0.3401 -0.3943
  766MPD2    C511311   2.168   2.036  15.033  0.0456  0.1725 -1.2564
  766MPD2     H11312   2.510   2.185  15.115 -0.8255 -0.0470  2.3387
  766MPD2    H111313   2.250   1.959  14.854 -1.2651  0.9120 -0.4398
  766MPD2    H211314   2.086   2.154  15.194 -0.1062  1.0534 -2.5448
  766MPD2    H311315   2.074   1.982  15.021 -0.8467  0.5948  3.7168
  766MPD2     N11316   2.492   2.065  14.867  0.5128 -0.5564  0.3270
  766MPD2    H511317   2.461   2.045  14.773 -0.0462  1.0484  0.1741
  766MPD2    N111318   2.300   2.274  15.276  0.2542  1.0661  0.1058
  766MPD2    H711319   2.220   2.292  15.336 -0.6823 -0.3639 -0.7286
  767MPD2     C11320   2.309   2.415  14.931 -0.2354  0.0085  0.6236
  767MPD2    C111321   2.428   2.430  14.865  0.5567 -0.4986 -0.0168
  767MPD2    C211322   2.435   2.406  14.732 -0.2354 -0.2659  0.4531
  767MPD2    C311323   2.329   2.365  14.662  0.0722 -0.1700 -0.1420
  767MPD2    C411324   2.204   2.356  14.729 -0.0813  0.2126 -1.1552
  767MPD2    C511325   2.196   2.375  14.862  0.4521 -0.0968  0.9614
  767MPD2     H11326   2.525   2.432  14.677 -0.9828  1.8745  0.2577
  767MPD2    H111327   2.114   2.329  14.675 -0.2580 -1.6607  0.0771
  767MPD2    H211328   2.302   2.433  15.038 -0.6774  1.3834  0.3756
  767MPD2    H311329   2.099   2.362  14.908  0.0574 -1.6586 -0.2873
  767MPD2     N11330   2.340   2.335  14.524  0.3635 -0.0847 -0.3791
  767MPD2    H511331   2.432   2.339  14.481 -0.6608  0.7205 -2.4668
  767MPD2    N111332   2.538   2.471  14.940 -0.3289  0.0332 -0.1278
  767MPD2    H711333   2.516   2.481  15.038 -0.7786 -0.8220 -0.1413
  768MPD2     C11334   3.281   0.567  10.719  0.3095 -0.5358  0.4845
  768MPD2    C111335   3.251   0.492  10.837  0.0597  0.1930  0.0210
  768MPD2    C211336   3.330   0.501  10.952  0.0278 -0.3540  0.3836
  768MPD2    C311337   3.434   0.592  10.953 -0.0239 -0.2508 -0.7109
  768MPD2    C411338   3.462   0.668  10.837  0.6587  0.5442 -0.4606
  768MPD2    C511339   3.387   0.658  10.723  0.2110 -0.6145  0.3780
  768MPD2     H11340   3.321   0.438  11.039  2.7795 -2.0889 -0.6176
  768MPD2    H111341   3.539   0.745  10.841  1.5573 -0.3930 -0.0165
  768MPD2    H211342   3.215   0.564  10.633 -0.4541  0.4403  1.0268
  768MPD2    H311343   3.418   0.711  10.633 -0.7676  1.6525  1.3953
  768MPD2     N11344   3.512   0.625  11.067 -0.2340 -0.0805 -0.1175
  768MPD2    H511345   3.582   0.698  11.057  0.5872 -0.4456  3.2814
  768MPD2    N111346   3.138   0.396  10.854  0.1032 -0.6599  0.3022
  768MPD2    H711347   3.113   0.370  10.949  1.9318 -1.5128  0.5545
  769MPD2     C11348   3.868   4.401  14.647 -0.3880  0.0172 -0.2365
  769MPD2    C111349   3.886   4.283  14.719 -0.4290  0.9874  0.3781
  769MPD2    C211350   3.897   4.285  14.861  0.6164  0.1410  0.4272
  769MPD2    C311351   3.900   4.409  14.922 -0.6353  0.7555  0.6711
  769MPD2    C411352   3.874   4.522  14.848  0.4443  0.4021  0.0598
  769MPD2    C511353   3.850   4.519  14.715 -0.2235  0.2497  0.0686
  769MPD2     H11354   3.914   4.201  14.927 -0.6015  2.2197  3.4085
  769MPD2    H111355   3.872   4.622  14.890 -1.3595  0.1585  0.5270
  769MPD2    H211356   3.871   4.410  14.539 -0.2379 -1.1027 -0.3295
  769MPD2    H311357   3.844   4.610  14.656 -0.1599 -0.9757 -1.8311
  769MPD2     N11358   3.931   4.411  15.062 -0.1043 -0.4770  0.6841
  769MPD2    H511359   3.945   4.319  15.103 -0.9703 -0.2445  1.5021
  769MPD2    N111360   3.913   4.164  14.639  0.3444 -0.1322  0.3340
  769MPD2    H711361   3.914   4.164  14.538 -0.9607 -1.2880  0.3183
  770MPD2     C11362   4.015   3.239  15.122  0.1264 -0.1699 -0.1650
  770MPD2    C111363   3.943   3.202  15.022 -0.4721 -0.4600 -0.5102
  770MPD2    C211364   3.920   3.287  14.914 -0.2527 -0.0075  0.2778
  770MPD2    C311365   3.982   3.412  14.908  0.6515  0.2139  0.8941
  770MPD2    C411366   4.040   3.454  15.022 -0.0936  0.2631  0.4528
  770MPD2    C511367   4.057   3.372  15.127  0.0129  0.9805 -0.1016
  770MPD2     H11368   3.861   3.255  14.829  3.0287 -1.7901 -1.3233
  770MPD2    H111369   4.098   3.545  15.031 -0.4398  0.6090 -0.9463
  770MPD2    H211370   4.040   3.178  15.208  1.5290 -0.6148 -0.8911
  770MPD2    H311371   4.117   3.399  15.213 -1.4296  3.2768  0.1858
  770MPD2     N11372   3.971   3.498  14.793 -0.6372  0.4165  0.3919
  770MPD2    H511373   3.892   3.466  14.738 -0.2246  0.1317 -0.0329
  770MPD2    N111374   3.907   3.066  15.040 -0.3687 -0.0422  0.7024
  770MPD2    H711375   3.927   3.016  15.125  0.9984  0.5599  0.7403
  771MPD2     C11376   0.056   1.689  13.513  0.8536 -0.1453 -0.2512
  771MPD2    C111377   0.138   1.783  13.452 -0.0289 -0.1589  0.1120
  771MPD2    C211378   0.200   1.753  13.339  0.6189  0.1067 -0.4168
  771MPD2    C311379   0.210   1.621  13.290 -0.5847  0.3610  0.6643
  771MPD2    C411380   0.130   1.519  13.350 -0.9796  0.1130  0.3192
  771MPD2    C511381   0.061   1.559  13.462 -0.5331 -0.9222  0.0460
  771MPD2     H11382   0.268   1.823  13.293 -1.6447  1.5582 -1.5171
  771MPD2    H111383   0.127   1.418  13.312 -1.7462  0.1513  0.2649
  771MPD2    H211384   0.010   1.709  13.609 -0.5367  0.2371 -0.9921
  771MPD2    H311385   0.004   1.487  13.520 -0.5180  1.1770  2.6510
  771MPD2     N11386   0.279   1.603  13.170  0.6691  0.0811 -0.2157
  771MPD2    H511387   0.300   1.687  13.117 -0.8537 -0.1875 -1.2712
  771MPD2    N111388   0.150   1.913  13.500  0.3187  0.8846 -0.3767
  771MPD2    H711389   0.202   1.979  13.444  0.6405  1.4863  0.6402
  772MPD2     C11390   4.434   2.521  13.888 -0.8879 -0.2825 -0.8601
  772MPD2    C111391   4.470   2.387  13.903 -0.1220  0.2008 -0.4732
  772MPD2    C211392   4.380   2.307  13.975 -0.2621  0.6799 -0.4504
  772MPD2    C311393   4.256   2.363  14.011 -0.2042  1.3749 -0.1188
  772MPD2    C411394   4.225   2.492  13.981  0.0942  0.2314  0.2583
  772MPD2    C511395   4.314   2.579  13.927  0.3198 -0.0771  0.2580
  772MPD2     H11396   4.410   2.203  13.975 -1.9114  0.2027 -0.2709
  772MPD2    H111397   4.129   2.533  14.010 -0.5682 -0.3569 -1.1028
  772MPD2    H211398   4.503   2.590  13.841 -0.2337  0.0005  0.5210
  772MPD2    H311399   4.289   2.683  13.910  2.2468  0.6011  1.5736
  772MPD2     N11400   4.155   2.284  14.072  0.2944  0.7952 -0.1220
  772MPD2    H511401   4.068   2.329  14.101  0.3245  1.7242 -1.5075
  772MPD2    N111402   4.588   2.331  13.848  0.2445  0.1624 -0.1742
  772MPD2    H711403   4.603   2.232  13.863  2.0509  0.2191 -1.5844
  773MPD2     C11404   3.341   3.237  17.350 -0.1056 -0.0151  0.0269
  773MPD2    C111405   3.248   3.219  17.457 -0.1554  0.6104 -0.2692
  773MPD2    C211406   3.273   3.259  17.586 -0.0589  0.1324 -0.3130
  773MPD2    C311407   3.391   3.318  17.623  0.1967 -0.6298  0.1191
  773MPD2    C411408   3.491   3.323  17.523 -0.3675  0.0056  0.2532
  773MPD2    C511409   3.460   3.297  17.393  0.5265 -0.0790  0.4182
  773MPD2     H11410   3.202   3.241  17.666 -0.8225 -2.3814 -1.5343
  773MPD2    H111411   3.594   3.353  17.537 -0.7339  2.0229 -1.5688
  773MPD2    H211412   3.335   3.208  17.246 -1.4540  2.1665 -0.4932
  773MPD2    H311413   3.538   3.313  17.319  0.1389 -1.3955 -0.2609
  773MPD2     N11414   3.412   3.350   0.049  0.3108  0.0996  0.2765
  773MPD2    H511415   3.332   3.346   0.112  0.1908  1.0041  0.1809
  773MPD2    N111416   3.118   3.168  17.432 -0.2551 -0.4798  0.1782
  773MPD2    H711417   3.061   3.149  17.514  1.8712 -1.7003  1.3816
  774MPD2     C11418   2.791   2.109  13.541 -0.2834  0.3403 -0.0739
  774MPD2    C111419   2.870   2.149  13.649  0.5687  1.0114  0.2415
  774MPD2    C211420   2.956   2.262  13.634  0.0480  0.1774 -0.3618
  774MPD2    C311421   2.935   2.347  13.527 -0.0661 -0.3190 -0.2343
  774MPD2    C411422   2.854   2.314  13.425 -0.6465  0.4444 -0.1197
  774MPD2    C511423   2.783   2.199  13.433  0.2213  0.5571  0.0502
  774MPD2     H11424   3.017   2.292  13.719  0.6175  1.3932 -1.1990
  774MPD2    H111425   2.841   2.380  13.341 -1.0598  0.7506  0.1856
  774MPD2    H211426   2.720   2.027  13.539 -0.2706  0.3065  0.7634
  774MPD2    H311427   2.705   2.181  13.359  1.0219 -0.5484 -0.5203
  774MPD2     N11428   3.005   2.468  13.533 -0.5352 -0.4857 -0.1324
  774MPD2    H511429   3.067   2.470  13.614  2.0388  2.3891 -2.1890
  774MPD2    N111430   2.877   2.079  13.775 -0.3443  0.4042 -0.0568
  774MPD2    H711431   2.939   2.113  13.848 -1.7264  3.2341 -0.1828
  775MPD2     C11432   4.620   3.569  15.720 -0.2833  0.2633  0.2109
  775MPD2    C111433   4.567   3.692  15.691 -0.0271  0.3992 -0.1536
  775MPD2    C211434   4.653   3.797  15.655  0.5212  0.0193  0.3704
  775MPD2    C311435   0.060   3.776  15.651 -0.4927 -0.1084  0.6053
  775MPD2    C411436   0.116   3.660  15.691  0.8357  0.1393 -0.1553
  775MPD2    C511437   0.029   3.560  15.720 -0.1411 -0.5680 -0.4476
  775MPD2     H11438   4.617   3.897  15.633  2.1366  0.7899  1.2885
  775MPD2    H111439   0.223   3.639  15.688  0.4950 -1.6935  0.5187
  775MPD2    H211440   4.562   3.481  15.745 -1.1746  1.3718  2.0265
  775MPD2    H311441   0.072   3.463  15.740 -1.2672 -1.3279 -1.7638
  775MPD2     N11442   0.148   3.873  15.595  0.7628  0.5265  0.3883
  775MPD2    H511443   0.247   3.864  15.612  0.5458  0.4492  1.5902
  775MPD2    N111444   4.430   3.704  15.711 -0.0805 -0.2638 -0.7851
  775MPD2    H711445   4.378   3.618  15.726 -0.4987  0.0730 -0.3047
  776MPD2     C11446   3.781   3.786  11.514  0.2918  0.0434 -0.6299
  776MPD2    C111447   3.671   3.832  11.452 -0.4358 -0.2321  0.7332
  776MPD2    C211448   3.654   3.967  11.440  0.4890 -0.4442  0.5377
  776MPD2    C311449   3.751   4.050  11.495  0.2113 -0.1801 -0.1917
  776MPD2    C411450   3.864   4.002  11.563 -0.1381  0.4513 -0.3451
  776MPD2    C511451   3.870   3.862  11.577 -0.0913 -0.6758  0.1037
  776MPD2     H11452   3.578   4.001  11.370  0.0466 -4.1275 -0.7757
  776MPD2    H111453   3.947   4.058  11.606 -0.4373 -0.0881  0.9566
  776MPD2    H211454   3.796   3.679  11.509 -1.1371 -0.3341  3.2088
  776MPD2    H311455   3.953   3.818  11.632 -0.4808  0.2662  1.4406
  776MPD2     N11456   3.753   4.189  11.470  0.5317 -0.0914  0.8602
  776MPD2    H511457   3.833   4.236  11.512 -0.4485  1.2355  1.2299
  776MPD2    N111458   3.589   3.737  11.384 -0.1867  0.6143  0.2513
  776MPD2    H711459   3.641   3.651  11.367  0.4849  1.0128  0.2709
  777MPD2     C11460   3.399   2.352   0.460  0.3390  0.5702  0.5997
  777MPD2    C111461   3.361   2.308   0.576  0.3898  1.1245  0.3684
  777MPD2    C211462   3.270   2.199   0.582  0.6675  0.4227  0.3940
  777MPD2    C311463   3.227   2.131   0.464  0.1498 -0.4359 -0.0826
  777MPD2    C411464   3.248   2.197   0.342 -0.0823  0.0143 -0.2220
  777MPD2    C511465   3.335   2.301   0.344  0.1665  0.9999  0.2860
  777MPD2     H11466   3.243   2.161   0.680 -1.9533 -0.3025 -0.6291
  777MPD2    H111467   3.218   2.158   0.246 -2.0828  0.4714  0.2155
  777MPD2    H211468   3.482   2.421   0.445  1.2725 -0.7595 -0.3908
  777MPD2    H311469   3.365   2.349   0.252  0.3743  1.0923  0.4017
  777MPD2     N11470   3.159   2.006   0.480  0.5309  0.5342  0.5825
  777MPD2    H511471   3.167   1.971   0.575 -1.5168  1.4798  1.1166
  777MPD2    N111472   3.404   2.372   0.692  0.5848 -0.4076 -0.0979
  777MPD2    H711473   3.470   2.447   0.679 -0.6883  0.7437  0.0855
  778MPD2     C11474   0.153   1.738  14.760 -0.5305  0.0956 -0.2264
  778MPD2    C111475   0.136   1.625  14.685  0.7746 -0.1292 -0.0421
  778MPD2    C211476   0.194   1.629  14.556 -0.7272  0.7990  0.5850
  778MPD2    C311477   0.276   1.725  14.508 -0.2182 -0.1959 -0.1653
  778MPD2    C411478   0.286   1.837  14.587 -0.3419 -0.4400 -0.2102
  778MPD2    C511479   0.222   1.841  14.710  0.1279 -0.6935  0.6569
  778MPD2     H11480   0.181   1.539  14.496  0.1426  1.3242 -0.3793
  778MPD2    H111481   0.338   1.930  14.565  0.6423 -1.0064 -0.3019
  778MPD2    H211482   0.122   1.767  14.860 -0.1814  1.0948 -0.4109
  778MPD2    H311483   0.240   1.922  14.780  0.5957  0.4543 -0.7920
  778MPD2     N11484   0.325   1.711  14.380  0.7056 -0.0659  0.3988
  778MPD2    H511485   0.312   1.619  14.339 -0.3937 -1.3071  3.4736
  778MPD2    N111486   0.058   1.512  14.727 -0.2954 -0.5432  0.5606
  778MPD2    H711487   0.077   1.437  14.660 -0.5115 -1.0732  1.0904
  779MPD2     C11488   0.097   0.564  14.743 -0.2868  0.1016  0.2687
  779MPD2    C111489   0.168   0.533  14.628  0.5766  0.0827 -0.0973
  779MPD2    C211490   0.186   0.633  14.535  0.1368 -0.0757 -0.0494
  779MPD2    C311491   0.156   0.764  14.561  0.1556  0.2912 -0.1350
  779MPD2    C411492   0.092   0.794  14.674 -1.2202  0.0159 -0.0161
  779MPD2    C511493   0.056   0.693  14.757  0.0017 -0.0302  0.1099
  779MPD2     H11494   0.241   0.604  14.446  1.4775  0.8920  0.4750
  779MPD2    H111495   0.081   0.896  14.709  1.0527 -0.5604  2.3986
  779MPD2    H211496   0.075   0.497  14.826 -0.2979 -0.3523 -0.0999
  779MPD2    H311497   0.009   0.718  14.852  0.3188  1.3766 -0.0970
  779MPD2     N11498   0.193   0.869  14.477  0.2207  0.0754  0.7385
  779MPD2    H511499   0.178   0.961  14.518  0.1481  0.2809  0.2540
  779MPD2    N111500   0.218   0.404  14.608  0.1903 -0.3371 -0.0898
  779MPD2    H711501   0.294   0.398  14.541 -1.0089 -0.7033 -1.4108
  780MPD2     C11502   2.682   0.236  17.289 -0.9348  0.4211 -0.7270
  780MPD2    C111503   2.771   0.145  17.329  0.0173 -0.4076 -0.4046
  780MPD2    C211504   2.905   0.182  17.335  0.1561  0.5266  0.5806
  780MPD2    C311505   2.954   0.303  17.313 -0.1359  0.0343  0.4144
  780MPD2    C411506   2.858   0.408  17.289  0.6763 -0.1283  0.0514
  780MPD2    C511507   2.732   0.363  17.268 -0.7809  0.1880 -0.7583
  780MPD2     H11508   2.979   0.104  17.350  2.1131  2.5256  1.3959
  780MPD2    H111509   2.880   0.513  17.276  2.5588 -0.4041  0.9939
  780MPD2    H211510   2.578   0.209  17.276 -1.4347  0.8509  2.5068
  780MPD2    H311511   2.664   0.438  17.229 -0.8472  1.3666  1.6314
  780MPD2     N11512   3.091   0.325  17.325  0.8597  0.4939  0.2700
  780MPD2    H511513   3.148   0.242  17.315 -0.4533 -0.1980 -1.4975
  780MPD2    N111514   2.724   0.013  17.364  0.8040 -0.1856  0.1485
  780MPD2    H711515   2.634   4.705  17.335  1.3377 -0.9739 -0.5201
  781MPD2     C11516   1.594   2.430  11.700  0.6478  0.2550 -0.4648
  781MPD2    C111517   1.681   2.327  11.730 -0.0675  0.4976 -0.2136
  781MPD2    C211518   1.786   2.305  11.648  1.0991  0.2354  0.1368
  781MPD2    C311519   1.811   2.371  11.531  0.3114  0.1568  0.1971
  781MPD2    C411520   1.720   2.468  11.497 -0.1705  0.0123  0.0925
  781MPD2    C511521   1.618   2.505  11.581 -0.4914 -0.0945  0.1378
  781MPD2     H11522   1.846   2.219  11.677  1.0814  0.1715 -0.0115
  781MPD2    H111523   1.738   2.521  11.404  1.7061 -1.1524 -0.2141
  781MPD2    H211524   1.501   2.445  11.754 -0.2088 -1.2110 -1.5253
  781MPD2    H311525   1.550   2.584  11.554  0.7148  0.1977 -2.0485
  781MPD2     N11526   1.900   2.334  11.428  0.2137 -0.8694  0.6144
  781MPD2    H511527   1.917   2.394  11.348 -0.0188 -1.6329 -0.0162
  781MPD2    N111528   1.678   2.260  11.852 -0.3136  0.2954 -0.1241
  781MPD2    H711529   1.761   2.211  11.884 -1.9948 -2.5192 -0.0296
  782MPD2     C11530   4.132   3.073   9.893  0.0117  0.4372  0.2847
  782MPD2    C111531   4.231   2.995   9.953 -0.9542 -0.2395 -0.5586
  782MPD2    C211532   4.314   3.064  10.046  0.2825 -0.0274 -0.2608
  782MPD2    C311533   4.294   3.195  10.090  0.7598 -0.0526 -0.2862
  782MPD2    C411534   4.195   3.270  10.026 -0.4166  0.0743 -0.0847
  782MPD2    C511535   4.123   3.207   9.923 -0.6426  0.0479 -0.4379
  782MPD2     H11536   4.390   3.001  10.090  1.2695  0.0098 -1.8922
  782MPD2    H111537   4.175   3.373  10.054 -3.3444 -0.6955  0.7457
  782MPD2    H211538   4.065   3.038   9.815  1.1480  2.9077 -1.7997
  782MPD2    H311539   4.055   3.274   9.872  1.9610  0.8656 -2.8400
  782MPD2     N11540   4.379   3.244  10.192 -0.6171 -0.0797 -0.8553
  782MPD2    H511541   4.458   3.183  10.210  0.0218  1.2271  0.7587
  782MPD2    N111542   4.261   2.859   9.920 -0.3099  0.0409  0.0647
  782MPD2    H711543   4.350   2.829   9.961  1.0578  3.5946 -0.3151
  783MPD2     C11544   3.679   2.249  10.333  0.4455 -0.0143 -0.5511
  783MPD2    C111545   3.744   2.359  10.384 -0.6478  0.1731 -0.1402
  783MPD2    C211546   3.836   2.420  10.305 -0.3465  0.3232  0.7684
  783MPD2    C311547   3.873   2.370  10.183  0.8770 -0.0471 -0.1599
  783MPD2    C411548   3.796   2.265  10.132  0.6744 -0.1775 -0.3043
  783MPD2    C511549   3.692   2.211  10.205 -0.2932 -0.3390 -0.3210
  783MPD2     H11550   3.884   2.510  10.343 -0.6033  0.3967  0.9193
  783MPD2    H111551   3.811   2.235  10.029  0.5713 -1.4381  0.0543
  783MPD2    H211552   3.592   2.207  10.383 -0.2783 -0.1819 -1.9449
  783MPD2    H311553   3.629   2.130  10.171 -1.6719  1.3116 -1.6732
  783MPD2     N11554   3.986   2.431  10.115  0.2800  0.3973 -0.2503
  783MPD2    H511555   4.038   2.507  10.158  0.8607  0.3554 -0.8785
  783MPD2    N111556   3.709   2.405  10.518 -0.3064  0.6993 -0.1926
  783MPD2    H711557   3.661   2.339  10.578  1.8746  0.6980  1.5530
  784MPD2     C11558   1.090   3.831   0.269 -0.1208 -0.5807 -0.1529
  784MPD2    C111559   1.000   3.899   0.345  0.0643 -0.0787  0.8222
  784MPD2    C211560   0.868   3.918   0.298  0.1244  0.0982  0.6966
  784MPD2    C311561   0.832   3.887   0.167 -0.3208 -0.1725  0.7164
  784MPD2    C411562   0.929   3.830   0.091 -0.4940  0.1029  0.0106
  784MPD2    C511563   1.057   3.803   0.137 -0.4192 -0.7028  0.7023
  784MPD2     H11564   0.799   3.969   0.363 -1.0744  0.0037 -0.5005
  784MPD2    H111565   0.910   3.804  17.698 -0.6175  1.9790 -0.4433
  784MPD2    H211566   1.188   3.806   0.309 -0.1965  0.9702  1.0137
  784MPD2    H311567   1.129   3.746   0.079  0.5492  1.2175  0.0052
  784MPD2     N11568   0.711   3.921   0.113 -0.1072 -0.0675  0.2065
  784MPD2    H511569   0.648   3.962   0.181 -0.6277 -0.0081 -0.3150
  784MPD2    N111570   1.028   3.939   0.479  0.4878 -0.6015 -0.3050
  784MPD2    H711571   0.950   3.975   0.533  1.3283  0.8749 -0.0717
  785MPD2     C11572   2.221   1.291  11.025 -0.4167  0.3065 -0.0464
  785MPD2    C111573   2.173   1.421  11.012  0.2865 -0.2793  0.1955
  785MPD2    C211574   2.039   1.451  11.015  0.0733  0.0761  0.3817
  785MPD2    C311575   1.951   1.348  11.048 -0.3250  0.2955  0.3311
  785MPD2    C411576   1.996   1.223  11.080 -0.0258  0.7679  0.3001
  785MPD2    C511577   2.132   1.195  11.064  0.2627 -0.6440 -0.8076
  785MPD2     H11578   1.991   1.542  10.982  0.0963  0.5464  1.6641
  785MPD2    H111579   1.936   1.135  11.098 -0.2016  0.4710 -1.7032
  785MPD2    H211580   2.326   1.270  11.009 -0.4870 -0.6159  0.6928
  785MPD2    H311581   2.169   1.095  11.082  2.9923  0.4746 -0.1650
  785MPD2     N11582   1.813   1.383  11.040 -0.2361 -0.4454  0.3078
  785MPD2    H511583   1.782   1.472  11.001 -0.1397 -0.7912 -0.5676
  785MPD2    N111584   2.271   1.512  10.966 -0.1607  0.8714 -0.1461
  785MPD2    H711585   2.370   1.490  10.961 -0.9303 -2.8696  1.0901
  786MPD2     C11586   0.497   4.497  14.803  0.0247  0.3078 -0.1051
  786MPD2    C111587   0.626   4.457  14.791 -0.1841  0.0366  0.5403
  786MPD2    C211588   0.718   4.474  14.888 -0.1417 -0.2198  0.3044
  786MPD2    C311589   0.681   4.528  15.010  0.0639 -0.3102  0.3993
  786MPD2    C411590   0.548   4.559  15.023  0.7272  0.0352 -0.3890
  786MPD2    C511591   0.453   4.539  14.924 -0.2496  0.4654 -0.0692
  786MPD2     H11592   0.820   4.441  14.871 -0.4463 -0.9726 -0.0554
  786MPD2    H111593   0.507   4.583  15.120  1.1588 -2.3349  0.3556
  786MPD2    H211594   0.430   4.486  14.718  1.0451 -1.6218 -0.6592
  786MPD2    H311595   0.348   4.555  14.943  0.1806  1.7468  1.1828
  786MPD2     N11596   0.769   4.545  15.118 -0.3838  0.3947  0.5321
  786MPD2    H511597   0.734   4.606  15.192 -0.2357  0.8825  0.2001
  786MPD2    N111598   0.678   4.406  14.667 -0.0293 -0.1890  0.6292
  786MPD2    H711599   0.774   4.373  14.676 -0.2832 -1.2959 -0.8282
  787MPD2     C11600   0.942   3.866  14.795 -0.3635  0.3803 -0.2730
  787MPD2    C111601   0.977   3.879  14.664  0.2343  0.2483  0.7416
  787MPD2    C211602   1.076   3.801  14.611  0.0293  0.7940  0.5024
  787MPD2    C311603   1.133   3.696  14.679 -0.0396  0.2120  0.0459
  787MPD2    C411604   1.089   3.682  14.808 -0.1850 -0.2941  0.4500
  787MPD2    C511605   0.991   3.760  14.862 -0.2906 -0.1659 -0.1739
  787MPD2     H11606   1.101   3.805  14.505 -0.6629  2.2865  0.3813
  787MPD2    H111607   1.129   3.614  14.882 -2.6053 -1.6876  0.4708
  787MPD2    H211608   0.869   3.926  14.847  0.4328  1.2495 -0.1543
  787MPD2    H311609   0.967   3.735  14.965 -0.2494  2.0322  0.3621
  787MPD2     N11610   1.227   3.606  14.616  0.0316  0.1261  0.1638
  787MPD2    H511611   1.244   3.630  14.519  1.9601  2.3057  1.0381
  787MPD2    N111612   0.916   3.981  14.589  0.1108 -0.5008 -0.2048
  787MPD2    H711613   0.848   4.030  14.646  0.2101 -0.4133 -0.1598
  788MPD2     C11614   1.635   2.299   1.491 -0.4777  0.3903  0.4381
  788MPD2    C111615   1.598   2.287   1.359  0.0546  0.4346 -0.4406
  788MPD2    C211616   1.562   2.402   1.285 -0.8607 -0.8683  0.2305
  788MPD2    C311617   1.544   2.519   1.347  0.0975 -0.3748  0.1352
  788MPD2    C411618   1.564   2.529   1.483  0.3778 -0.1214  0.0429
  788MPD2    C511619   1.607   2.419   1.554  0.7628 -0.2477  0.0080
  788MPD2     H11620   1.557   2.400   1.177  2.5240  0.5366  0.0267
  788MPD2    H111621   1.554   2.625   1.532  0.7394  0.3626 -0.8376
  788MPD2    H211622   1.669   2.216   1.552  2.7903  0.5611 -1.1412
  788MPD2    H311623   1.624   2.432   1.660 -0.7495 -2.2959  0.4994
  788MPD2     N11624   1.529   2.645   1.285 -0.0145  0.1036  0.6238
  788MPD2    H511625   1.520   2.723   1.349 -0.3936  0.0809  0.6003
  788MPD2    N111626   1.602   2.164   1.285 -0.3531  0.2134  0.2756
  788MPD2    H711627   1.561   2.159   1.192 -1.3693 -3.3402  0.9198
  789MPD2     C11628   2.778   2.534  16.705 -0.1133 -0.5975  0.6208
  789MPD2    C111629   2.705   2.499  16.818  0.2131 -1.0562 -0.3346
  789MPD2    C211630   2.578   2.555  16.833 -0.2555  0.5810  0.2352
  789MPD2    C311631   2.522   2.646  16.747  0.5612 -0.1774 -0.8755
  789MPD2    C411632   2.593   2.687  16.636  0.4837 -0.1086  0.1105
  789MPD2    C511633   2.715   2.618  16.614 -0.2888 -0.3649  0.1278
  789MPD2     H11634   2.514   2.518  16.912 -0.1656 -2.2463 -0.9962
  789MPD2    H111635   2.553   2.756  16.563  2.8474  1.5092  0.3555
  789MPD2    H211636   2.879   2.498  16.693 -0.0959 -0.8390  1.4745
  789MPD2    H311637   2.769   2.656  16.528  1.2430 -0.8753  0.8534
  789MPD2     N11638   2.392   2.700  16.766  0.4701  0.5834  0.0768
  789MPD2    H511639   2.377   2.780  16.705  2.2540  0.2988 -0.7464
  789MPD2    N111640   2.752   2.410  16.912  0.1400 -0.2980  0.3572
  789MPD2    H711641   2.696   2.390  16.994  0.6196  0.9715  0.9840
  790MPD2     C11642   3.789   0.006  13.001 -0.3357 -0.4038 -0.0485
  790MPD2    C111643   3.846   4.634  13.083  0.4333 -0.1201 -0.7397
  790MPD2    C211644   3.784   4.513  13.085  0.2280 -0.3073 -0.2431
  790MPD2    C311645   3.672   4.491  13.008 -0.9021 -0.5728 -0.5626
  790MPD2    C411646   3.605   4.594  12.949  0.5149  0.1816  0.4452
  790MPD2    C511647   3.669   4.711  12.931 -0.2516 -0.4831 -0.2210
  790MPD2     H11648   3.826   4.433  13.145  0.3001 -2.4036 -3.0947
  790MPD2    H111649   3.506   4.580  12.907  0.2820 -1.6625  1.6402
  790MPD2    H211650   3.837   0.102  12.982  2.2000 -2.1192 -2.2375
  790MPD2    H311651   3.620   0.063  12.875 -0.5522 -0.4798  0.0496
  790MPD2     N11652   3.625   4.357  13.002 -0.4616 -0.1464 -0.2221
  790MPD2    H511653   3.652   4.298  13.080 -0.7395 -0.8597 -0.6659
  790MPD2    N111654   3.962   4.666  13.156 -0.0128  0.8231  0.7506
  790MPD2    H711655   4.015   0.024  13.141  2.2440 -1.2206 -2.8365
  791MPD2     C11656   2.950   4.075  12.733  0.2316  0.2614 -0.6324
  791MPD2    C111657   3.040   3.971  12.759  0.8897 -0.3302  0.3956
  791MPD2    C211658   3.016   3.846  12.702  0.5138  0.1349 -0.4930
  791MPD2    C311659   2.905   3.825  12.619 -0.1817 -0.5898 -0.2257
  791MPD2    C411660   2.812   3.921  12.602 -1.3063  0.0677 -0.3166
  791MPD2    C511661   2.839   4.047  12.658 -0.2139  0.0325 -0.1603
  791MPD2     H11662   3.089   3.767  12.703 -0.6530 -0.9568 -1.6469
  791MPD2    H111663   2.730   3.907  12.533 -1.6549  1.6367 -0.2340
  791MPD2    H211664   2.963   4.170  12.782  0.3025 -0.2049  0.2540
  791MPD2    H311665   2.758   4.118  12.673  0.1849  0.0091  2.1097
  791MPD2     N11666   2.897   3.704  12.548  0.1616 -0.3199  0.1213
  791MPD2    H511667   2.971   3.634  12.551  3.6068  3.3417 -0.2193
  791MPD2    N111668   3.162   4.004  12.821 -0.1836  0.4617  0.6899
  791MPD2    H711669   3.182   4.103  12.830  1.9569 -0.0558  1.5237
  792MPD2     C11670   3.386   3.853  10.972  0.2561  0.0410  0.3876
  792MPD2    C111671   3.519   3.822  11.001  0.0190 -0.0624  0.5854
  792MPD2    C211672   3.566   3.695  10.980 -0.2092 -0.1956 -0.3022
  792MPD2    C311673   3.484   3.599  10.919  0.1477  0.7305 -0.2094
  792MPD2    C411674   3.358   3.634  10.886 -0.2709 -0.1615  0.4412
  792MPD2    C511675   3.313   3.761  10.908 -0.8700  0.1040  0.3740
  792MPD2     H11676   3.670   3.666  10.986 -0.5510 -1.4958 -0.7824
  792MPD2    H111677   3.302   3.557  10.834  2.4493 -2.3168  0.7162
  792MPD2    H211678   3.339   3.947  10.998  0.7317 -0.1620  1.9957
  792MPD2    H311679   3.210   3.791  10.890 -0.2345  0.5831 -2.4251
  792MPD2     N11680   3.527   3.481  10.855 -0.4811  0.0444 -0.6055
  792MPD2    H511681   3.455   3.414  10.832  0.1412 -0.8851  0.1562
  792MPD2    N111682   3.599   3.933  11.053 -0.0139  0.5382 -0.0799
  792MPD2    H711683   3.561   4.027  11.048 -0.2002  0.5317  1.1343
  793MPD2     C11684   3.247   3.139  10.121 -0.1694 -0.2090 -0.1746
  793MPD2    C111685   3.310   3.257  10.157  0.2715  0.1738  0.0410
  793MPD2    C211686   3.371   3.258  10.286 -0.2732  0.6772 -0.4034
  793MPD2    C311687   3.401   3.147  10.359 -0.0926 -0.1369  0.8619
  793MPD2    C411688   3.358   3.026  10.311 -0.3297  0.3927  0.2764
  793MPD2    C511689   3.283   3.024  10.198  0.5463  0.4776  0.0334
  793MPD2     H11690   3.414   3.354  10.314  1.1723 -0.5479  1.5884
  793MPD2    H111691   3.387   2.925  10.339  2.8783  1.1926 -0.1108
  793MPD2    H211692   3.201   3.123  10.025 -0.7699  0.2921  0.0275
  793MPD2    H311693   3.257   2.931  10.149  2.5494 -0.6466  1.0781
  793MPD2     N11694   3.462   3.172  10.482 -0.6023  0.3084 -0.1648
  793MPD2    H511695   3.508   3.261  10.494 -0.9505  0.7590 -2.1542
  793MPD2    N111696   3.308   3.374  10.083 -0.0462  0.1947 -0.5641
  793MPD2    H711697   3.373   3.444  10.117  0.1391 -0.7736  1.0779
  794MPD2     C11698   2.423   3.381  17.055 -0.1572  0.4410  0.3248
  794MPD2    C111699   2.558   3.363  17.022  0.1974  1.0104  0.1841
  794MPD2    C211700   2.599   3.429  16.909 -0.5920 -0.6009  0.0597
  794MPD2    C311701   2.510   3.505  16.830  0.3121 -0.4062 -0.0086
  794MPD2    C411702   2.387   3.532  16.880 -0.0251 -0.1223  0.6383
  794MPD2    C511703   2.355   3.478  16.998  0.9883  0.0938 -0.2771
  794MPD2     H11704   2.704   3.418  16.884 -1.0914 -3.2359 -0.9398
  794MPD2    H111705   2.324   3.607  16.835 -0.8427 -2.1112 -1.5098
  794MPD2    H211706   2.370   3.328  17.134 -1.1648 -1.3685 -1.5719
  794MPD2    H311707   2.254   3.487  17.037  1.8614  0.8779  1.7875
  794MPD2     N11708   2.546   3.568  16.712  0.2143 -0.3624 -0.7817
  794MPD2    H511709   2.486   3.646  16.685  2.2498  1.4490 -0.0614
  794MPD2    N111710   2.639   3.274  17.103  0.2118  0.4280 -0.2620
  794MPD2    H711711   2.731   3.251  17.068 -0.5712 -0.8373 -1.4990
  795MPD2     C11712   1.197   0.756  13.632  0.6869 -0.5842 -0.0984
  795MPD2    C111713   1.200   0.682  13.518  0.1228  0.2910 -0.5157
  795MPD2    C211714   1.282   0.574  13.509 -0.0016 -0.4393  0.2182
  795MPD2    C311715   1.362   0.546  13.614  0.4156 -0.4711  0.1268
  795MPD2    C411716   1.366   0.621  13.729 -1.2551  0.3626  0.0068
  795MPD2    C511717   1.279   0.727  13.738 -0.0449  0.2525  0.3746
  795MPD2     H11718   1.291   0.522  13.415  0.7915  0.7014 -0.3333
  795MPD2    H111719   1.423   0.590  13.815 -0.5818 -0.7078 -0.8208
  795MPD2    H211720   1.118   0.827  13.657 -0.6117 -1.4588 -1.7137
  795MPD2    H311721   1.288   0.789  13.826  0.5732  2.0444 -0.9509
  795MPD2     N11722   1.454   0.435  13.611  0.8199  0.2834  0.1250
  795MPD2    H511723   1.519   0.431  13.689  0.5114  0.7782  0.4063
  795MPD2    N111724   1.131   0.713  13.403 -0.3220 -0.2365  0.3159
  795MPD2    H711725   1.156   0.661  13.319 -3.1971 -0.0761 -0.6508
  796MPD2     C11726   0.804   2.511  15.462 -0.0232  0.2819  0.0475
  796MPD2    C111727   0.889   2.551  15.563 -0.0424  0.0549  0.1082
  796MPD2    C211728   0.895   2.686  15.594 -0.6116  0.0676  0.6616
  796MPD2    C311729   0.817   2.774  15.515  0.0186  0.1895 -0.0729
  796MPD2    C411730   0.751   2.729  15.398 -0.6674  0.1231 -0.4443
  796MPD2    C511731   0.734   2.591  15.378  0.7356  0.4158 -0.3871
  796MPD2     H11732   0.941   2.734  15.679 -1.1136  0.7467  0.5517
  796MPD2    H111733   0.702   2.803  15.337  0.7258  0.9056 -0.6136
  796MPD2    H211734   0.797   2.404  15.445  1.1678  0.3668 -0.9840
  796MPD2    H311735   0.678   2.548  15.295  0.5375  0.7851 -0.4464
  796MPD2     N11736   0.814   2.906  15.565  0.2694 -0.0078  0.1899
  796MPD2    H511737   0.866   2.918  15.651  0.2757 -0.5496  0.2635
  796MPD2    N111738   0.950   2.451  15.639  0.6975 -0.1798  0.5097
  796MPD2    H711739   0.921   2.355  15.627  0.7607 -0.3060  1.3789
  797MPD2     C11740   1.543   2.322  17.387 -0.2070  0.1601 -0.5794
  797MPD2    C111741   1.674   2.308  17.352 -0.7479 -0.3047 -0.0570
  797MPD2    C211742   1.715   2.342  17.226  0.5060  0.0378 -0.2537
  797MPD2    C311743   1.619   2.397  17.142 -0.3895  0.2845 -0.1066
  797MPD2    C411744   1.488   2.419  17.179 -0.2344 -0.7038  0.3221
  797MPD2    C511745   1.451   2.373  17.302 -0.4121  0.2858 -0.2394
  797MPD2     H11746   1.816   2.331  17.190  0.8688 -1.1302  1.1235
  797MPD2    H111747   1.413   2.465  17.115 -0.4782  0.0411  1.1472
  797MPD2    H211748   1.508   2.297  17.487  1.1413 -0.7915 -0.3376
  797MPD2    H311749   1.355   2.394  17.346  0.2233  0.7599  0.9137
  797MPD2     N11750   1.664   2.425  17.012 -0.1938 -0.1262 -0.3201
  797MPD2    H511751   1.765   2.415  17.006 -0.1011  0.8592 -0.3025
  797MPD2    N111752   1.779   2.256  17.436  0.3457  0.3143 -0.5230
  797MPD2    H711753   1.864   2.277  17.384 -0.1032 -0.3887 -1.5340
  798MPD2     C11754   2.336   2.296  16.956  0.4379  0.0566 -0.3408
  798MPD2    C111755   2.203   2.304  16.974  0.3192 -0.0736 -0.0202
  798MPD2    C211756   2.150   2.254  17.091 -0.2220 -0.6186 -0.6719
  798MPD2    C311757   2.235   2.203  17.191 -0.1366 -0.8760 -1.2321
  798MPD2    C411758   2.371   2.207  17.174  0.2955  0.3008 -0.2598
  798MPD2    C511759   2.422   2.251  17.052 -0.4513  0.6537  0.2059
  798MPD2     H11760   2.044   2.239  17.111 -0.1023 -0.4863  0.0575
  798MPD2    H111761   2.448   2.189  17.248 -2.6677 -1.4576  2.3768
  798MPD2    H211762   2.381   2.321  16.861  0.0543  1.9387 -0.0217
  798MPD2    H311763   2.528   2.250  17.033 -0.0714 -0.9890  2.3163
  798MPD2     N11764   2.176   2.161  17.316 -0.2989  0.4891  0.4287
  798MPD2    H511765   2.076   2.150  17.301 -0.2219  0.9797 -0.4363
  798MPD2    N111766   2.121   2.356  16.868  0.2862 -0.1152  0.4416
  798MPD2    H711767   2.157   2.380  16.776 -0.7199 -0.5648 -0.0704
  799MPD2     C11768   0.924   3.268  14.733 -0.2349  0.4369 -0.1430
  799MPD2    C111769   0.876   3.227  14.611  0.1161  0.2496 -0.4584
  799MPD2    C211770   0.819   3.312  14.518 -0.1494  0.0325  0.6953
  799MPD2    C311771   0.816   3.448  14.547  1.3630  0.6174 -0.2911
  799MPD2    C411772   0.854   3.492  14.674 -0.4212 -0.4766 -0.6816
  799MPD2    C511773   0.903   3.402  14.762  0.1473  0.3548  0.2816
  799MPD2     H11774   0.794   3.267  14.422 -0.0815 -1.6120  1.4456
  799MPD2    H111775   0.852   3.598  14.697 -1.3131 -0.7420  0.4375
  799MPD2    H211776   0.965   3.205  14.810 -1.6145 -0.4839 -0.1581
  799MPD2    H311777   0.933   3.445  14.857  3.1771 -1.0138 -0.0201
  799MPD2     N11778   0.765   3.540  14.459 -0.5916  0.2216  0.3205
  799MPD2    H511779   0.738   3.630  14.498  0.1479 -0.4157  2.2879
  799MPD2    N111780   0.876   3.085  14.583 -0.3896  0.2727 -0.0867
  799MPD2    H711781   0.820   3.047  14.506 -2.1183  1.6502  0.5088
  800MPD2     C11782   0.910   0.120  13.603  0.3975  0.1068 -0.1905
  800MPD2    C111783   1.010   0.043  13.654 -0.2949 -0.1168  0.0176
  800MPD2    C211784   1.002   4.635  13.623 -0.4362  0.6036 -0.3291
  800MPD2    C311785   0.898   4.582  13.557  0.2692  0.5638 -0.1518
  800MPD2    C411786   0.799   4.660  13.512 -0.0908 -0.0468 -0.0639
  800MPD2    C511787   0.797   0.068  13.536 -0.2123 -0.3365  0.6614
  800MPD2     H11788   1.080   4.569  13.661 -0.5616  1.5139  1.5438
  800MPD2    H111789   0.710   4.623  13.462  0.2782 -1.1027  0.0475
  800MPD2    H211790   0.916   0.227  13.621 -0.4752  0.3644 -1.3975
  800MPD2    H311791   0.716   0.128  13.497  0.4883 -0.1694 -0.5226
  800MPD2     N11792   0.897   4.442  13.536  0.9324  0.4596  0.1746
  800MPD2    H511793   0.974   4.392  13.579  0.9562 -0.1362 -0.5588
  800MPD2    N111794   1.111   0.105  13.731  0.2426 -0.4645  0.5378
  800MPD2    H711795   1.112   0.206  13.745 -0.5579 -0.2873 -0.7031
  801MPD2     C11796   1.345   0.560  14.428 -0.5510 -0.6699 -0.8451
  801MPD2    C111797   1.273   0.524  14.317 -0.4189 -0.4846  0.2832
  801MPD2    C211798   1.142   0.569  14.303 -0.3277 -0.7535  0.8093
  801MPD2    C311799   1.089   0.663  14.390  0.6836  0.6111  0.1241
  801MPD2    C411800   1.164   0.698  14.503  0.4660 -0.1085 -0.3609
  801MPD2    C511801   1.292   0.648  14.521 -0.1025 -0.0704 -0.4536
  801MPD2     H11802   1.083   0.523  14.225 -2.4817 -0.5947  2.3185
  801MPD2    H111803   1.123   0.769  14.574 -0.6750 -1.3045  0.1726
  801MPD2    H211804   1.444   0.521  14.443 -0.8837 -0.5861  1.5473
  801MPD2    H311805   1.340   0.673  14.615 -1.2098 -0.2608  0.1616
  801MPD2     N11806   0.960   0.725  14.381  0.2290  0.9034 -0.7793
  801MPD2    H511807   0.912   0.770  14.458 -0.9414 -0.8731 -0.4592
  801MPD2    N111808   1.329   0.438  14.219  0.7028 -0.4019  0.1443
  801MPD2    H711809   1.415   0.390  14.243 -0.8246 -2.3653  1.7478
  802MPD2     C11810   4.632   0.082  17.146  0.3235  0.1967 -0.5679
  802MPD2    C111811   4.667   0.203  17.088 -0.1836 -0.0471  0.2307
  802MPD2    C211812   0.034   0.217  16.990 -0.3638 -0.8072 -0.0206
  802MPD2    C311813   0.101   0.102  16.948 -0.6535  1.0008  0.1057
  802MPD2    C411814   0.048   4.704  16.983 -0.0871 -0.5938  0.2692
  802MPD2    C511815   4.677   4.699  17.079 -0.2690  0.0519 -0.1968
  802MPD2     H11816   0.059   0.316  16.954 -0.3389 -0.5575  0.6864
  802MPD2    H111817   0.085   4.613  16.937  2.5961 -0.8781  3.0016
  802MPD2    H211818   4.546   0.079  17.212 -1.3163 -0.1896 -2.6946
  802MPD2    H311819   4.647   4.601  17.116  1.6490 -0.3871  0.2203
  802MPD2     N11820   0.198   0.123  16.846  0.9099 -0.8592  0.0768
  802MPD2    H511821   0.217   0.219  16.819  0.9847 -1.4011 -1.7586
  802MPD2    N111822   4.604   0.320  17.143  0.0194  0.6917 -0.1840
  802MPD2    H711823   4.558   0.301  17.231  1.3330 -2.2135 -0.1216
  803MPD2     C11824   1.842   3.919  11.972 -0.0239  0.1160 -0.8403
  803MPD2    C111825   1.943   3.862  12.047 -0.4477 -0.1801 -0.1698
  803MPD2    C211826   1.922   3.741  12.104  0.3653 -0.2714  0.4115
  803MPD2    C311827   1.801   3.676  12.096  0.1677 -0.4359  0.7525
  803MPD2    C411828   1.701   3.729  12.026  0.6662 -0.0533  0.1989
  803MPD2    C511829   1.720   3.850  11.961 -0.1082  0.4502 -0.5042
  803MPD2     H11830   1.998   3.688  12.160  0.9412  1.1512  0.9939
  803MPD2    H111831   1.611   3.670  12.013  1.3445 -0.8682 -0.8237
  803MPD2    H211832   1.858   4.022  11.942  0.1833  0.0309 -1.0287
  803MPD2    H311833   1.638   3.896  11.908  0.1527 -0.0974 -1.3874
  803MPD2     N11834   1.784   3.544  12.145  0.6775  0.1885 -0.2838
  803MPD2    H511835   1.693   3.500  12.151 -0.0950  1.7828 -0.4821
  803MPD2    N111836   2.062   3.921  12.089  0.1067 -0.4296  0.0829
  803MPD2    H711837   2.115   3.862  12.152  0.4821 -0.2231 -0.0400
  804MPD2     C11838   1.100   0.693  16.360  0.4897 -0.1130  0.3224
  804MPD2    C111839   1.082   0.709  16.495 -0.2544 -1.0486 -0.7156
  804MPD2    C211840   1.133   0.820  16.562 -0.0624  0.0019  0.0145
  804MPD2    C311841   1.210   0.906  16.486 -0.0551 -0.6963 -0.2175
  804MPD2    C411842   1.230   0.894  16.352 -1.0400  0.6428  0.3237
  804MPD2    C511843   1.158   0.798  16.288  0.0042 -0.2819 -0.0154
  804MPD2     H11844   1.125   0.838  16.668 -1.6688 -0.2057 -0.0714
  804MPD2    H111845   1.292   0.959  16.290 -0.8985 -0.2092 -0.4392
  804MPD2    H211846   1.055   0.612  16.304 -0.1097  1.2102 -1.0988
  804MPD2    H311847   1.167   0.792  16.180 -0.0904  0.5673 -0.0714
  804MPD2     N11848   1.273   1.015  16.545 -0.7962  0.1921 -0.5983
  804MPD2    H511849   1.344   1.059  16.487  0.8859 -2.1084 -0.2649
  804MPD2    N111850   1.012   0.606  16.576  0.3041 -0.1109  0.0168
  804MPD2    H711851   0.983   0.625  16.672  2.1656  2.5253  0.0573
  805MPD2     C11852   0.419   3.633  15.464 -0.0710  0.1294 -0.5209
  805MPD2    C111853   0.523   3.709  15.414  0.1087 -0.0995 -0.6452
  805MPD2    C211854   0.644   3.695  15.483 -0.1425 -0.7552 -0.3632
  805MPD2    C311855   0.657   3.617  15.597 -0.1825 -0.2198 -0.4585
  805MPD2    C411856   0.556   3.531  15.636 -0.1260 -0.0141 -0.6646
  805MPD2    C511857   0.442   3.539  15.561 -0.7788 -0.3489 -0.4710
  805MPD2     H11858   0.723   3.760  15.447 -0.9555  0.8513  0.7269
  805MPD2    H111859   0.562   3.465  15.722  1.9500 -0.7608 -1.3762
  805MPD2    H211860   0.318   3.639  15.426  0.3284 -1.6218 -1.8597
  805MPD2    H311861   0.370   3.464  15.594 -0.2991 -0.4573  0.3232
  805MPD2     N11862   0.772   3.624  15.676 -0.0604  0.8432  0.2979
  805MPD2    H511863   0.837   3.690  15.634  2.9689 -2.1376  0.3156
  805MPD2    N111864   0.507   3.796  15.304 -0.2637  0.2551 -0.1753
  805MPD2    H711865   0.587   3.838  15.257 -1.0528 -0.6018 -2.3002
  806MPD2     C11866   0.799   3.785   0.802 -0.5256 -0.8186  0.2860
  806MPD2    C111867   0.897   3.680   0.800 -0.9663  0.5202 -0.7071
  806MPD2    C211868   0.939   3.628   0.681 -0.1951 -0.0993  0.2380
  806MPD2    C311869   0.872   3.658   0.564  0.4234 -0.1795  0.1714
  806MPD2    C411870   0.774   3.756   0.572  0.6322 -0.1459  0.7871
  806MPD2    C511871   0.745   3.828   0.681  0.5601  0.4451  0.2500
  806MPD2     H11872   1.028   3.566   0.681  0.9136  1.5179 -3.8938
  806MPD2    H111873   0.718   3.774   0.480  0.7252 -1.3913  0.4914
  806MPD2    H211874   0.767   3.828   0.896  1.5367  0.4492  0.4008
  806MPD2    H311875   0.660   3.894   0.672  0.9736  0.8829 -0.4459
  806MPD2     N11876   0.879   3.593   0.441  0.1600  0.2010 -0.8414
  806MPD2    H511877   0.814   3.625   0.370 -3.4884 -0.3393  2.2979
  806MPD2    N111878   0.933   3.634   0.924 -0.4960 -0.0772 -0.0543
  806MPD2    H711879   0.897   3.687   1.003  0.9550  0.2157  0.4097
  807MPD2     C11880   0.659   3.703   1.567  0.1307  0.5843  0.4473
  807MPD2    C111881   0.709   3.575   1.565 -0.6706 -0.0019  0.3521
  807MPD2    C211882   0.648   3.480   1.650 -0.1779 -0.5054  0.0456
  807MPD2    C311883   0.546   3.519   1.732  0.6292 -0.2274 -0.3527
  807MPD2    C411884   0.506   3.650   1.743 -0.1497 -0.5964 -0.3556
  807MPD2    C511885   0.566   3.744   1.660  0.1616 -0.8370 -0.8631
  807MPD2     H11886   0.678   3.376   1.656  0.7427 -0.2112  0.5317
  807MPD2    H111887   0.431   3.688   1.811 -1.9735  1.0604 -3.3420
  807MPD2    H211888   0.697   3.768   1.490 -2.5360  1.2131 -0.3376
  807MPD2    H311889   0.528   3.845   1.667  0.0789 -0.9502  0.3100
  807MPD2     N11890   0.488   3.414   1.813  0.2118 -0.4506  0.5836
  807MPD2    H511891   0.532   3.322   1.805 -0.3614 -0.6755  0.0043
  807MPD2    N111892   0.807   3.530   1.473 -0.5808 -0.8773  0.0983
  807MPD2    H711893   0.795   3.430   1.468 -0.9635 -0.7370 -1.8201
  808MPD2     C11894   1.104   4.455   9.577  0.5103  0.2968 -0.1319
  808MPD2    C111895   1.029   4.502   9.466  0.2323  0.5290 -0.6298
  808MPD2    C211896   1.048   4.634   9.431  0.4704 -0.2446 -0.2407
  808MPD2    C311897   1.127   4.718   9.508  0.0292 -0.3212  0.4758
  808MPD2    C411898   1.179   4.674   9.628  0.6655  0.0273  0.5554
  808MPD2    C511899   1.182   4.539   9.646  0.2139  0.3666  0.7679
  808MPD2     H11900   0.989   4.674   9.350 -0.5842  0.9429  1.1200
  808MPD2    H111901   1.236   0.016   9.689 -0.8626  0.0876  1.9010
  808MPD2    H211902   1.093   4.350   9.600  2.7860  0.5395  1.9730
  808MPD2    H311903   1.237   4.494   9.728 -1.8225 -0.5738  1.6158
  808MPD2     N11904   1.160   0.119   9.464  0.0366  0.0148  0.2377
  808MPD2    H511905   1.216   0.171   9.531  0.3910  0.4495 -0.4064
  808MPD2    N111906   0.940   4.424   9.386 -0.6295  0.2137  0.6192
  808MPD2    H711907   0.913   4.473   9.301  1.8911  1.0868  0.3086
  809MPD2     C11908   1.478   0.379   8.549  0.2748 -0.0365  0.1806
  809MPD2    C111909   1.571   0.423   8.639 -1.4391 -0.1120 -0.3771
  809MPD2    C211910   1.532   0.422   8.773 -0.2086  0.0742  0.3942
  809MPD2    C311911   1.404   0.376   8.803  0.1005 -0.2218 -0.8900
  809MPD2    C411912   1.317   0.333   8.704 -0.0632 -0.5623  0.0786
  809MPD2    C511913   1.362   0.325   8.576 -0.2971  0.7188  1.0697
  809MPD2     H11914   1.603   0.454   8.849  0.7720  0.5787 -0.7347
  809MPD2    H111915   1.222   0.286   8.730  0.7457 -2.3377 -0.2010
  809MPD2    H211916   1.503   0.361   8.445 -1.2554  1.2962 -0.4163
  809MPD2    H311917   1.291   0.288   8.502 -1.8179  2.7970  1.4778
  809MPD2     N11918   1.350   0.386   8.935 -0.1021  0.0675 -0.4077
  809MPD2    H511919   1.250   0.368   8.937  0.3344 -2.2926  0.7043
  809MPD2    N111920   1.703   0.467   8.601  0.1421 -0.8437 -0.5533
  809MPD2    H711921   1.757   0.517   8.671  0.2562 -0.6462 -0.7784
  810MPD2     C11922   1.251   3.616   9.518 -0.0536 -0.2675 -0.2998
  810MPD2    C111923   1.212   3.611   9.651 -0.2349 -0.2824  0.0409
  810MPD2    C211924   1.305   3.649   9.747 -0.2239 -0.3794  0.6158
  810MPD2    C311925   1.437   3.684   9.716  0.1163 -0.1484 -0.1641
  810MPD2    C411926   1.470   3.689   9.583 -0.2708 -0.2329 -0.2615
  810MPD2    C511927   1.378   3.656   9.484 -0.0910  0.3177 -0.3303
  810MPD2     H11928   1.274   3.642   9.851 -0.5437  0.2112  0.5634
  810MPD2    H111929   1.566   3.731   9.558 -1.8560  3.2777 -0.3700
  810MPD2    H211930   1.181   3.596   9.438 -2.6901 -1.3476  2.2621
  810MPD2    H311931   1.410   3.672   9.382  2.1907  0.5114  0.4159
  810MPD2     N11932   1.527   3.735   9.812 -0.3653 -0.3728  0.1640
  810MPD2    H511933   1.598   3.795   9.771 -2.5359  1.9570 -0.1518
  810MPD2    N111934   1.079   3.592   9.673 -0.0303  0.0817  0.2562
  810MPD2    H711935   1.020   3.574   9.592 -0.4955 -0.3831  0.6966
  811MPD2     C11936   0.218   3.764   9.882  0.1207 -0.0191 -0.5232
  811MPD2    C111937   0.342   3.807   9.840  0.9581  0.0832  0.1183
  811MPD2    C211938   0.358   3.940   9.814 -0.0079  0.0751  0.6561
  811MPD2    C311939   0.266   4.034   9.847 -0.0095  0.4497  0.0684
  811MPD2    C411940   0.139   3.996   9.885  0.8485  0.2317  0.4182
  811MPD2    C511941   0.121   3.860   9.904  0.7321  0.0260 -0.1552
  811MPD2     H11942   0.457   3.975   9.787  0.1094 -1.4183 -0.8697
  811MPD2    H111943   0.062   4.063   9.921  0.6988  0.6350 -0.6429
  811MPD2    H211944   0.190   3.661   9.904 -0.4667 -0.2155 -2.1619
  811MPD2    H311945   0.025   3.834   9.947 -0.2901  0.5697 -2.0900
  811MPD2     N11946   0.295   4.172   9.830  0.0710 -0.0510  0.0331
  811MPD2    H511947   0.391   4.196   9.809 -0.4191 -0.0504 -2.1557
  811MPD2    N111948   0.448   3.710   9.832  0.2232 -0.3128  0.0858
  811MPD2    H711949   0.423   3.619   9.869 -0.5428 -1.1210 -2.4352
  812MPD2     C11950   4.351   3.957  11.969 -0.4358 -0.6130  0.5442
  812MPD2    C111951   4.320   4.008  12.092  0.2114  0.2045 -0.0286
  812MPD2    C211952   4.340   3.935  12.209  0.2835 -0.6383 -0.6988
  812MPD2    C311953   4.396   3.807  12.202 -0.2977  0.6070 -0.2519
  812MPD2    C411954   4.433   3.759  12.072  0.3688  0.1470 -0.2227
  812MPD2    C511955   4.415   3.834  11.961  0.3359  0.1669 -0.2782
  812MPD2     H11956   4.302   3.977  12.301  0.5583 -0.0399 -0.8643
  812MPD2    H111957   4.499   3.673  12.070 -2.5025 -2.0996  0.0538
  812MPD2    H211958   4.347   4.018  11.879 -0.8521 -0.6960  0.5065
  812MPD2    H311959   4.463   3.798  11.871  2.2716  0.6527  0.5477
  812MPD2     N11960   4.411   3.735  12.323  0.0003 -0.5478  0.2214
  812MPD2    H511961   4.359   3.780  12.398 -0.0708 -0.3457  0.0495
  812MPD2    N111962   4.281   4.146  12.097 -0.2177  0.3820 -0.2541
  812MPD2    H711963   4.284   4.197  12.009  0.5522 -0.6678 -0.8400
  813MPD2     C11964   3.633   1.066  13.057 -0.0155 -0.1366  0.1941
  813MPD2    C111965   3.597   1.201  13.066 -0.5081  0.8546  0.2574
  813MPD2    C211966   3.523   1.242  13.179  0.6876  0.1445 -0.1491
  813MPD2    C311967   3.487   1.157  13.283  0.2222 -0.7696 -0.0796
  813MPD2    C411968   3.505   1.021  13.256 -0.2107  0.1560 -0.4059
  813MPD2    C511969   3.577   0.983  13.149 -0.1826  0.9283  1.3004
  813MPD2     H11970   3.502   1.348  13.193  1.5857  0.7875 -3.6080
  813MPD2    H111971   3.483   0.941  13.326  0.5173 -0.2770 -0.6694
  813MPD2    H211972   3.701   1.021  12.986  0.7098  0.9428  0.2013
  813MPD2    H311973   3.611   0.881  13.139  1.0391  1.1616  3.0538
  813MPD2     N11974   3.413   1.207  13.396  0.3048  0.4049  0.2941
  813MPD2    H511975   3.408   1.307  13.411 -1.1246  0.4033 -0.2049
  813MPD2    N111976   3.634   1.288  12.963  0.0999  0.2659 -0.0036
  813MPD2    H711977   3.627   1.387  12.987 -0.9521  0.0373  0.5964
  814MPD2     C11978   4.218   2.043  12.119  0.0665  0.1998 -0.0260
  814MPD2    C111979   4.202   2.147  12.033  0.5907 -0.0614 -0.5757
  814MPD2    C211980   4.273   2.261  12.045 -0.4246  0.3592 -0.5826
  814MPD2    C311981   4.341   2.280  12.166  0.7258 -0.1276  0.5229
  814MPD2    C411982   4.348   2.180  12.261  0.8402  0.4096 -0.4055
  814MPD2    C511983   4.286   2.055  12.234  0.0369  0.4200  0.0023
  814MPD2     H11984   4.286   2.331  11.964  1.4910  0.0565 -0.5578
  814MPD2    H111985   4.403   2.182  12.354  0.5196  0.1866 -0.2091
  814MPD2    H211986   4.175   1.944  12.109 -0.0103  0.1190  1.2146
  814MPD2    H311987   4.292   1.977  12.309 -0.0156  0.2532 -0.1697
  814MPD2     N11988   4.414   2.395  12.205 -0.4381  0.0771 -0.2303
  814MPD2    H511989   4.450   2.400  12.300  0.4614 -1.5980 -0.4673
  814MPD2    N111990   4.120   2.137  11.918 -0.1226 -0.1986  0.4569
  814MPD2    H711991   4.134   2.205  11.845 -0.8454  0.6930  1.1553
  815MPD2     C11992   0.004   0.769  12.004  0.0472 -0.4146  0.0506
  815MPD2    C111993   4.691   0.643  11.964 -0.0305  0.2369  0.6652
  815MPD2    C211994   4.590   0.581  12.038  0.0787  0.5496  0.5972
  815MPD2    C311995   4.531   0.651  12.147  0.0136 -0.0874 -0.3234
  815MPD2    C411996   4.570   0.776  12.187  0.3946  0.7005 -0.1809
  815MPD2    C511997   4.675   0.832  12.119  0.0453  0.1987 -0.4828
  815MPD2     H11998   4.552   0.483  12.014 -0.9997  0.5471  2.3336
  815MPD2    H111999   4.513   0.840  12.253 -0.3729  1.4656 -1.5957
  815MPD2    H212000   0.081   0.818  11.946  2.3876 -2.3750  1.4671
  815MPD2    H312001   4.697   0.936  12.139 -1.1689  0.4584 -0.5111
  815MPD2     N12002   4.422   0.583  12.204  0.1464 -0.0273  0.2874
  815MPD2    H512003   4.403   0.499  12.150  1.6007 -0.6964  0.8214
  815MPD2    N112004   0.032   0.577  11.854 -0.0286  0.5837 -0.2066
  815MPD2    H712005   0.094   0.633  11.797 -0.1114  0.8238 -0.0649
  816MPD2     C12006   3.779   0.084  16.662  0.3616  0.1106 -0.3483
  816MPD2    C112007   3.860   0.130  16.765  0.5666 -0.2100  1.0778
  816MPD2    C212008   3.982   0.068  16.792 -0.5422  0.2905  1.0826
  816MPD2    C312009   4.019   4.683  16.728  0.1265  0.3089  0.1079
  816MPD2    C412010   3.937   4.631  16.626 -0.2008  0.4763  0.2737
  816MPD2    C512011   3.815   4.696  16.602 -0.0887  0.2344 -0.5126
  816MPD2     H12012   4.049   0.103  16.870  0.1383 -1.0313  1.0736
  816MPD2    H112013   3.961   4.542  16.568 -1.6479  1.0240 -1.1518
  816MPD2    H212014   3.686   0.131  16.634  1.5637  2.8113  0.2317
  816MPD2    H312015   3.745   4.653  16.531  1.4261 -0.8640 -1.3322
  816MPD2     N12016   4.140   4.623  16.761  0.6585  0.2031  0.8840
  816MPD2    H512017   4.202   4.674  16.823 -0.3215  1.3012  0.9537
  816MPD2    N112018   3.812   0.247  16.836  0.0405  0.4453  0.1703
  816MPD2    H712019   3.732   0.292  16.792 -0.4546 -0.6101 -0.0128
  817MPD2     C12020   3.593   1.575   9.753 -0.3729  0.0229 -0.6691
  817MPD2    C112021   3.709   1.629   9.690 -0.4604  0.2841  0.5128
  817MPD2    C212022   3.703   1.763   9.639  0.0588  0.6520 -0.1861
  817MPD2    C312023   3.582   1.828   9.646  0.0114 -0.8534 -0.1464
  817MPD2    C412024   3.471   1.771   9.704  0.2829 -0.0760 -0.7775
  817MPD2    C512025   3.476   1.646   9.766  0.4453  0.2007 -0.0514
  817MPD2     H12026   3.786   1.817   9.594 -1.3385  2.4762 -0.5475
  817MPD2    H112027   3.378   1.825   9.718  1.4973  2.1940 -1.3834
  817MPD2    H212028   3.592   1.470   9.779 -0.9150  0.5646  1.5439
  817MPD2    H312029   3.383   1.597   9.795  0.1345 -0.6102 -2.3976
  817MPD2     N12030   3.580   1.957   9.580  0.6434 -1.1730 -0.2163
  817MPD2    H512031   3.669   1.977   9.536  1.0620 -0.1718  1.0891
  817MPD2    N112032   3.833   1.558   9.685  0.6697 -0.0114 -0.3152
  817MPD2    H712033   3.909   1.609   9.642  0.9300  0.1255  0.3108
  818MPD2     C12034   3.276   1.454  10.137  0.2968  0.1177  0.2083
  818MPD2    C112035   3.211   1.339  10.161  0.2684  0.4613  0.4081
  818MPD2    C212036   3.252   1.219  10.102  0.6704  0.3654 -0.4169
  818MPD2    C312037   3.371   1.214  10.031 -0.0684 -0.0994  0.4608
  818MPD2    C412038   3.448   1.327  10.026  0.1433  0.2590 -0.0393
  818MPD2    C512039   3.391   1.448  10.067 -0.1526 -0.8354  0.1571
  818MPD2     H12040   3.209   1.122  10.128 -0.2313  0.8551 -0.0844
  818MPD2    H112041   3.543   1.345   9.976 -0.0916 -0.1484 -0.6309
  818MPD2    H212042   3.242   1.556  10.156 -1.2815 -0.3415 -0.1546
  818MPD2    H312043   3.439   1.538  10.030 -1.9028 -0.3816 -0.9768
  818MPD2     N12044   3.415   1.092   9.968 -0.4729 -0.4902 -0.2625
  818MPD2    H512045   3.505   1.093   9.922  0.2638 -0.6044  1.1840
  818MPD2    N112046   3.103   1.331  10.246  0.1414 -0.3334  0.1162
  818MPD2    H712047   3.078   1.240  10.281 -0.1433  0.3381  1.6618
  819MPD2     C12048   1.028   3.319  15.472  0.1596  0.8350  0.1777
  819MPD2    C112049   1.054   3.189  15.430 -0.2443  0.4409  0.7850
  819MPD2    C212050   1.148   3.115  15.493 -1.5035  0.6836 -0.1581
  819MPD2    C312051   1.214   3.165  15.602 -0.3415 -0.4422  1.1006
  819MPD2    C412052   1.191   3.291  15.638 -0.3544 -0.1853  0.8045
  819MPD2    C512053   1.091   3.368  15.582 -0.2181 -0.1882 -0.5764
  819MPD2     H12054   1.175   3.015  15.462 -0.7807  1.0870 -0.8216
  819MPD2    H112055   1.249   3.332  15.720 -0.4836 -0.6294  1.1180
  819MPD2    H212056   0.953   3.386  15.431 -0.0220  1.2308  1.1767
  819MPD2    H312057   1.069   3.467  15.622 -0.2301 -0.5611  0.3479
  819MPD2     N12058   1.316   3.080  15.655 -0.0295 -0.2627  0.4112
  819MPD2    H512059   1.319   2.985  15.619 -1.3434 -0.3839  0.6346
  819MPD2    N112060   0.985   3.136  15.321 -0.3594  0.3936 -0.7268
  819MPD2    H712061   0.910   3.190  15.279 -0.6480  0.5068 -0.0691
  820MPD2     C12062   0.429   3.408  14.567 -0.0070  0.2075  0.2246
  820MPD2    C112063   0.474   3.456  14.690  0.1906 -0.1233 -0.2388
  820MPD2    C212064   0.519   3.363  14.781  0.8416 -0.3209  0.1389
  820MPD2    C312065   0.547   3.235  14.740  0.3793 -0.1979 -1.3179
  820MPD2    C412066   0.501   3.191  14.621 -0.1988  0.2597 -0.2726
  820MPD2    C512067   0.444   3.278  14.534  0.4158  0.2320  0.1135
  820MPD2     H12068   0.537   3.399  14.881  3.9325 -0.2250 -0.4399
  820MPD2    H112069   0.521   3.093  14.578 -0.3094  0.4891 -0.8499
  820MPD2    H212070   0.386   3.479  14.498  0.4300 -1.8240 -2.1523
  820MPD2    H312071   0.407   3.246  14.437 -1.1353 -0.6015  0.9930
  820MPD2     N12072   0.613   3.142  14.822 -0.1500 -0.5702  0.4021
  820MPD2    H512073   0.607   3.042  14.805 -0.7821 -0.2121 -1.4922
  820MPD2    N112074   0.460   3.593  14.729 -0.0482 -0.5813 -0.3620
  820MPD2    H712075   0.401   3.653  14.672 -0.7812  0.3113  1.3531
  821MPD2     C12076   0.995   4.163  12.825  0.1806 -0.0348  0.4520
  821MPD2    C112077   1.017   4.235  12.941  0.5798 -0.0872 -0.0203
  821MPD2    C212078   1.106   4.340  12.936  0.7617 -0.7561 -0.4092
  821MPD2    C312079   1.163   4.384  12.817 -0.5320  0.6668 -0.1558
  821MPD2    C412080   1.134   4.317  12.700 -0.0079  0.4141 -0.2225
  821MPD2    C512081   1.057   4.204  12.709 -0.2698  0.4236  0.1094
  821MPD2     H12082   1.141   4.382  13.030 -0.7577  1.2125 -0.7129
  821MPD2    H112083   1.185   4.344  12.607  0.8581  2.4147  0.8361
  821MPD2    H212084   0.929   4.077  12.831 -1.5345  1.1472 -1.7062
  821MPD2    H312085   1.036   4.148  12.618  2.0591  0.0874 -0.2268
  821MPD2     N12086   1.262   4.479  12.791  0.3316 -0.2975  0.2835
  821MPD2    H512087   1.281   4.497  12.693  0.4861 -1.5115  0.0872
  821MPD2    N112088   0.965   4.199  13.070 -0.4173  0.0638  0.2360
  821MPD2    H712089   0.985   4.256  13.151  1.1886  0.8489 -0.7088
  822MPD2     C12090   2.022   4.445  15.860 -0.1641  0.5082 -0.2698
  822MPD2    C112091   1.968   4.426  15.984 -0.0881  0.0739 -0.6464
  822MPD2    C212092   1.859   4.504  16.012  0.0955  0.3341 -0.0806
  822MPD2    C312093   1.802   4.601  15.929  0.1620  0.2929 -0.1069
  822MPD2    C412094   1.859   4.614  15.805 -0.4927 -0.1808 -0.3243
  822MPD2    C512095   1.968   4.540  15.777  0.1216 -0.2771 -0.4326
  822MPD2     H12096   1.817   4.499  16.111 -0.2854  2.4969 -0.1351
  822MPD2    H112097   1.811   4.681  15.734  0.4965  0.7382 -0.1143
  822MPD2    H212098   2.113   4.388  15.842 -1.4251 -1.1933 -1.2856
  822MPD2    H312099   2.010   4.568  15.681 -1.5458 -0.1321 -1.1356
  822MPD2     N12100   1.687   4.661  15.979  0.1985 -0.1974 -0.1267
  822MPD2    H512101   1.656   4.629  16.070 -1.5014 -2.6171 -1.5545
  822MPD2    N112102   2.005   4.328  16.079  0.3546  0.7797  0.2804
  822MPD2    H712103   1.954   4.324  16.167  0.6454  0.9859  0.4583
  823MPD2     C12104   1.215   0.121  16.641 -0.4039 -0.2321  0.4671
  823MPD2    C112105   1.268   0.043  16.549 -0.4186  0.3513  0.4604
  823MPD2    C212106   1.291   4.640  16.593 -0.2233  0.0649  0.3654
  823MPD2    C312107   1.249   4.593  16.721 -0.8643 -0.2542 -0.6615
  823MPD2    C412108   1.188   4.677  16.808 -0.2562  0.5740 -0.3086
  823MPD2    C512109   1.186   0.082  16.769 -0.0945  0.0627 -0.4603
  823MPD2     H12110   1.331   4.565  16.526  0.6780  1.7617 -1.0100
  823MPD2    H112111   1.160   4.644  16.907 -1.7769 -0.7551 -1.1738
  823MPD2    H212112   1.215   0.228  16.624 -1.0323 -0.5170 -1.3167
  823MPD2    H312113   1.150   0.161  16.834 -1.8957 -1.3308  0.2166
  823MPD2     N12114   1.266   4.457  16.762  0.0338  0.4080  0.4104
  823MPD2    H512115   1.219   4.419  16.844 -0.8700 -0.5187 -0.5327
  823MPD2    N112116   1.297   0.089  16.416 -0.1531  0.0316  0.7455
  823MPD2    H712117   1.284   0.188  16.400  0.6430  0.2061  1.1747
  824MPD2     C12118   2.375   3.623  16.350  0.6245  0.4812  0.0339
  824MPD2    C112119   2.388   3.719  16.249 -0.0813 -0.6829  0.3963
  824MPD2    C212120   2.458   3.692  16.139  0.1351 -0.5894  0.6323
  824MPD2    C312121   2.534   3.574  16.129 -0.2017  0.6526  0.6277
  824MPD2    C412122   2.535   3.487  16.235 -0.0405  0.6439  0.3998
  824MPD2    C512123   2.451   3.512  16.341 -1.3941  0.1541 -0.1011
  824MPD2     H12124   2.445   3.751  16.049 -3.1795 -0.7194  1.0248
  824MPD2    H112125   2.584   3.390  16.240 -0.5483  0.4013  0.7860
  824MPD2    H212126   2.312   3.640  16.437  1.8840 -1.3786  1.3003
  824MPD2    H312127   2.446   3.438  16.421 -0.3270  0.4907  0.2827
  824MPD2     N12128   2.592   3.546  16.001 -0.1160 -0.0509 -0.0609
  824MPD2    H512129   2.569   3.613  15.929  0.4762  1.1648  0.8814
  824MPD2    N112130   2.336   3.847  16.254  0.1871  0.0655 -0.4775
  824MPD2    H712131   2.349   3.915  16.179 -1.0906  0.0303 -0.7249
  825MPD2     C12132   3.061   3.774  15.335  0.2248 -0.5393 -0.1969
  825MPD2    C112133   3.006   3.810  15.451 -0.6551  0.3710 -0.8998
  825MPD2    C212134   2.980   3.943  15.475 -0.4406 -0.3994  0.4728
  825MPD2    C312135   3.013   4.040  15.381 -0.0429  0.6127  0.0187
  825MPD2    C412136   3.077   4.005  15.264 -0.0238 -0.5559 -0.3767
  825MPD2    C512137   3.096   3.867  15.240  1.2391 -0.2428  0.7488
  825MPD2     H12138   2.930   3.972  15.566 -1.6851 -0.1273 -0.3015
  825MPD2    H112139   3.126   4.075  15.198  0.7062  0.2789  1.0460
  825MPD2    H212140   3.080   3.668  15.319  1.3465  0.1284 -3.2676
  825MPD2    H312141   3.149   3.836  15.150  0.5126 -0.5209  0.4131
  825MPD2     N12142   2.985   4.179  15.397  0.1235 -0.2676 -0.5510
  825MPD2    H512143   2.995   4.228  15.308  0.8169  2.9815  1.3004
  825MPD2    N112144   2.962   3.705  15.528 -0.4687 -0.3130  0.4153
  825MPD2    H712145   2.994   3.614  15.497 -1.1232 -0.6253  0.6656
  826MPD2     C12146   2.606   3.808  13.758  0.5982 -0.1351  0.0328
  826MPD2    C112147   2.666   3.905  13.672 -0.2561 -0.3007  0.3612
  826MPD2    C212148   2.588   4.012  13.630 -0.8603  0.3240 -0.1000
  826MPD2    C312149   2.452   4.024  13.661 -0.5435  0.7622  0.8664
  826MPD2    C412150   2.398   3.934  13.746 -0.1666 -0.2721  0.1419
  826MPD2    C512151   2.472   3.829  13.796 -0.3362 -0.1853 -0.5694
  826MPD2     H12152   2.634   4.096  13.579 -1.1532 -1.0391 -2.6163
  826MPD2    H112153   2.293   3.931  13.771 -0.3778  0.5347 -0.6619
  826MPD2    H212154   2.661   3.720  13.788  2.0957  0.8386  0.1644
  826MPD2    H312155   2.414   3.761  13.857 -0.3190  0.2378 -0.0820
  826MPD2     N12156   2.374   4.133  13.615 -0.1796 -0.2737  0.1462
  826MPD2    H512157   2.276   4.139  13.640  0.6712  1.0453  3.2116
  826MPD2    N112158   2.801   3.882  13.644 -1.0072  0.1983 -0.0812
  826MPD2    H712159   2.840   3.793  13.674  1.6730  0.3917 -3.0231
  827MPD2     C12160   3.707   0.533   9.775  0.1267 -0.0596 -0.3720
  827MPD2    C112161   3.684   0.434   9.867  0.1359  0.0260 -0.2417
  827MPD2    C212162   3.574   0.347   9.841  0.1740  0.6055 -0.2048
  827MPD2    C312163   3.483   0.374   9.741  0.3195  0.6408 -0.8706
  827MPD2    C412164   3.503   0.478   9.654  0.4292 -0.0768  0.5347
  827MPD2    C512165   3.622   0.542   9.664 -0.2770  0.3661  0.3034
  827MPD2     H12166   3.538   0.273   9.912 -0.3679 -0.1539 -1.2795
  827MPD2    H112167   3.439   0.516   9.575 -0.8900  0.9977  2.1276
  827MPD2    H212168   3.793   0.598   9.784  0.5007 -0.5149 -0.6305
  827MPD2    H312169   3.643   0.613   9.584  1.3879 -1.7221 -1.1129
  827MPD2     N12170   3.360   0.299   9.738  0.4241 -0.2352 -0.2707
  827MPD2    H512171   3.348   0.234   9.815  0.7749 -0.0319 -0.0409
  827MPD2    N112172   3.778   0.429   9.974  0.3217 -0.2636  0.4977
  827MPD2    H712173   3.846   0.504   9.983  0.0606 -0.0690  0.8369
  828MPD2     C12174   1.528   4.419  12.547 -0.6717  0.6762 -0.6898
  828MPD2    C112175   1.555   4.475  12.421 -0.2832  0.0562  0.2186
  828MPD2    C212176   1.691   4.498  12.392  0.0080  0.3284 -0.5221
  828MPD2    C312177   1.789   4.471  12.492  0.1666 -0.6287  0.3148
  828MPD2    C412178   1.754   4.431  12.623 -0.1636  0.1295 -1.1717
  828MPD2    C512179   1.621   4.416  12.647  0.1856 -0.3006  0.7488
  828MPD2     H12180   1.718   4.553  12.303  0.3623 -1.1882 -1.3686
  828MPD2    H112181   1.818   4.412  12.708  0.3061  1.7937 -1.1464
  828MPD2    H212182   1.428   4.387  12.572 -0.7135  1.5082  0.2135
  828MPD2    H312183   1.596   4.378  12.745 -0.6111 -1.0090  0.2684
  828MPD2     N12184   1.928   4.468  12.460  0.1004 -0.4776 -0.1669
  828MPD2    H512185   1.988   4.477  12.542 -2.8957  1.5242  1.8206
  828MPD2    N112186   1.464   4.506  12.320  0.2622 -0.0926 -0.3325
  828MPD2    H712187   1.507   4.553  12.241  1.2173  1.7230  1.2759
  829MPD2     C12188   1.700   0.323  11.747  0.0625  0.3975  0.2694
  829MPD2    C112189   1.576   0.307  11.704  0.1822  1.0206 -1.1357
  829MPD2    C212190   1.487   0.239  11.778 -0.0230  0.4673 -0.2005
  829MPD2    C312191   1.527   0.173  11.886 -0.0861  0.0819 -0.3189
  829MPD2    C412192   1.656   0.182  11.927  0.2213 -0.2088  0.0279
  829MPD2    C512193   1.745   0.262  11.866 -0.6603  0.4597  0.2665
  829MPD2     H12194   1.383   0.235  11.747  0.2458 -0.3957 -0.9900
  829MPD2    H112195   1.691   0.139  12.020  2.0444 -2.1939 -1.5660
  829MPD2    H212196   1.775   0.376  11.690 -1.8642  1.2464 -1.4244
  829MPD2    H312197   1.842   0.284  11.908  0.0075 -0.9296 -0.5164
  829MPD2     N12198   1.445   0.088  11.956 -0.0468  0.0730  0.2721
  829MPD2    H512199   1.487   0.056  12.043  2.2782  0.5272 -0.6592
  829MPD2    N112200   1.546   0.375  11.586 -0.1185 -0.1471  0.2154
  829MPD2    H712201   1.614   0.432  11.536  1.2422 -0.9871  1.1251
  830MPD2     C12202   1.504   2.657  15.301 -0.6888  0.1778 -0.7026
  830MPD2    C112203   1.611   2.698  15.371  0.2638 -0.1318 -0.6711
  830MPD2    C212204   1.727   2.737  15.302  0.5972  0.1575 -0.0330
  830MPD2    C312205   1.725   2.758  15.167 -0.5685 -0.5811 -0.8306
  830MPD2    C412206   1.614   2.724  15.096  0.0087  0.1544 -0.5854
  830MPD2    C512207   1.506   2.673  15.164 -0.8360  0.7341 -0.2290
  830MPD2     H12208   1.813   2.765  15.363  1.0369 -0.9916 -0.1216
  830MPD2    H112209   1.611   2.727  14.988 -2.5909  0.0472 -0.5177
  830MPD2    H212210   1.409   2.626  15.342 -1.1327 -0.9799 -2.5857
  830MPD2    H312211   1.416   2.659  15.105 -0.0730  0.6348 -1.3760
  830MPD2     N12212   1.828   2.824  15.093 -0.3539  0.0625  0.4921
  830MPD2    H512213   1.804   2.854  14.999  0.7146  1.2838  0.6044
  830MPD2    N112214   1.597   2.714  15.514 -0.3132 -0.3854  0.4289
  830MPD2    H712215   1.504   2.708  15.554 -0.0849 -2.0662  0.7133
  831MPD2     C12216   1.900   0.129  16.319 -0.2503  0.2835 -0.2668
  831MPD2    C112217   1.959   0.005  16.281  0.6276 -0.3736 -0.2236
  831MPD2    C212218   1.895   4.615  16.307  0.1054  0.4642 -0.7918
  831MPD2    C312219   1.763   4.616  16.358  0.3319 -0.0094 -0.4856
  831MPD2    C412220   1.718   0.009  16.400  0.3543 -0.1493  0.3674
  831MPD2    C512221   1.782   0.129  16.382  0.6811  0.4063  0.4776
  831MPD2     H12222   1.948   4.526  16.273  0.2680  0.1265  0.3540
  831MPD2    H112223   1.626   0.010  16.457 -0.5233 -0.3810 -1.0333
  831MPD2    H212224   1.949   0.226  16.316  1.7513 -0.6513  2.0230
  831MPD2    H312225   1.742   0.223  16.417 -0.4335 -0.7485  2.2963
  831MPD2     N12226   1.677   4.499  16.367  0.4007 -0.1842  0.1044
  831MPD2    H512227   1.584   4.517  16.404  0.0491 -2.0869  0.1575
  831MPD2    N112228   2.077   0.003  16.201 -0.3336 -0.6829  0.4776
  831MPD2    H712229   2.081   0.088  16.145  1.6570 -0.9001  0.2631
  832MPD2     C12230   0.182   1.103  17.081  0.4658  0.2659 -0.3698
  832MPD2    C112231   0.176   1.235  17.050  0.6545 -0.3035  0.3237
  832MPD2    C212232   0.060   1.278  16.992  0.1955  0.2166 -0.4592
  832MPD2    C312233   4.689   1.190  16.940  0.5698  0.4561 -0.1749
  832MPD2    C412234   4.703   1.056  16.965  1.0024 -0.8423 -0.4062
  832MPD2    C512235   0.082   1.017  17.038  0.6388  0.0692  0.2268
  832MPD2     H12236   0.054   1.381  16.957  1.9016  0.3389 -0.4183
  832MPD2    H112237   4.637   0.976  16.930  1.4052 -1.3586  0.0210
  832MPD2    H212238   0.261   1.058  17.140  0.5037  1.8324  0.7559
  832MPD2    H312239   0.101   0.915  17.068 -1.0097  0.4576  2.6232
  832MPD2     N12240   4.577   1.229  16.859 -0.0375 -0.0356 -0.8991
  832MPD2    H512241   4.504   1.159  16.845  0.7338 -0.3626 -3.1135
  832MPD2    N112242   0.281   1.321  17.072  0.1934 -0.8455  0.2626
  832MPD2    H712243   0.367   1.287  17.114  1.4769  1.3368 -0.6277
  833MPD2     C12244   2.844   2.560  12.484  0.7806 -0.0724  0.1082
  833MPD2    C112245   2.825   2.511  12.354 -0.2610 -0.0798  1.0570
  833MPD2    C212246   2.814   2.376  12.329 -0.4569  1.3237  0.0431
  833MPD2    C312247   2.820   2.286  12.436  0.6363  0.1195  0.4847
  833MPD2    C412248   2.840   2.333  12.563 -0.3742  0.4433 -0.5211
  833MPD2    C512249   2.849   2.464  12.583 -0.2883  0.0538 -0.0307
  833MPD2     H12250   2.798   2.343  12.226  1.7528 -2.1548  0.8101
  833MPD2    H112251   2.846   2.263  12.646  0.0492 -1.9090 -2.5053
  833MPD2    H212252   2.859   2.663  12.511 -1.0957  0.2452 -0.0760
  833MPD2    H312253   2.868   2.491  12.686  1.1651 -2.4962  0.3947
  833MPD2     N12254   2.809   2.152  12.396 -0.0167 -0.0654 -0.4756
  833MPD2    H512255   2.806   2.132  12.296 -1.2217  0.3955 -0.5329
  833MPD2    N112256   2.830   2.613  12.252 -0.5852  0.0150 -0.0680
  833MPD2    H712257   2.823   2.708  12.288  0.1732 -0.0408  0.2178
  834MPD2     C12258   2.392   1.296  12.059  0.3763 -0.1402  1.0192
  834MPD2    C112259   2.486   1.347  11.973  0.0307  0.0166  0.0600
  834MPD2    C212260   2.544   1.463  12.008  0.1055 -0.7615  0.2654
  834MPD2    C312261   2.524   1.525  12.125  0.3246 -0.6096  0.0010
  834MPD2    C412262   2.442   1.467  12.219 -0.2491  0.3638  0.4067
  834MPD2    C512263   2.380   1.353  12.184  0.5454  0.1973  0.4359
  834MPD2     H12264   2.619   1.505  11.942 -0.3019 -0.1443  0.1902
  834MPD2    H112265   2.419   1.512  12.315  2.4509  0.4813  1.0012
  834MPD2    H212266   2.339   1.203  12.046  0.3273 -0.0415  0.5306
  834MPD2    H312267   2.305   1.308  12.248 -1.0345  0.6867 -1.0793
  834MPD2     N12268   2.597   1.647  12.152  0.5663 -0.2318  0.1205
  834MPD2    H512269   2.657   1.690  12.082  1.0936 -0.8568  0.1942
  834MPD2    N112270   2.510   1.289  11.844  0.2112 -0.3473 -0.1703
  834MPD2    H712271   2.464   1.199  11.834 -1.6748  0.6138 -0.2488
  835MPD2     C12272   2.514   0.202  10.889 -0.0619  0.0969  0.5358
  835MPD2    C112273   2.414   0.297  10.878  0.0478  0.2829  0.3925
  835MPD2    C212274   2.343   0.336  10.993 -0.0830 -0.4984 -0.3814
  835MPD2    C312275   2.372   0.278  11.120 -0.0394 -0.2365  0.2198
  835MPD2    C412276   2.470   0.181  11.127 -0.4434  0.1934  0.3087
  835MPD2    C512277   2.547   0.158  11.012 -0.3725  0.7628  0.3251
  835MPD2     H12278   2.269   0.414  10.981 -0.4353 -0.7570  0.0777
  835MPD2    H112279   2.500   0.139  11.223 -0.8332  0.0120  0.3499
  835MPD2    H212280   2.579   0.165  10.810 -1.3939  0.6778 -0.8248
  835MPD2    H312281   2.624   0.083  11.029 -2.3547 -0.6863  2.8406
  835MPD2     N12282   2.321   0.326  11.247  0.1538  0.1242 -0.6385
  835MPD2    H512283   2.356   0.282  11.331 -0.8419  2.4689  0.9953
  835MPD2    N112284   2.361   0.334  10.751  0.1585  0.3923  0.0985
  835MPD2    H712285   2.278   0.392  10.745 -0.2080 -0.4925 -3.0835
  836MPD2     C12286   1.723   0.840  11.390  1.4026  0.2070 -0.1157
  836MPD2    C112287   1.755   0.750  11.492 -0.2804 -0.1640 -0.0213
  836MPD2    C212288   1.657   0.706  11.581 -0.5487 -0.5970  0.0985
  836MPD2    C312289   1.525   0.750  11.559 -0.3606 -0.6709 -0.2308
  836MPD2    C412290   1.499   0.848  11.466 -0.4647 -0.2772  0.1937
  836MPD2    C512291   1.593   0.892  11.374  0.4456  0.1334  0.5539
  836MPD2     H12292   1.684   0.638  11.660  0.8090  0.1044  0.2339
  836MPD2    H112293   1.400   0.891  11.461 -0.5484 -0.4216  0.7032
  836MPD2    H212294   1.802   0.879  11.327 -0.4025  1.0076 -1.8986
  836MPD2    H312295   1.568   0.975  11.309 -0.6986 -1.3059 -0.8472
  836MPD2     N12296   1.415   0.718  11.640  0.1018 -0.7939 -0.2412
  836MPD2    H512297   1.324   0.755  11.614  1.0521  0.6572 -1.4759
  836MPD2    N112298   1.886   0.693  11.489 -0.5891  0.4106  0.1746
  836MPD2    H712299   1.959   0.731  11.430 -0.4272 -0.0672  0.0678
  837MPD2     C12300   0.646   0.001  10.177 -0.2292  0.3961 -0.2429
  837MPD2    C112301   0.549   0.057  10.100  0.6445  0.2315  0.1765
  837MPD2    C212302   0.471   0.162  10.152  0.5853 -0.0568  0.0984
  837MPD2    C312303   0.495   0.221  10.271  0.2646 -0.2900 -0.7055
  837MPD2    C412304   0.612   0.180  10.336  0.0312  0.8004  0.1190
  837MPD2    C512305   0.678   0.064  10.294 -0.4714  0.3241 -0.0410
  837MPD2     H12306   0.396   0.209  10.089  2.1342 -0.1565 -1.8027
  837MPD2    H112307   0.638   0.229  10.429  0.0717  2.1343 -0.5849
  837MPD2    H212308   0.713   4.649  10.145  1.0091  0.6129  1.8640
  837MPD2    H312309   0.760   0.026  10.353 -0.4834  0.9646  0.3866
  837MPD2     N12310   0.412   0.327  10.309  0.5650  0.4562  0.1702
  837MPD2    H512311   0.350   0.368  10.240  2.0752 -0.7580 -1.8876
  837MPD2    N112312   0.511   0.008   9.975 -0.7340  0.7813 -0.0844
  837MPD2    H712313   0.434   0.051   9.927 -1.4768  0.5410  0.8791
  838MPD2     C12314   3.762   3.385  11.684 -0.2812  0.1580  0.4515
  838MPD2    C112315   3.768   3.249  11.692  0.3063  0.5255  0.5963
  838MPD2    C212316   3.702   3.177  11.792 -0.9651  0.2221  0.2454
  838MPD2    C312317   3.620   3.244  11.879  0.6872 -0.3749  0.3196
  838MPD2    C412318   3.619   3.381  11.875  0.3761 -0.5413  0.2401
  838MPD2    C512319   3.698   3.454  11.781  0.3416 -0.0439 -0.1958
  838MPD2     H12320   3.722   3.070  11.796 -2.4432 -0.0200  0.8364
  838MPD2    H112321   3.547   3.435  11.936 -0.0244 -1.7450  0.8157
  838MPD2    H212322   3.798   3.448  11.603 -2.4513 -0.3719 -0.9061
  838MPD2    H312323   3.690   3.562  11.786  4.0582  0.1157  2.4469
  838MPD2     N12324   3.528   3.178  11.962  0.3332 -0.5117 -0.6994
  838MPD2    H512325   3.461   3.242  12.003 -0.7100 -1.6865 -0.6000
  838MPD2    N112326   3.840   3.171  11.598 -0.3455  0.9917 -0.4080
  838MPD2    H712327   3.852   3.073  11.619 -0.2425  1.0263 -0.3054
  839MPD2     C12328   3.727   2.409  11.636 -0.2224  0.1012  0.1142
  839MPD2    C112329   3.699   2.420  11.503  0.2070  0.0551  0.7131
  839MPD2    C212330   3.763   2.518  11.428 -0.2631 -0.2018  0.5262
  839MPD2    C312331   3.850   2.605  11.496 -0.2065 -0.3338 -0.0580
  839MPD2    C412332   3.890   2.584  11.624 -0.2646 -0.3510 -0.3308
  839MPD2    C512333   3.828   2.485  11.699 -0.1478 -0.6974  1.0301
  839MPD2     H12334   3.749   2.525  11.321  0.2035 -0.2330  0.4637
  839MPD2    H112335   3.968   2.641  11.673  0.0477  0.0048 -1.2507
  839MPD2    H212336   3.676   2.345  11.706  1.3510 -1.4525 -0.1489
  839MPD2    H312337   3.859   2.460  11.800  2.9627  0.2054  0.3035
  839MPD2     N12338   3.900   2.725  11.445 -0.5667 -0.2405  0.0793
  839MPD2    H512339   3.949   2.788  11.508  0.4023  1.2633 -2.1908
  839MPD2    N112340   3.591   2.348  11.441  0.2094 -0.0462 -0.0861
  839MPD2    H712341   3.567   2.375  11.347 -2.0872 -1.5868  0.0513
  840MPD2     C12342   4.190   0.866  10.167  0.5037 -0.0640 -0.2222
  840MPD2    C112343   4.153   0.792  10.281 -0.2141  0.5928  0.1503
  840MPD2    C212344   4.175   0.848  10.412  0.4204 -0.2499 -0.1607
  840MPD2    C312345   4.249   0.961  10.425 -0.1569  1.1500 -0.5348
  840MPD2    C412346   4.288   1.028  10.319 -0.4402  0.6501  0.2094
  840MPD2    C512347   4.266   0.981  10.188 -0.5073 -0.1886  0.4348
  840MPD2     H12348   4.155   0.792  10.502 -2.7744 -1.4519 -1.5985
  840MPD2    H112349   4.349   1.117  10.333 -1.5585  2.2850 -5.3047
  840MPD2    H212350   4.164   0.830  10.068 -2.9143  0.2820  0.5677
  840MPD2    H312351   4.298   1.028  10.096  0.9751  1.0530  1.5791
  840MPD2     N12352   4.264   1.026  10.555 -0.7421  0.4886  0.2377
  840MPD2    H512353   4.317   1.112  10.548 -0.2245  0.4252  3.0944
  840MPD2    N112354   4.092   0.661  10.266  0.6766  0.8871  0.4803
  840MPD2    H712355   4.069   0.641  10.169  0.5539 -0.9522  0.8844
  841MPD2     C12356   3.458   4.702  14.929 -0.3237 -0.5256 -0.2579
  841MPD2    C112357   3.477   4.665  14.801  0.1699  0.2305  0.1016
  841MPD2    C212358   3.557   0.008  14.714  0.4940 -0.2295 -0.0712
  841MPD2    C312359   3.623   0.113  14.767 -0.6194  0.2308  1.1127
  841MPD2    C412360   3.609   0.155  14.895  0.0193  0.0775  0.0296
  841MPD2    C512361   3.527   0.086  14.976 -0.6303 -0.7725 -0.1988
  841MPD2     H12362   3.581   4.704  14.613 -1.1199 -1.1349 -0.1655
  841MPD2    H112363   3.653   0.243  14.942  0.3177 -0.7479  1.2772
  841MPD2    H212364   3.381   4.657  14.990  0.4765 -2.1147 -0.4327
  841MPD2    H312365   3.521   0.101  15.083  0.4967  0.4721 -0.2983
  841MPD2     N12366   3.721   0.181  14.687 -0.2317  0.3269  0.0563
  841MPD2    H512367   3.746   0.135  14.600 -0.6929  0.4311 -0.1339
  841MPD2    N112368   3.411   4.554  14.740  0.0484  0.7853 -0.1975
  841MPD2    H712369   3.420   4.542  14.640  0.8715 -3.1442  0.3543
  842MPD2     C12370   4.310   1.708  16.854  0.7854 -0.1542  0.2598
  842MPD2    C112371   4.187   1.657  16.814  0.1386 -0.3063  0.4508
  842MPD2    C212372   4.091   1.630  16.914 -0.1032  0.1990  0.4666
  842MPD2    C312373   4.116   1.673  17.043 -0.1036 -0.2987 -0.0012
  842MPD2    C412374   4.237   1.730  17.074  0.1749  0.8834 -0.1185
  842MPD2    C512375   4.336   1.745  16.981 -0.4006 -0.5813 -0.2715
  842MPD2     H12376   3.986   1.620  16.891  0.6729 -1.0189 -2.4789
  842MPD2    H112377   4.263   1.756  17.176  0.6633  0.9443 -0.2602
  842MPD2    H212378   4.386   1.725  16.778  0.1687  1.7683  0.0868
  842MPD2    H312379   4.434   1.788  17.000 -0.3931 -0.5798 -0.3141
  842MPD2     N12380   4.028   1.657  17.152  0.1081 -0.2858 -0.0403
  842MPD2    H512381   4.045   1.713  17.235  3.7835  0.5395 -1.3776
  842MPD2    N112382   4.162   1.641  16.681 -0.0449  0.5989  0.2972
  842MPD2    H712383   4.233   1.679  16.619 -0.7251  1.8415  0.2792
  843MPD2     C12384   1.186   1.990  17.347 -0.7462  0.1927  0.6120
  843MPD2    C112385   1.129   1.996  17.469  0.2706 -0.1728 -0.2708
  843MPD2    C212386   1.215   2.025  17.575  0.0234  1.1393 -0.2424
  843MPD2    C312387   1.357   2.044  17.557 -0.3584  0.5762 -0.1917
  843MPD2    C412388   1.405   2.032  17.430 -0.3184 -0.7091 -0.6679
  843MPD2    C512389   1.318   2.008  17.326  0.6147 -0.2056 -0.3649
  843MPD2     H12390   1.177   2.034  17.676  2.0435  0.5904  0.5678
  843MPD2    H112391   1.508   2.053  17.405  0.5337 -0.9678  2.6404
  843MPD2    H212392   1.131   1.965  17.256  0.5451 -0.3627 -0.0157
  843MPD2    H312393   1.358   1.993  17.226 -0.4669 -0.4114 -0.7695
  843MPD2     N12394   1.438   2.085  17.662  0.0004 -0.2921  0.3322
  843MPD2    H512395   1.526   2.134  17.648  1.1192 -3.0204 -2.1314
  843MPD2    N112396   0.992   1.977  17.488 -0.4318  0.0576  0.7534
  843MPD2    H712397   0.931   1.953  17.410  1.5873 -1.5127 -0.3339
  844MPD2     C12398   4.535   0.902  16.407 -0.6641  0.1473  0.3485
  844MPD2    C112399   4.654   0.823  16.418 -0.4032 -0.3122 -0.8317
  844MPD2    C212400   0.034   0.876  16.488  0.2739  0.3266  0.2249
  844MPD2    C312401   0.028   1.001  16.534 -0.0393 -0.4473 -0.8244
  844MPD2    C412402   4.647   1.076  16.514  0.5548 -0.3625 -0.3516
  844MPD2    C512403   4.540   1.026  16.456  0.2353 -0.6019  0.5166
  844MPD2     H12404   0.124   0.815  16.493  0.4794  0.3221 -3.5126
  844MPD2    H112405   4.646   1.175  16.556 -1.9544  1.3121 -4.2846
  844MPD2    H212406   4.440   0.870  16.366 -0.8996  1.6527 -0.2752
  844MPD2    H312407   4.456   1.087  16.423  1.0196  0.3603  0.2716
  844MPD2     N12408   0.147   1.050  16.593 -0.3809 -0.3223 -0.1957
  844MPD2    H512409   0.217   0.978  16.606  1.3658  1.5029  0.3620
  844MPD2    N112410   4.665   0.696  16.364  0.3316 -0.1299  0.0092
  844MPD2    H712411   0.025   0.646  16.375  0.1214  0.0651  2.6847
  845MPD2     C12412   0.663   1.848  16.835  0.9753 -0.1595 -0.1351
  845MPD2    C112413   0.531   1.814  16.850  0.3669  0.6736 -0.1117
  845MPD2    C212414   0.483   1.693  16.794  0.2658 -0.4189  1.4569
  845MPD2    C312415   0.571   1.606  16.733 -0.4206  0.0729 -0.5415
  845MPD2    C412416   0.703   1.643  16.720 -0.3905 -0.1950 -0.2836
  845MPD2    C512417   0.747   1.765  16.762 -0.5302  0.6932  0.0876
  845MPD2     H12418   0.379   1.663  16.800  0.2616 -0.7784 -0.2612
  845MPD2    H112419   0.775   1.574  16.677  0.2620 -0.6757  1.5782
  845MPD2    H212420   0.701   1.941  16.876 -0.1818  0.0447  0.4908
  845MPD2    H312421   0.845   1.800  16.732  0.2813 -0.3852  1.4734
  845MPD2     N12422   0.525   1.483  16.699  0.2570 -0.9612  0.4913
  845MPD2    H512423   0.425   1.468  16.711 -0.3421  3.1881  0.5283
  845MPD2    N112424   0.452   1.899  16.920 -0.4334  0.5697  0.3174
  845MPD2    H712425   0.490   1.987  16.954 -0.7719  0.8453 -0.0061
  846MPD2     C12426   2.130   2.046  13.287  0.0590 -0.1513  0.2408
  846MPD2    C112427   2.077   2.168  13.323  0.8726 -0.5044 -0.2392
  846MPD2    C212428   2.022   2.179  13.446  1.0034  0.3731  0.7963
  846MPD2    C312429   2.016   2.072  13.531  0.6848 -0.1470 -0.2216
  846MPD2    C412430   2.078   1.949  13.501  0.3588  0.6513  0.3857
  846MPD2    C512431   2.142   1.944  13.379 -0.2823 -0.4612 -0.4728
  846MPD2     H12432   1.978   2.276  13.470 -0.2650  0.2336 -0.9145
  846MPD2    H112433   2.099   1.869  13.570 -2.2634 -1.6904 -1.5318
  846MPD2    H212434   2.181   2.040  13.191 -1.3541 -1.1732 -0.4466
  846MPD2    H312435   2.192   1.849  13.365 -1.8446 -1.4067  0.3875
  846MPD2     N12436   1.947   2.101  13.656  0.0449  0.0019  1.1333
  846MPD2    H512437   1.906   2.194  13.657  0.9044  0.3929 -0.2613
  846MPD2    N112438   2.090   2.285  13.241  0.5347  0.2627 -0.3983
  846MPD2    H712439   2.070   2.375  13.283  1.1553  0.3020 -0.1893
  847MPD2     C12440   2.485   3.086  13.985  0.3512  0.6252  0.1544
  847MPD2    C112441   2.543   3.135  14.102 -0.0051  0.2502  0.0006
  847MPD2    C212442   2.551   3.050  14.205 -0.1362 -0.4322 -0.5614
  847MPD2    C312443   2.498   2.919  14.193  0.3211  0.4599 -0.8390
  847MPD2    C412444   2.438   2.870  14.074  0.5611  0.4121 -0.2663
  847MPD2    C512445   2.439   2.955  13.973 -0.7653  0.3609 -0.1998
  847MPD2     H12446   2.598   3.074  14.299  0.2305 -1.3007 -0.5196
  847MPD2    H112447   2.394   2.771  14.074 -1.3598  1.2748 -2.6083
  847MPD2    H212448   2.479   3.144  13.893 -1.7914 -1.6098 -1.1122
  847MPD2    H312449   2.376   2.939  13.886 -0.5562  0.8758 -0.4477
  847MPD2     N12450   2.487   2.849  14.312 -0.6009  0.2387 -0.0411
  847MPD2    H512451   2.526   2.893  14.394 -0.0409 -0.9962  0.3388
  847MPD2    N112452   2.568   3.269  14.131  0.5714  0.0933  0.3051
  847MPD2    H712453   2.599   3.293  14.225 -2.5591  2.4803  0.7369
  848MPD2     C12454   4.337   1.532  16.125 -0.5534  0.1304  0.4670
  848MPD2    C112455   4.419   1.570  16.226  0.7774 -0.0169 -0.4246
  848MPD2    C212456   4.507   1.682  16.210  0.1582 -0.2017  0.3354
  848MPD2    C312457   4.516   1.745  16.083  0.3402  0.6942 -0.3309
  848MPD2    C412458   4.436   1.698  15.976 -0.9318 -0.3984  0.8792
  848MPD2    C512459   4.347   1.590  15.999  0.0991  0.2628  1.3323
  848MPD2     H12460   4.579   1.706  16.286  0.5931 -2.9394  0.7825
  848MPD2    H112461   4.436   1.756  15.885 -2.7586 -0.1301  1.0485
  848MPD2    H212462   4.262   1.453  16.126  0.4120 -0.8101 -0.9741
  848MPD2    H312463   4.278   1.568  15.918 -0.9831  0.6330  2.1574
  848MPD2     N12464   4.601   1.856  16.049 -0.3201 -0.8180 -0.1816
  848MPD2    H512465   4.604   1.882  15.951  0.1201  1.4353  0.4259
  848MPD2    N112466   4.390   1.533  16.357 -0.2568 -0.3057 -0.2709
  848MPD2    H712467   4.432   1.586  16.433 -1.3432  0.5285 -0.2556
  849MPD2     C12468   3.667   0.747  14.018 -1.0643  0.2839  0.3944
  849MPD2    C112469   3.771   0.812  13.958  0.4776 -0.3139 -0.6432
  849MPD2    C212470   3.883   0.854  14.024 -0.3940  0.0231  0.1998
  849MPD2    C312471   3.908   0.807  14.155 -0.9423 -0.8927 -0.2308
  849MPD2    C412472   3.810   0.741  14.220  0.4195 -0.7498  0.9899
  849MPD2    C512473   3.694   0.705  14.148 -0.3920  0.2391  0.8817
  849MPD2     H12474   3.968   0.898  13.973 -1.0315  0.7743 -0.2132
  849MPD2    H112475   3.823   0.712  14.323 -1.7026 -2.3067  0.8242
  849MPD2    H212476   3.585   0.704  13.961 -1.7745 -0.7637  2.2231
  849MPD2    H312477   3.623   0.639  14.195  0.0163 -1.7891 -1.3270
  849MPD2     N12478   4.037   0.835  14.212 -0.0169  0.3819  0.3328
  849MPD2    H512479   4.112   0.854  14.146  0.1173  0.4541  0.5078
  849MPD2    N112480   3.773   0.850  13.820 -0.4049  0.0876  0.0080
  849MPD2    H712481   3.852   0.908  13.793 -0.4691 -0.3050 -1.0260
  850MPD2     C12482   2.051   3.966  14.515 -0.8445 -0.1625 -0.3101
  850MPD2    C112483   2.029   4.007  14.645  0.1372  0.0327 -0.1373
  850MPD2    C212484   2.143   4.045  14.714 -0.0540 -0.0943 -0.0716
  850MPD2    C312485   2.270   4.049  14.661  0.2452  0.3832 -0.3253
  850MPD2    C412486   2.287   4.009  14.527  0.0328 -0.5005 -0.3213
  850MPD2    C512487   2.176   3.972  14.455 -0.3888 -0.4063 -0.5709
  850MPD2     H12488   2.139   4.082  14.816  1.3150  1.0512 -0.4322
  850MPD2    H112489   2.384   4.013  14.481  0.3847  1.2882  0.5964
  850MPD2    H212490   1.966   3.936  14.454 -1.5842 -0.3021  0.7979
  850MPD2    H312491   2.198   3.940  14.354  1.6540 -2.0599  0.4151
  850MPD2     N12492   2.388   4.082  14.723 -0.2996 -0.1944  0.3786
  850MPD2    H512493   2.470   4.084  14.664  0.7837  1.3593  1.9372
  850MPD2    N112494   1.887   4.001  14.694 -0.0962 -0.2914  1.0153
  850MPD2    H712495   1.808   3.979  14.635  0.8422 -1.1011  0.0586
  851MPD2     C12496   2.312   3.610  15.361  0.7548 -0.0434  0.3080
  851MPD2    C112497   2.249   3.617  15.241 -0.0272  0.4581 -0.0720
  851MPD2    C212498   2.244   3.504  15.159 -0.2342  0.4190 -0.5175
  851MPD2    C312499   2.288   3.383  15.207  0.1584  0.0906  0.6207
  851MPD2    C412500   2.358   3.380  15.322  0.4589  0.0877  1.0977
  851MPD2    C512501   2.364   3.493  15.402 -0.4287  0.2059  0.3010
  851MPD2     H12502   2.224   3.515  15.053 -2.0614 -2.6017 -0.4752
  851MPD2    H112503   2.405   3.289  15.357 -1.0978 -0.3484  2.0528
  851MPD2    H212504   2.313   3.693  15.431 -1.1033  0.2933 -0.0585
  851MPD2    H312505   2.411   3.483  15.499  1.6276 -0.8036 -0.7891
  851MPD2     N12506   2.257   3.263  15.131 -0.4498 -0.2134  0.3983
  851MPD2    H512507   2.185   3.280  15.062 -0.7556 -0.4065  0.6690
  851MPD2    N112508   2.189   3.741  15.201  0.0012 -0.7341  0.5772
  851MPD2    H712509   2.223   3.821  15.254 -0.9967  1.1731 -1.6800
  852MPD2     C12510   1.495   1.113  10.410  0.2577 -0.3081 -1.2603
  852MPD2    C112511   1.575   1.224  10.438 -0.2796  0.3624 -0.0038
  852MPD2    C212512   1.661   1.279  10.342 -0.3732  0.3702 -0.0834
  852MPD2    C312513   1.648   1.226  10.213  0.2729 -0.5175 -0.6588
  852MPD2    C412514   1.547   1.132  10.186 -1.3265 -0.0403  0.1528
  852MPD2    C512515   1.473   1.072  10.282  0.6571 -0.7659 -0.3380
  852MPD2     H12516   1.732   1.359  10.360 -1.3261  1.0013  0.8583
  852MPD2    H112517   1.537   1.078  10.092  0.0876  0.1035 -0.0845
  852MPD2    H212518   1.436   1.060  10.483  0.5382 -0.0806 -0.8717
  852MPD2    H312519   1.403   0.991  10.265 -1.1751  0.8674 -0.6909
  852MPD2     N12520   1.744   1.270  10.123 -0.3115  0.4179 -0.5574
  852MPD2    H512521   1.805   1.347  10.149  0.3503  0.0717 -1.0909
  852MPD2    N112522   1.577   1.288  10.564  0.1280  0.2952  0.0312
  852MPD2    H712523   1.631   1.374  10.569 -2.4389  1.8513  1.1045
  853MPD2     C12524   2.947   1.614  12.392 -0.2116 -0.4323 -0.0389
  853MPD2    C112525   3.070   1.675  12.382 -0.6434 -0.3731  0.3168
  853MPD2    C212526   3.138   1.668  12.261 -0.8257 -0.0522  0.7752
  853MPD2    C312527   3.084   1.609  12.151 -0.3209 -0.1163 -0.0310
  853MPD2    C412528   2.950   1.551  12.162  0.3891  0.2091 -0.2011
  853MPD2    C512529   2.885   1.560  12.285  0.3497 -0.3171  0.0722
  853MPD2     H12530   3.237   1.713  12.254 -1.0522  0.2255 -0.6928
  853MPD2    H112531   2.898   1.498  12.083  2.4326  0.9390 -2.0509
  853MPD2    H212532   2.892   1.611  12.485  0.8186  0.0919  0.5811
  853MPD2    H312533   2.786   1.515  12.285 -0.3168  1.1772 -0.0127
  853MPD2     N12534   3.155   1.614  12.031 -0.6434  0.8900  0.5759
  853MPD2    H512535   3.249   1.651  12.031 -0.0388 -0.6418 -0.9222
  853MPD2    N112536   3.118   1.742  12.496  0.0174  0.6829 -0.0458
  853MPD2    H712537   3.062   1.725  12.579  1.6712 -1.4862  0.6258
  854MPD2     C12538   1.535   1.768  12.545 -0.0695  0.0410  0.3286
  854MPD2    C112539   1.435   1.700  12.604  0.1343  0.6971 -0.6996
  854MPD2    C212540   1.455   1.571  12.640  0.2508 -0.5996 -0.3621
  854MPD2    C312541   1.569   1.506  12.611 -0.6103 -0.5133 -0.0360
  854MPD2    C412542   1.679   1.578  12.550 -0.0722  0.2731 -0.1498
  854MPD2    C512543   1.659   1.709  12.524 -0.5192 -0.3987 -0.0503
  854MPD2     H12544   1.380   1.519  12.698  0.4913 -0.9702 -0.3870
  854MPD2    H112545   1.777   1.534  12.550  0.3733  1.2586  3.3780
  854MPD2    H212546   1.530   1.875  12.532  1.8277  0.0563 -0.3156
  854MPD2    H312547   1.747   1.760  12.486 -0.3147  0.0757  1.0501
  854MPD2     N12548   1.593   1.374  12.652  0.2493 -0.3741 -0.0911
  854MPD2    H512549   1.674   1.324  12.615 -0.0711  0.2801 -1.6604
  854MPD2    N112550   1.309   1.766  12.618 -0.1381 -0.3214 -0.5275
  854MPD2    H712551   1.316   1.862  12.587  3.4893  0.1033  1.6121
  855MPD2     C12552   1.291   1.362  13.500 -0.1477 -0.0815 -0.1661
  855MPD2    C112553   1.250   1.231  13.480 -0.0942  0.2716 -0.4658
  855MPD2    C212554   1.299   1.171  13.372 -0.1885 -0.6991  0.4538
  855MPD2    C312555   1.394   1.224  13.293  0.1198  0.1171  0.3634
  855MPD2    C412556   1.427   1.355  13.316  0.1473 -0.0920 -0.4415
  855MPD2    C512557   1.383   1.422  13.424 -0.3371  0.5192  0.6313
  855MPD2     H12558   1.249   1.078  13.348  1.7678 -1.1412 -1.8373
  855MPD2    H112559   1.509   1.401  13.261  0.1364 -0.7795 -1.0307
  855MPD2    H212560   1.256   1.425  13.580  1.1743 -1.0941  1.2073
  855MPD2    H312561   1.417   1.522  13.449  1.4889  0.1858 -0.5077
  855MPD2     N12562   1.447   1.169  13.173 -0.1669 -0.2411 -0.5593
  855MPD2    H512563   1.511   1.234  13.129  0.5624  0.9232  2.2276
  855MPD2    N112564   1.172   1.163  13.579  0.5525 -0.3312  0.5569
  855MPD2    H712565   1.146   1.067  13.557  2.5630 -0.5143 -1.1166
  856MPD2     C12566   2.780   2.414  13.903  0.0075 -0.3327 -0.2081
  856MPD2    C112567   2.887   2.494  13.946 -0.8020 -0.0799 -0.0987
  856MPD2    C212568   2.874   2.627  13.917  0.2207 -0.0863  0.4274
  856MPD2    C312569   2.757   2.682  13.871 -0.1057  0.0763  0.3523
  856MPD2    C412570   2.650   2.604  13.847  0.7800  0.0970 -1.0161
  856MPD2    C512571   2.656   2.466  13.859 -0.1956 -0.2321  0.0150
  856MPD2     H12572   2.956   2.696  13.935  0.0172  0.7670 -1.9848
  856MPD2    H112573   2.557   2.648  13.811  0.0547 -1.1783 -0.7300
  856MPD2    H212574   2.781   2.307  13.919  2.2650 -0.0311  1.5364
  856MPD2    H312575   2.570   2.404  13.839 -0.9933 -0.3092  3.6414
  856MPD2     N12576   2.732   2.822  13.840 -0.0607 -0.4315  0.7399
  856MPD2    H512577   2.643   2.844  13.796 -0.0837 -0.0828  0.9623
  856MPD2    N112578   3.005   2.453  14.014  0.7616 -0.1712 -0.5700
  856MPD2    H712579   3.072   2.527  14.032  0.9131 -0.6318  0.7098
  857MPD2     C12580   4.168   0.061  12.507  0.4324  0.3379  0.1967
  857MPD2    C112581   4.290   0.007  12.498 -0.6582 -0.3209 -0.3421
  857MPD2    C212582   4.402   0.082  12.514 -0.0005  0.2696  0.2887
  857MPD2    C312583   4.387   0.217  12.547  0.7452  0.6506  0.4951
  857MPD2    C412584   4.259   0.269  12.571  0.0057 -0.1542  0.1949
  857MPD2    C512585   4.146   0.195  12.537 -0.1640 -0.6279  0.6614
  857MPD2     H12586   4.497   0.031  12.504 -0.5415 -0.5536 -0.6406
  857MPD2    H112587   4.253   0.369  12.612  1.1468  0.4054 -0.9942
  857MPD2    H212588   4.082   4.724  12.503 -1.2908  2.6579 -0.3413
  857MPD2    H312589   4.052   0.244  12.558  0.8438  1.6057 -0.0253
  857MPD2     N12590   4.505   0.287  12.563  0.1316 -0.0986  0.4162
  857MPD2    H512591   4.591   0.233  12.557 -1.1036 -1.8685 -1.3125
  857MPD2    N112592   4.299   4.589  12.487 -0.3516  0.2487 -0.4325
  857MPD2    H712593   4.208   4.550  12.506 -0.7515  1.0422 -0.7221
  858MPD2     C12594   0.062   3.405  16.383 -0.5105 -0.1076  0.2910
  858MPD2    C112595   0.182   3.409  16.452 -0.0592 -0.3037  0.0978
  858MPD2    C212596   0.183   3.460  16.579 -0.2360 -0.4288 -0.6895
  858MPD2    C312597   0.071   3.524  16.633 -0.4151  0.6233 -0.1015
  858MPD2    C412598   4.680   3.529  16.561  0.1282  0.2343 -0.1102
  858MPD2    C512599   4.680   3.477  16.435  0.1102  0.5186  0.2419
  858MPD2     H12600   0.273   3.450  16.638 -0.7168 -3.3681 -0.4473
  858MPD2    H112601   4.596   3.587  16.599  1.7282 -0.1900  4.0899
  858MPD2    H212602   0.043   3.362  16.285 -0.9804  0.6271  0.0562
  858MPD2    H312603   4.589   3.481  16.376  1.1038  1.4763 -1.2093
  858MPD2     N12604   0.073   3.588  16.758  0.4274 -0.4592  0.6238
  858MPD2    H512605   4.715   3.635  16.784  2.0572  2.5129  0.5929
  858MPD2    N112606   0.288   3.337  16.388  0.6877  0.2197 -0.0536
  858MPD2    H712607   0.272   3.298  16.297 -0.9746 -1.7245  1.0811
  859MPD2     C12608   3.497   0.898  15.089  0.2672  0.0949  1.0912
  859MPD2    C112609   3.629   0.904  15.127 -0.1902  0.4174  0.2072
  859MPD2    C212610   3.678   0.787  15.184  0.0609  0.3593 -0.3940
  859MPD2    C312611   3.598   0.677  15.217 -0.0876  0.5056  0.4890
  859MPD2    C412612   3.463   0.684  15.175  0.1179  0.0930  0.3021
  859MPD2    C512613   3.413   0.793  15.119  0.4889 -0.4977  0.4126
  859MPD2     H12614   3.775   0.784  15.231 -0.7411 -0.1305  1.2421
  859MPD2    H112615   3.391   0.606  15.197 -0.0051  0.3255  0.7173
  859MPD2    H212616   3.446   0.988  15.055  1.7855  0.9724  1.1420
  859MPD2    H312617   3.312   0.803  15.082  0.6867 -1.8818 -0.5184
  859MPD2     N12618   3.644   0.560  15.284  0.1757  0.5823  0.0891
  859MPD2    H512619   3.570   0.502  15.322  0.2094 -0.7490 -1.8611
  859MPD2    N112620   3.699   1.027  15.114 -0.0216 -0.2920 -0.5697
  859MPD2    H712621   3.646   1.110  15.089 -0.5721 -0.4203  0.1780
  860MPD2     C12622   1.861   1.176  11.526  0.1484 -0.2399  1.2451
  860MPD2    C112623   1.801   1.109  11.627 -0.0855  0.3330 -0.2975
  860MPD2    C212624   1.666   1.119  11.646  0.2184 -0.6739  0.3936
  860MPD2    C312625   1.587   1.196  11.553 -0.2099  0.5133  0.3663
  860MPD2    C412626   1.656   1.268  11.457 -0.1960 -0.5954  0.4543
  860MPD2    C512627   1.790   1.249  11.439  0.4220  0.0150 -0.0207
  860MPD2     H12628   1.619   1.058  11.722  2.1342 -0.6096  1.6293
  860MPD2    H112629   1.606   1.338  11.391 -0.6700 -1.7658 -0.4388
  860MPD2    H212630   1.969   1.176  11.519  0.1148 -0.0207  0.7340
  860MPD2    H312631   1.844   1.309  11.366  0.0639  0.7479  0.3111
  860MPD2     N12632   1.454   1.224  11.571  0.3301 -0.7188 -0.9919
  860MPD2    H512633   1.405   1.301  11.525  1.0943 -0.1253 -0.8168
  860MPD2    N112634   1.882   1.036  11.723  0.5388  0.0330  0.5930
  860MPD2    H712635   1.847   1.010  11.815  0.4336  0.7010  0.7440
  861MPD2     C12636   0.307   4.204  10.788 -0.3269  0.0400  0.3585
  861MPD2    C112637   0.202   4.200  10.875 -0.0133 -0.2459  0.2898
  861MPD2    C212638   0.084   4.251  10.835 -0.1674 -0.2426  0.0682
  861MPD2    C312639   0.061   4.306  10.712 -0.0013  1.1156  0.2867
  861MPD2    C412640   0.172   4.319  10.625 -0.2112 -0.8048 -0.2415
  861MPD2    C512641   0.294   4.276  10.668 -0.0025  0.1336  0.1889
  861MPD2     H12642   0.002   4.250  10.906 -0.8154  0.1509 -0.6798
  861MPD2    H112643   0.165   4.366  10.528 -0.9602  1.2405  0.8180
  861MPD2    H212644   0.405   4.171  10.820  0.9917  1.6392 -1.9397
  861MPD2    H312645   0.382   4.292  10.607 -0.5460 -0.6384 -0.7909
  861MPD2     N12646   4.662   4.360  10.671  0.7555  0.1223 -0.3388
  861MPD2    H512647   4.668   4.420  10.589  2.0557  1.5469  0.7963
  861MPD2    N112648   0.212   4.162  11.009  0.5339  0.0980  0.0589
  861MPD2    H712649   0.131   4.152  11.069  0.6696  3.1044  0.7599
  862MPD2     C12650   4.536   4.614  10.116  0.1306  0.6257  0.2241
  862MPD2    C112651   4.437   4.550  10.188  0.0348 -0.1249  0.5191
  862MPD2    C212652   4.388   4.420  10.153  0.2249  0.1335 -0.1569
  862MPD2    C312653   4.448   4.355  10.044  0.3369 -0.5346  0.7258
  862MPD2    C412654   4.546   4.424   9.972 -0.3204 -0.4966 -0.3677
  862MPD2    C512655   4.585   4.550  10.009  0.4797  0.6166 -0.2439
  862MPD2     H12656   4.321   4.375  10.225 -2.0051 -0.5491 -2.6456
  862MPD2    H112657   4.592   4.373   9.888  0.7389  1.2298 -0.8551
  862MPD2    H212658   4.592   4.702  10.146  1.3258  0.5107 -1.7073
  862MPD2    H312659   4.661   4.604   9.953  0.6752  1.2019  0.5906
  862MPD2     N12660   4.430   4.214  10.019  0.2403  0.2644  0.0396
  862MPD2    H512661   4.488   4.173   9.947  0.2263  0.4416 -0.0735
  862MPD2    N112662   4.405   4.586  10.325 -0.0611 -0.1417  0.1800
  862MPD2    H712663   4.336   4.521  10.361 -0.8506  1.0755  0.8869
  863MPD2     C12664   2.959   2.670  17.283 -0.1859 -0.4173 -0.2042
  863MPD2    C112665   3.035   2.759  17.202  0.0689 -0.3518  0.5125
  863MPD2    C212666   3.168   2.791  17.226 -0.4220 -0.1026  0.1202
  863MPD2    C312667   3.224   2.739  17.334  0.1936  0.1854 -1.2683
  863MPD2    C412668   3.159   2.646  17.412  0.5032 -0.0975 -0.0900
  863MPD2    C512669   3.026   2.607  17.387  0.4578 -0.4855 -0.3998
  863MPD2     H12670   3.223   2.851  17.155  1.3283 -2.2523 -0.3417
  863MPD2    H112671   3.213   2.609  17.499 -0.5228 -1.0027  0.1653
  863MPD2    H212672   2.856   2.640  17.264  0.4290 -2.4851 -0.2684
  863MPD2    H312673   2.991   2.529  17.453  1.7239  0.9285  1.9559
  863MPD2     N12674   3.359   2.773  17.364  0.3112 -0.8853  0.4333
  863MPD2    H512675   3.401   2.713  17.435  0.1776  1.4015  2.4424
  863MPD2    N112676   2.966   2.791  17.081  0.4624  0.5863  0.0220
  863MPD2    H712677   2.873   2.755  17.064  0.9258  0.3603 -1.9791
  864MPD2     C12678   3.309   4.114  16.043 -0.7656  1.2883 -0.2184
  864MPD2    C112679   3.383   4.149  16.153  0.2097  0.4776 -0.8888
  864MPD2    C212680   3.484   4.241  16.127 -0.4165 -0.4760  0.3473
  864MPD2    C312681   3.506   4.295  16.001 -0.5674 -0.2997  0.2937
  864MPD2    C412682   3.417   4.266  15.897  0.0924  0.1030 -0.0971
  864MPD2    C512683   3.326   4.167  15.919  0.0098  0.0756 -0.2496
  864MPD2     H12684   3.560   4.252  16.203 -0.4181  0.8593  0.1510
  864MPD2    H112685   3.439   4.304  15.798 -1.7111  1.6859  0.1142
  864MPD2    H212686   3.240   4.031  16.055  0.5629  0.4444  1.5511
  864MPD2    H312687   3.267   4.124  15.840  0.7028  0.0865 -0.7743
  864MPD2     N12688   3.618   4.375  15.968 -0.2076  0.0700  0.6654
  864MPD2    H512689   3.627   4.405  15.872  1.0398  1.1724  1.1315
  864MPD2    N112690   3.376   4.072  16.274  0.1975  0.3397  0.1623
  864MPD2    H712691   3.329   3.983  16.266  0.2018  0.3019  0.5309
  865MPD2     C12692   3.617   4.147  15.584  0.2260 -0.8060  0.4507
  865MPD2    C112693   3.742   4.167  15.629 -0.0747  0.7731 -0.2077
  865MPD2    C212694   3.785   4.298  15.622 -1.3976 -0.2464  0.9444
  865MPD2    C312695   3.709   4.404  15.578  0.1516  0.4777 -0.5162
  865MPD2    C412696   3.582   4.380  15.534  0.2652  0.3578 -0.4246
  865MPD2    C512697   3.543   4.250  15.532  0.9905 -0.5844 -0.1958
  865MPD2     H12698   3.890   4.311  15.645 -1.0433 -0.9122 -0.3006
  865MPD2    H112699   3.506   4.454  15.511 -1.0313 -0.2171  2.0248
  865MPD2    H212700   3.575   4.047  15.591  1.9107 -1.4114  2.0160
  865MPD2    H312701   3.445   4.224  15.492 -1.0642  1.8261  3.2011
  865MPD2     N12702   3.761   4.538  15.572 -0.2245 -0.1471 -0.0836
  865MPD2    H512703   3.720   4.584  15.491  0.8370  1.5254  0.3296
  865MPD2    N112704   3.820   4.060  15.663 -0.5340 -0.7780  0.0169
  865MPD2    H712705   3.779   3.967  15.654 -0.2350 -0.8759 -0.3544
  866MPD2     C12706   0.953   4.608  11.151 -0.3078  0.2622  0.1690
  866MPD2    C112707   0.912   4.540  11.031  0.0499 -0.0694 -0.9170
  866MPD2    C212708   0.777   4.517  11.013 -0.3738  0.2974  0.0390
  866MPD2    C312709   0.677   4.569  11.096 -1.2130 -0.4191  0.3483
  866MPD2    C412710   0.719   4.628  11.219 -0.3752 -0.1990 -0.5396
  866MPD2    C512711   0.853   4.654  11.239  0.0730 -0.1367  0.3824
  866MPD2     H12712   0.757   4.462  10.922 -0.4351 -0.6845  0.6385
  866MPD2    H112713   0.646   4.668  11.288 -0.1048 -0.3072 -0.1932
  866MPD2    H212714   1.054   4.601  11.191 -0.2149 -1.5707 -0.3430
  866MPD2    H312715   0.886   4.695  11.334  0.1794  1.3284 -0.2895
  866MPD2     N12716   0.537   4.565  11.060  0.1158  0.1985  0.3558
  866MPD2    H512717   0.469   4.587  11.131 -0.9646  3.6093 -1.7296
  866MPD2    N112718   1.016   4.500  10.944  0.1263  0.4649 -0.2842
  866MPD2    H712719   1.110   4.522  10.978  0.0843 -0.5978  0.5012
  867MPD2     C12720   2.505   4.353  16.442 -0.5594  0.5495 -0.0070
  867MPD2    C112721   2.508   4.242  16.523  0.2582 -0.2517  0.0402
  867MPD2    C212722   2.446   4.246  16.647  0.1229  0.9047 -0.1963
  867MPD2    C312723   2.384   4.358  16.700 -0.8009 -0.1766 -0.3207
  867MPD2    C412724   2.377   4.471  16.612  0.3062  0.7043  0.5043
  867MPD2    C512725   2.432   4.459  16.487  0.4262 -0.6555  0.7323
  867MPD2     H12726   2.442   4.150  16.697 -0.1165  0.4189 -1.1655
  867MPD2    H112727   2.324   4.562  16.637 -2.1816 -0.9627  1.3562
  867MPD2    H212728   2.555   4.358  16.346 -0.0476  1.2207  0.2973
  867MPD2    H312729   2.436   4.543  16.419 -2.1551 -2.2255 -1.3599
  867MPD2     N12730   2.330   4.377  16.829 -0.0750  0.7563 -0.1426
  867MPD2    H512731   2.297   4.470  16.852 -2.9887 -0.5967  1.0855
  867MPD2    N112732   2.562   4.118  16.469 -0.1583 -0.1617  0.8852
  867MPD2    H712733   2.562   4.109  16.368 -2.4883  0.3449  0.8410
  868MPD2     C12734   4.398   3.355  12.989  0.2951  0.1099  0.8777
  868MPD2    C112735   4.480   3.333  13.101 -0.2323 -0.1132  0.8400
  868MPD2    C212736   4.425   3.347  13.229  0.1433 -0.5850 -0.3041
  868MPD2    C312737   4.288   3.366  13.245 -0.2283 -0.4491  0.2272
  868MPD2    C412738   4.212   3.373  13.131 -0.0717 -0.0678 -0.5279
  868MPD2    C512739   4.265   3.361  13.007  0.4331 -0.2869 -1.0790
  868MPD2     H12740   4.492   3.343  13.314 -0.2575  0.3473  0.0569
  868MPD2    H112741   4.105   3.391  13.133  0.0518  0.2870  2.4228
  868MPD2    H212742   4.442   3.352  12.890  0.3891 -0.4131  0.9366
  868MPD2    H312743   4.202   3.381  12.922  0.4866  0.2781 -0.9864
  868MPD2     N12744   4.234   3.363  13.376  0.1975 -0.1903  0.2804
  868MPD2    H512745   4.299   3.359  13.454 -0.5809  1.2809  0.9963
  868MPD2    N112746   4.616   3.292  13.077  0.5846  0.7135  0.3853
  868MPD2    H712747   4.634   3.271  12.980  2.8804  3.3788  0.2393
  869MPD2     C12748   0.333   1.297   1.021  0.1473 -0.1850  0.6047
  869MPD2    C112749   0.293   1.407   1.097  0.3178 -0.0907  0.4756
  869MPD2    C212750   0.211   1.508   1.036  0.2094 -0.0070  0.5501
  869MPD2    C312751   0.193   1.515   0.898 -0.2606 -0.1875  0.2078
  869MPD2    C412752   0.231   1.399   0.829 -0.5604 -0.5713  0.3038
  869MPD2    C512753   0.295   1.298   0.896  0.6876 -0.1199 -0.0366
  869MPD2     H12754   0.185   1.598   1.091 -0.2962  0.0226  0.2687
  869MPD2    H112755   0.220   1.395   0.721 -1.0799 -1.6826  0.4029
  869MPD2    H212756   0.387   1.211   1.059  1.5007  0.2038 -0.4459
  869MPD2    H312757   0.321   1.211   0.836  3.0641 -0.4066  1.4107
  869MPD2     N12758   0.121   1.616   0.834  0.6914 -0.3045 -0.0822
  869MPD2    H512759   0.122   1.621   0.732  3.4783  1.0315  0.0297
  869MPD2    N112760   0.328   1.406   1.232  0.5780  0.4809 -0.2241
  869MPD2    H712761   0.373   1.320   1.260  0.5335  1.4861  2.9251
  870MPD2     C12762   4.119   0.733   1.138  0.1161  0.2086  0.4786
  870MPD2    C112763   4.244   0.744   1.087  0.6366  0.1502  0.5988
  870MPD2    C212764   4.247   0.781   0.953 -0.0333  0.5571  0.5213
  870MPD2    C312765   4.140   0.781   0.875 -0.3895 -0.4825  0.1297
  870MPD2    C412766   4.011   0.768   0.928 -0.1358 -0.1365  0.4835
  870MPD2    C512767   4.004   0.754   1.063  0.8594  0.2231  0.0388
  870MPD2     H12768   4.341   0.774   0.899 -0.3258 -0.8995  0.2114
  870MPD2    H112769   3.919   0.786   0.874  1.4362  2.9396 -1.1841
  870MPD2    H212770   4.104   0.711   1.244 -1.7365  0.1738  0.2163
  870MPD2    H312771   3.907   0.758   1.113 -0.0602  1.1334 -1.8157
  870MPD2     N12772   4.150   0.792   0.736 -0.1765 -0.0695  0.6631
  870MPD2    H512773   4.244   0.800   0.697 -0.9306  0.1607 -1.1284
  870MPD2    N112774   4.364   0.719   1.164  0.0847  0.4664 -0.1734
  870MPD2    H712775   4.358   0.659   1.245 -0.0856 -0.8059 -1.1200
  871MPD2     C12776   1.810   4.020  16.451 -0.1889  0.9486  0.7070
  871MPD2    C112777   1.703   3.939  16.483  0.1400 -0.3771 -0.1754
  871MPD2    C212778   1.673   3.818  16.418  0.1120 -0.5494  0.2054
  871MPD2    C312779   1.765   3.771  16.325  0.1764  0.2087 -0.1773
  871MPD2    C412780   1.874   3.854  16.292  0.2855 -0.4524  0.8387
  871MPD2    C512781   1.889   3.976  16.349  0.3844  0.5409  0.4382
  871MPD2     H12782   1.595   3.748  16.442 -1.8997  1.3641 -0.7348
  871MPD2    H112783   1.948   3.822  16.219  0.8457  2.7090  0.0398
  871MPD2    H212784   1.832   4.113  16.502 -0.6947  1.0298  0.7713
  871MPD2    H312785   1.974   4.031  16.309  1.1290 -1.0053 -0.0921
  871MPD2     N12786   1.749   3.643  16.269  0.2220 -0.0461  0.5182
  871MPD2    H512787   1.677   3.584  16.308  0.4350 -1.7950 -1.6925
  871MPD2    N112788   1.619   3.994  16.583  0.4625  0.3273  0.3786
  871MPD2    H712789   1.641   4.090  16.608  0.5247  0.5342 -0.4758
  872MPD2     C12790   2.563   1.487  14.302 -0.1223  0.3149 -0.2815
  872MPD2    C112791   2.539   1.553  14.187  0.4095  0.8028  0.3856
  872MPD2    C212792   2.407   1.575  14.154  0.0482  0.0356  0.3399
  872MPD2    C312793   2.299   1.516  14.220  0.0863 -1.0717  0.3054
  872MPD2    C412794   2.328   1.438  14.330  0.0764 -0.0149 -0.1391
  872MPD2    C512795   2.461   1.430  14.371 -0.1481 -0.2604  0.4774
  872MPD2     H12796   2.381   1.639  14.070 -2.1778 -0.6617  0.4832
  872MPD2    H112797   2.247   1.404  14.394  0.4683  0.8379  0.8169
  872MPD2    H212798   2.663   1.478  14.345  0.0704 -1.0229 -1.0260
  872MPD2    H312799   2.477   1.384  14.468  1.3145  1.2743  0.9478
  872MPD2     N12800   2.159   1.546  14.193 -0.0473  0.2045  0.1403
  872MPD2    H512801   2.092   1.498  14.252  0.4429  0.8814  1.2610
  872MPD2    N112802   2.631   1.620  14.104  0.7017 -0.9615 -0.0221
  872MPD2    H712803   2.596   1.687  14.036  1.7905 -1.3615 -0.9694
  873MPD2     C12804   3.956   2.935   0.862 -0.3958 -0.3626 -0.5535
  873MPD2    C112805   3.855   2.850   0.885  0.2331  0.2708 -0.4091
  873MPD2    C212806   3.830   2.744   0.798 -0.5351 -0.4259  0.4236
  873MPD2    C312807   3.910   2.722   0.691 -0.4192 -0.3219  0.7817
  873MPD2    C412808   4.022   2.797   0.682  0.7832  0.3339 -0.3790
  873MPD2    C512809   4.035   2.913   0.758 -0.1866 -0.3891 -0.8217
  873MPD2     H12810   3.754   2.669   0.819 -0.9363  0.3593  1.7724
  873MPD2    H112811   4.079   2.795   0.589 -0.7649 -0.6371 -1.3094
  873MPD2    H212812   3.973   3.028   0.916 -0.2499  0.8455 -2.6935
  873MPD2    H312813   4.119   2.976   0.732 -1.2877  2.4741  2.6262
  873MPD2     N12814   3.905   2.610   0.610 -0.2349 -0.3612 -0.2766
  873MPD2    H512815   3.977   2.609   0.538 -0.3189 -1.1655 -0.3555
  873MPD2    N112816   3.772   2.882   0.994 -0.0982  0.0476 -0.3302
  873MPD2    H712817   3.792   2.956   1.060 -1.0142 -1.4373  1.6124
  874MPD2     C12818   4.037   2.015  15.923  0.1884  0.0637  0.1963
  874MPD2    C112819   4.114   1.975  16.027  0.4226  0.1652 -0.5260
  874MPD2    C212820   4.245   2.019  16.033 -1.4355  0.0624 -0.1844
  874MPD2    C312821   4.297   2.100  15.936  0.3144 -0.0811  0.1938
  874MPD2    C412822   4.218   2.159  15.846 -0.5255 -0.3335 -0.3500
  874MPD2    C512823   4.085   2.109  15.834 -0.6880  0.3368 -0.4996
  874MPD2     H12824   4.312   1.962  16.097  0.3067 -0.4444 -2.4425
  874MPD2    H112825   4.251   2.242  15.785 -3.1228 -2.1387 -4.1975
  874MPD2    H212826   3.933   1.990  15.903  1.0741 -3.1538 -0.2479
  874MPD2    H312827   4.014   2.140  15.758 -1.6460  0.2236  0.3376
  874MPD2     N12828   4.434   2.121  15.943  0.4103  0.0522  0.1429
  874MPD2    H512829   4.485   2.079  16.020 -1.8170 -1.5560  0.7486
  874MPD2    N112830   4.057   1.884  16.124  0.0878 -0.1197  0.8674
  874MPD2    H712831   3.970   1.842  16.094 -0.6654  1.5782  0.6270
  875MPD2     C12832   0.859   0.112  14.753 -0.5663  0.2896  0.8012
  875MPD2    C112833   0.745   0.120  14.829  0.1734 -0.0627  0.2636
  875MPD2    C212834   0.756   0.138  14.966  0.1111 -0.3286  1.0588
  875MPD2    C312835   0.881   0.159  15.020 -0.0908 -0.2366  0.1387
  875MPD2    C412836   0.997   0.157  14.950 -0.4392 -0.5574  0.6081
  875MPD2    C512837   0.980   0.146  14.813 -0.0782  0.0383  0.1166
  875MPD2     H12838   0.668   0.128  15.028  0.3750  0.4804  1.5635
  875MPD2    H112839   1.097   0.155  14.990  0.3462  2.3250 -1.1689
  875MPD2    H212840   0.860   0.089  14.647  0.3598  2.9157  0.2248
  875MPD2    H312841   1.072   0.136  14.756  0.0933  1.4175  0.1568
  875MPD2     N12842   0.882   0.192  15.156 -0.0219 -0.7326 -0.2505
  875MPD2    H512843   0.794   0.203  15.205  1.0419  1.3280  1.2282
  875MPD2    N112844   0.618   0.100  14.763 -0.1022  0.0897  0.2604
  875MPD2    H712845   0.535   0.108  14.821 -0.3660  0.2225 -0.1396
  876MPD2     C12846   3.871   0.983  15.520 -0.2425  0.2687 -0.6108
  876MPD2    C112847   3.984   0.976  15.603 -0.0216  0.1266  0.1695
  876MPD2    C212848   4.012   0.852  15.659 -0.1397  0.5469  0.1003
  876MPD2    C312849   3.923   0.746  15.658 -0.0352  0.2675 -0.8301
  876MPD2    C412850   3.804   0.760  15.594  0.1438  0.1723  0.3360
  876MPD2    C512851   3.784   0.875  15.521  0.2307  0.0709  0.8936
  876MPD2     H12852   4.104   0.842  15.715  0.4605  0.2214 -0.9450
  876MPD2    H112853   3.735   0.679  15.575 -1.9356  2.3747 -1.4685
  876MPD2    H212854   3.849   1.072  15.462 -0.1356  0.7793  0.1300
  876MPD2    H312855   3.705   0.875  15.447  3.8696 -0.8529 -3.0238
  876MPD2     N12856   3.958   0.624  15.720  0.1139  0.3146 -0.4329
  876MPD2    H512857   4.046   0.615  15.770 -0.3775  0.9294  0.5650
  876MPD2    N112858   4.055   1.099  15.612  0.0782 -0.1756 -0.0901
  876MPD2    H712859   4.011   1.174  15.560 -0.1528 -0.3147 -0.0914
  877MPD2     C12860   3.856   1.710  15.409  0.5355  0.0453  0.1632
  877MPD2    C112861   3.986   1.682  15.361 -0.3290  0.0916  0.1098
  877MPD2    C212862   4.017   1.710  15.231 -0.1664 -0.0902  0.3266
  877MPD2    C312863   3.927   1.787  15.151 -0.0570  0.6501 -0.9447
  877MPD2    C412864   3.813   1.840  15.215 -0.4551 -0.1963 -0.6774
  877MPD2    C512865   3.778   1.790  15.336 -0.0546  0.4196 -0.1439
  877MPD2     H12866   4.119   1.688  15.201  0.0123  3.8153 -1.9417
  877MPD2    H112867   3.745   1.912  15.172  1.8197  1.6748 -1.0995
  877MPD2    H212868   3.827   1.700  15.513  0.0376 -1.4175 -0.1173
  877MPD2    H312869   3.685   1.819  15.383 -0.1007 -0.2486  0.1778
  877MPD2     N12870   3.961   1.837  15.020 -0.1969 -0.0684  0.2847
  877MPD2    H512871   3.895   1.906  14.984 -1.4041 -1.4412 -0.0918
  877MPD2    N112872   4.080   1.610  15.436 -0.1961 -0.2824  0.3944
  877MPD2    H712873   4.167   1.579  15.393  0.5569  2.0265  0.2839
  878MPD2     C12874   4.012   0.852  12.819  0.1261 -0.1837 -0.0970
  878MPD2    C112875   4.022   0.978  12.880 -0.0131 -0.4608  0.0633
  878MPD2    C212876   4.006   0.994  13.017  0.3441 -0.4654 -0.1604
  878MPD2    C312877   3.963   0.882  13.091 -0.1173  0.2141 -0.1372
  878MPD2    C412878   3.967   0.760  13.031 -0.3247  0.6055  0.6300
  878MPD2    C512879   3.982   0.747  12.897  0.0814 -0.7749  0.2207
  878MPD2     H12880   4.014   1.094  13.058 -1.3973  0.7302 -2.6803
  878MPD2    H112881   3.923   0.676  13.084 -1.0394  0.8157  0.3779
  878MPD2    H212882   4.025   0.823  12.716 -0.6204 -1.0741  0.0625
  878MPD2    H312883   3.972   0.653  12.844 -1.8591  0.0632 -0.9120
  878MPD2     N12884   3.929   0.905  13.220 -0.0312  0.2233  0.4900
  878MPD2    H512885   3.934   0.995  13.266  1.4195  0.3350  0.1178
  878MPD2    N112886   4.051   1.081  12.795  0.0948  0.0946 -0.5009
  878MPD2    H712887   4.009   1.074  12.703  1.4402  2.3438 -1.2861
  879MPD2     C12888   4.400   3.034  17.261 -0.6832 -0.7682 -0.0314
  879MPD2    C112889   4.321   2.967  17.354  0.1929 -0.6123 -0.1269
  879MPD2    C212890   4.206   2.906  17.294 -0.4116  0.2798  0.1522
  879MPD2    C312891   4.189   2.905  17.164 -0.6867 -0.0372  0.5554
  879MPD2    C412892   4.281   2.957  17.079 -0.1170 -0.1994 -0.6062
  879MPD2    C512893   4.389   3.014  17.129  0.0458  0.0821  0.2043
  879MPD2     H12894   4.143   2.840  17.354  0.2700  1.1991  1.8925
  879MPD2    H112895   4.260   2.966  16.973 -0.6180 -0.0670 -0.4919
  879MPD2    H212896   4.486   3.083  17.304 -0.9398  1.1488 -1.7191
  879MPD2    H312897   4.461   3.060  17.062  0.2317  0.8612  0.9381
  879MPD2     N12898   4.068   2.855  17.106  0.4725  0.0195 -1.3053
  879MPD2    H512899   4.077   2.848  17.006 -3.0939  1.2944 -1.7059
  879MPD2    N112900   4.359   2.974  17.493  0.6227 -0.3937 -0.5381
  879MPD2    H712901   4.442   3.028  17.517  0.9980 -0.7375 -1.0411
  880MPD2     C12902   0.313   4.597  17.153  0.5037 -0.3110 -0.1609
  880MPD2    C112903   0.261   4.612  17.277  0.5343  0.1253  0.6092
  880MPD2    C212904   0.271   4.506  17.368  0.5656  0.2972 -0.2048
  880MPD2    C312905   0.327   4.387  17.327 -0.1712  0.4220  0.2925
  880MPD2    C412906   0.382   4.371  17.202  0.0444  0.2085  0.1315
  880MPD2    C512907   0.370   4.477  17.119  0.0664 -0.1665  0.0155
  880MPD2     H12908   0.234   4.514  17.469 -0.7250  0.5763 -0.6869
  880MPD2    H112909   0.438   4.284  17.169 -1.3629 -0.2066 -1.1720
  880MPD2    H212910   0.316   4.678  17.081  0.6273 -0.6348 -0.5199
  880MPD2    H312911   0.414   4.461  17.021  0.1642 -0.9245  0.1804
  880MPD2     N12912   0.328   4.275  17.418 -0.3386  1.1014 -0.0070
  880MPD2    H512913   0.300   4.296  17.514  1.0301  0.4232  0.5417
  880MPD2    N112914   0.211   0.016  17.301  0.3908  0.1868 -0.4491
  880MPD2    H712915   0.231   0.079  17.224  0.2419  1.1664  0.3120
  881MPD2     C12916   0.572   0.793  16.990 -0.5156  0.0069  0.5776
  881MPD2    C112917   0.549   0.658  16.975  0.3371  0.1980  0.2564
  881MPD2    C212918   0.455   0.598  17.056 -0.4634  0.2440 -0.0085
  881MPD2    C312919   0.380   0.666  17.152 -0.2539 -0.1142 -0.7161
  881MPD2    C412920   0.409   0.797  17.170  0.1484  0.8524  0.0729
  881MPD2    C512921   0.497   0.861  17.082  0.4106 -0.3686  0.7781
  881MPD2     H12922   0.440   0.491  17.053 -2.0959  0.4981 -1.1461
  881MPD2    H112923   0.363   0.854  17.250 -1.6234 -1.0837  0.4152
  881MPD2    H212924   0.646   0.852  16.937 -1.4384  1.2710  0.7055
  881MPD2    H312925   0.505   0.968  17.089 -1.6322 -0.1560 -0.2340
  881MPD2     N12926   0.276   0.605  17.234  0.1773  0.1113 -0.8591
  881MPD2    H512927   0.225   0.668  17.296 -2.3109 -3.6433  0.9100
  881MPD2    N112928   0.637   0.577  16.893  0.4078 -0.0746 -0.3146
  881MPD2    H712929   0.715   0.622  16.846  0.4195  0.4444  0.2039
  882MPD2     C12930   4.063   1.483  14.355 -1.3120  0.5312 -0.6233
  882MPD2    C112931   3.960   1.557  14.410  0.7119  0.1044  0.6412
  882MPD2    C212932   3.835   1.509  14.411 -0.2995 -0.5074 -0.4478
  882MPD2    C312933   3.813   1.378  14.364  0.1074 -0.5494 -1.0614
  882MPD2    C412934   3.921   1.300  14.318  0.1767  0.3703  0.1675
  882MPD2    C512935   4.043   1.356  14.314 -0.5039 -0.4503 -0.1023
  882MPD2     H12936   3.757   1.563  14.463 -0.2753 -0.5788 -0.3381
  882MPD2    H112937   3.908   1.202  14.274  1.1571  0.2517  0.1510
  882MPD2    H212938   4.161   1.527  14.341  0.0956 -2.0159  1.0696
  882MPD2    H312939   4.125   1.303  14.269 -1.2336 -0.7979 -1.0296
  882MPD2     N12940   3.683   1.313  14.357  0.5039  0.1459  0.1663
  882MPD2    H512941   3.682   1.223  14.310 -2.4231 -1.0088  2.4310
  882MPD2    N112942   4.004   1.683  14.459  0.0164 -0.2986 -0.3724
  882MPD2    H712943   4.105   1.690  14.462 -0.1108  1.6215 -0.3216
  883MPD2     C12944   1.205   2.063  16.429 -0.5401 -0.0782 -0.6627
  883MPD2    C112945   1.315   2.013  16.359  0.4223  0.4189 -0.0082
  883MPD2    C212946   1.435   1.996  16.424  0.3130  1.3572  0.4157
  883MPD2    C312947   1.452   2.032  16.556 -0.0789  0.0228 -0.2946
  883MPD2    C412948   1.352   2.109  16.611 -0.4196  0.7663  0.2158
  883MPD2    C512949   1.229   2.125  16.552  0.4111 -0.0113  0.2434
  883MPD2     H12950   1.508   1.938  16.368  0.1941  0.1128  1.5482
  883MPD2    H112951   1.372   2.156  16.706 -0.4438  0.0163  0.5883
  883MPD2    H212952   1.105   2.073  16.387 -0.9792 -3.7001 -0.5571
  883MPD2    H312953   1.149   2.177  16.605 -1.3168  0.3307 -2.6790
  883MPD2     N12954   1.573   2.006  16.628  0.2538  0.3368  0.1880
  883MPD2    H512955   1.645   1.959  16.574 -0.2436  0.2772 -0.4201
  883MPD2    N112956   1.311   1.968  16.223 -0.0876 -0.8501  0.4018
  883MPD2    H712957   1.395   1.922  16.189 -1.0730 -0.9862 -1.8777
  884MPD2     C12958   3.541   2.330  14.791  0.8602 -0.3835 -0.0836
  884MPD2    C112959   3.509   2.456  14.847 -0.0025 -0.5378  0.0393
  884MPD2    C212960   3.390   2.481  14.907 -1.4181 -0.5798  0.2675
  884MPD2    C312961   3.294   2.384  14.912  0.5547 -0.7393 -0.0058
  884MPD2    C412962   3.327   2.263  14.858 -0.2422  0.2876  0.3551
  884MPD2    C512963   3.446   2.233  14.800  0.1917  0.2566  0.3034
  884MPD2     H12964   3.375   2.573  14.963  0.4147 -0.0747 -0.0587
  884MPD2    H112965   3.250   2.187  14.867  1.3569 -1.3244  0.5260
  884MPD2    H212966   3.632   2.313  14.735  0.2175  2.2897 -1.8994
  884MPD2    H312967   3.469   2.133  14.763 -0.2282  0.6249 -0.9748
  884MPD2     N12968   3.165   2.405  14.971  0.1450 -0.2252 -0.8832
  884MPD2    H512969   3.089   2.338  14.966 -1.5234  1.6468 -0.8214
  884MPD2    N112970   3.612   2.552  14.864  0.4900  0.4040  0.0863
  884MPD2    H712971   3.585   2.641  14.904 -2.5277  0.0428 -1.1327
  885MPD2     C12972   0.886   3.052   0.188 -0.1117 -0.3081  0.3453
  885MPD2    C112973   0.979   2.949   0.158 -0.5532 -0.7641  0.0677
  885MPD2    C212974   1.013   2.926   0.023  0.4386  0.3895  0.5619
  885MPD2    C312975   0.946   3.003  17.636  0.3776 -0.0118  0.7097
  885MPD2    C412976   0.852   3.098  17.670  0.6320  0.2674  0.5395
  885MPD2    C512977   0.825   3.125   0.094  0.4581 -0.0923 -0.2139
  885MPD2     H12978   1.093   2.861  17.701  0.6094 -0.5436  2.8447
  885MPD2    H112979   0.795   3.146  17.592  1.4296  0.7085  0.2303
  885MPD2    H212980   0.855   3.066   0.291  0.1826  0.9351  0.2685
  885MPD2    H312981   0.753   3.198   0.130  2.7119  2.3734 -0.6837
  885MPD2     N12982   0.991   2.975  17.503 -0.2236  0.2376 -0.3998
  885MPD2    H512983   1.044   2.890  17.486 -0.3904  0.3569 -1.5459
  885MPD2    N112984   1.041   2.876   0.260 -0.0895  0.0698 -0.4762
  885MPD2    H712985   1.007   2.889   0.355  0.5713  3.1005 -0.6440
  886MPD2     C12986   2.685   0.896  14.965 -0.3153 -0.5955  0.5189
  886MPD2    C112987   2.802   0.957  15.007 -0.3823 -0.5205  0.0200
  886MPD2    C212988   2.803   1.098  15.015  0.1898  1.0024  0.0472
  886MPD2    C312989   2.698   1.174  14.963  0.5030 -0.4436  0.5643
  886MPD2    C412990   2.592   1.111  14.912 -0.0610  0.0147  0.3352
  886MPD2    C512991   2.580   0.974  14.908 -0.6025 -0.0898  0.3026
  886MPD2     H12992   2.888   1.141  15.067  0.5888  0.3396 -0.0569
  886MPD2    H112993   2.518   1.164  14.853 -0.9928 -0.3091  1.2163
  886MPD2    H212994   2.676   0.788  14.956 -1.4730 -0.6235  2.0310
  886MPD2    H312995   2.494   0.931  14.860 -1.0404  0.5561  0.5150
  886MPD2     N12996   2.701   1.310  14.962 -0.2598 -0.4004  0.2166
  886MPD2    H512997   2.636   1.362  14.905 -0.5237 -0.4925  0.4339
  886MPD2    N112998   2.916   0.886  15.049 -0.2602 -0.2358 -0.2540
  886MPD2    H712999   2.998   0.940  15.073  0.1478 -1.3151  0.8361
  887MPD2     C13000   3.478   1.077  15.408  0.0341 -0.5049  0.5682
  887MPD2    C113001   3.357   1.096  15.357 -0.1284 -0.6416 -0.2146
  887MPD2    C213002   3.317   1.225  15.316  0.4812  0.6075 -0.1542
  887MPD2    C313003   3.394   1.337  15.331  0.1729 -0.0030  0.4694
  887MPD2    C413004   3.522   1.311  15.382  0.1665  0.4475  0.1991
  887MPD2    C513005   3.559   1.185  15.412 -0.3823  0.7392  0.1757
  887MPD2     H13006   3.224   1.244  15.264  0.3478 -1.9065 -0.8311
  887MPD2    H113007   3.587   1.396  15.400  1.7280 -0.3499 -1.6328
  887MPD2    H213008   3.512   0.977  15.432 -2.4594 -1.6859 -0.8646
  887MPD2    H313009   3.658   1.160  15.450 -0.5564 -1.5298 -0.8628
  887MPD2     N13010   3.342   1.461  15.293 -0.2730 -0.2702  0.2828
  887MPD2    H513011   3.260   1.464  15.233 -1.2617 -0.4769  1.6280
  887MPD2    N113012   3.262   0.995  15.352 -0.0807  0.4381  0.7394
  887MPD2    H713013   3.185   1.017  15.291 -1.3842 -2.2364  1.4043
  888MPD2     C13014   0.483   1.443  14.585  0.2142 -0.5046 -0.6434
  888MPD2    C113015   0.502   1.519  14.698 -0.1002  0.8999 -0.8751
  888MPD2    C213016   0.575   1.642  14.677 -0.0649 -0.3250  0.5185
  888MPD2    C313017   0.644   1.670  14.563 -0.1597 -0.5208 -0.4701
  888MPD2    C413018   0.644   1.574  14.460  0.2659  0.1497 -0.2653
  888MPD2    C513019   0.552   1.468  14.472  0.4199 -0.1650 -0.1109
  888MPD2     H13020   0.573   1.715  14.757 -0.0728 -0.8330  0.9815
  888MPD2    H113021   0.698   1.596  14.368 -0.6198  3.4661  0.0270
  888MPD2    H213022   0.430   1.348  14.587 -0.4868 -0.0918  0.2683
  888MPD2    H313023   0.537   1.391  14.397 -2.7030  0.5120 -0.1572
  888MPD2     N13024   0.708   1.799  14.555  0.2716 -0.2209 -0.3810
  888MPD2    H513025   0.685   1.862  14.631 -2.2568  0.6604 -1.8989
  888MPD2    N113026   0.445   1.485  14.820  0.9865 -0.8326  0.5524
  888MPD2    H713027   0.468   1.541  14.902 -0.6621  0.6575 -0.0065
  889MPD2     C13028   4.613   1.082  12.438  0.3444 -0.1027  0.9929
  889MPD2    C113029   4.709   1.011  12.507  0.0892  0.2469 -0.2485
  889MPD2    C213030   0.090   1.072  12.559 -0.5362 -0.3867  0.2720
  889MPD2    C313031   0.102   1.209  12.556 -1.0412  0.0625  0.0177
  889MPD2    C413032   0.008   1.285  12.487  0.0068  0.0528 -0.0097
  889MPD2    C513033   4.631   1.219  12.422  0.2824  0.2842  0.1308
  889MPD2     H13034   0.158   1.024  12.629  0.1010  0.0963 -0.0147
  889MPD2    H113035   0.005   1.394  12.485 -0.5434  0.0583  1.1342
  889MPD2    H213036   4.539   1.030  12.378  0.7471 -0.9658  1.2514
  889MPD2    H313037   4.561   1.274  12.360 -0.2899  1.3569  1.7508
  889MPD2     N13038   0.202   1.263  12.639 -0.3569  0.1489  0.0529
  889MPD2    H513039   0.242   1.208  12.715  0.2894  1.3493  0.5844
  889MPD2    N113040   4.703   0.865  12.504 -1.0215  0.0729  0.1451
  889MPD2    H713041   4.623   0.820  12.461 -1.9730  1.2681  0.6577
  890MPD2     C13042   4.359   2.607  14.724 -0.0376  0.0310  0.6134
  890MPD2    C113043   4.320   2.652  14.848  0.1054 -0.2995  0.4314
  890MPD2    C213044   4.300   2.572  14.949  0.4804 -0.1646  0.2012
  890MPD2    C313045   4.310   2.432  14.931 -0.1950  0.3153  0.0710
  890MPD2    C413046   4.351   2.379  14.808  0.6955  0.0733  0.3872
  890MPD2    C513047   4.370   2.465  14.705 -0.2555  0.3322  0.3294
  890MPD2     H13048   4.282   2.611  15.048 -0.5537  0.1008 -0.0944
  890MPD2    H113049   4.369   2.274  14.791  1.4586  0.5255 -1.6517
  890MPD2    H213050   4.392   2.674  14.645  0.1696  0.4978  1.1022
  890MPD2    H313051   4.418   2.432  14.613 -1.2351  1.1178 -0.4648
  890MPD2     N13052   4.267   2.351  15.035 -0.3949 -0.2930  0.3851
  890MPD2    H513053   4.210   2.384  15.113 -1.0320  2.0634 -1.0720
  890MPD2    N113054   4.295   2.794  14.858 -0.1143  0.1577 -0.4126
  890MPD2    H713055   4.320   2.835  14.769  1.9578 -2.8510 -1.2130
  891MPD2     C13056   2.224   1.397  16.094  0.5792  0.0159  0.0603
  891MPD2    C113057   2.119   1.340  16.178  0.5049 -0.0439 -0.8351
  891MPD2    C213058   2.163   1.228  16.249  0.2497  0.6197  1.0948
  891MPD2    C313059   2.290   1.184  16.249  0.0766  0.1985  0.3939
  891MPD2    C413060   2.383   1.231  16.158  0.3142  0.4793  0.0843
  891MPD2    C513061   2.346   1.338  16.082 -0.1720  0.4597 -0.0578
  891MPD2     H13062   2.089   1.175  16.306  2.6491 -0.2950  3.3487
  891MPD2    H113063   2.480   1.185  16.141  0.8127  2.3210 -2.0340
  891MPD2    H213064   2.200   1.481  16.030  0.1088  0.2400  0.5245
  891MPD2    H313065   2.418   1.383  16.015  0.4974  0.7790  0.8629
  891MPD2     N13066   2.327   1.082  16.346 -0.1097  0.2168 -0.5889
  891MPD2    H513067   2.258   1.049  16.412  0.8009  0.6271  0.5716
  891MPD2    N113068   1.990   1.396  16.189 -0.7227  0.1650  0.6617
  891MPD2    H713069   1.972   1.482  16.138  0.3712 -0.4193 -0.7314
  892MPD2     C13070   3.356   2.017  14.534 -0.3607 -0.2384 -0.6833
  892MPD2    C113071   3.252   1.955  14.597  0.2443 -0.1016  0.1917
  892MPD2    C213072   3.241   1.815  14.594 -0.3680 -0.3302 -0.2361
  892MPD2    C313073   3.341   1.741  14.545 -0.6371  0.0946  0.8474
  892MPD2    C413074   3.450   1.801  14.489 -0.0555  0.5277 -0.0282
  892MPD2    C513075   3.459   1.937  14.479 -0.1570 -0.3355  0.0446
  892MPD2     H13076   3.163   1.767  14.651 -0.2221 -3.1177 -2.3569
  892MPD2    H113077   3.529   1.741  14.444  0.8560  0.5944  1.4691
  892MPD2    H213078   3.355   2.122  14.506 -0.4630 -0.4531 -1.4964
  892MPD2    H313079   3.537   1.986  14.422 -1.7618  2.8700  0.5960
  892MPD2     N13080   3.332   1.598  14.534 -0.0741 -0.0706  0.0227
  892MPD2    H513081   3.414   1.545  14.508  0.0200  0.9910 -1.8538
  892MPD2    N113082   3.157   2.048  14.651  0.2972 -0.4015 -0.6003
  892MPD2    H713083   3.159   2.147  14.626  3.1060 -0.0072  1.1516
  893MPD2     C13084   3.577   1.268   1.233  0.4710 -0.0307  0.0129
  893MPD2    C113085   3.698   1.270   1.313 -0.7714  0.8268  0.6704
  893MPD2    C213086   3.685   1.307   1.443  0.1767 -0.4029 -0.1860
  893MPD2    C313087   3.563   1.336   1.506 -0.3995 -0.7426  0.1204
  893MPD2    C413088   3.446   1.336   1.430 -0.2445 -0.3717  0.4918
  893MPD2    C513089   3.459   1.311   1.291  0.3987  0.0753 -1.1118
  893MPD2     H13090   3.778   1.300   1.498  1.9237 -1.3149 -3.3201
  893MPD2    H113091   3.348   1.369   1.462 -1.1096 -1.0554 -1.4454
  893MPD2    H213092   3.576   1.247   1.127 -0.7832  1.6915 -0.3229
  893MPD2    H313093   3.373   1.314   1.225 -1.5690 -1.3229  1.3760
  893MPD2     N13094   3.550   1.376   1.648 -0.1861  0.6268 -0.8618
  893MPD2    H513095   3.453   1.389   1.676  0.0474 -1.5669  1.0157
  893MPD2    N113096   3.815   1.223   1.250  0.2119  1.0165  0.1534
  893MPD2    H713097   3.808   1.193   1.153 -2.9103  0.2770  0.6326
  894MPD2     C13098   2.121   3.257   1.535 -0.0587  0.1324  1.1451
  894MPD2    C113099   2.031   3.350   1.475 -0.3823  0.0915 -0.0958
  894MPD2    C213100   2.078   3.471   1.430 -0.6373  0.1404  0.2688
  894MPD2    C313101   2.213   3.502   1.440  0.2570  0.0718 -0.1597
  894MPD2    C413102   2.303   3.405   1.491 -0.1818 -0.1869  0.0231
  894MPD2    C513103   2.256   3.282   1.538 -0.1172  1.3794  0.9166
  894MPD2     H13104   2.012   3.542   1.381 -2.9035 -0.6417  2.2184
  894MPD2    H113105   2.408   3.433   1.489  0.1123 -1.2838  0.4427
  894MPD2    H213106   2.091   3.162   1.578  2.7765 -1.6651 -0.7837
  894MPD2    H313107   2.321   3.203   1.577  0.1577  1.7199  1.1459
  894MPD2     N13108   2.251   3.627   1.388 -0.5319 -0.1407 -0.3082
  894MPD2    H513109   2.172   3.689   1.373 -0.5911 -0.0684  0.3198
  894MPD2    N113110   1.890   3.328   1.468 -0.5144 -0.3388 -0.1011
  894MPD2    H713111   1.838   3.399   1.418  1.4927  2.2819  1.5782
  895MPD2     C13112   2.162   1.196  14.085  0.4258 -0.2542  0.3114
  895MPD2    C113113   2.206   1.186  13.951 -0.2565 -0.3967 -0.2814
  895MPD2    C213114   2.302   1.089  13.927 -0.1361  0.2049 -0.2465
  895MPD2    C313115   2.361   1.022  14.034 -0.3580 -0.4265  0.0373
  895MPD2    C413116   2.331   1.053  14.161  0.0874 -0.1649 -0.0273
  895MPD2    C513117   2.226   1.132  14.191  0.4719 -0.1373  0.2955
  895MPD2     H13118   2.338   1.090  13.824  0.2445 -0.4421 -0.1244
  895MPD2    H113119   2.393   1.003  14.235  1.3212 -2.0320 -2.3174
  895MPD2    H213120   2.094   1.271  14.125  0.0919 -0.1174 -0.5213
  895MPD2    H313121   2.210   1.150  14.297  0.2062 -0.4305  0.3059
  895MPD2     N13122   2.461   0.921  14.006 -0.1179 -0.0080  0.2396
  895MPD2    H513123   2.496   0.866  14.084 -1.4529 -2.0645 -0.6019
  895MPD2    N113124   2.152   1.272  13.848 -0.1783 -0.2641  0.1575
  895MPD2    H713125   2.201   1.271  13.759 -1.6387  0.8175 -0.6626
  896MPD2     C13126   3.614   0.116   1.037  0.4558 -0.1298 -0.6605
  896MPD2    C113127   3.622   4.706   1.030 -0.0610 -0.3019 -0.1769
  896MPD2    C213128   3.528   4.621   1.079 -0.6278 -0.0861 -0.1404
  896MPD2    C313129   3.422   4.675   1.148  0.4107  0.3623 -0.4989
  896MPD2    C413130   3.408   0.088   1.164  0.4862  0.0671 -0.7478
  896MPD2    C513131   3.504   0.165   1.104  0.6719 -0.5409 -0.3213
  896MPD2     H13132   3.529   4.515   1.059 -1.8749  0.0833 -1.0589
  896MPD2    H113133   3.329   0.143   1.216 -0.0083 -2.4695  1.1839
  896MPD2    H213134   3.681   0.185   0.985 -0.9107  0.7278 -1.2905
  896MPD2    H313135   3.489   0.271   1.118  0.9863 -0.6106  0.5649
  896MPD2     N13136   3.316   4.594   1.195 -0.0993  0.0664  0.3075
  896MPD2    H513137   3.311   4.497   1.162  0.6632  0.1632 -0.0896
  896MPD2    N113138   3.745   4.664   0.962  0.0231  0.9056  0.1270
  896MPD2    H713139   3.803   0.011   0.923  1.5027 -0.4102 -0.2112
  897MPD2     C13140   0.919   0.554  10.354 -0.0408 -0.3305 -0.5136
  897MPD2    C113141   0.958   0.689  10.375  0.1946 -0.1409  0.1358
  897MPD2    C213142   0.911   0.755  10.489 -0.1231  0.3740 -0.3705
  897MPD2    C313143   0.808   0.702  10.568  0.5290  0.0877 -0.2806
  897MPD2    C413144   0.770   0.565  10.546 -0.4565 -0.5676 -1.1136
  897MPD2    C513145   0.824   0.502  10.438 -0.0672 -0.1264 -0.0659
  897MPD2     H13146   0.943   0.857  10.509  0.8548  0.1166 -0.5883
  897MPD2    H113147   0.700   0.499  10.596 -0.3010 -0.6019 -0.9404
  897MPD2    H213148   0.948   0.500  10.264  2.0102 -0.2157  0.0760
  897MPD2    H313149   0.788   0.402  10.417 -0.5484  0.4279 -1.9278
  897MPD2     N13150   0.755   0.781  10.671  0.2137  0.6276 -0.6580
  897MPD2    H513151   0.800   0.868  10.697 -1.0678  0.7642  1.1100
  897MPD2    N113152   1.044   0.750  10.276 -0.3540 -0.5004 -0.4183
  897MPD2    H713153   1.073   0.691  10.199  1.5649 -0.8190  0.5412
  898MPD2     C13154   3.226   2.182  17.662  0.3941  1.0569 -0.0568
  898MPD2    C113155   3.109   2.252  17.688 -0.1298 -0.8215  0.4060
  898MPD2    C213156   2.990   2.184  17.685  0.0738  0.1328 -0.4405
  898MPD2    C313157   2.994   2.046  17.671 -0.4113 -0.0975 -0.0920
  898MPD2    C413158   3.106   1.979  17.640  0.1630  0.2303 -0.4119
  898MPD2    C513159   3.227   2.048  17.634  0.5237  0.3652  0.0242
  898MPD2     H13160   2.900   2.240  17.706  0.4730 -0.0276  1.6903
  898MPD2    H113161   3.098   1.876  17.605 -1.0206 -0.3345  1.5272
  898MPD2    H213162   3.323   2.229  17.657 -0.1661  2.0231 -1.9011
  898MPD2    H313163   3.323   2.002  17.613 -0.7446 -1.7820 -1.0934
  898MPD2     N13164   2.866   1.985  17.702 -0.4020  0.2030 -0.3569
  898MPD2    H513165   2.793   2.050   0.017  0.3154  1.4639 -1.5060
  898MPD2    N113166   3.104   2.391  17.710 -0.0137 -0.0732 -0.3343
  898MPD2    H713167   3.012   2.429   0.024  0.5498 -0.4257  2.2819
  899MPD2     C13168   3.842   3.035   0.308  0.2241  0.1808  0.2108
  899MPD2    C113169   3.723   3.029   0.243  0.0917 -0.5442 -0.7475
  899MPD2    C213170   3.615   3.023   0.321 -0.4804 -0.1842  0.0953
  899MPD2    C313171   3.613   3.021   0.458 -0.4012  0.0407 -0.1227
  899MPD2    C413172   3.734   3.039   0.526 -0.5179  0.4426 -0.1996
  899MPD2    C513173   3.846   3.038   0.446 -0.5192  0.3853  0.0693
  899MPD2     H13174   3.524   3.002   0.265 -1.3240  1.1220  0.9831
  899MPD2    H113175   3.755   3.043   0.632 -0.3026 -0.1722 -0.2229
  899MPD2    H213176   3.935   3.024   0.254  0.1217  1.4558 -0.2064
  899MPD2    H313177   3.945   3.047   0.490 -1.2973  2.5079  1.3783
  899MPD2     N13178   3.493   3.007   0.532  0.5842  0.3646 -0.3172
  899MPD2    H513179   3.497   3.014   0.634 -0.2462 -1.3039 -0.1710
  899MPD2    N113180   3.723   3.008   0.103 -0.1072  0.2505 -0.2941
  899MPD2    H713181   3.810   3.031   0.055  0.4001  1.7586  1.3455
  900MPD2     C13182   3.714   3.967  12.585 -0.1849 -0.0463  0.0830
  900MPD2    C113183   3.648   3.843  12.597 -0.2977  0.6137  0.1698
  900MPD2    C213184   3.513   3.826  12.565 -0.0326  1.2595 -0.1703
  900MPD2    C313185   3.432   3.938  12.531  0.2697  0.1287  0.2208
  900MPD2    C413186   3.495   4.061  12.530  0.2475 -0.1225 -0.2696
  900MPD2    C513187   3.631   4.072  12.551  0.2903  0.0534  0.5544
  900MPD2     H13188   3.472   3.727  12.578 -0.1469  1.6107  2.0157
  900MPD2    H113189   3.444   4.152  12.500  2.1180  1.0156 -0.0118
  900MPD2    H213190   3.817   3.981  12.618 -0.3544  0.4388  0.3908
  900MPD2    H313191   3.690   4.163  12.538  0.5684 -0.5874 -2.7150
  900MPD2     N13192   3.291   3.925  12.503 -0.4440  0.2906 -0.2913
  900MPD2    H513193   3.253   3.832  12.485 -0.6286  0.3494 -0.1993
  900MPD2    N113194   3.719   3.732  12.636 -0.1919 -0.1797  0.0079
  900MPD2    H713195   3.666   3.646  12.643  0.8760 -0.7368  1.3565
  901MPD2     C13196   3.876   2.915  13.200  1.2257 -0.4492 -0.1361
  901MPD2    C113197   3.896   2.883  13.067  0.0171 -0.2038 -0.2624
  901MPD2    C213198   3.909   2.990  12.988 -0.2644  0.2200 -0.7224
  901MPD2    C313199   3.902   3.125  13.027 -0.0407 -0.0586 -0.2191
  901MPD2    C413200   3.873   3.156  13.158 -1.1243 -0.0254 -0.2095
  901MPD2    C513201   3.858   3.045  13.237  0.1988  0.3711 -0.2945
  901MPD2     H13202   3.928   2.973  12.882  0.1588  0.2219 -0.6476
  901MPD2    H113203   3.855   3.258  13.192  1.4696 -0.0152  1.0927
  901MPD2    H213204   3.848   2.834  13.266 -2.0503  1.1878  0.4884
  901MPD2    H313205   3.814   3.063  13.334 -1.7117 -0.0098 -1.0690
  901MPD2     N13206   3.917   3.225  12.931 -0.0858  0.0469  0.9643
  901MPD2    H513207   3.946   3.184  12.842  2.2273  0.4517  1.5314
  901MPD2    N113208   3.894   2.747  13.031 -0.3104 -0.5655 -0.3847
  901MPD2    H713209   3.899   2.681  13.107  1.0704  1.6038  1.4315
  902MPD2     C13210   2.460   1.996  12.951 -0.5941  0.6714  0.2454
  902MPD2    C113211   2.473   1.976  12.819 -0.7429 -0.7422  0.2635
  902MPD2    C213212   2.500   1.851  12.780  0.2694  0.0446  0.1419
  902MPD2    C313213   2.527   1.749  12.879  0.5010  0.5623  0.1533
  902MPD2    C413214   2.522   1.779  13.018  0.7234  0.1010 -0.2992
  902MPD2    C513215   2.489   1.906  13.047  0.3125 -0.1540  0.1387
  902MPD2     H13216   2.528   1.825  12.678  0.6369  1.7555 -0.1847
  902MPD2    H113217   2.549   1.715  13.100  1.2362  2.0151  1.0296
  902MPD2    H213218   2.426   2.093  12.986 -1.7913  0.3430 -0.0194
  902MPD2    H313219   2.497   1.934  13.151  3.6475 -0.2839 -0.0895
  902MPD2     N13220   2.576   1.626  12.839  1.0227  0.0341 -0.0699
  902MPD2    H513221   2.622   1.564  12.904 -2.6926 -1.3086  1.2339
  902MPD2    N113222   2.453   2.083  12.731 -0.1959  0.2362 -0.3935
  902MPD2    H713223   2.449   2.174  12.777 -0.4806 -1.7837  3.6440
  903MPD2     C13224   2.828   1.062  12.144 -0.8391 -0.5184 -0.0146
  903MPD2    C113225   2.725   1.093  12.229 -0.0210 -0.5694  0.0400
  903MPD2    C213226   2.601   1.039  12.180  0.0512  0.4833 -0.3033
  903MPD2    C313227   2.583   0.961  12.062 -1.2313  0.0200 -0.3918
  903MPD2    C413228   2.687   0.927  11.985 -0.1037 -0.3680 -0.3640
  903MPD2    C513229   2.805   0.993  12.023 -0.1686 -0.3081  0.1969
  903MPD2     H13230   2.507   1.063  12.228  0.4487  2.8968 -0.7485
  903MPD2    H113231   2.680   0.868  11.894  0.8023  0.0918 -0.7333
  903MPD2    H213232   2.920   1.115  12.163 -0.8312 -0.8823  0.9547
  903MPD2    H313233   2.892   0.960  11.968  0.0054  3.0116 -1.5387
  903MPD2     N13234   2.453   0.913  12.036 -0.3621  0.6633  0.5330
  903MPD2    H513235   2.381   0.924  12.107  0.1578 -1.0589  1.3416
  903MPD2    N113236   2.746   1.170  12.341 -0.2345  0.5520 -0.7473
  903MPD2    H713237   2.838   1.206  12.362  0.0248  0.1137 -1.1446
  904MPD2     C13238   1.997   0.532  14.568 -0.4598 -0.0897  0.4004
  904MPD2    C113239   2.009   0.549  14.430 -0.6269  0.3864 -0.4901
  904MPD2    C213240   2.125   0.515  14.365 -0.0688  0.6714 -0.0269
  904MPD2    C313241   2.229   0.466  14.441 -0.4550 -1.0508  0.0488
  904MPD2    C413242   2.212   0.432  14.574  0.0969 -0.5628  0.5569
  904MPD2    C513243   2.102   0.481  14.641 -0.7923  0.3763  0.3461
  904MPD2     H13244   2.145   0.527  14.259 -0.1023 -3.1991 -0.4636
  904MPD2    H113245   2.281   0.373  14.634  1.3024 -2.4759 -2.7373
  904MPD2    H213246   1.911   0.573  14.620  0.4170 -0.7031  2.3182
  904MPD2    H313247   2.083   0.447  14.742  0.8560  2.0244  1.2133
  904MPD2     N13248   2.354   0.439  14.380  0.2556 -0.1662 -0.2586
  904MPD2    H513249   2.366   0.471  14.284 -1.8540 -0.9919 -0.8058
  904MPD2    N113250   1.912   0.606  14.343  0.0805  0.0590 -0.3995
  904MPD2    H713251   1.936   0.632  14.248  0.0710  2.3660  0.2324
  905MPD2     C13252   1.980   1.028  13.702 -0.0570  0.4205  0.4056
  905MPD2    C113253   2.011   0.928  13.791  0.9559  0.2589  0.4982
  905MPD2    C213254   2.111   0.835  13.763 -0.0155 -0.4102 -0.1208
  905MPD2    C313255   2.188   0.859  13.653 -0.1328  0.3062  0.5422
  905MPD2    C413256   2.173   0.972  13.575 -0.4996 -0.0935  0.4132
  905MPD2    C513257   2.059   1.048  13.594  0.2054 -0.4742 -0.4613
  905MPD2     H13258   2.123   0.745  13.822  1.0123  0.3776  0.8653
  905MPD2    H113259   2.228   0.998  13.486  3.0198  1.1147  2.9547
  905MPD2    H213260   1.906   1.101  13.733 -1.1940 -0.5081 -0.1122
  905MPD2    H313261   2.038   1.132  13.528 -1.8535 -1.9355 -1.6840
  905MPD2     N13262   2.306   0.784  13.624  0.6668 -0.3016  0.7126
  905MPD2    H513263   2.378   0.826  13.567 -0.4264  0.3153 -0.2205
  905MPD2    N113264   1.937   0.922  13.907  0.6180  0.2318 -0.5942
  905MPD2    H713265   1.876   1.003  13.909  2.3954  1.5710 -0.4905
  906MPD2     C13266   4.056   1.038  11.381  0.7214 -0.0504  0.3689
  906MPD2    C113267   4.060   0.961  11.267 -0.7227 -0.4644 -0.2007
  906MPD2    C213268   4.082   0.821  11.278 -0.0977  0.1748  0.3275
  906MPD2    C313269   4.111   0.763  11.401 -0.2013  0.0661  0.0050
  906MPD2    C413270   4.099   0.840  11.512 -0.1252  0.2148  0.1756
  906MPD2    C513271   4.065   0.977  11.500  0.1147  0.2760  0.3834
  906MPD2     H13272   4.105   0.769  11.185  0.0831  0.4206  0.2341
  906MPD2    H113273   4.098   0.800  11.613 -1.1443  0.8928  0.4405
  906MPD2    H213274   4.062   1.146  11.384  0.2593 -0.0902  3.4850
  906MPD2    H313275   4.073   1.037  11.590  0.6799  1.9292 -0.7693
  906MPD2     N13276   4.145   0.626  11.412 -0.4878 -0.3004  0.3452
  906MPD2    H513277   4.152   0.576  11.500 -1.1256 -0.4769  0.2912
  906MPD2    N113278   4.064   1.013  11.135  0.5026 -0.6432 -0.0306
  906MPD2    H713279   4.089   0.942  11.067 -0.6052  0.6362 -1.7696
  907MPD2     C13280   2.628   4.659  15.995 -0.2939 -0.2717 -0.1689
  907MPD2    C113281   2.725   4.565  15.959 -0.7613  0.3425  0.2791
  907MPD2    C213282   2.788   4.488  16.054 -0.0362  0.1451  0.3574
  907MPD2    C313283   2.764   4.512  16.188  0.2286 -0.8334  0.1274
  907MPD2    C413284   2.666   4.604  16.226  0.1689  0.1196  0.0993
  907MPD2    C513285   2.602   4.675  16.133 -0.2381 -0.0080  0.7988
  907MPD2     H13286   2.854   4.407  16.026 -1.7155 -0.3594 -2.2113
  907MPD2    H113287   2.626   4.616  16.326 -3.3593 -0.8250 -1.1864
  907MPD2    H213288   2.563   4.713  15.927 -0.2306 -0.1981 -0.1713
  907MPD2    H313289   2.521   0.016  16.154 -0.5950  0.2068 -1.2439
  907MPD2     N13290   2.839   4.443  16.288  0.5563  0.4866 -0.1495
  907MPD2    H513291   2.901   4.372  16.251  1.3821 -0.2929  2.7299
  907MPD2    N113292   2.769   4.540  15.827 -0.7248 -0.1935 -0.8212
  907MPD2    H713293   2.832   4.461  15.817 -0.5511 -0.0547 -0.8180
  908MPD2     C13294   0.957   0.444   9.561 -0.6518  0.6596  0.3181
  908MPD2    C113295   1.011   0.408   9.681 -0.1506 -0.4821  0.3734
  908MPD2    C213296   1.082   0.501   9.750 -0.1705  0.5880 -0.1814
  908MPD2    C313297   1.081   0.636   9.719  0.1432 -0.8981  0.4684
  908MPD2    C413298   1.028   0.674   9.596 -0.2464 -0.3285  0.2788
  908MPD2    C513299   0.963   0.580   9.523  0.2662  0.1007  0.2590
  908MPD2     H13300   1.115   0.463   9.845 -0.8030 -0.7798 -0.5119
  908MPD2    H113301   1.022   0.769   9.544  1.7374  0.8517  2.2238
  908MPD2    H213302   0.898   0.373   9.505 -0.3986  0.3769  0.4082
  908MPD2    H313303   0.920   0.605   9.427  0.1313  1.7670  0.7467
  908MPD2     N13304   1.133   0.733   9.806  0.6877 -0.0364 -0.3704
  908MPD2    H513305   1.181   0.708   9.891  1.4792  0.2317 -0.7381
  908MPD2    N113306   0.996   0.273   9.739 -0.1349 -0.0016 -0.3041
  908MPD2    H713307   1.060   0.256   9.816 -0.0171  0.6298 -0.2635
  909MPD2     C13308   1.409   3.362  11.505 -0.0624 -0.2297 -0.2630
  909MPD2    C113309   1.358   3.493  11.483 -0.2066  0.5215  0.1240
  909MPD2    C213310   1.295   3.553  11.584  0.4110 -0.5869  0.3239
  909MPD2    C313311   1.279   3.492  11.705  0.3508 -0.4921  0.7240
  909MPD2    C413312   1.322   3.361  11.724 -0.6788  0.1872  0.1300
  909MPD2    C513313   1.388   3.298  11.625 -0.4906 -0.0076  0.7901
  909MPD2     H13314   1.248   3.650  11.574 -0.2177 -0.6782  2.3337
  909MPD2    H113315   1.313   3.307  11.818 -1.1822  1.3402  0.7445
  909MPD2    H213316   1.452   3.315  11.418  2.2358  1.2468  0.0782
  909MPD2    H313317   1.430   3.199  11.636  1.5753  0.6155 -1.4381
  909MPD2     N13318   1.203   3.563  11.801 -0.1157  0.6455  0.5508
  909MPD2    H513319   1.169   3.654  11.772  0.3253  0.7418  0.3256
  909MPD2    N113320   1.398   3.555  11.361  0.1401 -0.2613  0.2259
  909MPD2    H713321   1.450   3.489  11.304  1.3957  1.5350 -0.7053
  910MPD2     C13322   2.297   0.294  16.537  0.3522 -0.2590  0.2090
  910MPD2    C113323   2.405   0.259  16.455  0.1236  0.6145 -0.0816
  910MPD2    C213324   2.414   0.296  16.323 -0.9234  1.0480 -0.0133
  910MPD2    C313325   2.309   0.364  16.270  0.2687 -0.1614  0.0592
  910MPD2    C413326   2.203   0.395  16.347  0.3985 -0.7883 -0.9544
  910MPD2    C513327   2.198   0.375  16.483  0.5516 -0.3394  0.5457
  910MPD2     H13328   2.497   0.270  16.259 -1.0400 -1.5701  0.9085
  910MPD2    H113329   2.125   0.449  16.296  0.0762 -0.1689  0.1836
  910MPD2    H213330   2.304   0.288  16.645  2.2085  0.9819  0.1663
  910MPD2    H313331   2.122   0.419  16.545  0.5127  2.7933 -1.6953
  910MPD2     N13332   2.302   0.407  16.134 -0.0068 -0.2123  0.1099
  910MPD2    H513333   2.224   0.464  16.105  1.5277  1.5664 -0.4946
  910MPD2    N113334   2.511   0.178  16.511  0.3365 -0.2577  0.4934
  910MPD2    H713335   2.603   0.188  16.470 -0.1618  0.8721 -0.3478
  911MPD2     C13336   0.367   0.850  16.164 -0.3636  0.0873 -0.6565
  911MPD2    C113337   0.411   0.969  16.219  0.3752 -0.1073 -0.4515
  911MPD2    C213338   0.327   1.073  16.248  0.6426 -0.5118 -0.0384
  911MPD2    C313339   0.190   1.056  16.229 -0.3112  0.5015 -0.1697
  911MPD2    C413340   0.147   0.938  16.179 -0.0482 -0.7533  0.6198
  911MPD2    C513341   0.234   0.832  16.151 -0.1793  0.3700  0.5525
  911MPD2     H13342   0.365   1.172  16.271 -0.2445  0.1096 -1.2688
  911MPD2    H113343   0.041   0.932  16.158  0.5681  0.3939 -2.7743
  911MPD2    H213344   0.432   0.770  16.132 -0.8366 -0.0874 -1.1713
  911MPD2    H313345   0.192   0.739  16.116 -0.9144  1.5699 -1.7452
  911MPD2     N13346   0.100   1.165  16.234  0.1770 -0.5853  0.2587
  911MPD2    H513347   0.006   1.137  16.209  0.2349 -0.4876 -0.0693
  911MPD2    N113348   0.549   0.980  16.236  0.3652 -0.0870 -0.6074
  911MPD2    H713349   0.603   0.901  16.202  0.8712  0.2059 -0.4920
  912MPD2     C13350   4.648   1.020  15.724 -0.0064  0.4891 -0.1199
  912MPD2    C113351   4.596   1.024  15.850 -0.2369 -0.3258 -0.6138
  912MPD2    C213352   4.587   0.902  15.915 -0.5182 -1.0100  0.1359
  912MPD2    C313353   4.635   0.784  15.853 -0.3133 -0.4338  0.7064
  912MPD2    C413354   4.671   0.791  15.723  0.0644  0.7147 -0.5104
  912MPD2    C513355   4.677   0.904  15.650  0.4131  0.8162 -0.5665
  912MPD2     H13356   4.537   0.894  16.011 -3.2273  0.4963 -1.1767
  912MPD2    H113357   4.691   0.698  15.670  0.8773  1.0889 -0.8568
  912MPD2    H213358   4.648   1.118  15.678  0.0472  0.4022 -0.3041
  912MPD2    H313359   4.706   0.904  15.546 -2.0620 -0.5746 -1.2699
  912MPD2     N13360   4.606   0.670  15.922  0.3487 -0.4393  0.3478
  912MPD2    H513361   4.553   0.670  16.008  1.2083  0.8244  0.8831
  912MPD2    N113362   4.572   1.154  15.903 -0.3999 -0.3909  0.0780
  912MPD2    H713363   4.594   1.231  15.840 -2.4643  0.4123  0.3310
  913MPD2     C13364   0.882   1.969  10.940  0.0736 -0.0474  0.2899
  913MPD2    C113365   0.978   2.064  10.913 -0.7492  0.5046  0.2160
  913MPD2    C213366   0.968   2.132  10.795 -0.4518  0.0869 -0.4102
  913MPD2    C313367   0.871   2.102  10.701 -0.1675  0.3003 -0.3087
  913MPD2    C413368   0.770   2.011  10.734 -0.0031 -0.3107 -0.6932
  913MPD2    C513369   0.781   1.942  10.852 -0.1791 -0.2122  0.0382
  913MPD2     H13370   1.041   2.211  10.777  0.5716 -0.1086  2.8932
  913MPD2    H113371   0.691   1.988  10.664 -0.8358  0.2317  0.0679
  913MPD2    H213372   0.885   1.909  11.031  1.0134 -2.0488 -1.0521
  913MPD2    H313373   0.719   1.855  10.872 -0.6467  0.1336  0.0828
  913MPD2     N13374   0.865   2.168  10.571  0.0506 -0.2180 -0.3717
  913MPD2    H513375   0.799   2.131  10.503  0.4071 -0.7161 -0.4520
  913MPD2    N113376   1.075   2.098  11.009 -0.3808  0.1862 -0.3996
  913MPD2    H713377   1.146   2.165  10.980  0.9919 -1.0297  0.1030
  914MPD2     C13378   3.403   2.414  12.240  0.0803  0.2277 -0.5543
  914MPD2    C113379   3.444   2.531  12.291  0.7599  0.3394  0.3532
  914MPD2    C213380   3.547   2.533  12.371  0.4370 -0.0612 -0.2577
  914MPD2    C313381   3.598   2.424  12.426  0.4847 -0.1346 -0.0203
  914MPD2    C413382   3.538   2.299  12.392  0.5761  0.2224  0.2789
  914MPD2    C513383   3.449   2.298  12.290 -0.3750  0.0635  0.2127
  914MPD2     H13384   3.583   2.626  12.414 -1.2181  0.7030 -0.5427
  914MPD2    H113385   3.583   2.209  12.433 -0.0554 -0.3426 -0.2770
  914MPD2    H213386   3.323   2.419  12.167 -0.5291 -2.5578 -0.0781
  914MPD2    H313387   3.405   2.210  12.246 -1.2279  0.0267  1.1300
  914MPD2     N13388   3.705   2.449  12.522 -0.2193  0.1462 -0.1593
  914MPD2    H513389   3.746   2.541  12.533 -0.2453 -0.0371  1.4328
  914MPD2    N113390   3.388   2.655  12.253 -0.5961  0.0966 -0.4868
  914MPD2    H713391   3.431   2.745  12.275 -1.4774  0.5851 -0.7989
  915MPD2     C13392   1.779   2.440  15.768 -0.7762  0.1574 -0.2516
  915MPD2    C113393   1.640   2.441  15.758 -0.1711  0.0368  0.5643
  915MPD2    C213394   1.573   2.496  15.868  0.2069 -0.1968  0.3906
  915MPD2    C313395   1.637   2.545  15.981 -0.3927  0.1309  0.3929
  915MPD2    C413396   1.777   2.544  15.991  0.0223  0.2321  0.2426
  915MPD2    C513397   1.837   2.491  15.877 -0.0191 -0.1949  0.4192
  915MPD2     H13398   1.465   2.497  15.871  0.2299 -1.4197  1.9357
  915MPD2    H113399   1.829   2.595  16.070  1.0719  0.8151 -0.8347
  915MPD2    H213400   1.844   2.397  15.693  0.4898 -0.9087  1.4569
  915MPD2    H313401   1.945   2.477  15.878 -0.2029 -1.8182 -3.7603
  915MPD2     N13402   1.549   2.598  16.079 -0.5082  0.6098  0.6507
  915MPD2    H513403   1.456   2.618  16.045 -0.2275 -1.5851 -1.4453
  915MPD2    N113404   1.580   2.371  15.650 -0.0961 -0.2861 -0.0645
  915MPD2    H713405   1.644   2.343  15.576 -0.3186 -3.0208  0.7588
  916MPD2     C13406   4.486   0.531  15.540  0.4008 -0.4031 -0.6383
  916MPD2    C113407   4.462   0.406  15.593  0.9254 -0.1099  0.2100
  916MPD2    C213408   4.562   0.306  15.560  0.0602  0.7267  0.6977
  916MPD2    C313409   4.668   0.331  15.473 -0.1853 -0.7528  0.7438
  916MPD2    C413410   4.675   0.454  15.417  0.0020 -0.4358  0.3882
  916MPD2    C513411   4.579   0.549  15.443 -0.2581 -0.4683  0.3114
  916MPD2     H13412   4.551   0.206  15.602 -2.7222 -0.1113 -2.0940
  916MPD2    H113413   0.022   0.494  15.349  1.4465 -1.1345  1.5531
  916MPD2    H213414   4.419   0.612  15.565  2.0950  0.9163 -0.4039
  916MPD2    H313415   4.593   0.655  15.425 -1.5544 -0.1796  0.9658
  916MPD2     N13416   0.049   0.234  15.459 -0.2951 -0.1070 -0.1092
  916MPD2    H513417   0.048   0.152  15.519 -0.9251 -1.0956 -1.4749
  916MPD2    N113418   4.349   0.392  15.677 -0.0281  0.2086  0.3633
  916MPD2    H713419   4.310   0.481  15.705  0.0961  0.1842  0.6151
  917MPD2     C13420   4.597   2.870  10.745 -0.6685 -0.1667  0.7160
  917MPD2    C113421   4.670   2.928  10.851 -0.1362 -0.6810  0.6282
  917MPD2    C213422   0.057   3.000  10.830 -0.4974  0.1580 -0.7968
  917MPD2    C313423   0.099   3.031  10.702 -0.7022 -0.1153 -0.2970
  917MPD2    C413424   0.019   2.989  10.598  0.3518 -0.0038  0.4483
  917MPD2    C513425   4.639   2.909  10.617 -0.1382  0.3254 -0.3466
  917MPD2     H13426   0.108   3.036  10.919 -0.7008  2.2441 -1.5314
  917MPD2    H113427   0.039   3.020  10.497  1.8363  0.2721  0.8294
  917MPD2    H213428   4.507   2.810  10.755 -1.6111  1.2061  0.3817
  917MPD2    H313429   4.586   2.860  10.537 -0.1627  0.5801 -0.4873
  917MPD2     N13430   0.210   3.107  10.679  0.2381  0.9267  0.0682
  917MPD2    H513431   0.217   3.138  10.583  0.1271 -0.7697 -0.4911
  917MPD2    N113432   4.618   2.911  10.980  0.0330 -0.2443 -0.7299
  917MPD2    H713433   4.524   2.873  10.983 -0.2493  0.5431  0.6148
  918MPD2     C13434   4.680   3.469  11.843 -0.6314 -0.4497 -0.5614
  918MPD2    C113435   0.055   3.381  11.823 -0.3598  0.1851  0.2253
  918MPD2    C213436   0.032   3.275  11.737  0.0223  0.6860  0.3635
  918MPD2    C313437   4.643   3.275  11.659  0.8684  0.4066  0.0958
  918MPD2    C413438   4.549   3.371  11.674  0.5640  0.1788  0.2646
  918MPD2    C513439   4.570   3.472  11.762  0.6826 -0.2681 -0.4027
  918MPD2     H13440   0.102   3.194  11.721 -0.9137 -0.5318  2.4123
  918MPD2    H113441   4.456   3.374  11.619  1.3311  0.2570 -1.0439
  918MPD2    H213442   4.688   3.548  11.917  0.4079 -0.1028 -1.0439
  918MPD2    H313443   4.483   3.536  11.773  1.2269  0.5447 -0.7956
  918MPD2     N13444   4.630   3.173  11.569  0.0545  0.7497 -0.1995
  918MPD2    H513445   4.710   3.112  11.558  0.5756  0.9944  2.2201
  918MPD2    N113446   0.181   3.392  11.884 -0.3392  0.0123 -0.0277
  918MPD2    H713447   0.245   3.316  11.865 -0.2266  0.0464  0.2159
  919MPD2     C13448   0.973   2.369  11.432  0.1086 -0.1141 -0.3962
  919MPD2    C113449   0.905   2.253  11.405 -0.3355 -0.0143 -0.5934
  919MPD2    C213450   0.828   2.241  11.289 -0.4711 -0.4947 -0.4981
  919MPD2    C313451   0.815   2.346  11.202 -1.0387 -0.5017  0.3220
  919MPD2    C413452   0.885   2.468  11.220 -0.3127 -0.6845  0.1690
  919MPD2    C513453   0.954   2.467  11.341 -0.7676  0.8376 -0.2503
  919MPD2     H13454   0.783   2.145  11.266 -0.7883 -0.0735 -1.6090
  919MPD2    H113455   0.882   2.557  11.159  0.1506  0.1002  1.2770
  919MPD2    H213456   1.055   2.373  11.503 -0.6826  0.3451  0.4933
  919MPD2    H313457   1.019   2.552  11.357  2.2374 -1.4467 -0.3552
  919MPD2     N13458   0.732   2.334  11.087 -0.2886  0.0056  0.0138
  919MPD2    H513459   0.683   2.245  11.079 -0.7822  0.1676  1.3252
  919MPD2    N113460   0.908   2.136  11.488  0.4664 -0.3500 -0.1112
  919MPD2    H713461   0.856   2.054  11.456  0.9650 -0.5209 -0.4878
  920MPD2     C13462   0.532   2.635  10.046 -0.8760  0.5884 -1.2211
  920MPD2    C113463   0.452   2.528  10.071  0.2436 -0.5776  0.2842
  920MPD2    C213464   0.467   2.460  10.197 -0.3021 -0.2427  0.1670
  920MPD2    C313465   0.552   2.513  10.295 -0.1801  0.3130 -0.2720
  920MPD2    C413466   0.617   2.630  10.269 -0.5377 -0.8700 -0.3380
  920MPD2    C513467   0.609   2.688  10.145 -0.6540 -0.5413  0.0277
  920MPD2     H13468   0.414   2.371  10.227 -1.0694  0.1176 -0.1270
  920MPD2    H113469   0.687   2.678  10.336  0.7992 -2.3476 -0.6752
  920MPD2    H213470   0.535   2.684   9.949 -2.1659  2.3995 -0.3582
  920MPD2    H313471   0.659   2.782  10.124  0.1398 -0.2001  3.4374
  920MPD2     N13472   0.573   2.432  10.414  0.1348 -0.1261  0.7885
  920MPD2    H513473   0.528   2.341  10.425 -0.2185  0.1990  2.1608
  920MPD2    N113474   0.352   2.489   9.981 -0.0674  0.4191  0.5553
  920MPD2    H713475   0.305   2.402  10.003  0.0870 -0.7379 -3.6728
  921MPD2     C13476   1.208   1.747  16.527 -0.2216 -0.5694  0.9648
  921MPD2    C113477   1.281   1.631  16.514 -0.0024 -0.4010  0.9452
  921MPD2    C213478   1.207   1.519  16.475  1.1219  0.1445  0.5792
  921MPD2    C313479   1.076   1.521  16.442 -0.3523  0.4140  0.0863
  921MPD2    C413480   1.005   1.632  16.460  0.1169  1.1756  0.5578
  921MPD2    C513481   1.073   1.742  16.505  0.6762  0.4779 -0.4820
  921MPD2     H13482   1.263   1.427  16.459  0.4290  0.2465 -2.4711
  921MPD2    H113483   0.897   1.640  16.450  0.0168  1.5588  1.9118
  921MPD2    H213484   1.263   1.832  16.565 -0.5964  0.3269 -0.5231
  921MPD2    H313485   1.011   1.828  16.528 -1.2920 -1.4727  1.4509
  921MPD2     N13486   1.012   1.407  16.387 -0.6304  0.2791  0.3164
  921MPD2    H513487   0.911   1.420  16.384 -0.5676  1.3429  3.1779
  921MPD2    N113488   1.424   1.630  16.498 -0.0726 -0.0070  0.4748
  921MPD2    H713489   1.468   1.718  16.524 -2.5681  1.1517  0.8886
  922MPD2     C13490   1.474   4.220  17.055  0.3538  0.0375  0.1072
  922MPD2    C113491   1.384   4.155  17.136  0.4811  0.3113 -0.2815
  922MPD2    C213492   1.400   4.024  17.169  0.2597  0.2265  0.2660
  922MPD2    C313493   1.490   3.952  17.109 -0.6031 -0.2388  0.0608
  922MPD2    C413494   1.582   4.009  17.014 -0.8309  0.2202  0.3059
  922MPD2    C513495   1.564   4.143  16.990 -0.1824  0.1084  0.4717
  922MPD2     H13496   1.343   3.991  17.255 -1.2252  0.6093 -0.5727
  922MPD2    H113497   1.655   3.960  16.951 -1.7959 -1.5928  0.5780
  922MPD2    H213498   1.481   4.328  17.042  1.2898 -0.0418 -0.0240
  922MPD2    H313499   1.630   4.185  16.915 -0.9674 -0.9613 -0.8139
  922MPD2     N13500   1.493   3.810  17.139 -0.3652 -0.2441  0.0080
  922MPD2    H513501   1.416   3.779  17.197 -1.8584 -0.6363 -2.1698
  922MPD2    N113502   1.284   4.228  17.210  0.0422 -0.7733  0.0142
  922MPD2    H713503   1.253   4.196  17.301  1.3140  3.7642  2.0645
  923MPD2     C13504   3.700   1.403   8.651  0.0684  0.2971 -0.0596
  923MPD2    C113505   3.579   1.352   8.686  1.0643 -0.1667  0.6697
  923MPD2    C213506   3.577   1.220   8.743 -0.0689  0.9927  0.2055
  923MPD2    C313507   3.693   1.164   8.791  0.1404  0.0898  0.3561
  923MPD2    C413508   3.811   1.227   8.753  0.5089 -0.3113 -1.2997
  923MPD2    C513509   3.815   1.348   8.683 -0.3208 -0.3020 -0.4082
  923MPD2     H13510   3.477   1.190   8.772 -0.7683  2.7174 -0.4543
  923MPD2    H113511   3.906   1.189   8.789  1.6418  2.1123 -1.7500
  923MPD2    H213512   3.706   1.497   8.598  2.7048 -1.4373 -2.8985
  923MPD2    H313513   3.913   1.392   8.669 -0.5076 -0.1039 -1.1194
  923MPD2     N13514   3.708   1.070   8.893  0.3116 -0.1546 -0.7429
  923MPD2    H513515   3.804   1.057   8.921 -0.2094 -0.8175  0.7241
  923MPD2    N113516   3.466   1.431   8.657 -0.3414 -0.5338  0.1617
  923MPD2    H713517   3.477   1.525   8.619 -1.3215 -0.6686 -0.4517
  924MPD2     C13518   3.042   3.735  16.925  0.1757 -0.7687 -0.1926
  924MPD2    C113519   3.093   3.856  16.974 -0.4337  0.0640 -0.2479
  924MPD2    C213520   3.097   3.956  16.884 -0.6252  0.2441 -0.1961
  924MPD2    C313521   3.065   3.933  16.749  0.1923  0.1260  0.9859
  924MPD2    C413522   3.010   3.812  16.709 -1.0388 -0.0794  0.0909
  924MPD2    C513523   3.002   3.711  16.800 -0.2360  0.1514 -0.5872
  924MPD2     H13524   3.145   4.051  16.906 -0.5811  0.2372 -0.2631
  924MPD2    H113525   2.976   3.792  16.608 -0.0012  0.1350 -0.3009
  924MPD2    H213526   3.048   3.659  17.002  0.5637  1.4388  1.9682
  924MPD2    H313527   2.972   3.612  16.767  1.6682 -0.3562 -0.8169
  924MPD2     N13528   3.084   4.043  16.658 -0.1777 -0.2547  0.3071
  924MPD2    H513529   3.126   4.124  16.702 -2.1857 -0.8145  3.2084
  924MPD2    N113530   3.133   3.867  17.109  0.6401  0.0800 -0.2667
  924MPD2    H713531   3.119   3.786  17.168  0.6320  0.4016  0.1744
  925MPD2     C13532   1.449   1.897  14.502 -0.4413 -0.0188  0.8948
  925MPD2    C113533   1.572   1.826  14.510 -0.5020 -0.1916 -0.4828
  925MPD2    C213534   1.646   1.835  14.627  0.8252  0.1542  0.3499
  925MPD2    C313535   1.589   1.893  14.738 -0.2479  0.3767 -0.4884
  925MPD2    C413536   1.470   1.965  14.723 -0.9244 -0.5980  0.4802
  925MPD2    C513537   1.400   1.972  14.607  0.2520 -0.5144  0.6756
  925MPD2     H13538   1.737   1.777  14.641  1.3151  0.4355 -1.6652
  925MPD2    H113539   1.424   2.009  14.811  2.7410 -0.5275  2.3762
  925MPD2    H213540   1.391   1.888  14.411  0.7838 -3.0144  0.4042
  925MPD2    H313541   1.300   2.012  14.615  0.3037  0.4557 -3.3716
  925MPD2     N13542   1.634   1.877  14.871  0.3381  0.3642 -0.4103
  925MPD2    H513543   1.602   1.940  14.944  0.4580 -2.4079  2.0625
  925MPD2    N113544   1.616   1.755  14.398  0.5781  0.5342 -0.2155
  925MPD2    H713545   1.571   1.763  14.307 -0.3812  2.6933  0.4632
  926MPD2     C13546   0.682   4.574  12.979  0.2161 -0.3413 -0.0640
  926MPD2    C113547   0.726   4.700  13.031  0.6152 -0.5093 -0.3502
  926MPD2    C213548   0.828   0.039  12.966 -0.1440  0.3102  0.4702
  926MPD2    C313549   0.897   4.699  12.862 -0.7803  0.2704 -0.4079
  926MPD2    C413550   0.848   4.588  12.806  0.0243  0.1601 -0.3099
  926MPD2    C513551   0.746   4.528  12.866 -0.0660  0.3793  0.2503
  926MPD2     H13552   0.856   0.140  12.996 -1.7181  0.7288  0.5142
  926MPD2    H113553   0.896   4.550  12.717 -0.6210  0.8388 -0.9435
  926MPD2    H213554   0.599   4.518  13.021  1.4106 -1.3901  0.9081
  926MPD2    H313555   0.719   4.430  12.827  0.9444  0.2356 -0.0997
  926MPD2     N13556   1.015   0.023  12.805  0.3869  0.0490  0.3468
  926MPD2    H513557   1.044   4.722  12.712 -1.3538 -0.3703 -0.0672
  926MPD2    N113558   0.654   0.034  13.135  0.6622 -0.3735 -0.2015
  926MPD2    H713559   0.689   0.126  13.158  0.6622 -0.1953 -0.9296
  927MPD2     C13560   0.867   2.559   0.660 -0.4096 -0.0591 -0.5631
  927MPD2    C113561   0.859   2.683   0.596 -0.1229  0.1347 -1.1960
  927MPD2    C213562   0.846   2.682   0.456  0.6283 -0.8143 -0.1733
  927MPD2    C313563   0.844   2.567   0.387  0.0363  0.2435 -0.3704
  927MPD2    C413564   0.849   2.446   0.449  0.1095 -0.0846  0.0912
  927MPD2    C513565   0.866   2.448   0.582 -0.1827  0.3107  0.5278
  927MPD2     H13566   0.835   2.772   0.397 -2.0770 -1.6746 -0.9630
  927MPD2    H113567   0.846   2.355   0.391  0.8827 -1.4642  2.2680
  927MPD2    H213568   0.869   2.543   0.767 -0.5738  0.5099 -0.4724
  927MPD2    H313569   0.861   2.353   0.634  2.1559 -0.5508 -0.8158
  927MPD2     N13570   0.815   2.578   0.247  0.8483 -0.0221  0.1384
  927MPD2    H513571   0.783   2.672   0.223  0.6805 -0.9957 -3.4655
  927MPD2    N113572   0.843   2.797   0.680 -0.1328 -0.7260 -0.9358
  927MPD2    H713573   0.810   2.779   0.774 -0.2274 -1.8462 -1.1802
  928MPD2     C13574   3.103   1.795   1.203 -0.9573  0.1671  0.4906
  928MPD2    C113575   3.206   1.732   1.125  0.0250  0.5708  0.7735
  928MPD2    C213576   3.174   1.695   0.997  0.5660  0.2448 -0.1042
  928MPD2    C313577   3.045   1.720   0.954 -0.1059 -0.3930  0.1883
  928MPD2    C413578   2.951   1.782   1.034  0.0688  0.2386  0.7085
  928MPD2    C513579   2.986   1.829   1.161 -0.0103 -0.9290  0.2434
  928MPD2     H13580   3.246   1.637   0.941 -0.3994 -1.0019 -0.0553
  928MPD2    H113581   2.850   1.802   1.000  0.5874 -0.5766 -1.3020
  928MPD2    H213582   3.127   1.825   1.304  2.1249  0.6594 -0.3865
  928MPD2    H313583   2.910   1.870   1.226  1.6021  0.0724  1.4956
  928MPD2     N13584   2.998   1.699   0.826 -0.4250  0.4899  0.1059
  928MPD2    H513585   2.921   1.754   0.788 -1.3068  0.1392  1.3802
  928MPD2    N113586   3.330   1.728   1.185 -0.1057  0.1506 -0.0280
  928MPD2    H713587   3.334   1.767   1.278  3.0031 -0.5162  0.0996
  929MPD2     C13588   3.825   0.671  10.556  0.6639 -0.0314 -0.2624
  929MPD2    C113589   3.740   0.577  10.511 -0.2302 -0.4557 -0.2679
  929MPD2    C213590   3.680   0.575  10.390 -0.4881  0.3516 -0.1903
  929MPD2    C313591   3.695   0.686  10.307  0.2981 -0.1462 -0.2252
  929MPD2    C413592   3.791   0.779  10.343  1.2002 -0.5489  0.1409
  929MPD2    C513593   3.851   0.777  10.465 -0.5315 -0.6143 -0.0953
  929MPD2     H13594   3.604   0.501  10.369  0.1759 -0.1420 -0.8298
  929MPD2    H113595   3.799   0.862  10.275 -0.8529  0.1969  0.8055
  929MPD2    H213596   3.867   0.669  10.656  2.5312  2.0542 -1.0239
  929MPD2    H313597   3.922   0.851  10.499  0.3641 -1.9058  0.8689
  929MPD2     N13598   3.632   0.705  10.179  0.4183 -0.8785 -0.0802
  929MPD2    H513599   3.668   0.791  10.138  0.4433 -0.4599  0.8199
  929MPD2    N113600   3.717   0.474  10.607 -0.2206  0.5631  0.2218
  929MPD2    H713601   3.784   0.482  10.683 -0.5794 -1.0037  0.7127
  930MPD2     C13602   0.421   3.188  14.080  0.2884  0.0667 -0.2052
  930MPD2    C113603   0.486   3.179  13.959 -0.4262  0.5766  0.4866
  930MPD2    C213604   0.444   3.079  13.873 -0.1532 -0.3420 -0.1666
  930MPD2    C313605   0.331   3.009  13.902  0.2321 -0.4217 -0.2595
  930MPD2    C413606   0.269   3.016  14.027 -0.9466  0.2610 -0.0183
  930MPD2    C513607   0.316   3.104  14.119  0.0693 -0.3092  0.2787
  930MPD2     H13608   0.493   3.068  13.776  0.3569 -2.9518  0.3929
  930MPD2    H113609   0.180   2.960  14.054  1.1232 -1.6410  2.8412
  930MPD2    H213610   0.436   3.272  14.146 -0.2922 -0.2967  0.3938
  930MPD2    H313611   0.265   3.110  14.215  0.4852  1.3256  0.3843
  930MPD2     N13612   0.272   2.911  13.812 -0.2794  0.2141  0.5741
  930MPD2    H513613   0.202   2.856  13.860  1.7328 -2.3880  0.5302
  930MPD2    N113614   0.589   3.266  13.932 -0.3491 -0.1824 -0.0932
  930MPD2    H713615   0.601   3.338  14.001  2.8911 -1.9853  1.2155
  931MPD2     C13616   0.556   3.350   1.285  0.0407 -0.0179 -0.2020
  931MPD2    C113617   0.566   3.233   1.213  0.0553  0.4289 -0.2307
  931MPD2    C213618   0.483   3.126   1.250 -0.1224 -0.0811 -0.8608
  931MPD2    C313619   0.392   3.137   1.351 -0.1878  1.1299  0.1243
  931MPD2    C413620   0.402   3.248   1.433 -0.1747  0.0973  0.0047
  931MPD2    C513621   0.483   3.354   1.397  0.2160  0.4683  0.2772
  931MPD2     H13622   0.470   3.055   1.170  2.1688  3.4927 -4.3831
  931MPD2    H113623   0.329   3.263   1.512  1.3991 -1.6523  1.7859
  931MPD2    H213624   0.627   3.428   1.262 -0.0515 -0.0141 -0.4773
  931MPD2    H313625   0.477   3.445   1.456  0.4005 -0.3290  1.5280
  931MPD2     N13626   0.289   3.040   1.375  0.3478  0.1534 -0.2371
  931MPD2    H513627   0.228   3.059   1.454 -1.4979 -0.8020 -1.4466
  931MPD2    N113628   0.665   3.225   1.111 -0.2562 -0.2311 -0.2296
  931MPD2    H713629   0.714   3.310   1.087  1.5296 -1.0654  0.4064
  932MPD2     C13630   2.956   0.800  11.707  0.5758 -0.0567  0.1028
  932MPD2    C113631   2.960   0.940  11.705 -0.2504 -0.4830  0.2766
  932MPD2    C213632   3.069   1.008  11.762 -0.4814  0.3880  0.2600
  932MPD2    C313633   3.177   0.935  11.815  0.0233 -0.2620  1.2239
  932MPD2    C413634   3.169   0.795  11.833 -0.0716  0.2400  0.0749
  932MPD2    C513635   3.055   0.736  11.777 -0.0880 -0.5086 -0.3879
  932MPD2     H13636   3.064   1.116  11.758  0.2782  0.3553 -1.4230
  932MPD2    H113637   3.246   0.733  11.879  1.9882  1.8822 -1.1401
  932MPD2    H213638   2.871   0.743  11.672  1.2004 -2.7203  2.8861
  932MPD2    H313639   3.057   0.628  11.777 -1.8728 -0.5359 -0.0974
  932MPD2     N13640   3.288   0.991  11.876  0.2192 -0.1402  0.3429
  932MPD2    H513641   3.358   0.935  11.923  1.6081 -0.3976 -1.9997
  932MPD2    N113642   2.848   1.015  11.651 -0.2447  0.8001 -0.3731
  932MPD2    H713643   2.839   1.115  11.670  2.0201  0.7906  0.7240
  933MPD2     C13644   3.868   1.723   1.860 -0.9865  0.2578 -0.1609
  933MPD2    C113645   3.761   1.766   1.785 -0.0259 -0.8198 -0.2037
  933MPD2    C213646   3.659   1.837   1.848 -0.0669  0.2908 -0.2341
  933MPD2    C313647   3.655   1.860   1.986  0.5743 -0.3160  0.6249
  933MPD2    C413648   3.756   1.799   2.058  0.6973  0.4399 -0.0974
  933MPD2    C513649   3.864   1.733   1.997 -0.2012 -0.1423 -0.1019
  933MPD2     H13650   3.575   1.874   1.791  0.9863  2.9986 -0.0643
  933MPD2    H113651   3.761   1.811   2.165  0.5199 -1.4550  0.1300
  933MPD2    H213652   3.956   1.677   1.818 -2.9164 -2.9146 -0.6917
  933MPD2    H313653   3.944   1.686   2.054  1.1249 -1.3235 -2.9510
  933MPD2     N13654   3.543   1.929   2.043 -0.4527 -0.7039 -0.0049
  933MPD2    H513655   3.470   1.961   1.980  0.7810 -1.1831 -1.6465
  933MPD2    N113656   3.763   1.726   1.648  0.2561 -0.7815  0.2609
  933MPD2    H713657   3.824   1.650   1.620  0.1514 -1.6532  2.3741
  934MPD2     C13658   3.564   0.012   1.547 -0.1211  0.2168  0.0887
  934MPD2    C113659   3.625   4.638   1.471 -0.2900 -0.0711  0.0444
  934MPD2    C213660   3.574   4.510   1.493  0.5670  0.1831 -0.4482
  934MPD2    C313661   3.472   4.481   1.576  0.3974 -0.6417 -0.3031
  934MPD2    C413662   3.409   4.583   1.643 -0.5168 -0.4449  0.5434
  934MPD2    C513663   3.456   4.709   1.625  0.0557  0.2072 -0.2054
  934MPD2     H13664   3.623   4.431   1.438 -1.0910 -0.7947 -0.5190
  934MPD2    H113665   3.323   4.559   1.705 -0.9255  2.4750  1.1189
  934MPD2    H213666   3.594   0.116   1.544  1.7117 -0.3040  0.4575
  934MPD2    H313667   3.402   0.066   1.667  0.1192  0.0247  0.2501
  934MPD2     N13668   3.423   4.350   1.599 -0.5021 -0.4236  0.5688
  934MPD2    H513669   3.346   4.336   1.664  0.5423 -1.5026  1.5748
  934MPD2    N113670   3.741   4.650   1.399  0.1364  0.6032  0.5531
  934MPD2    H713671   3.787   4.562   1.376  1.4936  1.4285  0.1580
  935MPD2     C13672   3.966   3.533   1.827 -0.1293 -0.9935 -0.6015
  935MPD2    C113673   3.870   3.516   1.735 -0.1445 -0.0858 -0.3378
  935MPD2    C213674   3.763   3.602   1.728 -0.3071  0.1308 -0.1050
  935MPD2    C313675   3.755   3.711   1.814  0.4759  0.7252 -0.0166
  935MPD2    C413676   3.857   3.733   1.895 -0.1776  0.3575  0.0404
  935MPD2    C513677   3.959   3.640   1.909 -0.0334  0.2815  0.1162
  935MPD2     H13678   3.686   3.582   1.655  0.5929 -3.2459 -0.1607
  935MPD2    H113679   3.851   3.818   1.962  0.8761 -0.9158  1.7430
  935MPD2    H213680   4.051   3.472   1.854  1.3261  1.7701  1.1387
  935MPD2    H313681   4.038   3.647   1.983 -0.4726  0.0027  0.6166
  935MPD2     N13682   3.654   3.812   1.805 -0.9936  0.2560 -0.2283
  935MPD2    H513683   3.675   3.889   1.867  1.7409 -1.2141  0.6765
  935MPD2    N113684   3.871   3.405   1.647 -0.7015 -0.1919  0.6546
  935MPD2    H713685   3.798   3.405   1.576  1.1547 -2.6636 -1.2234
  936MPD2     C13686   2.458   0.350  12.522  0.4933  0.7667 -0.1713
  936MPD2    C113687   2.480   0.478  12.573 -0.4122  0.8511  0.5139
  936MPD2    C213688   2.578   0.566  12.515 -0.5261 -0.4616 -0.1076
  936MPD2    C313689   2.645   0.522  12.407  0.5655 -0.2274  0.6466
  936MPD2    C413690   2.618   0.395  12.355  0.0482 -0.7589 -0.0213
  936MPD2    C513691   2.519   0.317  12.407 -0.7448 -0.2452  0.4405
  936MPD2     H13692   2.605   0.656  12.568  0.6201 -0.4070 -0.7804
  936MPD2    H113693   2.670   0.356  12.269  5.0614  0.2133  2.5418
  936MPD2    H213694   2.392   0.277  12.567  1.4889  0.5556  0.9683
  936MPD2    H313695   2.505   0.218  12.364  1.1732  0.0576 -0.8455
  936MPD2     N13696   2.744   0.612  12.367 -0.1833 -0.8729  0.1555
  936MPD2    H513697   2.751   0.697  12.421  0.1950  0.7019 -2.3899
  936MPD2    N113698   2.421   0.518  12.694 -0.4625  0.2481  0.1867
  936MPD2    H713699   2.442   0.615  12.715 -0.6487 -0.2253  2.5458
  937MPD2     C13700   0.944   1.516  11.332  0.5886  0.5920  0.3717
  937MPD2    C113701   1.044   1.609  11.349 -0.3020  0.3155  0.1957
  937MPD2    C213702   1.090   1.671  11.231 -1.0499  0.2689  0.1850
  937MPD2    C313703   1.061   1.623  11.102  0.1729 -0.1929 -0.3164
  937MPD2    C413704   0.987   1.508  11.092 -0.9142  0.2786  1.0022
  937MPD2    C513705   0.934   1.453  11.207  0.1852  0.3385 -0.3061
  937MPD2     H13706   1.155   1.756  11.249 -0.3937 -0.1657 -0.1485
  937MPD2    H113707   0.962   1.467  10.994 -0.7370  1.6643  0.3745
  937MPD2    H213708   0.887   1.480  11.417 -2.1178 -1.6826 -2.4316
  937MPD2    H313709   0.865   1.371  11.190  0.8484 -0.0006 -1.3878
  937MPD2     N13710   1.103   1.708  10.999  0.1849 -0.0969  0.3170
  937MPD2    H513711   1.133   1.802  11.026  3.4205 -0.3486 -2.3557
  937MPD2    N113712   1.076   1.685  11.467 -0.9269  0.3965  0.4906
  937MPD2    H713713   1.133   1.767  11.455  0.2986 -0.5917 -0.4334
  938MPD2     C13714   2.609   3.066   0.883 -0.2353  0.4290 -0.7566
  938MPD2    C113715   2.577   3.147   0.990  0.4529  0.5458  0.0531
  938MPD2    C213716   2.600   3.114   1.126 -0.0565 -0.4188  0.2067
  938MPD2    C313717   2.658   2.997   1.161  0.8198  0.5148 -0.1469
  938MPD2    C413718   2.693   2.916   1.058  0.3861 -0.5584  0.8159
  938MPD2    C513719   2.670   2.951   0.922  0.7323 -0.1631 -0.3511
  938MPD2     H13720   2.564   3.185   1.199 -0.4216  0.5546 -0.9135
  938MPD2    H113721   2.743   2.823   1.083  0.6436 -0.5198  0.4574
  938MPD2    H213722   2.583   3.078   0.778  1.3127 -2.2158 -1.4417
  938MPD2    H313723   2.691   2.878   0.844 -0.4385 -0.4511 -0.3924
  938MPD2     N13724   2.678   2.951   1.292 -0.1636 -0.1299  0.5641
  938MPD2    H513725   2.728   2.863   1.300 -0.2676 -0.1521  0.9922
  938MPD2    N113726   2.528   3.283   0.970 -0.0094 -0.0844 -0.3528
  938MPD2    H713727   2.534   3.359   1.037 -0.8222  1.0898 -1.5934
  939MPD2     C13728   3.894   4.117   0.832  0.1729  0.0812  0.0324
  939MPD2    C113729   3.807   4.102   0.726  0.0028 -0.0018 -0.4640
  939MPD2    C213730   3.845   4.009   0.626  0.2156 -0.0458 -0.2060
  939MPD2    C313731   3.946   3.921   0.638 -0.4852 -0.1712  0.0229
  939MPD2    C413732   4.020   3.927   0.753  0.0574 -0.7571  0.3254
  939MPD2    C513733   3.994   4.025   0.846 -0.7276  0.9374  0.5655
  939MPD2     H13734   3.788   4.011   0.534 -2.1208  2.4747  1.2784
  939MPD2    H113735   4.111   3.873   0.778 -0.0491 -0.7116  0.8070
  939MPD2    H213736   3.877   4.187   0.913  0.3689 -0.3935  0.4795
  939MPD2    H313737   4.056   4.038   0.934  0.2965 -0.6231  0.0588
  939MPD2     N13738   3.978   3.843   0.527 -0.2290 -0.6531  0.4091
  939MPD2    H513739   3.909   3.850   0.453  0.4922  1.6164 -0.0464
  939MPD2    N113740   3.689   4.183   0.724  0.1537 -0.2722 -0.7030
  939MPD2    H713741   3.682   4.256   0.794 -0.8753 -1.0347 -0.0204
  940MPD2     C13742   2.838   0.019  13.076 -0.3764 -0.3645  0.2224
  940MPD2    C113743   2.954   0.070  13.124  0.7245 -0.4211 -0.2168
  940MPD2    C213744   3.056   0.113  13.036 -0.1240 -0.0938 -0.4912
  940MPD2    C313745   3.038   0.096  12.902 -0.2088  0.8340  0.1443
  940MPD2    C413746   2.922   0.044  12.847 -0.6796  0.4923  0.1842
  940MPD2    C513747   2.827   0.001  12.938  0.0642 -0.5153  0.5495
  940MPD2     H13748   3.147   0.159  13.073  0.3487 -2.7178  1.5964
  940MPD2    H113749   2.916   0.028  12.740  0.9805  0.1901  0.1418
  940MPD2    H213750   2.759   4.715  13.143 -1.0745  0.2789 -0.2931
  940MPD2    H313751   2.743   4.674  12.896  1.1522 -0.3777 -1.8171
  940MPD2     N13752   3.135   0.145  12.809 -0.1599 -0.1628  0.7245
  940MPD2    H513753   3.113   0.138  12.710 -1.8884  1.5347  0.9880
  940MPD2    N113754   2.978   0.075  13.261  0.2842 -0.0688 -0.4200
  940MPD2    H713755   3.077   0.084  13.281  0.2087 -1.1168  0.4365
  941MPD2     C13756   2.678   3.929   9.746 -0.5392 -0.1315  0.7170
  941MPD2    C113757   2.784   3.845   9.751 -0.1708 -0.8110  0.2052
  941MPD2    C213758   2.762   3.712   9.750 -0.2542  0.2325 -0.2690
  941MPD2    C313759   2.632   3.660   9.745  0.0379  0.0225  0.0515
  941MPD2    C413760   2.524   3.741   9.739  0.5127 -0.2874  0.2732
  941MPD2    C513761   2.548   3.874   9.747 -0.5021  0.0426  0.6973
  941MPD2     H13762   2.845   3.643   9.753 -0.6330 -0.1410  1.6785
  941MPD2    H113763   2.426   3.698   9.722  0.5937 -0.3630  0.0106
  941MPD2    H213764   2.691   4.036   9.748 -0.4749 -0.1041 -0.9101
  941MPD2    H313765   2.461   3.938   9.737 -0.4068  0.2502  1.1961
  941MPD2     N13766   2.607   3.523   9.734  0.1804  0.2877 -0.0639
  941MPD2    H513767   2.509   3.502   9.719  0.4326 -1.5374  0.7258
  941MPD2    N113768   2.911   3.903   9.748 -0.4461 -0.2048 -0.2581
  941MPD2    H713769   2.919   4.004   9.743 -0.2522 -0.1946  0.3084
  942MPD2     C13770   2.097   0.678   9.599  0.4487 -0.1211 -0.6665
  942MPD2    C113771   2.196   0.719   9.520  0.4226 -0.1104  1.0493
  942MPD2    C213772   2.311   0.755   9.579 -0.3062 -0.2553  0.1767
  942MPD2    C313773   2.342   0.741   9.715  0.3825  0.4859 -0.0197
  942MPD2    C413774   2.239   0.688   9.791  0.3015  0.0566 -0.6529
  942MPD2    C513775   2.123   0.662   9.736 -0.6871  0.0424 -0.3413
  942MPD2     H13776   2.386   0.782   9.505  2.8148 -1.2705  3.0068
  942MPD2    H113777   2.262   0.684   9.897 -0.6407 -3.4891 -0.5739
  942MPD2    H213778   1.998   0.655   9.561  0.6698  1.3216 -2.1126
  942MPD2    H313779   2.041   0.627   9.799 -1.6026 -1.0060 -2.1082
  942MPD2     N13780   2.469   0.767   9.774  0.3640 -0.5539  0.6476
  942MPD2    H513781   2.471   0.746   9.873  0.0432 -2.7111  0.1863
  942MPD2    N113782   2.180   0.754   9.384 -0.2492  0.0105 -0.3760
  942MPD2    H713783   2.257   0.802   9.337  0.0627  0.0364  0.1510
  943MPD2     C13784   1.320   3.077   9.409 -1.0838  0.5973  1.1357
  943MPD2    C113785   1.453   3.077   9.428 -0.2207 -0.2967  0.5176
  943MPD2    C213786   1.530   3.154   9.353 -0.0202 -0.7706  0.2312
  943MPD2    C313787   1.477   3.261   9.285  0.4624 -0.0138  0.0638
  943MPD2    C413788   1.344   3.261   9.260 -0.5557 -0.0828 -0.2020
  943MPD2    C513789   1.263   3.168   9.321 -0.0105 -0.8138  0.3137
  943MPD2     H13790   1.638   3.145   9.359  0.1281  1.6495  1.1407
  943MPD2    H113791   1.288   3.333   9.201  0.0616  0.3287 -0.2881
  943MPD2    H213792   1.256   3.003   9.454 -0.0609 -0.6019  0.6124
  943MPD2    H313793   1.155   3.159   9.319  0.0580 -1.3377 -0.8516
  943MPD2     N13794   1.544   3.375   9.238  0.4131  0.3860 -0.0719
  943MPD2    H513795   1.501   3.427   9.162 -2.4159 -2.1086 -0.2006
  943MPD2    N113796   1.500   2.991   9.527 -0.4934  0.0175  0.3879
  943MPD2    H713797   1.436   2.956   9.597 -1.0571 -0.0461 -0.1577
  944MPD2     C13798   1.559   3.083  10.853  0.7759 -0.6673  0.0249
  944MPD2    C113799   1.485   2.968  10.854  0.0586 -0.5693  0.4023
  944MPD2    C213800   1.420   2.928  10.970  0.0824 -0.8220 -0.2967
  944MPD2    C313801   1.416   3.019  11.076  0.4837 -0.1662  0.3119
  944MPD2    C413802   1.471   3.141  11.064  0.1986 -0.2365 -0.5178
  944MPD2    C513803   1.542   3.176  10.956  0.0738  0.9000 -0.0430
  944MPD2     H13804   1.381   2.827  10.976 -2.4143  0.1379 -0.7180
  944MPD2    H113805   1.473   3.207  11.150 -2.8726  0.0599 -0.6798
  944MPD2    H213806   1.632   3.105  10.776  0.4344 -0.8182 -0.3391
  944MPD2    H313807   1.599   3.268  10.958  1.7819 -0.1053 -1.8654
  944MPD2     N13808   1.358   2.991  11.201 -0.2375 -0.4353  0.1189
  944MPD2    H513809   1.363   3.060  11.275 -0.7588 -1.4907  1.1265
  944MPD2    N113810   1.498   2.886  10.738  0.0333  0.2524  0.3866
  944MPD2    H713811   1.585   2.903  10.688 -0.9190  1.6663 -0.7999
    1TCq1    O113812   3.360   0.093  13.314 -0.0264 -0.7804 -0.2536
    1TCq1    C113813   3.363   4.715  13.234  0.3188 -0.9053  0.2131
    1TCq1    O213814   3.271   4.638  13.214  0.3758 -0.5598  0.3588
    1TCq1    C213815   3.498   4.666  13.260  0.1734 -0.5511 -0.3564
    1TCq1    C313816   3.498   4.542  13.320 -0.1141  0.7613 -0.0227
    1TCq1    C413817   3.607   4.503  13.399 -0.0836  0.0410 -0.6991
    1TCq1    C513818   3.711   4.588  13.421 -0.0320  0.9271 -0.1734
    1TCq1    C613819   3.702   4.714  13.371 -0.5094 -0.6458  0.2328
    1TCq1    C713820   3.595   0.030  13.287  0.2955 -0.6617  0.2495
    1TCq1    C813821   3.798   0.089  13.411  0.6801 -0.5599  0.1052
    1TCq1    O413822   3.807   0.177  13.325  0.4883 -0.5734  0.0126
    1TCq1    C913823   3.612   4.372  13.461 -0.0302 -0.0304  0.4839
    1TCq1    O513824   3.544   4.281  13.401  0.3714  0.1609  0.3922
    1TCq1    O613825   3.676   4.360  13.570  0.2435 -0.1050  0.3979
    1TCq1    H113826   3.445   0.141  13.310 -0.9744  0.7938 -1.3754
    1TCq1    H213827   3.411   4.480  13.306  0.8474 -1.1824  2.5245
    1TCq1    H313828   3.799   4.559  13.477 -1.0010  0.0772  0.9105
    1TCq1    H413829   3.593   0.130  13.245  1.1707 -0.5867  0.4000
    2MPD2     C13830   4.148   0.317  13.706 -0.1232  0.0673  0.0523
    2MPD2    C113831   4.088   0.220  13.781  0.6534  0.4000 -0.0801
    2MPD2    C213832   3.988   0.138  13.722 -0.0427  0.4898 -0.0504
    2MPD2    C313833   3.959   0.159  13.594  0.8234  0.0504  0.2871
    2MPD2    C413834   4.022   0.248  13.510  0.4744 -0.7177 -0.9533
    2MPD2    C513835   4.118   0.330  13.573  0.1298 -0.7622 -0.1673
    2MPD2     H13836   3.935   0.057  13.772 -0.8619 -0.1156 -1.8914
    2MPD2    H113837   4.009   0.259  13.403 -2.3726 -0.2959 -0.5760
    2MPD2    H213838   4.230   0.376  13.745  0.0294 -0.1300  0.0309
    2MPD2    H313839   4.150   0.416  13.515 -1.3153  2.2885  3.5315
    2MPD2     N13840   3.863   0.072  13.537 -0.3740  0.4696  0.0006
    2MPD2    H513841   3.828   4.726  13.598 -1.3567  0.6983 -0.2905
    2MPD2    N113842   4.127   0.206  13.913  0.0316 -0.3720  1.0730
    2MPD2    H713843   4.199   0.269  13.947  1.0587 -1.3625  0.7479
    3TMC2    C113844   4.135   0.121  14.127  0.1995  0.3384  0.1376
    3TMC2    C213845   4.062   0.067  14.226  1.1903  0.0445 -0.3856
    3TMC2    C313846   4.124   0.025  14.345 -0.0154 -0.0290  0.7229
    3TMC2    C413847   4.266   0.130  14.148  0.7856 -0.7652  0.0963
    3TMC2    C513848   4.332   0.082  14.263  0.4153 -0.1414 -0.2450
    3TMC2    C613849   4.261   0.036  14.364 -0.0281  0.6583  0.3861
    3TMC2     C13850   4.083   0.105  13.991  0.7057 -0.3530 -0.2223
    3TMC2     O13851   3.992   0.029  13.979  0.3841  0.2731  0.6251
    3TMC2     H13852   3.955   0.058  14.216  1.3807 -0.3486 -1.9827
    3TMC2    H113853   4.322   0.158  14.059  0.0978  0.0237 -0.0910
    3TMC2    H213854   4.316   0.019  14.456  0.2808 -0.4446 -0.0025
    3TMC2    C713855   4.462   0.142  14.294  0.0138  0.9491  0.2217
    3TMC2    C813856   4.059   4.633  14.392 -0.1840  0.6643  0.0481
    3TMC2    O113857   4.533   0.085  14.373 -0.0587 -0.3286  0.1990
    3TMC2    O213858   3.946   4.608  14.352  0.7628 -0.7298 -0.4328
    3TMC2    O513859   4.150   4.540  14.389 -0.6693  0.1340  0.0600
    3TMC2    H513860   4.230   4.557  14.444 -0.5135  0.4638 -0.2677
    4MPD2     C13861   4.198   0.730  13.360 -0.3002  0.7617 -0.8160
    4MPD2    C113862   4.166   0.728  13.494 -0.0920  0.0820 -0.5655
    4MPD2    C213863   4.263   0.768  13.583 -0.0846  0.0546  0.0929
    4MPD2    C313864   4.390   0.810  13.532  0.3517  0.5468 -0.1170
    4MPD2    C413865   4.403   0.824  13.398 -0.3452 -0.5990  0.4775
    4MPD2    C513866   4.313   0.784  13.307  0.5952 -0.4386  0.1549
    4MPD2     H13867   4.251   0.761  13.691 -1.6914  2.0676  0.0494
    4MPD2    H113868   4.499   0.856  13.359 -1.3130  0.3525 -1.1614
    4MPD2    H213869   4.122   0.697  13.291  1.5296 -1.1992 -1.8973
    4MPD2    H313870   4.329   0.794  13.200 -0.4616 -0.6275 -0.0158
    4MPD2     N13871   4.489   0.844  13.630  0.7459 -0.2569 -0.9786
    4MPD2    H513872   4.453   0.866  13.722  0.2515 -0.5017 -1.1104
    4MPD2    N113873   4.049   0.658  13.527  0.2090  0.2919  0.2373
    4MPD2    H713874   3.983   0.620  13.460  1.1464  0.0122 -0.5229
    5TCq2    C113875   4.623   0.877  13.605  0.2211 -0.2528 -0.2654
    5TCq2    O213876   4.677   0.906  13.500 -0.2416 -0.1390  0.1352
    5TCq2    C213877   4.687   0.902  13.733 -0.6196  0.6685  0.0818
    5TCq2    C313878   0.096   0.936  13.734  0.1371 -0.3283  0.0113
    5TCq2    C413879   0.171   0.927  13.843 -0.4405 -0.7674  0.5055
    5TCq2    C513880   0.130   0.859  13.954 -0.2851 -0.7010 -0.4115
    5TCq2    C613881   4.717   0.825  13.955  0.6429  0.7292  0.0300
    5TCq2    C713882   4.632   0.861  13.848  0.7987  0.2307  0.2164
    5TCq2    C813883   4.665   0.715  14.031 -0.3182 -0.2714  0.3397
    5TCq2    O413884   4.546   0.715  14.049  0.3234  0.0340 -0.2698
    5TCq2    C913885   0.313   0.939  13.826  0.7890  0.3878  1.0924
    5TCq2    O513886   0.360   1.046  13.775 -0.0001 -0.5692 -0.0565
    5TCq2    O613887   0.374   0.832  13.843 -0.5009 -0.2173  0.2646
    5TCq2    H213888   0.142   0.953  13.637  0.6472  1.5060  0.5696
    5TCq2    H313889   0.208   0.829  14.023 -0.3508 -1.7190 -0.7775
    5TCq2    H413890   4.539   0.806  13.851  0.6484  0.4660 -0.1480
    6MPD1     C13891   2.595   1.535  13.783 -0.1150  0.8884 -0.3021
    6MPD1    C113892   2.714   1.535  13.723  0.0194 -0.3927  0.0378
    6MPD1    C213893   2.770   1.408  13.691  0.9167  0.1254  0.4317
    6MPD1    C313894   2.706   1.292  13.742 -0.1738  0.3185 -1.6119
    6MPD1    C413895   2.588   1.305  13.813 -0.5720  0.8091  1.2191
    6MPD1    C513896   2.529   1.427  13.828  0.0025  0.4663 -0.4993
    6MPD1     H13897   2.864   1.400  13.638  1.4026  0.8008  1.1953
    6MPD1    H113898   2.543   1.221  13.864 -2.2852  2.1816  1.9805
    6MPD1    H213899   2.550   1.633  13.791 -0.7847  0.4672  1.0605
    6MPD1    H313900   2.432   1.438  13.874 -1.1030 -3.3739 -1.8934
    6MPD1     N13901   2.749   1.160  13.722 -0.6028  0.4499 -0.4649
    6MPD1    H513902   2.699   1.082  13.763  0.5806  0.6023  1.2314
    6MPD1    N113903   2.768   1.650  13.665 -0.1896  0.1138  0.9503
    6MPD1    H613904   2.868   1.643  13.645 -0.2659  1.4692  0.0906
    6MPD1    H713905   2.753   1.734  13.720  1.6898  0.8300  0.3746
    7MPD2     C13906   3.208   0.580  14.044  0.9041 -0.0061  0.1346
    7MPD2    C113907   3.222   0.603  13.906  0.0588  0.3308  0.0115
    7MPD2    C213908   3.337   0.559  13.848 -0.0316  0.4570 -0.1789
    7MPD2    C313909   3.437   0.483  13.916  0.6935 -1.0674  0.5786
    7MPD2    C413910   3.427   0.469  14.050  0.2685  0.4348  0.4562
    7MPD2    C513911   3.312   0.518  14.109 -0.7021  0.0346 -0.3475
    7MPD2     H13912   3.348   0.568  13.741  1.0547 -1.9008 -0.2728
    7MPD2    H113913   3.500   0.419  14.113  0.6977  1.9851  1.1702
    7MPD2    H213914   3.127   0.614  14.107 -0.2289 -0.9514 -0.8344
    7MPD2    H313915   3.308   0.496  14.215  1.0109  2.6793  0.2710
    7MPD2     N13916   3.544   0.435  13.840 -0.0473 -0.2350  0.0964
    7MPD2    H513917   3.542   0.442  13.738 -0.4355  0.4889  0.1546
    7MPD2    N113918   3.127   0.669  13.824  0.2440 -0.3549  0.6399
    7MPD2    H713919   3.172   0.707  13.742 -0.5873 -1.6296 -0.3940
    8TMC3    C113920   3.768   0.388  13.783  0.2385  0.6529  0.4952
    8TMC3    C213921   3.851   0.497  13.783 -0.0693 -0.4530 -0.1666
    8TMC3    C313922   3.887   0.557  13.667 -0.1876  0.0932  0.2785
    8TMC3    C413923   3.713   0.348  13.668 -0.2603  0.1309  0.3930
    8TMC3    C513924   3.731   0.423  13.557  1.0945  0.2269  0.1869
    8TMC3    C613925   3.823   0.522  13.548  0.4988  0.0436  0.2114
    8TMC3     C13926   3.670   0.395  13.895 -0.0390  0.0144 -0.0333
    8TMC3     O13927   3.720   0.406  14.008  0.0166 -1.2299 -0.0838
    8TMC3     H13928   3.873   0.543  13.879 -1.6942  0.3245 -0.1665
    8TMC3    H113929   3.642   0.266  13.659 -1.9211  1.6562 -0.3142
    8TMC3    H213930   3.826   0.589  13.463 -0.2393 -1.3201 -0.8925
    8TMC3    C713931   3.604   0.450  13.491  0.0617  0.0626  0.6869
    8TMC3    C813932   4.004   0.636  13.656 -0.0258  0.5770 -0.5603
    8TMC3    O113933   3.511   0.428  13.561  0.0965  0.0637 -0.0399
    8TMC3    O213934   4.050   0.690  13.758  0.2281  0.0313 -0.3528
    9TMC3    C113935   2.880   0.985  13.629 -0.3162  0.2218 -0.2793
    9TMC3    C213936   2.925   0.944  13.510 -0.1388  0.2214  0.3743
    9TMC3    C313937   2.993   0.828  13.509  0.3526  0.2168  0.0443
    9TMC3    C413938   2.896   0.918  13.742 -0.5926 -0.0687 -0.0013
    9TMC3    C513939   2.960   0.795  13.732 -0.4474  0.2992 -0.2759
    9TMC3    C613940   3.001   0.744  13.613 -0.2034  0.2567  0.4516
    9TMC3     C13941   2.851   1.126  13.639 -0.3813  0.6678  0.0961
    9TMC3     O13942   2.913   1.201  13.563 -0.0067  0.7388  0.1395
    9TMC3     H13943   2.934   1.011  13.425  0.6755 -0.2657  0.0777
    9TMC3    H113944   2.852   0.948  13.837 -3.2788 -1.0524 -0.9276
    9TMC3    H213945   3.042   0.644  13.605 -1.1321 -0.0652 -0.2470
    9TMC3    C713946   3.010   0.737  13.858  0.2698 -0.7786 -0.2527
    9TMC3    C813947   3.070   0.808  13.380 -0.0031  0.2114  0.5774
    9TMC3    O113948   2.951   0.750  13.966 -0.1829 -0.0534 -0.0716
    9TMC3    O213949   3.059   0.885  13.286 -0.5228 -0.0079  0.2063
   10MPD2     C13950   3.511   0.644  13.182  0.4613  0.0218  0.5080
   10MPD2    C113951   3.502   0.585  13.309  0.6963  0.0618 -0.1552
   10MPD2    C213952   3.384   0.610  13.378 -0.4131 -0.7124  0.0581
   10MPD2    C313953   3.289   0.692  13.323 -0.0284  0.5771  0.0063
   10MPD2    C413954   3.294   0.736  13.197  0.1988  0.7949  0.8269
   10MPD2    C513955   3.411   0.713  13.130 -0.5020  0.4911 -0.4322
   10MPD2     H13956   3.362   0.574  13.478  1.5974 -1.0305  0.3919
   10MPD2    H113957   3.209   0.782  13.148 -0.9292 -0.9018  1.1712
   10MPD2    H213958   3.602   0.634  13.124 -0.3654  1.6886 -1.0500
   10MPD2    H313959   3.430   0.753  13.031 -1.0711  0.7507 -0.4357
   10MPD2     N13960   3.171   0.713  13.397 -0.2971  0.2792  0.2396
   10MPD2    H513961   3.174   0.656  13.480  1.6358  2.1575  1.4724
   10MPD2    N113962   3.612   0.513  13.364  0.2307 -0.3094 -0.6811
   10MPD2    H713963   3.700   0.511  13.314  0.9502  0.2376  0.5517
   11MPD2     C13964   4.720   0.272  14.271 -0.0822 -0.0775 -0.3199
   11MPD2    C113965   4.605   0.325  14.214 -0.0215 -0.3148  0.0271
   11MPD2    C213966   4.618   0.448  14.146 -0.4352 -0.8439  0.0825
   11MPD2    C313967   0.010   0.521  14.146  0.3305  0.1687 -0.2207
   11MPD2    C413968   0.118   0.469  14.211 -0.1506 -0.6853 -0.4622
   11MPD2    C513969   0.110   0.345  14.257 -0.1812  0.6684  0.1752
   11MPD2     H13970   4.541   0.490  14.083  1.5252 -1.4946 -2.7735
   11MPD2    H113971   0.213   0.519  14.219 -0.8859  0.6222  0.0261
   11MPD2    H213972   0.006   0.173  14.313  0.5142  1.0800  2.2390
   11MPD2    H313973   0.191   0.300  14.312  0.1570 -0.6496 -1.4005
   11MPD2     N13974   0.033   0.639  14.084 -0.7212  1.1838  0.1423
   11MPD2    H513975   0.128   0.675  14.081  0.5767 -2.0589  3.0170
   11MPD2    N113976   4.481   0.256  14.220 -0.5279 -0.2484  0.9254
   11MPD2    H713977   4.405   0.293  14.164 -0.3543 -2.8037 -1.0320
    1MPD1     C13978   1.713   1.856   0.037  0.4483 -0.6741 -0.6088
    1MPD1    C113979   1.844   1.845   0.088  0.3777 -0.2759  0.1598
    1MPD1    C213980   1.940   1.812  17.707  0.0705 -0.2786  0.6194
    1MPD1    C313981   1.918   1.801  17.566  0.9615  0.4891 -0.3129
    1MPD1    C413982   1.786   1.820  17.522 -0.1660  0.0328  0.2008
    1MPD1    C513983   1.691   1.839  17.618 -0.4467  0.3231 -0.5159
    1MPD1     H13984   2.036   1.771   0.026  0.2653 -0.2594  0.0165
    1MPD1    H113985   1.754   1.800  17.420  0.0735 -3.0522  0.7534
    1MPD1    H213986   1.625   1.873   0.098  0.6285  1.1513 -0.8401
    1MPD1    H313987   1.588   1.851  17.586 -1.4480 -1.0121  2.1715
    1MPD1     N13988   2.018   1.759  17.474  0.1100 -0.2369 -0.2018
    1MPD1    H513989   1.976   1.760  17.382  1.1970  1.3075 -0.6910
    1MPD1    N113990   1.864   1.852   0.231 -0.1364 -0.3830 -0.7632
    1MPD1    H613991   1.795   1.908   0.280  0.0058 -0.7890 -0.1093
    1MPD1    H713992   1.956   1.885   0.258  0.1014  1.6268 -3.9142
    2MPD1     C13993   2.903   2.205  17.369 -0.3338  0.2651  0.0576
    2MPD1    C113994   2.777   2.246  17.413  0.0194  0.3851  0.2341
    2MPD1    C213995   2.666   2.163  17.398 -0.2913  0.9430  0.5305
    2MPD1    C313996   2.686   2.035  17.351 -0.1440 -0.8666  0.1391
    2MPD1    C413997   2.813   1.990  17.321 -0.4010 -0.2453 -0.6053
    2MPD1    C513998   2.918   2.078  17.329 -0.1673  0.1027  0.3151
    2MPD1     H13999   2.567   2.202  17.421 -0.4950  1.3352 -1.0456
    2MPD1    H114000   2.830   1.889  17.285 -0.6525 -0.4900 -0.0519
    2MPD1    H214001   2.992   2.268  17.368  1.7973 -2.6823  2.6108
    2MPD1    H314002   3.018   2.042  17.307 -0.2109  0.1411  0.0547
    2MPD1     N14003   2.571   1.954  17.341 -0.0608 -0.8875  0.0572
    2MPD1    H514004   2.486   1.988  17.383 -0.6291  0.5092 -2.2073
    2MPD1    N114005   2.755   2.382  17.436 -0.3315 -0.2823  0.6081
    2MPD1    H614006   2.835   2.429  17.477  1.4086 -1.8366 -1.0388
    2MPD1    H714007   2.674   2.401  17.494 -0.0576  4.5188 -0.5338
    3TMC3    C114008   2.417   1.813  17.249  0.1311 -0.6303  0.1500
    3TMC3    C214009   2.367   1.757  17.137  0.5555  0.1211  0.6243
    3TMC3    C314010   2.241   1.706  17.138  0.1304 -0.0886 -0.0331
    3TMC3    C414011   2.346   1.810  17.364  0.1729 -0.6156  0.2834
    3TMC3    C514012   2.223   1.754  17.368  1.2605 -0.3856  0.3534
    3TMC3    C614013   2.164   1.695  17.256 -0.0681 -0.2720  0.5090
    3TMC3     C14014   2.554   1.857  17.249 -0.0157  0.4962 -0.6885
    3TMC3     O14015   2.620   1.823  17.149 -0.1284  0.0438 -0.1728
    3TMC3     H14016   2.415   1.779  17.042 -0.7610  1.0498  0.1625
    3TMC3    H114017   2.395   1.844  17.454 -0.1620  1.7301 -0.4142
    3TMC3    H214018   2.062   1.657  17.255 -0.5748  1.1447 -1.8454
    3TMC3    C714019   2.154   1.768  17.491  0.5790  0.4289  0.4019
    3TMC3    C814020   2.185   1.670  17.011 -0.0264 -0.2017 -0.6529
    3TMC3    O114021   2.214   1.800  17.595  0.2698  0.0466 -0.1273
    3TMC3    O214022   2.064   1.648  17.017  0.0659  0.0355  0.5028
    4MPD1     C14023   2.189   1.416  16.566  0.5435  0.1773 -0.2654
    4MPD1    C114024   2.323   1.446  16.594  0.1200  0.0495  0.5183
    4MPD1    C214025   2.348   1.517  16.710  0.0768 -0.1426  0.1289
    4MPD1    C314026   2.244   1.572  16.787  0.1218 -0.1634 -0.0171
    4MPD1    C414027   2.117   1.549  16.751  0.4988 -0.3163 -0.1838
    4MPD1    C514028   2.091   1.471  16.644 -0.2718 -0.3255 -0.6391
    4MPD1     H14029   2.449   1.544  16.736 -0.6563  2.2007  0.5838
    4MPD1    H114030   2.034   1.580  16.814  1.0989  2.9957 -1.0575
    4MPD1    H214031   2.158   1.372  16.472 -2.6465  2.7999 -0.4315
    4MPD1    H314032   1.988   1.470  16.609 -0.9908  0.8364  1.4493
    4MPD1     N14033   2.271   1.636  16.912 -0.0375  0.4611 -0.4606
    4MPD1    H514034   2.367   1.652  16.939  0.4928 -0.9116 -1.5306
    4MPD1    N114035   2.421   1.393  16.513  0.7416 -0.2802  0.7514
    4MPD1    H614036   2.385   1.360  16.424 -0.1304 -0.7106  1.2664
    4MPD1    H714037   2.509   1.444  16.506 -0.8869  2.3965 -0.2074
    1TCq1    O114038   3.609   2.143  12.068  0.2498  0.5183  0.4410
    1TCq1    C114039   3.727   2.202  12.048  0.7564  0.4439  0.4017
    1TCq1    O214040   3.749   2.286  11.962 -0.0701 -0.3388  0.4284
    1TCq1    C214041   3.786   2.203  12.188  0.5503 -0.4304  0.6471
    1TCq1    C314042   3.788   2.078  12.238 -0.2663  0.0955 -0.2201
    1TCq1    C414043   3.871   2.048  12.339 -0.0808  0.3797 -0.2801
    1TCq1    C514044   3.967   2.141  12.371  0.8722 -0.3148  0.2731
    1TCq1    C614045   3.965   2.267  12.319  0.1304 -0.3350  0.4821
    1TCq1    C714046   3.878   2.309  12.217 -0.1301 -0.2614 -0.7847
    1TCq1    C814047   4.043   2.363  12.393  0.8224 -0.4031 -0.1110
    1TCq1    O414048   4.088   2.328  12.501 -0.0530  0.2525 -0.6349
    1TCq1    C914049   3.907   1.910  12.360 -0.2585 -0.2528  0.0852
    1TCq1    O514050   3.986   1.891  12.458  0.2308  0.0729  0.5460
    1TCq1    O614051   3.859   1.824  12.286 -0.4315  0.0448  1.0297
    1TCq1    H114052   3.593   2.093  12.151  0.6776  0.0995  0.2679
    1TCq1    H214053   3.740   1.992  12.195  0.7792 -0.6223  0.0568
    1TCq1    H314054   4.055   2.107  12.424  1.6677 -1.3893 -1.7336
    1TCq1    H414055   3.877   2.407  12.170  2.7374  0.2530  0.2260
    2MPD1     C14056   4.270   2.813  12.482  0.2889 -0.9818  0.0144
    2MPD1    C114057   4.187   2.828  12.369  0.3426  0.7436 -0.6165
    2MPD1    C214058   4.128   2.708  12.309 -0.0959 -0.2776  0.1993
    2MPD1    C314059   4.135   2.592  12.377 -0.1634  0.8097 -0.0782
    2MPD1    C414060   4.228   2.587  12.481 -0.3920  0.1874  0.3776
    2MPD1    C514061   4.289   2.693  12.535  0.3314  0.1828  0.3951
    2MPD1     H14062   4.070   2.711  12.218 -1.1544 -0.9409  0.8577
    2MPD1    H114063   4.249   2.495  12.535 -1.7140 -1.1181 -1.3448
    2MPD1    H214064   4.307   2.900  12.535 -1.2266  0.4170 -1.2136
    2MPD1    H314065   4.351   2.691  12.624 -1.8684  0.9645  1.9512
    2MPD1     N14066   4.060   2.485  12.330  0.0173 -0.1441 -0.3064
    2MPD1    H514067   4.009   2.494  12.242 -0.6550 -0.8624  0.0042
    2MPD1    N114068   4.150   2.956  12.330  0.7847  0.7837 -0.1475
    2MPD1    H614069   4.230   3.019  12.337  1.4941 -0.6989  5.2201
    2MPD1    H714070   4.135   2.961  12.229 -1.0153 -1.2701  0.0337
    1TCq1    O114071   4.280   2.113   9.418  0.2224 -0.3606 -0.2172
    1TCq1    C114072   4.393   2.075   9.355  0.0348 -0.3988  0.3674
    1TCq1    O214073   4.435   2.109   9.248  0.5066  0.4829  0.2332
    1TCq1    C214074   4.477   2.016   9.454  0.3191 -0.7128  0.4155
    1TCq1    C314075   4.612   2.048   9.453 -0.4418 -0.2234 -0.6313
    1TCq1    C414076   4.690   2.004   9.554 -0.1632 -0.3175 -0.7601
    1TCq1    C514077   4.642   1.906   9.638  0.5653 -0.5398  0.4496
    1TCq1    C614078   4.512   1.875   9.634  0.4459 -0.3892 -0.6338
    1TCq1    C714079   4.419   1.936   9.551 -0.3140 -0.2631 -0.2364
    1TCq1    C814080   4.459   1.771   9.713 -0.5131  0.2436  0.6721
    1TCq1    O414081   4.341   1.745   9.705  0.6912  0.3320 -0.2843
    1TCq1    C914082   0.103   2.025   9.558 -0.6481 -0.0480 -0.2229
    1TCq1    O514083   0.181   1.938   9.599 -0.3033  0.2942  0.0342
    1TCq1    O614084   0.140   2.129   9.491 -0.0839 -0.2513  0.3912
    1TCq1    H114085   4.298   2.105   9.514  1.6602 -4.9098 -0.8547
    1TCq1    H214086   4.655   2.120   9.384 -0.5883 -0.9973 -1.5305
    1TCq1    H314087   4.710   1.870   9.714  0.3288 -3.7387 -0.8467
    1TCq1    H414088   4.312   1.916   9.558 -0.7657  1.4818 -2.0443
    2MPD1     C14089   4.523   1.365  10.011  0.3215  0.1337 -0.5188
    2MPD1    C114090   4.653   1.401   9.973  0.0965 -0.4625  0.3622
    2MPD1    C214091   4.659   1.521   9.896 -0.0930 -0.5395 -0.2138
    2MPD1    C314092   4.545   1.580   9.846 -0.1992 -0.0670 -0.1062
    2MPD1    C414093   4.422   1.527   9.873  0.2700  0.1449 -0.4780
    2MPD1    C514094   4.410   1.419   9.959  0.6714  0.4018  0.2571
    2MPD1     H14095   0.025   1.572   9.873 -0.1103 -1.0258 -1.3896
    2MPD1    H114096   4.327   1.566   9.839 -0.6970 -0.1109  1.9022
    2MPD1    H214097   4.500   1.288  10.084  0.8304 -1.1875 -1.7503
    2MPD1    H314098   4.316   1.372   9.985  1.1616  0.3588  1.9580
    2MPD1     N14099   4.563   1.698   9.767  0.4540  0.0792 -0.2925
    2MPD1    H514100   4.661   1.724   9.761  0.5420 -0.4017 -0.9810
    2MPD1    N114101   0.035   1.339  10.032 -0.3348  0.8931 -0.0871
    2MPD1    H614102   0.112   1.349   9.966 -2.4879 -0.9360 -2.8750
    2MPD1    H714103   0.020   1.241  10.059 -0.8195  1.0931  0.3744
    1MPD1     C14104   0.025   2.076  11.441 -0.1857 -0.6298  0.6612
    1MPD1    C114105   0.037   1.981  11.541  0.3283 -0.4299  0.5925
    1MPD1    C214106   0.091   2.028  11.661 -0.5597  0.5434  0.5267
    1MPD1    C314107   0.116   2.159  11.682  0.5030 -0.2696 -0.7572
    1MPD1    C414108   0.097   2.253  11.584 -0.2258  0.3519  0.0871
    1MPD1    C514109   0.064   2.207  11.459  0.6969  1.2070  0.4038
    1MPD1     H14110   0.116   1.957  11.739  1.2052  1.5782  0.9016
    1MPD1    H114111   0.126   2.357  11.587  3.5742 -0.6838 -0.2308
    1MPD1    H214112   4.714   2.039  11.346 -0.5637  0.1174  0.5200
    1MPD1    H314113   0.061   2.279  11.377 -0.5428 -0.0662 -0.6860
    1MPD1     N14114   0.184   2.191  11.801 -0.2820  0.4111  0.4555
    1MPD1    H514115   0.216   2.109  11.852 -0.4193 -0.7088 -1.2338
    1MPD1    N114116   0.028   1.842  11.508  0.1505  0.4416 -0.4176
    1MPD1    H614117   4.688   1.835  11.432 -1.5827  0.1304  1.1488
    1MPD1    H714118   4.724   1.796  11.592  1.0826 -2.2698 -1.5692
    2MPD1     C14119   3.962   1.298  10.659  0.1278  0.1400 -0.2643
    2MPD1    C114120   3.925   1.310  10.788  0.1587 -0.0224  0.2708
    2MPD1    C214121   3.984   1.417  10.860  0.4441 -0.3202 -0.5552
    2MPD1    C314122   4.085   1.492  10.807  0.2652 -0.9976 -0.6386
    2MPD1    C414123   4.132   1.462  10.681  0.0687  0.3645  0.1552
    2MPD1    C514124   4.069   1.370  10.607  0.5498  0.1061 -0.0839
    2MPD1     H14125   3.938   1.439  10.956  0.0003  0.8509 -1.0372
    2MPD1    H114126   4.219   1.508  10.635  0.9843 -1.5529 -0.0104
    2MPD1    H214127   3.918   1.231  10.585 -0.3133  1.7043 -1.4179
    2MPD1    H314128   4.096   1.351  10.503 -1.3273  1.8052 -0.8790
    2MPD1     N14129   4.146   1.595  10.872 -0.0397 -0.1882 -0.2622
    2MPD1    H514130   4.213   1.646  10.815 -0.4507 -0.0002 -0.5795
    2MPD1    N114131   3.813   1.240  10.836 -0.6832 -0.1071 -0.2457
    2MPD1    H614132   3.804   1.154  10.783  1.3644 -0.9328  0.7556
    2MPD1    H714133   3.805   1.229  10.937  1.9582  0.7965  0.0657
    3MPD1     C14134   4.661   2.446  10.815 -0.1427  0.1153  0.2975
    3MPD1    C114135   4.662   2.445  10.951 -0.2785  0.3132  0.2148
    3MPD1    C214136   4.586   2.348  11.010  0.2816 -1.5035  0.2596
    3MPD1    C314137   4.537   2.237  10.941 -0.0253 -0.1593  0.4540
    3MPD1    C414138   4.563   2.231  10.807  0.1854 -0.3689 -0.2548
    3MPD1    C514139   4.621   2.339  10.743 -0.3300  0.3119  0.3968
    3MPD1     H14140   4.560   2.357  11.115  0.5203  1.3807  0.0582
    3MPD1    H114141   4.538   2.151  10.738  0.2884 -1.4279  0.9451
    3MPD1    H214142   4.706   2.526  10.757 -0.2456  0.5412  0.8094
    3MPD1    H314143   4.604   2.334  10.636  2.3048 -1.4924  0.0760
    3MPD1     N14144   4.472   2.133  11.011  0.1508 -0.7663  0.4274
    3MPD1    H514145   4.467   2.155  11.110  2.9893 -1.7995  0.8197
    3MPD1    N114146   4.684   2.569  11.015 -0.6246 -0.0800  0.1063
    3MPD1    H614147   0.032   2.623  10.972  0.2960 -1.4250  0.0251
    3MPD1    H714148   0.002   2.565  11.106  0.0881  0.3773 -0.2219
    4MPD2     C14149   0.371   2.398  11.417  0.3346  0.3345  0.3562
    4MPD2    C114150   0.458   2.328  11.498 -0.3864 -0.3725 -0.6767
    4MPD2    C214151   0.511   2.211  11.452  0.3630 -0.4208  0.5438
    4MPD2    C314152   0.481   2.163  11.328 -0.1756 -0.0037 -0.3610
    4MPD2    C414153   0.391   2.231  11.249 -0.2089 -0.1688 -0.7008
    4MPD2    C514154   0.343   2.356  11.290 -0.3194  0.3319 -0.4927
    4MPD2     H14155   0.581   2.147  11.504 -0.8675 -0.3592  2.2763
    4MPD2    H114156   0.354   2.194  11.154 -1.5272 -1.3453  0.2805
    4MPD2    H214157   0.333   2.493  11.453  0.3271  0.6490 -0.4865
    4MPD2    H314158   0.276   2.415  11.229 -0.0332 -0.4199 -1.5275
    4MPD2     N14159   0.545   2.038  11.287  0.1890  0.1463  0.1642
    4MPD2    H514160   0.610   1.997  11.353 -0.5247  2.8939  2.5458
    4MPD2    N114161   0.493   2.365  11.630 -0.3326  0.2353 -0.3551
    4MPD2    H714162   0.552   2.299  11.679  0.4494  1.1162 -0.0951
    5TMC3    C114163   0.472   2.448  11.838 -0.2204 -0.0414  0.5690
    5TMC3    C214164   0.341   2.453  11.884 -0.4099  0.6811  0.0701
    5TMC3    C314165   0.285   2.338  11.946 -0.1457 -0.6711  0.2929
    5TMC3    C414166   0.548   2.342  11.860 -0.6800  0.5882  0.5325
    5TMC3    C514167   0.490   2.227  11.915  0.3972  0.8987 -0.2125
    5TMC3    C614168   0.366   2.230  11.973 -0.2934  0.3648  0.1382
    5TMC3     C14169   0.459   2.481  11.698 -0.0970  0.0037  0.5294
    5TMC3     O14170   0.394   2.579  11.661  0.2594 -0.1507 -0.0846
    5TMC3     H14171   0.271   2.530  11.851 -0.5207  0.6584  0.2524
    5TMC3    H114172   0.650   2.342  11.823 -1.5850  1.5160 -2.0110
    5TMC3    H214173   0.316   2.140  12.006  0.9750  0.5191  2.5346
    5TMC3    C714174   0.559   2.105  11.868 -0.0576  0.6832  0.8788
    5TMC3    C814175   0.170   2.309  11.866 -0.0404  0.2801  0.3079
    5TMC3    O114176   0.651   2.124  11.794 -0.0633 -0.4712 -0.2798
    5TMC3    O214177   0.097   2.403  11.841 -0.8037  0.4404  0.2003
    6TMC3    C114178   4.241   1.718  11.047  0.3146 -0.2276  0.3125
    6TMC3    C214179   4.255   1.839  10.985  0.5217  0.5752 -0.0226
    6TMC3    C314180   4.340   1.930  11.039 -0.5430 -0.1250  0.2439
    6TMC3    C414181   4.323   1.680  11.150  0.0497 -1.0353  0.2778
    6TMC3    C514182   4.402   1.776  11.209 -0.2194  0.2938 -0.3719
    6TMC3    C614183   4.411   1.905  11.150  0.5168 -0.0896  0.0720
    6TMC3     C14184   4.140   1.616  11.009 -0.4200 -0.3294  0.8671
    6TMC3     O14185   4.092   1.553  11.102 -0.0187 -0.0273 -0.2175
    6TMC3     H14186   4.204   1.855  10.891 -0.0417 -1.1491 -0.0052
    6TMC3    H114187   4.308   1.582  11.195 -1.7036 -0.6323  0.5436
    6TMC3    H214188   4.472   1.979  11.200 -3.1144  3.7275 -1.1449
    6TMC3    C714189   4.537   1.733  11.236  0.5115  0.4938 -0.0995
    6TMC3    C814190   4.394   2.032  10.953  0.1510 -0.3621 -0.1635
    6TMC3    O114191   4.628   1.808  11.266  0.2163  0.1407 -0.0957
    6TMC3    O214192   4.354   2.021  10.836  0.4746  0.1890  0.0635
    7MPD2     C14193   0.564   1.604  11.741 -0.4096  0.0419 -0.4467
    7MPD2    C114194   0.607   1.715  11.666 -0.4416  0.1493  0.4289
    7MPD2    C214195   0.591   1.845  11.714  0.2141 -0.1344 -0.3077
    7MPD2    C314196   0.524   1.868  11.830 -0.1542 -0.3367 -0.7498
    7MPD2    C414197   0.462   1.758  11.879  0.5443  0.2734  0.6866
    7MPD2    C514198   0.482   1.629  11.843  0.6587 -0.3602 -0.0230
    7MPD2     H14199   0.619   1.931  11.654 -0.1144  0.9365  1.0845
    7MPD2    H114200   0.413   1.756  11.976 -1.2393  0.6368 -0.2119
    7MPD2    H214201   0.580   1.501  11.708 -0.2241  0.2887 -1.1340
    7MPD2    H314202   0.447   1.553  11.912 -1.4250 -1.2671 -2.0603
    7MPD2     N14203   0.488   1.990  11.887 -0.1253 -0.9012 -0.3037
    7MPD2    H514204   0.421   1.990  11.963 -0.5952 -0.6522 -0.7151
    7MPD2    N114205   0.651   1.692  11.534 -0.2102  0.1446  0.0954
    7MPD2    H714206   0.655   1.593  11.511 -1.2264  0.1956 -0.2866
    8TMC3    C114207   0.717   1.729  11.311  0.1937  0.3205 -0.3759
    8TMC3    C214208   0.638   1.618  11.296  0.5205  0.1389 -0.2081
    8TMC3    C314209   0.532   1.647  11.213  0.0465  0.3075  0.2645
    8TMC3    C414210   0.704   1.836  11.229 -0.3216  0.1111 -0.5090
    8TMC3    C514211   0.593   1.864  11.156  0.2180 -0.2994  0.3457
    8TMC3    C614212   0.505   1.761  11.142 -0.6014 -0.1128  0.3264
    8TMC3     C14213   0.713   1.782  11.448  0.1948 -0.2645 -0.8190
    8TMC3     O14214   0.735   1.905  11.462  0.3200 -0.3141  0.2617
    8TMC3     H14215   0.654   1.523  11.344  1.0925  1.5316  2.3924
    8TMC3    H114216   0.763   1.924  11.248  1.4578 -0.6476 -2.5464
    8TMC3    H214217   0.413   1.784  11.089 -2.2337  0.5630  3.4204
    8TMC3    C714218   0.536   1.993  11.160 -0.5775  0.3920 -0.4730
    8TMC3    C814219   0.432   1.547  11.195  0.4085 -0.3187 -0.4506
    8TMC3    O114220   0.494   2.042  11.058  0.4225  0.3387 -0.3060
    8TMC3    O214221   0.473   1.433  11.168  0.8914  0.3037 -0.5339
    9MPD2     C14222   0.182   1.382  11.206 -0.1638  0.3136  0.3847
    9MPD2    C114223   0.185   1.516  11.224  0.4582 -0.6117  0.2449
    9MPD2    C214224   0.068   1.577  11.263  0.1460  0.7747 -0.2055
    9MPD2    C314225   4.671   1.518  11.229 -0.7060 -0.1710 -0.3788
    9MPD2    C414226   4.670   1.388  11.192  0.1473 -0.2972 -0.4494
    9MPD2    C514227   0.060   1.320  11.176  0.3090 -0.3504 -0.0817
    9MPD2     H14228   0.080   1.680  11.294 -0.8377 -0.5537  4.4943
    9MPD2    H114229   4.577   1.342  11.161  0.1945  0.9307 -2.4235
    9MPD2    H214230   0.272   1.323  11.197 -0.0615  0.5692 -0.2473
    9MPD2    H314231   0.060   1.218  11.138  2.1749 -0.8081  1.1153
    9MPD2     N14232   4.552   1.594  11.219 -0.4869  0.8285  0.1844
    9MPD2    H514233   4.470   1.537  11.203  0.8323 -0.3198 -2.4751
    9MPD2    N114234   0.302   1.593  11.213 -0.4960 -0.4407  0.8046
    9MPD2    H714235   0.290   1.685  11.255 -3.1966 -0.6964  0.5419
    1MPD1     C14236   4.167   0.787  15.959  0.0825 -0.4601  0.0310
    1MPD1    C114237   4.236   0.682  15.902  0.0774  0.3420 -0.0244
    1MPD1    C214238   4.228   0.564  15.972 -0.2231  0.3649 -0.1014
    1MPD1    C314239   4.167   0.549  16.096  0.5231  0.4834  0.3487
    1MPD1    C414240   4.098   0.656  16.144  0.7501  0.3646  0.3850
    1MPD1    C514241   4.100   0.772  16.081 -0.1933  0.3876 -0.9219
    1MPD1     H14242   4.275   0.472  15.940  2.7606  1.1301  2.1022
    1MPD1    H114243   4.029   0.636  16.226 -1.0544  1.8270 -0.7758
    1MPD1    H214244   4.155   0.881  15.906 -2.4969 -1.1950 -0.7014
    1MPD1    H314245   4.036   0.853  16.116 -4.1296 -3.0848 -0.0636
    1MPD1     N14246   4.168   0.438  16.182  0.6449 -0.7004  0.5683
    1MPD1    H514247   4.109   0.438  16.264 -0.7044 -1.4960 -0.4062
    1MPD1    N114248   4.305   0.708  15.787  0.2065 -0.4115  0.0007
    1MPD1    H614249   4.301   0.807  15.768  3.0015 -0.4776 -0.9776
    1MPD1    H714250   4.401   0.674  15.789  1.0970  2.0851 -0.3033
    2MPD1     C14251   4.726   4.321  16.186 -0.2866  0.3288  0.1009
    2MPD1    C114252   4.716   4.434  16.109 -0.0663 -0.5447 -0.5931
    2MPD1    C214253   4.632   4.534  16.144 -0.0415 -0.0510  0.3749
    2MPD1    C314254   4.549   4.525  16.251  0.1979 -0.4160  0.1026
    2MPD1    C414255   4.565   4.413  16.333 -0.2394 -0.2253  0.2911
    2MPD1    C514256   4.653   4.312  16.300 -0.1949  0.7632  0.0003
    2MPD1     H14257   4.627   4.618  16.076 -0.3484 -1.1702 -0.9782
    2MPD1    H114258   4.518   4.401  16.430 -1.9068 -1.9154 -0.7312
    2MPD1    H214259   0.066   4.240  16.164 -2.7081 -1.8086  0.5568
    2MPD1    H314260   4.655   4.222  16.360 -0.5463  0.5912 -0.2387
    2MPD1     N14261   4.476   4.640  16.291  0.3445 -0.1860 -0.3517
    2MPD1    H514262   4.490   4.715  16.224 -0.6779 -0.8409 -1.2973
    2MPD1    N114263   0.062   4.443  15.988 -0.2682  0.0209 -0.4562
    2MPD1    H614264   0.147   4.386  15.989 -0.4076 -0.1602  0.5441
    2MPD1    H714265   0.084   4.535  15.950  0.3466  0.7539  1.6860
    3TCq2    C114266   4.387   4.654  16.394 -0.0178  0.1066 -0.3721
    3TCq2    O214267   4.367   4.573  16.480 -0.0807 -0.1328 -0.0836
    3TCq2    C214268   4.320   0.051  16.402  0.5298 -0.1085 -0.2352
    3TCq2    C314269   4.286   0.104  16.522 -0.0489 -0.4910  0.1981
    3TCq2    C414270   4.245   0.237  16.528  0.1455 -0.0196  0.0324
    3TCq2    C514271   4.221   0.313  16.412  0.5408 -0.3233 -0.0761
    3TCq2    C614272   4.251   0.253  16.295 -0.6386 -0.0202  0.4887
    3TCq2    C714273   4.299   0.123  16.291  0.1670  0.0790  1.0588
    3TCq2    C814274   4.259   0.333  16.174 -0.2174 -0.3980 -1.1260
    3TCq2    O414275   4.336   0.297  16.085  0.5850 -0.0937 -0.4424
    3TCq2    C914276   4.213   0.284  16.658  0.2846  0.4686 -0.0003
    3TCq2    O514277   4.258   0.220  16.754 -0.0050  0.0490 -0.7070
    3TCq2    O614278   4.174   0.402  16.670  0.2965  0.3256  0.2361
    3TCq2    H214279   4.306   0.042  16.608  0.4214 -0.5329  0.0578
    3TCq2    H314280   4.203   0.419  16.425 -0.1105 -0.3445 -0.8422
    3TCq2    H414281   4.335   0.087  16.196  1.4723 -1.6718  2.2113
    1TCq1    O114282   1.848   3.540  13.664 -0.3134 -0.2607  1.0545
    1TCq1    C114283   1.868   3.556  13.533 -0.2949 -0.1316 -0.0644
    1TCq1    O214284   1.881   3.464  13.450  0.2222 -0.1895 -0.4742
    1TCq1    C214285   1.943   3.681  13.514 -0.1008  0.2449 -0.1327
    1TCq1    C314286   1.948   3.774  13.619 -0.7590 -0.1397 -1.0087
    1TCq1    C414287   2.034   3.876  13.596 -0.0052 -0.3267  0.3105
    1TCq1    C514288   2.111   3.889  13.484 -0.0275  0.0270  0.3071
    1TCq1    C614289   2.099   3.792  13.385  0.1346 -0.1849 -0.3092
    1TCq1    C714290   2.013   3.689  13.398  0.1582  0.2299 -0.4391
    1TCq1    C814291   2.149   3.833  13.252  0.4412 -0.5814  0.0665
    1TCq1    O414292   2.069   3.810  13.163  0.0624 -0.3251 -0.0076
    1TCq1    C914293   2.025   3.991  13.684  0.5387 -0.8241 -0.1323
    1TCq1    O514294   2.106   4.085  13.665 -0.0663 -0.5260 -0.1138
    1TCq1    O614295   1.940   3.988  13.780  0.2468 -0.5244  0.1405
    1TCq1    H114296   1.870   3.615  13.723 -0.2285  0.8224 -0.3646
    1TCq1    H214297   1.886   3.773  13.708 -2.2118 -1.4475 -2.0266
    1TCq1    H314298   2.172   3.979  13.474  0.0352 -0.3319 -2.5576
    1TCq1    H414299   2.002   3.617  13.318  2.4475 -0.9303  0.2831
    2MPD2     C14300   2.272   3.975  13.020 -0.3720  0.6448 -0.2416
    2MPD2    C114301   2.323   3.980  13.149 -0.2714 -0.0536 -0.3816
    2MPD2    C214302   2.431   4.061  13.173  0.1142  0.5392 -0.1571
    2MPD2    C314303   2.496   4.125  13.072 -0.5814 -0.4980  0.3182
    2MPD2    C414304   2.451   4.105  12.947  0.6899 -0.2227  0.0885
    2MPD2    C514305   2.335   4.043  12.917  0.2032 -0.5340  0.4102
    2MPD2     H14306   2.477   4.065  13.271  0.7887 -0.7071 -0.4214
    2MPD2    H114307   2.491   4.158  12.861 -0.4852 -0.0910 -0.3737
    2MPD2    H214308   2.189   3.911  12.994 -1.7465  2.2588  0.1484
    2MPD2    H314309   2.297   4.024  12.817 -2.2020  0.9137  1.0377
    2MPD2     N14310   2.606   4.208  13.104  0.1566  0.0834 -0.4134
    2MPD2    H514311   2.634   4.198  13.201 -3.7221  2.0021  0.9000
    2MPD2    N114312   2.261   3.909  13.258  0.1417 -0.0349 -0.1072
    2MPD2    H714313   2.315   3.908  13.344  0.9409  3.0112 -0.5858
    3TCq1    O114314   3.219   4.495  12.974  0.7892 -0.0778  0.1849
    3TCq1    C114315   3.136   4.391  12.953 -0.1663 -0.1450  0.5095
    3TCq1    O214316   3.124   4.322  12.852 -0.7836  0.2804  0.0442
    3TCq1    C214317   3.017   4.415  13.039  0.2240 -0.0166  0.7935
    3TCq1    C314318   3.041   4.428  13.176 -0.2334 -0.0426 -0.3246
    3TCq1    C414319   2.945   4.389  13.259 -0.3719 -0.5316  1.2545
    3TCq1    C514320   2.820   4.341  13.213  0.2292 -0.5964  0.2597
    3TCq1    C614321   2.804   4.344  13.079  0.1306 -0.6731 -0.0556
    3TCq1    C714322   2.905   4.370  12.986  0.0467  0.7526 -0.4058
    3TCq1    C814323   2.686   4.279  13.013  0.2060  0.0698  0.8106
    3TCq1    O414324   2.685   4.280  12.893 -0.0226  0.9414  0.5557
    3TCq1    C914325   2.968   4.387  13.401 -0.0665  0.4449 -0.0874
    3TCq1    O514326   3.087   4.396  13.446  0.3913  0.6371  0.1896
    3TCq1    O614327   2.864   4.366  13.467  0.3632  0.8331  0.0573
    3TCq1    H114328   3.218   4.545  13.058 -0.0110  2.1449 -1.1512
    3TCq1    H214329   3.142   4.429  13.216  0.4358  0.9112 -2.0234
    3TCq1    H314330   2.739   4.314  13.280 -0.7831 -1.1013 -1.1808
    3TCq1    H414331   2.893   4.354  12.879  1.8771 -1.5226 -0.2581
    1MPD2     C14332   1.386   4.653  14.964  0.7349  0.2414  0.0872
    1MPD2    C114333   1.482   4.569  14.919  0.1092 -0.3334 -1.0133
    1MPD2    C214334   1.609   4.567  14.984  0.3178 -0.7348  0.3504
    1MPD2    C314335   1.629   4.636  15.102 -0.3404 -0.4097  0.1859
    1MPD2    C414336   1.533   4.721  15.149 -0.0785 -0.2781  0.4742
    1MPD2    C514337   1.419   0.007  15.070  0.6719 -0.4259 -0.8623
    1MPD2     H14338   1.694   4.523  14.933 -0.3769  2.1523 -3.3938
    1MPD2    H114339   1.539   0.058  15.237 -4.0648 -1.5242  1.6618
    1MPD2    H214340   1.286   4.664  14.925  0.2475 -2.3218  0.6352
    1MPD2    H314341   1.347   0.085  15.093 -1.0795 -2.5563  0.7933
    1MPD2     N14342   1.754   4.636  15.175  0.5710 -0.4981 -0.0152
    1MPD2    H514343   1.767   4.701  15.252  0.9243  0.7021 -1.0889
    1MPD2    N114344   1.458   4.507  14.793  0.2463 -0.1702  0.0794
    1MPD2    H714345   1.370   4.530  14.749  0.2850  1.3971  0.8265
    2TMC3    C114346   1.483   4.344  14.620 -0.5829  0.4020 -0.4774
    2TMC3    C214347   1.579   4.256  14.578 -0.8619 -0.1839 -0.6118
    2TMC3    C314348   1.623   4.257  14.451  0.0983  0.3359 -0.4517
    2TMC3    C414349   1.412   4.428  14.535  0.4636 -0.1620  0.5968
    2TMC3    C514350   1.470   4.433  14.412  0.4962 -0.2949 -0.3243
    2TMC3    C614351   1.568   4.351  14.365  0.0000  0.4681 -0.1367
    2TMC3     C14352   1.524   4.395  14.751 -0.2147  0.2833 -0.3688
    2TMC3     O14353   1.631   4.347  14.791 -0.4838 -0.2014  0.3567
    2TMC3     H14354   1.622   4.177  14.640 -3.9443  1.2334  3.3363
    2TMC3    H114355   1.349   4.505  14.578  3.1643  2.3742  0.0503
    2TMC3    H214356   1.608   4.353  14.264 -1.1171  2.3908 -0.5313
    2TMC3    C714357   1.413   4.522  14.313  0.2387  0.7929 -0.2200
    2TMC3    C814358   1.770   4.258  14.439 -0.2398 -1.2449  0.0747
    2TMC3    O114359   1.436   4.491  14.198  0.1393  0.1145 -0.2406
    2TMC3    O214360   1.833   4.258  14.331 -0.9247 -0.0448  0.0027
    3TCq1    O114361   0.611   0.393  14.879 -0.1503  0.4922 -0.3360
    3TCq1    C114362   0.613   0.457  14.764 -0.3586 -0.0726  0.1143
    3TCq1    O214363   0.517   0.475  14.690  0.2171 -0.6401  0.5575
    3TCq1    C214364   0.750   0.467  14.714  0.9463 -0.1698  0.0644
    3TCq1    C314365   0.850   0.500  14.801  0.0891 -0.5027  0.4346
    3TCq1    C414366   0.982   0.499  14.756 -0.6495 -0.0423  0.3262
    3TCq1    C514367   1.012   0.448  14.638  0.0994  0.0105  0.1633
    3TCq1    C614368   0.911   0.406  14.558  0.0856  0.0765 -0.3902
    3TCq1    C714369   0.777   0.418  14.588  0.3043 -0.7368 -0.1534
    3TCq1    C814370   0.940   0.324  14.443 -0.5975  0.0404  0.0782
    3TCq1    O414371   0.861   0.316  14.354  0.4804  0.4405 -0.0086
    3TCq1    C914372   1.092   0.549  14.835  0.2889  0.1681  0.1102
    3TCq1    O514373   1.200   0.493  14.811  0.0250  0.3633 -0.5119
    3TCq1    O614374   1.060   0.611  14.940  0.3039 -1.0895 -0.4031
    3TCq1    H114375   0.702   0.382  14.913 -1.2709  0.9102  2.7722
    3TCq1    H214376   0.824   0.534  14.901 -1.3243  1.2967 -0.5469
    3TCq1    H314377   1.116   0.444  14.610  0.1338 -1.2350  0.4256
    3TCq1    H414378   0.696   0.397  14.519  0.1519  1.7855 -0.7403
    4MPD2     C14379   1.059   0.143  14.239  0.2240  0.1074 -0.2759
    4MPD2    C114380   1.112   0.169  14.366 -0.6186  0.4463 -0.1680
    4MPD2    C214381   1.221   0.089  14.403  0.3471 -0.4001 -0.4451
    4MPD2    C314382   1.266   4.721  14.315 -0.8224  0.4045 -0.5110
    4MPD2    C414383   1.207   4.688  14.198  0.1932 -0.4298 -0.2803
    4MPD2    C514384   1.106   0.044  14.158 -0.3808 -0.1744  0.2101
    4MPD2     H14385   1.262   0.091  14.503  0.3290 -1.2963 -0.4163
    4MPD2    H114386   1.246   4.622  14.121 -1.5943  1.3562 -2.6960
    4MPD2    H214387   0.978   0.199  14.194 -1.3654  0.0978  2.5646
    4MPD2    H314388   1.062   0.033  14.059  1.3999  0.3261 -0.6473
    4MPD2     N14389   1.364   4.638  14.367 -0.2453  0.4024  0.2451
    4MPD2    H514390   1.391   4.660  14.463 -1.1146 -2.6161  1.1852
    4MPD2    N114391   1.063   0.257  14.456 -0.1134  0.1113  0.3392
    4MPD2    H714392   1.126   0.292  14.527  1.7792 -0.4568 -1.0690
    5TMC2    C114393   2.186   4.588  15.067 -0.3614  0.4441 -0.2685
    5TMC2    C214394   2.249   4.542  15.178  0.2533  0.1866  1.0192
    5TMC2    C314395   2.176   4.532  15.292 -0.1842  0.5872  0.2123
    5TMC2    C414396   2.060   4.635  15.074 -0.2577 -0.4208  0.6541
    5TMC2    C514397   1.987   4.617  15.185 -0.0784 -0.6089 -0.2633
    5TMC2    C614398   2.042   4.563  15.298 -0.2379  0.4925  0.7167
    5TMC2     C14399   2.217   4.528  14.941 -0.1397 -0.6419 -0.3189
    5TMC2     O14400   2.325   4.564  14.892  0.0418 -0.0214 -0.0404
    5TMC2     H14401   2.341   4.484  15.174  0.6519  0.8114  1.1185
    5TMC2    H114402   2.007   4.668  14.985  1.2591  0.3916  0.0426
    5TMC2    H214403   1.980   4.509  15.369  1.1638  0.7947  2.1537
    5TMC2    C714404   1.864   4.561  15.137  0.0815 -0.5208 -0.2347
    5TMC2    C814405   2.230   4.463  15.409 -0.6811 -0.3644  0.4021
    5TMC2    O114406   1.883   4.479  15.050  0.0593  0.8563 -0.0354
    5TMC2    O214407   2.165   4.376  15.476  0.1167  0.3288  0.5502
    5TMC2    O514408   2.296   4.560  15.472  0.5110  0.5588  0.2026
    5TMC2    H514409   2.333   4.629  15.412  2.9069  0.0717  1.0965
    6MPD2     C14410   2.055   4.322  14.515 -0.0062 -0.2446 -0.0676
    6MPD2    C114411   1.943   4.340  14.600  0.0336  0.2728 -0.0751
    6MPD2    C214412   1.960   4.386  14.721 -0.7476 -0.1247  0.0320
    6MPD2    C314413   2.085   4.423  14.761 -0.6148  0.6483 -0.8028
    6MPD2    C414414   2.201   4.404  14.681  0.3102  0.0106 -0.0958
    6MPD2    C514415   2.176   4.358  14.556  0.7867 -0.0761  0.5654
    6MPD2     H14416   1.875   4.408  14.785 -1.4128 -1.2918 -0.4521
    6MPD2    H114417   2.302   4.432  14.705  0.6263 -0.7726 -0.5100
    6MPD2    H214418   2.038   4.280  14.417 -1.8538  1.8775 -0.6348
    6MPD2    H314419   2.258   4.338  14.488  0.9234 -0.6752  0.9070
    6MPD2     N14420   2.099   4.477  14.890  0.0002  0.5111 -0.4243
    6MPD2    H514421   2.025   4.475  14.959  0.7295 -0.6423  0.3191
    6MPD2    N114422   1.814   4.309  14.560  0.2347 -0.1548  0.4923
    6MPD2    H714423   1.742   4.314  14.632  0.0197  0.7799  0.2032
  945NH3     N114424   0.035   3.278  14.375  0.0073  0.3074  0.1511
  945NH3     H214425   0.041   3.276  14.476  1.9885  0.5145  0.0299
  945NH3     H314426   0.133   3.277  14.348  0.7261 -0.2797  2.7678
  945NH3     H414427   4.727   3.371  14.356 -1.7770 -0.4828 -0.4033
  946SOD     NA14428   2.050   4.152  13.893 -0.2582 -0.4491  0.7655
  947SOD     NA14429   2.164   2.985  10.053  0.1801 -0.1679  0.3186
  948SOD     NA14430   1.174   0.568   0.445 -0.1487 -0.3051  0.0861
  949SOD     NA14431   2.641   4.265  11.954  0.5420 -0.1068 -0.0589
  950SOD     NA14432   2.676   0.925  15.867 -0.4702 -0.3979  0.1457
  951SOD     NA14433   0.847   1.677   1.847 -0.1414 -0.0098  0.0502
  952SOD     NA14434   1.357   0.042  10.843  0.0226  0.3150 -0.6874
  953SOD     NA14435   2.669   3.716   0.010 -0.3425 -0.1678  0.5805
  954SOD     NA14436   4.483   3.665  13.726  0.1059 -0.0480 -0.1149
  955SOD     NA14437   3.726   3.597  13.162 -0.3771  0.4389 -0.4633
  956SOD     NA14438   2.978   2.650   1.190 -0.2970  0.0420  0.4537
  957SOD     NA14439   2.842   3.752  11.062  0.2664  0.0827  0.4702
  958SOD     NA14440   2.949   4.242  13.630 -0.3873  0.2451  0.3896
  959SOD     NA14441   1.996   0.561  15.213  0.1736  0.2589  0.0091
  960SOD     NA14442   2.255   0.948  10.228  0.2095  0.1164 -0.1352
  961SOD     NA14443   0.999   4.145   9.716  0.1952 -0.1523 -0.1121
  962SOD     NA14444   2.121   3.443   2.455  0.2210  0.0482  0.0716
  963SOD     NA14445   0.753   3.151  10.912  0.3049  0.1142  0.8616
  964SOD     NA14446   3.372   4.268  11.478 -0.3334  0.3077 -0.1620
  965SOD     NA14447   1.050   3.599   2.066 -0.0253  0.5137  0.1947
  966SOD     NA14448   1.669   0.463  15.214  0.2095 -0.1222 -0.2448
  967SOD     NA14449   4.220   4.681   5.752 -0.0020 -0.1563  0.2496
  968SOD     NA14450   1.051   0.157   2.370  0.3302  0.1007  0.5996
  969SOD     NA14451   3.880   1.757  12.068 -0.3021 -0.2318  0.3618
  970SOD     NA14452   1.987   2.799  10.576  0.0331 -0.1942  0.1649
  971SOD     NA14453   0.613   2.081  13.503 -0.1277  0.0346 -0.4200
  972SOD     NA14454   1.730   1.276   8.826  0.0831  0.0444 -0.2136
  973SOD     NA14455   2.808   1.280  16.825 -0.1165 -0.4229  0.0940
  974SOD     NA14456   0.177   3.356  12.476  0.7243  0.2764  0.3045
  975SOD     NA14457   0.126   3.432  13.707 -0.3140 -0.1194 -0.4110
  976SOD     NA14458   4.641   0.180  13.276 -0.1861 -0.9170 -0.1591
  977SOD     NA14459   3.603   3.793  10.149 -0.0139 -0.1329  0.4659
  978SOD     NA14460   2.661   0.382   7.482  0.0557 -0.3006 -0.6476
  979SOD     NA14461   1.172   4.713  13.154 -0.4224  0.0532 -0.4551
  980SOD     NA14462   1.994   3.660  15.934  0.1126  0.0319  0.0199
  981SOD     NA14463   3.535   0.871   3.688  0.4090  0.4094 -0.0023
  982SOD     NA14464   3.708   3.186  17.021 -0.2737 -0.1763 -0.2749
  983SOD     NA14465   4.441   3.541   8.270 -0.1018  0.4406  0.2393
  984SOD     NA14466   2.186   1.894   5.234  0.1885  0.4003  0.7287
  985SOD     NA14467   1.995   2.783  10.223 -0.3377  0.4173 -0.3719
  986SOD     NA14468   0.093   4.354   1.403  0.2780 -0.0513 -0.5677
  987SOD     NA14469   2.040   3.668   0.433  0.4391  0.7908 -0.7020
  988SOD     NA14470   0.112   1.785   1.235 -0.2681 -0.4893  0.1331
  989SOD     NA14471   4.502   2.443  14.282  0.0263 -0.2030 -0.0003
  990SOD     NA14472   4.546   0.507  16.810  0.0316 -0.2162 -0.0399
  991SOD     NA14473   4.377   4.602  15.857  0.2402 -0.5162  0.4611
  992SOD     NA14474   1.049   0.744  15.105  0.0552 -0.1100 -0.1224
  993SOD     NA14475   1.774   3.701  12.463 -0.4217  0.0214 -0.1897
  994SOD     NA14476   2.692   4.389  12.433  0.1463  0.1928  0.6740
  995SOD     NA14477   2.671   4.355  13.541  0.2166 -0.1771  0.1428
  996SOD     NA14478   4.040   4.542  17.240  0.3161 -0.3281 -0.4787
  997SOD     NA14479   3.649   3.690  17.689 -0.1718  0.4457  0.2539
  998SOD     NA14480   1.546   3.981   7.708 -0.3231 -0.0421  0.3556
  999SOD     NA14481   2.124   3.081   9.718 -0.3780 -0.5156 -0.2015
 1000SOD     NA14482   0.993   3.375  10.651 -0.6384 -0.1428 -0.1999
 1001SOD     NA14483   1.156   0.076  11.064 -0.3571  0.5036  0.2466
 1002SOD     NA14484   0.416   1.079  13.566 -0.1208 -0.0743  0.0936
 1003SOD     NA14485   0.168   1.167  13.129 -0.1254  0.4486  0.3138
 1004SOD     NA14486   2.011   3.270   9.943  0.6103 -0.2504 -0.1534
 1005SOD     NA14487   1.535   2.837  14.424  0.1667  0.6552 -0.4273
 1006SOD     NA14488   2.213   2.561  10.512 -0.0366 -0.7531 -0.1222
 1007SOD     NA14489   2.265   3.399   9.416  0.0678  0.6952  0.1239
 1008SOD     NA14490   3.993   0.336   6.758  0.5812 -0.1321  0.2918
 1009SOD     NA14491   4.067   0.597  15.118 -0.5996 -0.0051  0.1473
 1010SOD     NA14492   0.959   3.792   2.520  0.3373  0.0073 -0.1209
 1011SOD     NA14493   2.147   3.119   9.394 -0.1340 -0.2539  0.4860
 1012SOL     OW14494   3.606   1.440  11.365 -0.7637  0.5696  0.9678
 1012SOL    HW114495   3.520   1.411  11.335  0.6164 -0.1662 -2.2003
 1012SOL    HW214496   3.664   1.421  11.292 -1.0792 -0.8280  1.0713
 1013SOL     OW14497   3.199   1.759   5.737 -0.0272 -0.4461 -0.3142
 1013SOL    HW114498   3.196   1.709   5.819  2.0960 -3.7991 -2.2788
 1013SOL    HW214499   3.272   1.717   5.691 -1.3037 -2.0425 -0.9212
 1014SOL     OW14500   0.695   4.559   0.248 -0.2360  0.1407 -0.6158
 1014SOL    HW114501   0.639   4.635   0.231  2.1543  2.6216  2.4301
 1014SOL    HW214502   0.654   4.495   0.191 -1.4794 -0.6597  1.1693
 1015SOL     OW14503   1.247   3.892  16.333 -0.5339  0.2258 -0.3811
 1015SOL    HW114504   1.192   3.957  16.377  1.3237  1.4048  0.1797
 1015SOL    HW214505   1.186   3.818  16.331 -0.2567 -0.0149  0.0437
 1016SOL     OW14506   4.152   1.511   2.362 -0.2395 -1.2693 -0.6583
 1016SOL    HW114507   4.119   1.597   2.337 -1.2369 -1.3028  0.5587
 1016SOL    HW214508   4.245   1.531   2.350  0.0543 -0.4827  3.1395
 1017SOL     OW14509   1.846   1.470   7.587  0.9734  0.1293  0.2365
 1017SOL    HW114510   1.876   1.484   7.677  0.2339  0.1379  0.4860
 1017SOL    HW214511   1.891   1.536   7.535  2.6854 -1.2127  0.0182
 1018SOL     OW14512   4.632   1.289   6.347 -0.3860  0.3653  0.0815
 1018SOL    HW114513   4.557   1.315   6.294  0.0647  3.0522  0.7718
 1018SOL    HW214514   4.585   1.240   6.415  2.6667 -1.8454  0.6325
 1019SOL     OW14515   0.177   4.098  11.847 -0.2425 -0.5535  0.6810
 1019SOL    HW114516   0.179   4.004  11.829  0.9711 -0.2426 -0.8361
 1019SOL    HW214517   0.084   4.114  11.865  0.2853 -0.3519  3.1232
 1020SOL     OW14518   1.150   0.163   2.764  0.1376 -0.4373  0.2326
 1020SOL    HW114519   1.146   0.207   2.848 -4.9428 -2.2663  0.9862
 1020SOL    HW214520   1.195   0.084   2.792 -0.6506 -1.1859 -0.6048
 1021SOL     OW14521   3.152   3.831   6.773 -0.8924 -0.0102 -0.2732
 1021SOL    HW114522   3.206   3.910   6.773 -1.2328  0.2214  0.3434
 1021SOL    HW214523   3.206   3.775   6.829  1.4574  0.0335 -2.4499
 1022SOL     OW14524   4.421   0.835   6.886 -0.4179  0.0455 -0.1819
 1022SOL    HW114525   4.507   0.796   6.866  0.3843  1.4804  0.4498
 1022SOL    HW214526   4.384   0.776   6.952 -1.9796  2.1120  0.7739
 1023SOL     OW14527   4.648   2.397  17.244 -0.4292 -0.0820  0.2915
 1023SOL    HW114528   4.589   2.323  17.230 -0.3637  0.3897 -2.4332
 1023SOL    HW214529   4.599   2.477  17.264 -2.1697 -1.3441  1.0568
 1024SOL     OW14530   2.420   0.360   2.737  0.0105  0.1571 -0.5164
 1024SOL    HW114531   2.473   0.282   2.752 -0.7712 -0.2605  0.0644
 1024SOL    HW214532   2.483   0.407   2.681  0.2256 -0.8056 -1.0735
 1025SOL     OW14533   2.581   0.942  16.079 -0.2507  0.5608  0.3779
 1025SOL    HW114534   2.575   0.993  16.160  1.2178 -1.0329  1.4936
 1025SOL    HW214535   2.507   0.883  16.093 -0.8734  1.2816  0.0984
 1026SOL     OW14536   1.802   2.497   1.113  0.0721  0.1587 -0.1795
 1026SOL    HW114537   1.712   2.464   1.116  0.5449 -1.0439  0.3977
 1026SOL    HW214538   1.795   2.575   1.168  0.5523  0.4679 -0.5518
 1027SOL     OW14539   1.559   1.057   8.339 -0.1035  0.2396 -0.2024
 1027SOL    HW114540   1.468   1.033   8.321  0.4930 -3.0792  1.2453
 1027SOL    HW214541   1.569   1.121   8.269  0.2666 -0.0604 -0.4243
 1028SOL     OW14542   0.274   2.707   4.655  0.2691 -0.1619 -0.0508
 1028SOL    HW114543   0.324   2.669   4.583  1.4016 -0.9675  1.1627
 1028SOL    HW214544   0.184   2.682   4.634  0.5761 -0.7677 -0.6381
 1029SOL     OW14545   3.932   0.181   4.920  0.0923 -0.2428  0.4769
 1029SOL    HW114546   3.894   0.093   4.920 -1.1940  0.3228 -0.4110
 1029SOL    HW214547   3.994   0.170   4.993 -0.2353  0.6320  0.8916
 1030SOL     OW14548   1.995   0.221   6.642  0.1233 -0.6977 -0.1046
 1030SOL    HW114549   2.067   0.167   6.611  0.9074  0.2142  0.1298
 1030SOL    HW214550   2.011   0.301   6.592  1.1898 -1.9090 -1.6672
 1031SOL     OW14551   3.473   4.390  13.750  1.0768  0.2097 -0.4881
 1031SOL    HW114552   3.416   4.437  13.690 -0.2796 -1.1091 -0.2328
 1031SOL    HW214553   3.536   4.345  13.694  1.1791 -0.1855 -0.0544
 1032SOL     OW14554   0.259   1.336   9.839  0.0704 -0.0344  0.0656
 1032SOL    HW114555   0.352   1.316   9.850  0.0680  0.1219  0.3906
 1032SOL    HW214556   0.246   1.360   9.747 -0.1943  0.7186  0.2960
 1033SOL     OW14557   3.423   2.573   5.613 -1.0151  0.1035  0.3309
 1033SOL    HW114558   3.330   2.559   5.592 -0.5700 -2.9442  0.3230
 1033SOL    HW214559   3.423   2.604   5.704  0.1212  0.2034  0.2997
 1034SOL     OW14560   4.677   3.249   5.098  0.2543 -0.1126 -0.1165
 1034SOL    HW114561   4.649   3.335   5.130  2.0921 -0.8820  3.6281
 1034SOL    HW214562   4.639   3.200   5.170  0.4045  0.9390  0.6843
 1035SOL     OW14563   0.685   3.887   3.364 -0.2137 -0.3665 -0.0993
 1035SOL    HW114564   0.712   3.978   3.348  0.0830 -0.4735 -0.2053
 1035SOL    HW214565   0.699   3.839   3.283 -2.4738 -0.0900 -0.6347
 1036SOL     OW14566   2.504   2.293   5.955 -0.2385 -0.3342  0.0305
 1036SOL    HW114567   2.527   2.269   6.046 -0.9781 -1.3394 -0.0527
 1036SOL    HW214568   2.579   2.254   5.910 -2.2135 -2.8586 -1.0612
 1037SOL     OW14569   3.157   3.588   3.516  0.4800 -0.5500 -0.7887
 1037SOL    HW114570   3.085   3.605   3.455 -0.6776 -0.6758  0.5479
 1037SOL    HW214571   3.121   3.540   3.591  0.2785  0.9663  0.0910
 1038SOL     OW14572   3.655   4.177   8.264  0.0989  0.3654 -0.1507
 1038SOL    HW114573   3.719   4.234   8.222 -1.2118  0.3021 -2.2137
 1038SOL    HW214574   3.672   4.191   8.357 -0.9705  0.4702  0.0284
 1039SOL     OW14575   1.496   1.991   5.833  0.0652  0.4113  0.1923
 1039SOL    HW114576   1.492   2.005   5.928  1.0608  1.3236  0.0951
 1039SOL    HW214577   1.482   1.896   5.831  1.6680  0.1545  1.2523
 1040SOL     OW14578   1.142   0.881   1.900 -0.5540  0.2539  0.0727
 1040SOL    HW114579   1.157   0.895   1.994 -1.7268  0.3335  0.2522
 1040SOL    HW214580   1.132   0.967   1.861  1.3793  0.1189 -0.7431
 1041SOL     OW14581   2.122   3.846   4.529 -0.0623 -0.7510 -0.5508
 1041SOL    HW114582   2.210   3.877   4.551 -0.9369  0.9423  0.5553
 1041SOL    HW214583   2.117   3.868   4.436 -0.8370 -0.4216 -0.4346
 1042SOL     OW14584   0.580   2.646   7.991  0.0096  0.2028  0.2086
 1042SOL    HW114585   0.638   2.573   8.015  1.5418  2.1873  2.5118
 1042SOL    HW214586   0.501   2.593   7.983  0.4221 -0.5310  1.0662
 1043SOL     OW14587   2.877   3.927  10.925 -0.7029 -0.5016 -0.0546
 1043SOL    HW114588   2.822   3.974  10.862  1.5195  0.7410 -1.0653
 1043SOL    HW214589   2.938   3.992  10.961 -1.1505 -1.8453  3.1318
 1044SOL     OW14590   2.528   2.285   4.717 -0.1410 -0.4020 -0.2464
 1044SOL    HW114591   2.488   2.221   4.776 -1.1154 -0.0221 -0.4851
 1044SOL    HW214592   2.486   2.253   4.637  0.3275 -0.8229 -0.3217
 1045SOL     OW14593   2.503   0.911  12.542 -0.5477 -0.4044  0.7766
 1045SOL    HW114594   2.592   0.877  12.540 -1.0779 -1.5870 -3.1497
 1045SOL    HW214595   2.511   1.003  12.520  4.3118 -0.8439  0.6987
 1046SOL     OW14596   1.123   3.654   5.619 -0.1726  0.3933  0.1393
 1046SOL    HW114597   1.135   3.574   5.669  1.8052 -0.3696 -1.5563
 1046SOL    HW214598   1.126   3.713   5.695 -0.9090  1.5168 -0.6924
 1047SOL     OW14599   3.930   0.334   8.104  0.3522 -0.3515 -0.6943
 1047SOL    HW114600   3.838   0.307   8.104  0.3921 -0.4853 -1.6081
 1047SOL    HW214601   3.937   0.403   8.169 -2.4594 -1.3205  0.6559
 1048SOL     OW14602   2.145   1.532  12.066  0.3350 -0.2366  0.3250
 1048SOL    HW114603   2.153   1.609  12.123 -0.8636  1.0194 -1.2262
 1048SOL    HW214604   2.212   1.475  12.104 -1.6181 -2.0369  1.1139
 1049SOL     OW14605   1.703   4.681   0.171 -0.1118 -0.1726 -0.3950
 1049SOL    HW114606   1.797   4.687   0.160 -0.1970  0.3755 -0.8242
 1049SOL    HW214607   1.705   4.717   0.260 -1.2312  0.2278 -0.5241
 1050SOL     OW14608   2.533   3.771  11.646 -0.1806 -0.5949 -0.1247
 1050SOL    HW114609   2.559   3.863  11.657 -0.9185 -0.3736 -0.1767
 1050SOL    HW214610   2.610   3.739  11.692 -0.0427  1.3216  0.9950
 1051SOL     OW14611   4.135   1.538  14.740  0.5211  0.5647 -0.2214
 1051SOL    HW114612   4.100   1.597  14.807 -1.0571  1.2137 -1.6039
 1051SOL    HW214613   4.058   1.494  14.703  0.6794  1.6055 -1.8277
 1052SOL     OW14614   3.732   1.795  11.179 -0.0523 -0.0545 -0.5405
 1052SOL    HW114615   3.659   1.808  11.240  0.4781  1.4890 -0.2505
 1052SOL    HW214616   3.713   1.703  11.159 -0.3949 -0.0299 -0.3214
 1053SOL     OW14617   0.658   1.640   0.904 -0.0088  0.2909  0.2902
 1053SOL    HW114618   0.707   1.591   0.970  0.3535  1.3848  0.8340
 1053SOL    HW214619   0.568   1.649   0.935  0.1442 -1.2371  1.1464
 1054SOL     OW14620   1.975   2.905   0.877  0.5252 -0.2890  0.0060
 1054SOL    HW114621   2.000   2.991   0.909  2.6378 -0.5006 -1.0755
 1054SOL    HW214622   1.981   2.931   0.786  2.0141 -1.0977 -0.1411
 1055SOL     OW14623   1.984   3.226   3.797 -0.6801 -0.1922 -0.4849
 1055SOL    HW114624   2.017   3.298   3.851  0.0422  0.4672 -1.8279
 1055SOL    HW214625   2.052   3.215   3.731 -1.4299 -1.3959 -1.0684
 1056SOL     OW14626   2.530   4.162   6.923 -0.0042  0.2261 -0.4037
 1056SOL    HW114627   2.493   4.234   6.975 -1.6706 -0.7674 -0.2039
 1056SOL    HW214628   2.550   4.218   6.848 -0.0782  0.0260 -0.5706
 1057SOL     OW14629   0.683   2.930   1.938 -0.3667  0.2403  0.0381
 1057SOL    HW114630   0.609   2.974   1.981 -0.7609 -1.8300  1.4993
 1057SOL    HW214631   0.653   2.840   1.925 -4.8473  1.8410 -0.7419
 1058SOL     OW14632   3.959   0.843   4.551 -0.2331  0.3780 -0.1621
 1058SOL    HW114633   4.055   0.841   4.561 -0.2767 -2.3772 -0.4566
 1058SOL    HW214634   3.956   0.795   4.468  1.4009 -1.4768  0.8585
 1059SOL     OW14635   3.577   0.897   4.466  0.4831  0.3944 -0.2679
 1059SOL    HW114636   3.529   0.964   4.417 -0.3788 -0.2517 -0.2967
 1059SOL    HW214637   3.619   0.950   4.534  0.7794  0.5904 -0.6010
 1060SOL     OW14638   0.824   3.252   3.434 -0.1929 -0.4592 -0.0058
 1060SOL    HW114639   0.836   3.249   3.340  1.7873  1.7735  0.1786
 1060SOL    HW214640   0.767   3.330   3.437  0.6584  0.1208  1.2206
 1061SOL     OW14641   1.629   1.071   7.315 -1.1302 -0.6585  0.1627
 1061SOL    HW114642   1.654   1.089   7.224  1.7128 -0.5085  0.9751
 1061SOL    HW214643   1.627   1.162   7.346  0.1063 -0.0251 -1.6074
 1062SOL     OW14644   2.073   2.016   6.611  0.0053 -0.2156 -0.7097
 1062SOL    HW114645   2.005   1.957   6.577  0.5492 -0.9588 -0.5018
 1062SOL    HW214646   2.149   1.958   6.618 -1.7721 -2.1279  2.7264
 1063SOL     OW14647   3.205   2.642  13.933 -0.3232 -0.4188 -0.6533
 1063SOL    HW114648   3.283   2.623  13.985 -1.3088  1.0343  1.3416
 1063SOL    HW214649   3.222   2.729  13.896 -0.8897  0.6124  1.5411
 1064SOL     OW14650   2.627   3.037   6.134 -0.1787 -0.5623  0.4670
 1064SOL    HW114651   2.606   3.109   6.194 -0.6045  1.3663 -2.0172
 1064SOL    HW214652   2.602   2.957   6.180  0.7835 -1.0961  0.0813
 1065SOL     OW14653   0.164   4.083   3.499 -0.2424  0.0078 -0.3960
 1065SOL    HW114654   0.244   4.035   3.477  0.8982  0.1913  3.3399
 1065SOL    HW214655   0.089   4.025   3.492  0.5306 -1.3391  2.7184
 1066SOL     OW14656   0.020   1.171   1.062  0.3175 -0.4241  0.3024
 1066SOL    HW114657   0.005   1.247   1.007  2.1047 -0.5199 -0.3393
 1066SOL    HW214658   4.670   1.173   1.118 -0.2857  0.3276 -0.5594
 1067SOL     OW14659   3.373   1.556   3.658 -0.4183  0.0152 -0.3515
 1067SOL    HW114660   3.460   1.569   3.618  1.0029 -0.7822  2.4584
 1067SOL    HW214661   3.394   1.540   3.750  0.4500  4.4598  0.2093
 1068SOL     OW14662   1.700   1.453  14.685  0.1921  0.3879 -0.1295
 1068SOL    HW114663   1.722   1.544  14.704 -2.2345  0.9367 -0.0492
 1068SOL    HW214664   1.663   1.420  14.767  1.3402  1.2922  0.7532
 1069SOL     OW14665   4.338   2.375   4.488 -0.1785 -0.1439  0.0863
 1069SOL    HW114666   4.355   2.462   4.454  0.5718  0.2468  1.4816
 1069SOL    HW214667   4.409   2.365   4.551 -1.2020 -0.6028  1.1694
 1070SOL     OW14668   2.364   2.451   3.563  0.3356 -0.1160 -0.3893
 1070SOL    HW114669   2.325   2.392   3.499 -3.2186  1.1981  0.5400
 1070SOL    HW214670   2.293   2.454   3.627  0.2481  2.5581 -0.6087
 1071SOL     OW14671   3.487   4.077  10.779 -0.2980  0.0691  0.2137
 1071SOL    HW114672   3.460   4.031  10.859 -0.4624  0.5869  0.4577
 1071SOL    HW214673   3.547   4.009  10.750 -0.8026  0.6937 -2.2724
 1072SOL     OW14674   4.128   3.689   3.049  0.7897 -0.1205  0.3772
 1072SOL    HW114675   4.113   3.622   2.982 -0.1735 -0.2320  0.7045
 1072SOL    HW214676   4.080   3.765   3.015 -1.0055 -1.0295  0.8333
 1073SOL     OW14677   4.437   3.217   3.507  0.2821  0.2664 -0.3206
 1073SOL    HW114678   4.415   3.153   3.575 -1.0306 -1.5062 -2.3955
 1073SOL    HW214679   4.402   3.298   3.545  0.1401 -0.6134  1.4310
 1074SOL     OW14680   4.134   2.642  10.256  0.4368  1.0600  0.9055
 1074SOL    HW114681   4.217   2.690  10.261 -1.4063  4.2117  1.2595
 1074SOL    HW214682   4.140   2.605  10.344 -1.5879 -2.1911 -0.3446
 1075SOL     OW14683   3.324   3.262   5.404 -0.1677 -0.2122  0.5478
 1075SOL    HW114684   3.239   3.231   5.433 -0.4470 -1.6709 -1.8120
 1075SOL    HW214685   3.353   3.204   5.333 -0.5476  0.5703 -0.2532
 1076SOL     OW14686   4.426   4.344   5.669 -0.3541 -0.0512 -0.2806
 1076SOL    HW114687   4.376   4.267   5.694  0.6867 -0.6931 -0.1555
 1076SOL    HW214688   4.482   4.347   5.746  0.0208 -1.4425 -0.4886
 1077SOL     OW14689   0.607   2.271  15.607  0.2348 -0.0297 -0.5624
 1077SOL    HW114690   0.535   2.209  15.618  0.8807 -0.4631  1.2248
 1077SOL    HW214691   0.566   2.356  15.589 -0.2544  0.2139  1.6487
 1078SOL     OW14692   4.312   4.720   8.752 -0.5076  0.6899  0.0980
 1078SOL    HW114693   4.299   0.032   8.666  0.7653  1.4441  0.2440
 1078SOL    HW214694   4.324   0.072   8.804  1.5852  0.4066  0.0627
 1079SOL     OW14695   0.678   3.166   7.245 -0.3073  0.1029  0.1352
 1079SOL    HW114696   0.743   3.098   7.260  2.1161  1.6710 -3.1286
 1079SOL    HW214697   0.640   3.143   7.160  1.9192  0.3402 -0.9428
 1080SOL     OW14698   3.338   1.837   6.767  0.0123 -0.0246  0.1419
 1080SOL    HW114699   3.309   1.746   6.770  2.8890 -0.9066  1.1539
 1080SOL    HW214700   3.427   1.839   6.731  0.5423 -1.5095  1.3592
 1081SOL     OW14701   2.850   3.291  11.132 -1.1300  0.1513 -0.1529
 1081SOL    HW114702   2.811   3.278  11.046  0.0454 -1.3933 -0.4701
 1081SOL    HW214703   2.928   3.237  11.116 -1.0685  0.1642  0.1000
 1082SOL     OW14704   0.428   2.973  17.002 -0.1161  0.4328  0.0288
 1082SOL    HW114705   0.444   2.938  16.915  1.3797  1.6500 -0.1843
 1082SOL    HW214706   0.485   2.916  17.054  0.9419 -0.3446 -2.0032
 1083SOL     OW14707   0.415   4.349  11.326  0.4889 -0.0619  0.4312
 1083SOL    HW114708   0.498   4.309  11.299  1.7043  0.9541  2.6645
 1083SOL    HW214709   0.420   4.349  11.421 -1.4516 -1.6324  0.5272
 1084SOL     OW14710   3.392   0.718   0.589  0.0902 -0.1918  0.4684
 1084SOL    HW114711   3.487   0.712   0.574  0.3126 -0.1842  1.8817
 1084SOL    HW214712   3.386   0.697   0.682 -2.8101  0.5942  0.4639
 1085SOL     OW14713   0.443   4.276   1.529 -1.0873 -0.3535 -0.2316
 1085SOL    HW114714   0.394   4.358   1.523 -0.4428 -0.0162 -0.8562
 1085SOL    HW214715   0.386   4.211   1.487 -1.9889 -0.9413  1.9097
 1086SOL     OW14716   2.847   0.307   6.544  0.0509  0.4220 -0.0314
 1086SOL    HW114717   2.798   0.298   6.626  1.2603 -1.5367  0.4722
 1086SOL    HW214718   2.793   0.355   6.481 -0.3334 -0.7349 -0.5790
 1087SOL     OW14719   2.074   2.151   2.382  0.4050  0.1146 -0.2878
 1087SOL    HW114720   2.015   2.225   2.370  0.7398  0.2286 -1.3026
 1087SOL    HW214721   2.062   2.132   2.475 -1.3529  1.1858 -0.2838
 1088SOL     OW14722   3.560   4.225   6.737 -0.2656  0.2918 -0.1652
 1088SOL    HW114723   3.654   4.206   6.743 -0.6898 -1.5840  0.4479
 1088SOL    HW214724   3.541   4.205   6.828 -0.5550 -1.6999 -0.6561
 1089SOL     OW14725   2.430   2.534  10.439 -0.4944  0.2774  0.2289
 1089SOL    HW114726   2.428   2.438  10.435 -0.5731  0.2783  0.2510
 1089SOL    HW214727   2.524   2.537  10.422 -0.5945 -1.5877 -0.7806
 1090SOL     OW14728   3.698   4.410   2.243  0.5474 -0.0432  0.0964
 1090SOL    HW114729   3.611   4.444   2.262  1.3422  1.3776  1.1633
 1090SOL    HW214730   3.675   4.318   2.229 -1.9415  0.7548 -1.0276
 1091SOL     OW14731   1.453   2.605  13.093 -0.4139 -0.4160  0.1192
 1091SOL    HW114732   1.442   2.548  13.016  0.6196 -0.3700 -0.0735
 1091SOL    HW214733   1.425   2.691  13.064  1.8364  0.5229  0.7192
 1092SOL     OW14734   1.162   2.482  13.474  0.2771  0.1785  0.2071
 1092SOL    HW114735   1.179   2.434  13.393 -0.3051  1.5918 -0.7618
 1092SOL    HW214736   1.213   2.563  13.473  0.4856  0.0564  0.9680
 1093SOL     OW14737   4.648   4.119   4.543  0.7565 -0.1839 -0.1247
 1093SOL    HW114738   4.674   4.073   4.463 -0.8787  2.3917 -2.1422
 1093SOL    HW214739   4.687   4.064   4.611 -0.1978 -1.7998 -0.8810
 1094SOL     OW14740   2.303   4.651   0.358 -0.1692  0.4046 -0.2090
 1094SOL    HW114741   2.253   4.638   0.277  0.9924  0.8974 -1.0031
 1094SOL    HW214742   2.231   4.643   0.421  0.3142 -1.5068  0.0726
 1095SOL     OW14743   4.586   3.756   5.251  0.4339  0.0420  0.1839
 1095SOL    HW114744   4.550   3.802   5.175 -0.6986 -0.1599  0.5945
 1095SOL    HW214745   4.556   3.808   5.326  2.2202 -0.5222  1.2886
 1096SOL     OW14746   1.753   1.883   9.455  0.7091  0.1658  0.1985
 1096SOL    HW114747   1.799   1.896   9.537  0.4965  2.2280 -0.0098
 1096SOL    HW214748   1.713   1.804   9.492 -2.3130  0.9513 -1.3662
 1097SOL     OW14749   3.397   0.740   5.397 -0.0011 -0.0716  0.3323
 1097SOL    HW114750   3.399   0.806   5.329  1.9336  0.1232  0.5817
 1097SOL    HW214751   3.332   0.677   5.366  2.6902 -0.9570 -3.4732
 1098SOL     OW14752   3.584   4.383  12.298  0.2181 -0.5939 -1.0325
 1098SOL    HW114753   3.489   4.371  12.292  0.1117  0.2975 -1.1124
 1098SOL    HW214754   3.594   4.377  12.393 -1.3309  0.0909 -0.8307
 1099SOL     OW14755   2.550   1.929   6.066  0.2727  0.1378 -0.0708
 1099SOL    HW114756   2.468   1.952   6.023  0.7590  1.6116 -0.2045
 1099SOL    HW214757   2.589   2.012   6.091  1.8793  0.2480 -2.8572
 1100SOL     OW14758   4.440   0.398   2.234 -0.1410  0.1233  0.1441
 1100SOL    HW114759   4.422   0.334   2.165  1.4487 -1.4637  1.2105
 1100SOL    HW214760   4.371   0.386   2.300  1.0543 -0.1579  1.3295
 1101SOL     OW14761   0.779   1.377   6.254  0.2198  0.0582 -0.6785
 1101SOL    HW114762   0.711   1.424   6.303  0.4903  0.9312 -1.1520
 1101SOL    HW214763   0.746   1.288   6.264 -0.1548  0.4903  1.9903
 1102SOL     OW14764   0.053   1.901   2.088 -0.1703 -0.1271  0.0095
 1102SOL    HW114765   0.042   1.940   2.002  0.3700 -1.0617 -0.4789
 1102SOL    HW214766   4.697   1.854   2.092 -1.2727  1.8884  0.6584
 1103SOL     OW14767   2.668   3.086  11.989 -0.7036 -0.5885  0.3650
 1103SOL    HW114768   2.759   3.057  11.981  0.3951  3.2699 -1.0375
 1103SOL    HW214769   2.645   3.098  11.897 -2.0556  1.1837  0.9419
 1104SOL     OW14770   3.164   2.199  13.035 -0.4458 -0.7145  0.1262
 1104SOL    HW114771   3.137   2.267  13.096  0.8677  0.1236 -0.2302
 1104SOL    HW214772   3.099   2.198  12.965  0.4182 -0.9297 -0.6711
 1105SOL     OW14773   0.048   2.045   5.993  0.2077 -1.0231 -0.0489
 1105SOL    HW114774   0.062   2.007   6.079  1.0870  1.1324  0.7544
 1105SOL    HW214775   4.692   2.091   6.003  0.7823  0.0756 -0.3994
 1106SOL     OW14776   3.223   3.781   5.466  0.6966 -0.3437  0.4427
 1106SOL    HW114777   3.164   3.855   5.455 -1.5304 -2.6263 -2.8138
 1106SOL    HW214778   3.207   3.735   5.549  1.5324 -1.2617  0.0984
 1107SOL     OW14779   3.659   4.207   9.060 -0.1325 -0.2393  0.3349
 1107SOL    HW114780   3.564   4.193   9.053 -0.0205 -1.7350  1.8949
 1107SOL    HW214781   3.670   4.243   9.148  1.2380 -0.7558  0.3627
 1108SOL     OW14782   0.636   0.342   5.060 -0.1478  0.3967 -0.3087
 1108SOL    HW114783   0.724   0.316   5.033  0.9588  2.3016  1.4451
 1108SOL    HW214784   0.602   0.259   5.092 -0.5647  1.0366  0.9050
 1109SOL     OW14785   0.511   1.919   4.519 -0.1994  0.3240 -0.1337
 1109SOL    HW114786   0.532   1.826   4.507 -0.7293  0.0627  0.9250
 1109SOL    HW214787   0.573   1.952   4.454  0.4833  0.2211  0.4623
 1110SOL     OW14788   3.416   0.847  12.162  0.1428 -0.3061  0.2072
 1110SOL    HW114789   3.362   0.771  12.187  0.6427 -0.2582  1.4185
 1110SOL    HW214790   3.502   0.831  12.201  0.3989 -1.3019 -0.7780
 1111SOL     OW14791   0.869   3.649   2.190 -0.1449  0.1137  0.2565
 1111SOL    HW114792   0.840   3.733   2.154 -1.7162  0.3941  2.1645
 1111SOL    HW214793   0.807   3.590   2.147 -0.1396  0.3002 -0.0064
 1112SOL     OW14794   0.610   1.443   7.833  0.2266 -0.0377  0.4438
 1112SOL    HW114795   0.560   1.405   7.761 -2.2849  2.9561  0.5862
 1112SOL    HW214796   0.541   1.476   7.891  0.3707  1.0197  0.0102
 1113SOL     OW14797   0.992   0.784   5.957 -1.0921 -0.1586  0.2648
 1113SOL    HW114798   0.969   0.722   6.027  1.5601 -2.0232 -0.5158
 1113SOL    HW214799   0.916   0.775   5.899 -2.0772 -1.7497  1.7602
 1114SOL     OW14800   3.680   2.145  15.651 -0.0487  0.2712  0.5571
 1114SOL    HW114801   3.621   2.215  15.621 -1.2510 -1.0995 -0.2679
 1114SOL    HW214802   3.753   2.144  15.589  0.1144 -0.2563  0.7594
 1115SOL     OW14803   4.334   4.647  15.629  0.9271 -0.1717 -0.1176
 1115SOL    HW114804   4.357   0.013  15.635 -1.0414  0.3664 -1.1761
 1115SOL    HW214805   4.357   4.621  15.539 -1.4710 -0.9918 -0.4760
 1116SOL     OW14806   2.600   3.999  12.198  0.4409  0.3453 -0.3412
 1116SOL    HW114807   2.651   4.078  12.182 -0.2041  0.3613 -2.3359
 1116SOL    HW214808   2.538   4.003  12.125 -1.3135  0.3652  1.1447
 1117SOL     OW14809   0.306   3.103   5.843 -0.1900 -0.3504 -0.0640
 1117SOL    HW114810   0.264   3.069   5.922 -0.4447 -1.5076 -0.7050
 1117SOL    HW214811   0.231   3.112   5.785 -0.1426  0.1413 -0.0502
 1118SOL     OW14812   1.207   2.143   5.297 -0.1667  0.0028  0.5558
 1118SOL    HW114813   1.284   2.104   5.337 -0.2629 -0.5809  0.1716
 1118SOL    HW214814   1.142   2.117   5.362  0.2645  2.2341  1.8720
 1119SOL     OW14815   2.319   0.361   4.594  0.6045 -0.1618 -0.3822
 1119SOL    HW114816   2.252   0.402   4.539  1.5785 -2.0079 -2.9635
 1119SOL    HW214817   2.269   0.288   4.630 -0.4726  2.3165  3.2418
 1120SOL     OW14818   1.484   2.045   9.872  0.2940 -0.5427 -0.3631
 1120SOL    HW114819   1.508   2.125   9.826  0.0701 -1.8250 -2.7118
 1120SOL    HW214820   1.547   1.977   9.849 -2.2197 -2.1548 -2.4455
 1121SOL     OW14821   3.336   4.563  17.614 -0.1535 -0.1799  0.1608
 1121SOL    HW114822   3.260   4.577  17.671  0.0821  1.6283  0.0298
 1121SOL    HW214823   3.297   4.516  17.539 -1.0418  1.1297 -0.1943
 1122SOL     OW14824   1.703   2.052   6.873  0.2736  0.1312  0.1774
 1122SOL    HW114825   1.707   1.985   6.941  1.9114 -0.5414 -0.5614
 1122SOL    HW214826   1.608   2.053   6.858  0.3508  0.8128 -0.2582
 1123SOL     OW14827   4.079   3.939   1.221  0.4312 -0.3298 -0.3410
 1123SOL    HW114828   4.071   3.895   1.137  0.4816  1.0864 -1.0820
 1123SOL    HW214829   4.036   3.878   1.282 -3.1831  2.3527 -0.2448
 1124SOL     OW14830   0.210   4.009   8.739  0.1415  0.2905 -0.6333
 1124SOL    HW114831   0.204   3.977   8.829  1.3086  3.1759  0.4935
 1124SOL    HW214832   0.278   4.075   8.755 -0.7279  1.4083 -1.5082
 1125SOL     OW14833   2.930   1.377  14.382  0.8385  0.1750 -0.1151
 1125SOL    HW114834   2.978   1.455  14.413  0.7424  0.7439 -1.4086
 1125SOL    HW214835   2.880   1.406  14.307  2.1465  0.8800 -0.7267
 1126SOL     OW14836   2.133   2.288   6.607 -0.4014  0.3065 -0.3709
 1126SOL    HW114837   2.040   2.286   6.632 -1.1830  2.0127 -3.0078
 1126SOL    HW214838   2.157   2.196   6.605 -0.0198  0.3483  1.8393
 1127SOL     OW14839   0.979   1.321   4.464 -0.7183 -0.5587  0.6198
 1127SOL    HW114840   1.018   1.302   4.379 -2.9236 -0.9599 -0.3069
 1127SOL    HW214841   0.945   1.408   4.440  0.1018 -0.9056 -1.7956
 1128SOL     OW14842   1.395   0.607   0.016  0.1212 -0.2264  0.0981
 1128SOL    HW114843   1.368   0.531  17.674 -2.4759  0.8282 -0.1051
 1128SOL    HW214844   1.309   0.642   0.041 -0.2970 -0.0413 -1.5802
 1129SOL     OW14845   3.458   4.248   2.012 -0.3849  0.1225 -0.4057
 1129SOL    HW114846   3.405   4.170   2.030 -0.6442  0.2870 -0.4710
 1129SOL    HW214847   3.532   4.230   2.070 -3.3400 -0.6823  3.1140
 1130SOL     OW14848   3.395   0.875  13.914  0.0201  0.4287  0.1931
 1130SOL    HW114849   3.303   0.886  13.889  0.4876  1.3643 -1.1113
 1130SOL    HW214850   3.426   0.814  13.847 -0.2953 -0.2657  0.6773
 1131SOL     OW14851   3.807   2.854   8.213  0.8405  0.1280 -0.9857
 1131SOL    HW114852   3.824   2.902   8.294  2.4468  2.8362 -2.9167
 1131SOL    HW214853   3.713   2.836   8.211  0.9779 -0.7177 -0.0681
 1132SOL     OW14854   1.091   0.462   5.315 -0.3271  0.4000 -0.0777
 1132SOL    HW114855   1.041   0.530   5.269  0.8697  1.5769  0.3456
 1132SOL    HW214856   1.143   0.513   5.378  0.7605  0.0127 -0.6852
 1133SOL     OW14857   3.956   4.309   6.978 -0.0663 -0.4993  0.1493
 1133SOL    HW114858   3.879   4.365   6.989  0.0575 -0.0368 -1.2918
 1133SOL    HW214859   3.907   4.229   6.956 -0.6657  0.2625 -1.3106
 1134SOL     OW14860   2.442   0.660   2.217  0.0515  0.4733 -0.2503
 1134SOL    HW114861   2.420   0.738   2.269 -0.0479  1.3005 -1.5498
 1134SOL    HW214862   2.474   0.598   2.283 -0.5681  0.3955 -0.0252
 1135SOL     OW14863   2.538   2.597   6.806  0.4774  0.2695  0.5457
 1135SOL    HW114864   2.485   2.517   6.808 -0.7351  1.0504 -0.6142
 1135SOL    HW214865   2.629   2.572   6.820 -0.2375 -1.0940  2.8191
 1136SOL     OW14866   0.157   0.439   8.476 -0.7456 -0.2599 -0.0764
 1136SOL    HW114867   0.192   0.369   8.422  1.1367  1.8266 -1.5535
 1136SOL    HW214868   0.142   0.390   8.557 -0.2133  0.5489  0.5247
 1137SOL     OW14869   1.273   4.228   3.422  0.5391  0.1055 -0.7464
 1137SOL    HW114870   1.361   4.205   3.452  0.5169 -0.1206 -0.8483
 1137SOL    HW214871   1.233   4.143   3.403  2.4703 -0.6971 -1.1862
 1138SOL     OW14872   0.588   0.275   4.427  0.0139 -0.3785  0.2045
 1138SOL    HW114873   0.681   0.263   4.448 -0.3171 -0.7860  1.4452
 1138SOL    HW214874   0.560   0.186   4.448  0.0369 -0.6573 -0.9590
 1139SOL     OW14875   1.565   4.282  13.930  0.0471  0.3648 -0.6142
 1139SOL    HW114876   1.479   4.324  13.931  0.5528  1.3701 -0.2678
 1139SOL    HW214877   1.559   4.242  14.017  1.6571 -1.8827 -1.5344
 1140SOL     OW14878   0.748   4.516   1.882 -0.3179 -0.0377  0.1011
 1140SOL    HW114879   0.657   4.514   1.913 -0.0907 -1.3684  0.6923
 1140SOL    HW214880   0.732   4.510   1.788  1.0282  1.5327 -0.2387
 1141SOL     OW14881   3.246   3.421  15.271  0.2671 -0.9256 -0.1212
 1141SOL    HW114882   3.161   3.378  15.271 -0.8463  1.2743 -0.7660
 1141SOL    HW214883   3.234   3.461  15.184  1.5490  0.1531  0.1963
 1142SOL     OW14884   2.457   0.009   5.673  0.0542 -0.1205  0.2990
 1142SOL    HW114885   2.396   4.679   5.628  0.7534 -0.8789  0.3035
 1142SOL    HW214886   2.412   0.023   5.756 -1.2187 -2.1072 -0.0660
 1143SOL     OW14887   0.962   0.483   0.345  1.1921  0.2864  0.3347
 1143SOL    HW114888   0.935   0.402   0.388 -3.4811  1.6011 -0.0316
 1143SOL    HW214889   0.922   0.465   0.260 -1.9250 -0.5816  1.9629
 1144SOL     OW14890   2.627   4.494   3.431  0.1755  0.1680  0.9271
 1144SOL    HW114891   2.540   4.533   3.429  0.3147  0.3365 -0.9666
 1144SOL    HW214892   2.628   4.422   3.368 -0.9920  0.9068  0.0641
 1145SOL     OW14893   0.740   2.047   0.411 -0.6648  0.0425 -0.6645
 1145SOL    HW114894   0.796   2.032   0.335 -0.8351  2.7598 -1.3040
 1145SOL    HW214895   0.665   2.094   0.375 -0.4702  1.4491  0.7608
 1146SOL     OW14896   4.347   0.568  11.679 -0.3170  0.6987 -0.9648
 1146SOL    HW114897   4.416   0.631  11.657  1.5307 -1.1992 -0.5776
 1146SOL    HW214898   4.305   0.614  11.751  1.7608  1.6770 -0.3890
 1147SOL     OW14899   1.271   2.318  10.656  0.1666  0.3134  0.4720
 1147SOL    HW114900   1.302   2.334  10.567  0.9504  2.7880  1.1837
 1147SOL    HW214901   1.176   2.324  10.644  0.3893  1.9356 -0.5300
 1148SOL     OW14902   3.833   0.042  12.664  0.5681  0.3938 -0.3503
 1148SOL    HW114903   3.810   0.133  12.682 -1.5471 -0.1774 -0.2161
 1148SOL    HW214904   3.757   0.010  12.617 -1.5901 -1.9851  4.7373
 1149SOL     OW14905   0.148   2.670   5.372 -0.2823 -0.1922  0.2736
 1149SOL    HW114906   0.174   2.691   5.282  0.6373  0.9929  0.8126
 1149SOL    HW214907   0.236   2.688   5.404  0.6941 -1.0943 -1.8808
 1150SOL     OW14908   2.737   4.067   2.421  0.3003  0.6562 -0.5192
 1150SOL    HW114909   2.773   3.986   2.385 -0.5762  0.6528 -1.3950
 1150SOL    HW214910   2.724   4.055   2.515 -0.8380 -1.1986 -0.9007
 1151SOL     OW14911   1.632   1.139   2.681 -0.7820  0.3144  0.7364
 1151SOL    HW114912   1.626   1.164   2.589  0.6749 -0.5963  0.3831
 1151SOL    HW214913   1.548   1.093   2.683 -0.7766  0.3090  0.8559
 1152SOL     OW14914   2.957   1.420   6.224 -0.1482 -0.0088 -0.1538
 1152SOL    HW114915   2.868   1.404   6.192 -0.3214  1.9799 -0.6675
 1152SOL    HW214916   3.017   1.410   6.150  0.5716 -1.2831  0.6206
 1153SOL     OW14917   3.355   0.556   7.004  0.2238 -0.6243 -0.1972
 1153SOL    HW114918   3.303   0.584   6.929  0.8837  1.2507  0.0265
 1153SOL    HW214919   3.282   0.527   7.059  0.9497 -2.3635 -0.1448
 1154SOL     OW14920   3.220   4.405  12.624  0.2782  0.0113 -0.3332
 1154SOL    HW114921   3.196   4.327  12.574  0.3491 -0.5212  0.4512
 1154SOL    HW214922   3.188   4.371  12.708 -0.6434 -0.0580 -0.7078
 1155SOL     OW14923   1.115   1.449  14.773  0.3909 -0.1936  0.1057
 1155SOL    HW114924   1.198   1.494  14.789 -0.3071  1.2810 -0.5150
 1155SOL    HW214925   1.149   1.371  14.728 -0.2012  0.1781 -0.9902
 1156SOL     OW14926   4.498   3.402   7.794  0.0306  0.1967 -0.0467
 1156SOL    HW114927   4.467   3.375   7.708 -2.0806  1.2744  0.3819
 1156SOL    HW214928   4.487   3.326   7.852  0.2491  0.3975  0.2616
 1157SOL     OW14929   0.044   1.981  15.003  0.0740  0.2962 -0.1630
 1157SOL    HW114930   4.698   2.024  14.960  1.4580  1.6692 -1.1447
 1157SOL    HW214931   0.069   2.050  15.064  0.3959  1.7832 -2.0011
 1158SOL     OW14932   0.518   0.011   0.205  0.5450 -0.1056  0.1467
 1158SOL    HW114933   0.478   4.711   0.122 -1.8043 -1.6718  1.7885
 1158SOL    HW214934   0.443   4.715   0.259  0.5132  0.9145  0.5500
 1159SOL     OW14935   1.438   1.453   9.056  0.5666  0.0489 -0.4597
 1159SOL    HW114936   1.362   1.474   9.001  0.4377 -0.6706 -0.5509
 1159SOL    HW214937   1.478   1.373   9.023  1.5437  0.2730  0.1831
 1160SOL     OW14938   2.777   0.660   1.500 -0.6677 -0.0458 -0.0551
 1160SOL    HW114939   2.717   0.693   1.433  0.4686 -0.2929 -1.2041
 1160SOL    HW214940   2.720   0.656   1.576  0.2150  2.5188  0.7450
 1161SOL     OW14941   3.334   0.176   8.155  0.4827 -0.4101  0.6827
 1161SOL    HW114942   3.349   0.265   8.123 -0.6361 -0.6941 -0.6674
 1161SOL    HW214943   3.342   0.133   8.070 -0.0265  0.6428  0.0988
 1162SOL     OW14944   3.559   0.078   8.720  0.3219  0.0879 -0.0360
 1162SOL    HW114945   3.529   0.151   8.667 -2.0448 -0.5259  0.4444
 1162SOL    HW214946   3.569   0.131   8.799 -0.5901 -1.0163  0.8188
 1163SOL     OW14947   2.761   3.348   5.420 -0.2855  0.0505 -0.6335
 1163SOL    HW114948   2.757   3.390   5.506 -0.6271  0.2959 -0.7703
 1163SOL    HW214949   2.769   3.255   5.442 -0.2569  0.5619  1.5288
 1164SOL     OW14950   2.378   3.487   6.866  0.0760 -0.1000  0.2679
 1164SOL    HW114951   2.345   3.404   6.899  0.5342 -0.0368  0.8817
 1164SOL    HW214952   2.375   3.545   6.941  1.3245 -0.0152  0.2530
 1165SOL     OW14953   2.429   2.225   9.729 -0.1487  0.2860 -0.0092
 1165SOL    HW114954   2.459   2.171   9.802  3.2077 -0.0354 -1.6573
 1165SOL    HW214955   2.367   2.162   9.692  1.4883 -0.8700 -0.7890
 1166SOL     OW14956   4.264   3.317   3.236  0.1665 -0.1645  0.1727
 1166SOL    HW114957   4.193   3.331   3.175  1.1162  1.7755 -0.4784
 1166SOL    HW214958   4.225   3.328   3.323 -1.6533  1.0220 -0.7957
 1167SOL     OW14959   3.747   3.596   5.442  0.0828  0.3082  0.7420
 1167SOL    HW114960   3.680   3.587   5.509  1.4048  1.3386  2.1879
 1167SOL    HW214961   3.810   3.534   5.479 -2.8952 -2.1966  1.6095
 1168SOL     OW14962   1.821   2.927   6.325  0.0366  0.6555 -0.3656
 1168SOL    HW114963   1.761   2.877   6.380  1.2070 -1.4779 -1.0091
 1168SOL    HW214964   1.868   2.983   6.386  0.7761 -1.0341  0.6266
 1169SOL     OW14965   1.125   2.665   6.386 -0.0880  0.3587 -0.4419
 1169SOL    HW114966   1.078   2.605   6.443  0.5061  0.3474  0.0285
 1169SOL    HW214967   1.132   2.735   6.450  0.1474  1.8796 -2.1109
 1170SOL     OW14968   4.199   2.629   6.186 -0.2184 -0.2415  0.5721
 1170SOL    HW114969   4.164   2.696   6.245 -0.5261  0.5414 -0.4944
 1170SOL    HW214970   4.126   2.568   6.177 -1.3170  0.9929  1.1050
 1171SOL     OW14971   2.072   1.268  11.867  0.1988 -0.8503  0.1079
 1171SOL    HW114972   2.029   1.221  11.938  0.2564  1.3724  1.5978
 1171SOL    HW214973   1.997   1.297  11.815  1.6668  1.2048 -0.8788
 1172SOL     OW14974   4.244   3.917   8.371 -0.2331  0.4625  0.1867
 1172SOL    HW114975   4.246   3.824   8.350  0.2618  1.0685 -2.3808
 1172SOL    HW214976   4.182   3.911   8.444  0.5045  0.4808  0.8187
 1173SOL     OW14977   0.376   2.940   4.041 -0.3520  0.0315 -0.4336
 1173SOL    HW114978   0.327   2.984   4.110  0.8489  0.2758  0.2699
 1173SOL    HW214979   0.328   2.859   4.020 -0.0555 -0.0505 -0.7981
 1174SOL     OW14980   1.498   4.149   4.348 -0.1828 -0.7987 -0.1802
 1174SOL    HW114981   1.579   4.198   4.336 -1.0915  0.5698 -0.7901
 1174SOL    HW214982   1.514   4.098   4.427 -1.9439 -0.1463  0.5954
 1175SOL     OW14983   3.814   3.178   2.696 -0.5806  0.0263 -0.1815
 1175SOL    HW114984   3.882   3.124   2.737 -1.6339 -1.5875 -0.5572
 1175SOL    HW214985   3.767   3.102   2.661 -0.3291 -0.6383  0.9271
 1176SOL     OW14986   0.022   3.620   7.110  0.4421 -0.1767  0.1782
 1176SOL    HW114987   0.010   3.687   7.178  0.7286  0.1189 -0.0629
 1176SOL    HW214988   4.690   3.549   7.137  1.0982 -0.5184  0.7218
 1177SOL     OW14989   3.054   2.471   7.077  0.5767 -0.7463  0.0411
 1177SOL    HW114990   3.051   2.496   6.985  2.8682 -0.7859 -0.0388
 1177SOL    HW214991   2.999   2.539   7.114  0.2360 -0.0268 -1.8069
 1178SOL     OW14992   0.007   2.019   7.523 -0.5470  0.0955  0.1490
 1178SOL    HW114993   0.011   1.931   7.560 -0.6370  0.2777  0.5979
 1178SOL    HW214994   4.641   2.040   7.532 -0.4817  0.1909  0.5849
 1179SOL     OW14995   4.388   2.323   6.896  0.0191 -0.4069 -0.1200
 1179SOL    HW114996   4.414   2.286   6.811 -3.6158 -0.3380 -1.2702
 1179SOL    HW214997   4.314   2.265   6.910  0.4489 -0.9964 -0.2861
 1180SOL     OW14998   3.417   1.560   4.152  0.4583 -0.0559 -0.0161
 1180SOL    HW114999   3.377   1.615   4.085  1.6455  0.0596 -0.6185
 1180SOL    HW215000   3.507   1.592   4.143 -0.1104  1.3781 -0.6868
 1181SOL     OW15001   0.843   1.664   5.244 -0.5490  0.2224  0.2428
 1181SOL    HW115002   0.892   1.582   5.251 -0.9370 -0.0116  0.1959
 1181SOL    HW215003   0.838   1.669   5.149 -0.1948  0.4671  0.2361
 1182SOL     OW15004   1.529   4.052   4.976 -0.0775  0.2043  0.4006
 1182SOL    HW115005   1.483   4.136   4.972 -0.3693  0.0722  0.9581
 1182SOL    HW215006   1.613   4.071   4.934 -0.3268  0.6193  0.0838
 1183SOL     OW15007   1.625   2.600  13.505  0.1777  0.3987 -0.6805
 1183SOL    HW115008   1.531   2.614  13.518  0.1245 -0.0222 -0.5950
 1183SOL    HW215009   1.632   2.591  13.410 -1.3632 -1.1581 -0.6612
 1184SOL     OW15010   1.911   1.589   8.501  0.5933 -0.4797 -0.8707
 1184SOL    HW115011   1.983   1.646   8.473 -0.1365  1.9115  2.1314
 1184SOL    HW215012   1.874   1.549   8.422  0.3301  0.4447 -1.2091
 1185SOL     OW15013   0.540   2.654   8.680  0.2532  1.0354 -0.8264
 1185SOL    HW115014   0.573   2.574   8.723 -0.4431  1.6502  0.8440
 1185SOL    HW215015   0.445   2.642   8.681  0.6038 -1.8891 -0.6471
 1186SOL     OW15016   2.379   1.046   1.957  0.3403 -0.2880  0.1516
 1186SOL    HW115017   2.288   1.048   1.929  0.3798  1.1198  0.1264
 1186SOL    HW215018   2.411   0.960   1.930 -1.5152 -1.2189  0.9250
 1187SOL     OW15019   4.236   0.297   3.984  0.2932 -0.0253  0.0112
 1187SOL    HW115020   4.227   0.252   3.900  1.6399 -0.0139 -0.1459
 1187SOL    HW215021   4.151   0.340   3.992 -1.1305 -2.6133 -1.3373
 1188SOL     OW15022   1.384   0.359   6.039 -0.2565  0.5140 -0.1871
 1188SOL    HW115023   1.319   0.428   6.050  0.7676  1.7230 -1.7565
 1188SOL    HW215024   1.324   0.287   6.019 -0.8745  0.8244  0.5523
 1189SOL     OW15025   1.034   3.796  11.265 -0.5806 -0.1357  0.2492
 1189SOL    HW115026   1.099   3.793  11.336 -1.7729 -0.0138  1.3487
 1189SOL    HW215027   1.092   3.839  11.203  1.1143 -1.7245  0.7193
 1190SOL     OW15028   0.414   1.995   4.148  0.0338 -0.0772 -0.1073
 1190SOL    HW115029   0.387   2.040   4.228  2.7953 -0.1340  0.8770
 1190SOL    HW215030   0.501   1.980   4.185  0.3127 -0.6890 -0.9979
 1191SOL     OW15031   4.125   4.469   5.083 -0.0595  0.1633 -0.2527
 1191SOL    HW115032   4.177   4.468   5.003 -1.4021 -0.7566 -1.1203
 1191SOL    HW215033   4.125   4.374   5.091  2.2204  0.4360  2.8285
 1192SOL     OW15034   2.217   1.431  14.723 -0.3680  0.1224 -0.1641
 1192SOL    HW115035   2.225   1.366  14.653  1.5792  1.0996 -0.8669
 1192SOL    HW215036   2.131   1.471  14.713 -0.5567 -0.1849  0.2259
 1193SOL     OW15037   0.416   3.820  15.768 -0.0342  0.1825 -0.1739
 1193SOL    HW115038   0.507   3.819  15.738 -0.1232  1.9300 -0.4790
 1193SOL    HW215039   0.429   3.750  15.832  0.7877  0.9632  0.5011
 1194SOL     OW15040   4.490   0.910  11.099 -0.1757 -0.8066  0.2657
 1194SOL    HW115041   4.463   1.001  11.115 -0.6803 -0.5311 -2.0828
 1194SOL    HW215042   4.545   0.925  11.022 -1.6410  0.0303 -0.6086
 1195SOL     OW15043   0.869   3.383   4.662 -0.2517 -0.1425  0.2096
 1195SOL    HW115044   0.828   3.402   4.578  1.5653 -0.1283 -0.6790
 1195SOL    HW215045   0.909   3.299   4.640  1.2083  0.5169  0.3546
 1196SOL     OW15046   0.156   3.053  11.529 -0.3105 -0.3303  0.3440
 1196SOL    HW115047   0.195   2.994  11.593  0.2915 -1.8502 -1.4056
 1196SOL    HW215048   0.236   3.071  11.480  0.3260 -1.3089  1.0243
 1197SOL     OW15049   3.141   0.028  11.322 -0.0490  0.2443  0.1395
 1197SOL    HW115050   3.205   0.098  11.322  0.8251 -0.5573 -1.6150
 1197SOL    HW215051   3.189   4.687  11.275 -0.7360 -0.2173  0.1057
 1198SOL     OW15052   0.859   0.987  11.654  0.0120 -0.4152 -0.4771
 1198SOL    HW115053   0.878   1.080  11.662 -1.4806 -0.2758  1.4606
 1198SOL    HW215054   0.776   0.992  11.605 -0.6964 -0.3678  0.7339
 1199SOL     OW15055   2.710   3.686   9.420  0.0641  0.2298 -0.6447
 1199SOL    HW115056   2.766   3.762   9.401  0.9546 -0.2592  0.0487
 1199SOL    HW215057   2.770   3.636   9.475 -0.0371 -0.2215 -0.9501
 1200SOL     OW15058   1.882   0.420   9.243  0.4586 -0.1879 -0.0117
 1200SOL    HW115059   1.939   0.361   9.291  0.1570 -0.5888 -0.1467
 1200SOL    HW215060   1.913   0.504   9.278  0.0349  0.6987 -1.7102
 1201SOL     OW15061   4.123   2.083   2.119  0.2409 -0.0023  0.1585
 1201SOL    HW115062   4.072   2.125   2.051  2.5814 -0.3489 -1.8085
 1201SOL    HW215063   4.093   2.115   2.204  1.6515  1.9001 -0.0578
 1202SOL     OW15064   2.701   4.458   2.198  0.1003  0.4610  0.1693
 1202SOL    HW115065   2.701   4.551   2.218  1.4406  0.2944  0.9844
 1202SOL    HW215066   2.737   4.463   2.109 -2.9696  0.4497 -1.0415
 1203SOL     OW15067   2.366   3.953   5.456 -0.3063 -0.8054  0.0737
 1203SOL    HW115068   2.342   4.026   5.513 -0.4440  0.5423 -1.7464
 1203SOL    HW215069   2.283   3.920   5.422 -0.0275 -0.7059 -0.6838
 1204SOL     OW15070   1.114   1.447   8.938 -0.0833 -0.0944  0.2728
 1204SOL    HW115071   1.040   1.429   8.880  0.3542 -1.8059  0.2276
 1204SOL    HW215072   1.072   1.457   9.023 -3.3170  0.3218 -1.3823
 1205SOL     OW15073   1.948   4.343  13.800  0.3826 -0.0916 -0.1947
 1205SOL    HW115074   1.884   4.380  13.859 -0.5691 -0.4103 -1.0219
 1205SOL    HW215075   1.914   4.373  13.716 -1.8716 -0.9580  0.4238
 1206SOL     OW15076   1.650   0.235   3.079 -0.8304  0.1605  0.3853
 1206SOL    HW115077   1.555   0.249   3.078 -0.6923  1.1199  0.6211
 1206SOL    HW215078   1.659   0.167   3.012  1.7680 -0.7616  1.7123
 1207SOL     OW15079   0.452   1.341   5.790  0.4287 -0.4110 -0.1411
 1207SOL    HW115080   0.501   1.373   5.714  0.9536  0.2066  0.4563
 1207SOL    HW215081   0.511   1.270   5.814  0.2242 -0.7669 -0.6912
 1208SOL     OW15082   0.257   1.684   9.198 -0.0903 -0.0677  0.3100
 1208SOL    HW115083   0.267   1.720   9.286 -1.0275  0.1718  0.3169
 1208SOL    HW215084   0.242   1.765   9.149 -1.2410  0.8443  2.1612
 1209SOL     OW15085   4.319   0.185   2.080  0.0838 -0.6117 -0.4041
 1209SOL    HW115086   4.378   0.114   2.101  0.8009  0.2460  0.4900
 1209SOL    HW215087   4.318   0.192   1.985  0.1255 -2.1918 -0.5202
 1210SOL     OW15088   3.784   0.361   5.947  0.1644 -0.0678 -0.4525
 1210SOL    HW115089   3.832   0.428   5.898 -2.9695  1.5892 -1.2743
 1210SOL    HW215090   3.846   0.302   5.989 -1.6880  2.1824  5.4831
 1211SOL     OW15091   2.371   4.383   2.204  0.8017 -0.2301  0.2060
 1211SOL    HW115092   2.323   4.337   2.135  0.5348 -0.1634  0.3480
 1211SOL    HW215093   2.400   4.461   2.157 -1.5472  1.0904  0.9745
 1212SOL     OW15094   2.018   4.230   5.029 -0.1973  0.3655  0.1150
 1212SOL    HW115095   2.082   4.301   5.026 -0.8046  0.8378 -1.8103
 1212SOL    HW215096   1.945   4.278   4.989  0.5764  4.1396  3.1689
 1213SOL     OW15097   1.293   3.458   7.001  0.3981  0.3079 -0.2266
 1213SOL    HW115098   1.347   3.474   6.923 -0.6035 -1.2770 -1.2404
 1213SOL    HW215099   1.217   3.408   6.970  0.3850 -0.0244  0.3525
 1214SOL     OW15100   3.650   3.137  12.640 -0.0060 -0.3344  0.0872
 1214SOL    HW115101   3.689   3.050  12.630  2.4749  0.6890  0.8785
 1214SOL    HW215102   3.571   3.108  12.684 -1.7307  1.3470 -1.8778
 1215SOL     OW15103   4.648   2.954  16.210  0.4450  0.0084 -0.0730
 1215SOL    HW115104   4.634   2.923  16.121  0.6168 -0.0704 -0.0719
 1215SOL    HW215105   0.004   2.999  16.206  0.3210  0.2357 -0.0742
 1216SOL     OW15106   3.447   1.572  13.674  0.1809 -0.2442  0.4283
 1216SOL    HW115107   3.504   1.589  13.749 -1.7347 -0.4846  1.9262
 1216SOL    HW215108   3.441   1.477  13.683  0.3964 -0.1957  1.0552
 1217SOL     OW15109   3.867   3.092   5.471 -0.3443 -0.4771  0.0162
 1217SOL    HW115110   3.952   3.048   5.479 -1.3064 -2.5591 -0.9953
 1217SOL    HW215111   3.836   3.054   5.389 -1.1014 -0.7751  0.4382
 1218SOL     OW15112   0.279   2.410   4.610 -0.1063  0.5711 -0.6505
 1218SOL    HW115113   0.208   2.392   4.672  0.4960 -0.6269 -0.3231
 1218SOL    HW215114   0.348   2.441   4.669  1.0886 -2.4129 -0.4945
 1219SOL     OW15115   2.063   0.648   0.198 -0.0085  0.1566 -0.0080
 1219SOL    HW115116   2.155   0.667   0.214 -0.8392  2.8187  1.5255
 1219SOL    HW215117   2.028   0.727   0.238  0.4016  0.3474 -0.0341
 1220SOL     OW15118   1.331   4.083  12.884 -0.2879  0.1653 -0.7958
 1220SOL    HW115119   1.308   4.076  12.977  0.7528  0.4244 -0.5260
 1220SOL    HW215120   1.244   4.100  12.847 -1.1989 -0.4530  0.9979
 1221SOL     OW15121   3.291   4.245   5.678  0.2054  0.4895 -0.3453
 1221SOL    HW115122   3.211   4.224   5.630 -0.1867 -0.2254  0.6161
 1221SOL    HW215123   3.311   4.336   5.655 -1.3734  1.1290  0.7946
 1222SOL     OW15124   4.182   3.968   2.942  0.3024 -0.4034  0.2630
 1222SOL    HW115125   4.259   4.018   2.914 -1.1726  1.3301 -0.7144
 1222SOL    HW215126   4.143   3.955   2.856  1.8013  1.6458 -0.7390
 1223SOL     OW15127   0.266   4.265   4.432 -0.4861  0.4260  0.2729
 1223SOL    HW115128   0.239   4.211   4.358 -1.3623  0.3858  0.6188
 1223SOL    HW215129   0.336   4.209   4.465 -2.1248 -1.6340  0.2568
 1224SOL     OW15130   0.207   4.105   4.234  0.5078 -0.0822 -0.2238
 1224SOL    HW115131   0.244   4.105   4.146  3.8368  0.9798  1.1933
 1224SOL    HW215132   0.226   4.015   4.260  2.0265  0.7760  1.6652
 1225SOL     OW15133   2.242   1.244   5.221 -0.1564  0.0180 -0.1142
 1225SOL    HW115134   2.149   1.267   5.219 -0.2457 -0.3359 -0.1430
 1225SOL    HW215135   2.233   1.168   5.278  0.3966  0.6346  0.7799
 1226SOL     OW15136   4.403   2.524  16.304  0.0459  0.4395  0.2438
 1226SOL    HW115137   4.496   2.509  16.288  0.2770 -0.0368  2.0348
 1226SOL    HW215138   4.363   2.474  16.233  0.4138 -0.8605  0.9498
 1227SOL     OW15139   4.213   3.846  12.489  0.1281  0.6447 -0.0661
 1227SOL    HW115140   4.156   3.774  12.462  1.7770 -0.0704 -1.6240
 1227SOL    HW215141   4.155   3.895  12.547 -1.5789 -2.9365  1.2409
 1228SOL     OW15142   1.742   1.161  13.925 -0.2760  0.3193 -0.0353
 1228SOL    HW115143   1.754   1.209  14.008  1.3916 -0.8167  0.3914
 1228SOL    HW215144   1.711   1.231  13.867  0.8066  1.5014  0.7862
 1229SOL     OW15145   2.772   3.462   7.186  0.5592 -0.4660 -0.1102
 1229SOL    HW115146   2.819   3.384   7.217  0.5751 -1.1998 -1.9728
 1229SOL    HW215147   2.771   3.440   7.092 -2.6524  0.3790 -0.2695
 1230SOL     OW15148   2.387   0.733   1.556  0.2981 -1.0390 -0.4797
 1230SOL    HW115149   2.481   0.720   1.545  0.2124 -1.6994 -0.4463
 1230SOL    HW215150   2.352   0.644   1.548 -1.8610 -0.2420  0.1936
 1231SOL     OW15151   0.338   4.657   5.142  0.3552  0.3550 -0.9897
 1231SOL    HW115152   0.334   4.597   5.216 -0.6686  0.6989 -0.7676
 1231SOL    HW215153   0.251   4.696   5.137 -0.6363 -1.9237 -1.0555
 1232SOL     OW15154   3.361   2.809   7.349 -0.5241  0.2544 -0.0528
 1232SOL    HW115155   3.448   2.818   7.390 -1.0769  0.1745  1.1430
 1232SOL    HW215156   3.315   2.749   7.408 -1.7263  1.2178 -0.0117
 1233SOL     OW15157   3.980   1.638   5.339  0.3481  0.1932  0.0247
 1233SOL    HW115158   4.019   1.660   5.254  4.6041  0.2779  1.9923
 1233SOL    HW215159   4.040   1.570   5.372  1.0566  0.7305 -0.1550
 1234SOL     OW15160   3.279   4.220  13.425  0.4703  0.2278 -0.0872
 1234SOL    HW115161   3.221   4.296  13.421  1.1087  0.7793  0.9802
 1234SOL    HW215162   3.365   4.260  13.412 -0.1341  1.1349 -1.2492
 1235SOL     OW15163   1.198   0.498   7.375  0.1554 -0.2862  0.4232
 1235SOL    HW115164   1.247   0.420   7.400  1.3425  0.0842 -0.7819
 1235SOL    HW215165   1.225   0.556   7.446 -0.6288 -1.9380  2.0781
 1236SOL     OW15166   1.605   3.306   8.394  0.2175 -0.6792 -0.2499
 1236SOL    HW115167   1.676   3.371   8.393 -0.5505  0.1785  0.5572
 1236SOL    HW215168   1.629   3.243   8.326 -0.4900 -0.2262 -0.9191
 1237SOL     OW15169   4.633   1.287   2.040 -0.2560 -0.2268 -0.6669
 1237SOL    HW115170   4.608   1.371   2.001 -2.2009 -0.2016  0.6240
 1237SOL    HW215171   4.718   1.277   1.999  0.7582  4.0452  0.3966
 1238SOL     OW15172   3.695   2.296   7.035 -0.3325 -0.5531  0.2645
 1238SOL    HW115173   3.748   2.328   7.108  1.5709 -1.9918 -0.4956
 1238SOL    HW215174   3.747   2.329   6.962 -2.9108 -1.1859 -1.8364
 1239SOL     OW15175   2.086   2.179   4.063 -0.2941  0.3567  0.1166
 1239SOL    HW115176   2.117   2.217   3.981  2.5578 -0.1364  0.9512
 1239SOL    HW215177   2.163   2.134   4.097 -0.3488 -0.3783 -0.7311
 1240SOL     OW15178   4.463   1.636   6.387 -0.2457  0.1519  0.0752
 1240SOL    HW115179   4.401   1.699   6.351 -0.6403  0.0964  0.6543
 1240SOL    HW215180   4.487   1.590   6.307  1.8583  3.2253 -1.1001
 1241SOL     OW15181   4.041   1.471  13.980  0.2290  0.1933 -0.2774
 1241SOL    HW115182   3.976   1.485  13.910 -1.9166 -0.5555  1.5612
 1241SOL    HW215183   4.010   1.535  14.044 -0.6698 -0.2715 -0.2421
 1242SOL     OW15184   4.636   4.496   1.395 -0.3373  0.4362  0.2956
 1242SOL    HW115185   4.542   4.479   1.405 -0.6199  1.1530 -1.1672
 1242SOL    HW215186   4.633   4.591   1.405 -0.4767  0.6688 -1.7995
 1243SOL     OW15187   2.155   2.670  10.079 -0.0855 -0.3673 -0.0468
 1243SOL    HW115188   2.233   2.706  10.121  1.1505 -0.9011 -1.8762
 1243SOL    HW215189   2.168   2.579  10.107 -0.6063  0.1275  1.7992
 1244SOL     OW15190   1.492   3.799   8.092 -0.3394 -0.0133  0.2924
 1244SOL    HW115191   1.515   3.885   8.056 -0.1846 -0.1275  0.1150
 1244SOL    HW215192   1.562   3.794   8.157 -0.8659 -0.1551  0.8445
 1245SOL     OW15193   0.880   2.522   5.070  0.8184 -0.4790 -0.1624
 1245SOL    HW115194   0.934   2.492   5.143  2.9583  1.4295 -0.9668
 1245SOL    HW215195   0.880   2.616   5.087  1.1698 -0.8100  1.7560
 1246SOL     OW15196   4.345   2.962  16.685 -0.1728  0.4995 -0.1461
 1246SOL    HW115197   4.403   2.900  16.728 -0.5487  0.2130 -0.0560
 1246SOL    HW215198   4.376   2.985  16.597 -0.9700  1.4868 -0.1662
 1247SOL     OW15199   0.055   4.649   0.092 -0.0440 -0.0550  0.4433
 1247SOL    HW115200   4.689   4.652   0.071  0.1664  4.2891  0.0402
 1247SOL    HW215201   0.085   4.726   0.043  1.3213 -1.3249 -0.7185
 1248SOL     OW15202   1.379   0.297   6.382  0.5212 -0.1462  0.5753
 1248SOL    HW115203   1.354   0.384   6.413  0.4799  0.0413  0.0225
 1248SOL    HW215204   1.308   0.268   6.324  0.6722  1.1711 -0.2466
 1249SOL     OW15205   4.231   4.021   2.594  0.0591 -0.1333  0.0052
 1249SOL    HW115206   4.276   3.944   2.560 -1.4411 -0.8818 -0.2696
 1249SOL    HW215207   4.292   4.081   2.551 -0.3584 -0.6702 -1.3434
 1250SOL     OW15208   4.259   2.387  13.258 -0.0341 -0.1134  0.3980
 1250SOL    HW115209   4.345   2.353  13.234  0.4076  1.3878 -0.1644
 1250SOL    HW215210   4.206   2.379  13.179  1.3666 -0.2523 -0.5290
 1251SOL     OW15211   4.205   4.203   5.047  0.2699 -0.0586  0.1181
 1251SOL    HW115212   4.257   4.162   5.117 -0.5994  1.6796  1.7901
 1251SOL    HW215213   4.267   4.245   4.987 -1.2235 -0.9211 -2.0086
 1252SOL     OW15214   1.860   0.837  10.928 -0.0671  0.4243 -0.1237
 1252SOL    HW115215   1.850   0.776  11.001  0.8932  0.2516 -0.1413
 1252SOL    HW215216   1.858   0.769  10.860 -0.3195  0.2856  0.0209
 1253SOL     OW15217   3.580   1.377  16.221  0.5604 -0.0723  0.5970
 1253SOL    HW115218   3.590   1.411  16.309  0.6134 -0.1843  0.6351
 1253SOL    HW215219   3.661   1.401  16.176 -0.3071  1.1926 -0.2743
 1254SOL     OW15220   1.312   0.417  16.405 -0.2404  0.0685 -0.5137
 1254SOL    HW115221   1.288   0.448  16.318  0.3933 -1.6933 -1.3178
 1254SOL    HW215222   1.224   0.432  16.440 -0.2148  0.2033 -0.5055
 1255SOL     OW15223   3.799   2.637   3.629  0.3680 -0.2851 -0.1811
 1255SOL    HW115224   3.817   2.687   3.709  1.5571  0.7076 -1.0697
 1255SOL    HW215225   3.751   2.701   3.576  1.0310  0.1325 -0.2801
 1256SOL     OW15226   4.722   1.499  10.285 -0.2430  0.8579  0.7576
 1256SOL    HW115227   4.690   1.423  10.335  1.2158  0.7474  1.5077
 1256SOL    HW215228   4.700   1.480  10.194  3.9372 -2.2887  0.4146
 1257SOL     OW15229   4.723   1.885   4.307  0.2333  0.6041  0.0454
 1257SOL    HW115230   0.078   1.878   4.355  0.4088 -2.8785 -0.7740
 1257SOL    HW215231   4.660   1.853   4.371 -0.3301 -0.4005 -0.9931
 1258SOL     OW15232   4.691   1.166   7.639 -0.4013  0.2841  0.0733
 1258SOL    HW115233   4.689   1.261   7.638  1.5326  0.3151 -0.9282
 1258SOL    HW215234   4.637   1.156   7.718 -0.8765 -0.2752 -0.3211
 1259SOL     OW15235   0.093   1.167   8.974  0.6930  0.1386 -0.1538
 1259SOL    HW115236   0.088   1.257   9.005 -0.3000 -0.6856  2.0750
 1259SOL    HW215237   0.064   1.171   8.883  0.0374 -1.3821 -0.0195
 1260SOL     OW15238   0.017   4.016   9.360 -0.4785  0.2404  0.1433
 1260SOL    HW115239   0.034   4.108   9.377 -2.3824  0.9349 -1.6045
 1260SOL    HW215240   4.690   3.991   9.435  0.7969 -2.1299  0.2954
 1261SOL     OW15241   1.899   0.363  10.903 -0.6364  0.5288  0.2576
 1261SOL    HW115242   1.837   0.410  10.847  0.9307 -1.9656 -3.5305
 1261SOL    HW215243   1.855   0.385  10.985  0.0716  1.9384  0.2671
 1262SOL     OW15244   1.450   0.536   4.141 -0.1757  0.2189  0.0106
 1262SOL    HW115245   1.399   0.595   4.086 -0.4800 -1.0210 -1.0289
 1262SOL    HW215246   1.402   0.539   4.224 -1.5872  1.5730 -0.8391
 1263SOL     OW15247   2.090   4.374  10.790 -0.0456  0.4247 -0.1442
 1263SOL    HW115248   2.140   4.451  10.818 -0.4307  0.7922 -0.4830
 1263SOL    HW215249   2.051   4.350  10.874 -0.9855 -1.8909 -1.2453
 1264SOL     OW15250   3.812   1.757  16.089 -0.8026 -0.4541  0.6437
 1264SOL    HW115251   3.763   1.719  16.162 -1.0766 -0.6397  0.3613
 1264SOL    HW215252   3.754   1.754  16.014 -1.8445  0.9598  1.3833
 1265SOL     OW15253   3.961   4.114  17.361 -0.1810  0.3343 -0.0572
 1265SOL    HW115254   3.868   4.133  17.369 -0.8921 -2.9721 -0.3932
 1265SOL    HW215255   3.962   4.045  17.294 -0.6937  0.5569 -0.2896
 1266SOL     OW15256   0.107   3.411   2.722 -0.3874  0.2199  0.4398
 1266SOL    HW115257   0.051   3.351   2.771 -2.5303  1.4603 -0.4789
 1266SOL    HW215258   0.036   3.459   2.679 -1.3371 -0.7560  0.9173
 1267SOL     OW15259   1.794   2.253   7.037 -0.3288  0.1202 -0.2549
 1267SOL    HW115260   1.760   2.174   6.995 -1.7944  0.6508 -0.0483
 1267SOL    HW215261   1.715   2.305   7.029 -0.3303  0.3242  1.1403
 1268SOL     OW15262   3.885   0.592   2.019 -0.0867  0.3294  0.2077
 1268SOL    HW115263   3.902   0.524   1.954  3.4591  1.9996 -0.6555
 1268SOL    HW215264   3.813   0.546   2.060  1.7794 -2.3551  0.4395
 1269SOL     OW15265   0.358   0.716  13.609  0.1309  0.3650  0.1510
 1269SOL    HW115266   0.348   0.787  13.545 -0.2749 -0.3123 -0.5487
 1269SOL    HW215267   0.367   0.763  13.692 -2.2813  0.9734  0.0818
 1270SOL     OW15268   0.500   3.417  17.008 -0.1347  0.6156  0.6873
 1270SOL    HW115269   0.533   3.365  16.935  0.5503 -1.1786  2.2819
 1270SOL    HW215270   0.413   3.425  16.969 -0.4598  0.0620  1.2804
 1271SOL     OW15271   1.285   3.960   6.857  0.2542  0.2296 -0.1057
 1271SOL    HW115272   1.254   3.971   6.947  0.2102 -0.2264 -0.0650
 1271SOL    HW215273   1.381   3.965   6.863  0.4130 -2.0999 -1.0255
 1272SOL     OW15274   3.038   2.572   4.551 -0.1840  0.0923 -0.1339
 1272SOL    HW115275   3.096   2.498   4.534  0.1758  0.4781 -0.5939
 1272SOL    HW215276   2.957   2.536   4.516  0.3962 -2.9767  1.7125
 1273SOL     OW15277   1.391   1.697   7.060 -0.3986 -0.4654 -0.0097
 1273SOL    HW115278   1.381   1.649   7.143  2.4744 -0.9463  0.0493
 1273SOL    HW215279   1.301   1.716   7.035  0.1292  1.0283 -0.8136
 1274SOL     OW15280   4.520   2.003  16.447 -0.5537  0.2725  0.1021
 1274SOL    HW115281   4.512   2.030  16.538 -2.2251  1.7832 -0.4840
 1274SOL    HW215282   4.602   1.957  16.461  0.3214  1.6972 -0.2750
 1275SOL     OW15283   1.895   3.754   0.674 -0.5240  0.1497  0.2822
 1275SOL    HW115284   1.838   3.678   0.677 -0.3861  0.0996  1.7664
 1275SOL    HW215285   1.968   3.725   0.729 -1.4473  1.1663  2.0507
 1276SOL     OW15286   3.451   3.839   8.994 -0.5261  0.2974  0.5420
 1276SOL    HW115287   3.442   3.924   8.950 -0.0240  0.2441  0.3319
 1276SOL    HW215288   3.519   3.864   9.057  1.0923 -2.8025  0.0275
 1277SOL     OW15289   0.914   2.044   8.401  0.0349  0.5853 -0.1720
 1277SOL    HW115290   0.898   2.026   8.494  1.4169 -0.3331 -0.1179
 1277SOL    HW215291   0.887   1.966   8.352  1.9742 -0.3417  0.2565
 1278SOL     OW15292   2.118   1.351   2.865 -0.2715  0.1862  0.3245
 1278SOL    HW115293   2.210   1.342   2.838 -0.5936 -0.7579 -0.4589
 1278SOL    HW215294   2.121   1.274   2.922 -0.8037 -2.1894 -2.7961
 1279SOL     OW15295   1.826   3.957   6.125 -0.0343 -0.0350  0.0674
 1279SOL    HW115296   1.827   3.866   6.095  0.6480 -0.0988  0.3000
 1279SOL    HW215297   1.828   3.941   6.219  0.5935  2.2220  0.4346
 1280SOL     OW15298   0.583   1.294   4.457 -0.2347  0.2426  0.3596
 1280SOL    HW115299   0.647   1.327   4.394 -0.8706  2.7884  1.0391
 1280SOL    HW215300   0.581   1.200   4.438 -0.6649  0.1010  1.0972
 1281SOL     OW15301   4.578   4.465   4.664  0.0943 -0.3415  0.2528
 1281SOL    HW115302   4.634   4.512   4.727  1.9078 -0.3485 -1.3813
 1281SOL    HW215303   4.619   4.490   4.582 -0.3504 -3.4336 -0.9001
 1282SOL     OW15304   0.337   2.035  10.256  0.5703 -0.3445 -0.0905
 1282SOL    HW115305   0.364   2.024  10.165  1.3024  3.6894 -0.3832
 1282SOL    HW215306   0.330   1.945  10.288 -2.7576 -0.0811 -0.0557
 1283SOL     OW15307   1.506   0.032   0.634 -0.3615  0.1442 -0.1486
 1283SOL    HW115308   1.538   0.068   0.717 -3.9917 -0.6196  1.5457
 1283SOL    HW215309   1.563   4.683   0.624 -0.4644  0.2919 -1.7938
 1284SOL     OW15310   2.761   1.864  15.863 -0.3313 -0.5775  0.2465
 1284SOL    HW115311   2.717   1.857  15.778  1.0104 -0.6140 -0.4371
 1284SOL    HW215312   2.833   1.807  15.836  0.6130 -0.2182  1.9675
 1285SOL     OW15313   0.867   2.255   1.703 -0.0454 -0.0704 -0.5451
 1285SOL    HW115314   0.844   2.164   1.681 -1.7399 -0.6678  3.7785
 1285SOL    HW215315   0.899   2.245   1.792  0.0904 -0.6002 -0.6505
 1286SOL     OW15316   2.940   0.161  11.549 -0.1936  0.0328 -0.2322
 1286SOL    HW115317   2.906   0.248  11.568  2.1478  0.9773 -0.2941
 1286SOL    HW215318   2.918   0.154  11.456  0.4451 -1.5466 -0.2704
 1287SOL     OW15319   0.623   3.967   1.346  0.3064  0.2458 -0.4295
 1287SOL    HW115320   0.645   4.039   1.405 -2.1828  0.3045  0.4185
 1287SOL    HW215321   0.531   3.993   1.344 -0.2862 -1.6726  1.2398
 1288SOL     OW15322   2.960   2.770   8.110  0.0118 -0.1857  0.4564
 1288SOL    HW115323   2.969   2.858   8.075 -0.1362  0.1346  1.2147
 1288SOL    HW215324   2.948   2.802   8.200 -0.2841 -2.3410  1.2065
 1289SOL     OW15325   4.721   1.863   8.300  0.0031 -0.5184  0.1522
 1289SOL    HW115326   0.033   1.921   8.366 -0.1327 -2.4692  1.9465
 1289SOL    HW215327   0.056   1.791   8.307 -0.5387 -1.1953 -2.2721
 1290SOL     OW15328   4.117   2.026  17.373 -0.2268 -0.0464 -0.3284
 1290SOL    HW115329   4.072   2.062  17.296  1.3029 -2.3433 -2.2789
 1290SOL    HW215330   4.206   2.039  17.342 -0.4811 -1.4273 -1.6643
 1291SOL     OW15331   4.101   4.317   1.505 -0.0927 -0.4126  0.2318
 1291SOL    HW115332   4.022   4.337   1.556  0.6331 -0.4286  1.3785
 1291SOL    HW215333   4.065   4.258   1.438  1.9336 -0.5449 -0.7287
 1292SOL     OW15334   0.078   2.897  14.854 -0.2914 -0.1132 -0.6054
 1292SOL    HW115335   0.097   2.869  14.944 -1.1312 -1.7782 -0.9514
 1292SOL    HW215336   0.127   2.979  14.858  1.5972 -1.2631 -0.3391
 1293SOL     OW15337   3.389   3.900   3.446 -0.7248  0.2082 -0.5018
 1293SOL    HW115338   3.382   3.994   3.466  1.2281  0.3075 -0.3447
 1293SOL    HW215339   3.379   3.861   3.533  1.1630 -0.2919 -0.5108
 1294SOL     OW15340   2.765   4.258   4.988 -0.1242 -0.4634 -0.4699
 1294SOL    HW115341   2.772   4.350   5.014 -2.9469 -0.6125  0.8645
 1294SOL    HW215342   2.690   4.239   5.045 -0.4433  2.6775  0.1855
 1295SOL     OW15343   3.023   2.165  15.070 -0.3686  0.1135  0.0714
 1295SOL    HW115344   2.952   2.108  15.100 -1.0891  0.2841 -1.3336
 1295SOL    HW215345   3.098   2.141  15.125  0.0914  0.3645 -0.4593
 1296SOL     OW15346   3.888   0.522   8.285 -0.7507  0.1352  0.0761
 1296SOL    HW115347   3.935   0.563   8.358  0.1750  0.1136 -0.5198
 1296SOL    HW215348   3.897   0.590   8.219 -0.9809  2.4213  2.3644
 1297SOL     OW15349   1.945   4.725   3.676 -0.6088 -0.2760  0.1601
 1297SOL    HW115350   1.977   0.080   3.639 -0.4098  0.1133  1.2040
 1297SOL    HW215351   2.019   4.696   3.729  0.2655 -0.4573 -1.1350
 1298SOL     OW15352   4.002   4.208   5.631 -0.0633  0.1974  0.3400
 1298SOL    HW115353   4.032   4.168   5.550 -1.7705 -0.1674 -0.1193
 1298SOL    HW215354   3.907   4.214   5.618  0.3488  0.6378 -2.4207
 1299SOL     OW15355   1.154   4.076   8.644  0.8879 -0.2420  0.0946
 1299SOL    HW115356   1.215   4.108   8.711 -0.1027 -1.1866  1.4385
 1299SOL    HW215357   1.181   3.985   8.635  0.1328 -0.4141 -0.4351
 1300SOL     OW15358   3.306   4.049   6.461 -0.4925  0.0955  0.5423
 1300SOL    HW115359   3.306   4.049   6.557  0.8087  2.7229  0.5531
 1300SOL    HW215360   3.240   4.117   6.447 -0.4769 -0.4438 -2.1296
 1301SOL     OW15361   0.325   4.390  16.657  0.4428  0.5034  0.0672
 1301SOL    HW115362   0.349   4.308  16.699  2.4057  1.1615  0.2580
 1301SOL    HW215363   0.283   4.435  16.730 -0.2760  0.3033 -0.2277
 1302SOL     OW15364   2.460   3.011   7.929 -0.0442 -0.5430  0.6011
 1302SOL    HW115365   2.477   2.978   8.017  0.7989 -2.2164 -0.1877
 1302SOL    HW215366   2.389   2.952   7.902 -0.5631  0.4018 -0.1034
 1303SOL     OW15367   0.636   3.023   3.404  0.1492  0.7321  0.5277
 1303SOL    HW115368   0.664   2.962   3.472 -1.4733 -1.8194 -1.0933
 1303SOL    HW215369   0.716   3.074   3.397  0.2330  0.6878  1.2219
 1304SOL     OW15370   3.518   0.914  16.249  0.2413 -0.2277  0.2587
 1304SOL    HW115371   3.434   0.889  16.209  0.0980 -0.7593  0.8877
 1304SOL    HW215372   3.504   1.001  16.286 -1.1531 -0.1490 -0.4681
 1305SOL     OW15373   2.515   3.302   2.321  0.3056 -0.4113  0.4818
 1305SOL    HW115374   2.608   3.320   2.334  0.6684 -0.7186 -1.7447
 1305SOL    HW215375   2.512   3.208   2.338  3.0993 -0.5111  0.2756
 1306SOL     OW15376   0.869   2.985   2.123 -0.1724  0.4436  0.0684
 1306SOL    HW115377   0.828   2.914   2.172  1.6685  0.9014  2.2466
 1306SOL    HW215378   0.806   2.998   2.052  0.8328  1.3021 -0.6697
 1307SOL     OW15379   1.091   0.514   3.831 -0.3614  0.4674 -0.7552
 1307SOL    HW115380   1.038   0.490   3.755 -0.3664 -2.0621  0.0192
 1307SOL    HW215381   1.088   0.431   3.879 -0.3712  0.6356 -0.4641
 1308SOL     OW15382   0.177   0.719  16.815  0.0188  0.0732  0.2483
 1308SOL    HW115383   0.223   0.771  16.881  0.7920  1.2929 -1.2272
 1308SOL    HW215384   0.239   0.729  16.742  0.5235  0.8788  0.7813
 1309SOL     OW15385   3.058   4.163  10.935  0.2741  0.6452 -0.3007
 1309SOL    HW115386   3.040   4.166  10.841  1.4715 -3.8114 -0.6987
 1309SOL    HW215387   3.132   4.223  10.940  0.6707  0.2093 -0.8101
 1310SOL     OW15388   2.951   4.381   3.086 -0.2269 -0.2560  0.0389
 1310SOL    HW115389   3.023   4.323   3.112  0.1599 -1.4629 -3.6562
 1310SOL    HW215390   2.919   4.349   3.002 -0.7363  1.3363 -0.3745
 1311SOL     OW15391   0.401   1.654   7.095  0.2973 -0.1385  0.7475
 1311SOL    HW115392   0.415   1.581   7.155 -1.6080 -0.5833  0.6555
 1311SOL    HW215393   0.419   1.723   7.159 -0.0110 -0.1741  0.8681
 1312SOL     OW15394   3.913   0.559   1.483 -0.2782 -0.3711 -0.0907
 1312SOL    HW115395   3.856   0.500   1.533  0.8289 -2.3218 -1.1603
 1312SOL    HW215396   3.860   0.586   1.408 -0.0351  2.3835  0.7077
 1313SOL     OW15397   1.714   3.775   7.001  0.0409  0.9694  0.5810
 1313SOL    HW115398   1.680   3.689   6.976  1.3254  0.0024  2.1436
 1313SOL    HW215399   1.690   3.830   6.926 -1.1361  1.1868  1.1208
 1314SOL     OW15400   2.093   3.913   4.276 -0.1764 -0.2336 -0.6249
 1314SOL    HW115401   2.051   3.874   4.199 -0.5433 -3.2578  1.0829
 1314SOL    HW215402   2.181   3.932   4.244 -0.3596  2.3138  0.4711
 1315SOL     OW15403   2.855   1.215   3.450  0.0760 -0.3726 -0.1853
 1315SOL    HW115404   2.804   1.260   3.383 -1.4282 -0.8484  0.6520
 1315SOL    HW215405   2.807   1.133   3.449  0.8976 -0.8704  0.7280
 1316SOL     OW15406   4.445   3.054   6.138 -0.2007 -0.2368  0.0381
 1316SOL    HW115407   4.539   3.070   6.124 -0.1718 -1.4851 -1.1475
 1316SOL    HW215408   4.442   2.970   6.184  0.6296  0.3501  1.1872
 1317SOL     OW15409   3.957   1.094   6.792  1.3592  0.1002 -0.3026
 1317SOL    HW115410   3.965   1.131   6.704 -0.3517 -0.1321 -0.5590
 1317SOL    HW215411   3.961   1.177   6.839  4.9651  2.3005 -4.4678
 1318SOL     OW15412   2.064   1.697  16.140  0.3679 -0.1838  0.3945
 1318SOL    HW115413   2.133   1.673  16.201  0.7837  0.8034  0.2978
 1318SOL    HW215414   2.042   1.784  16.174 -1.6290 -1.3304  2.0974
 1319SOL     OW15415   3.069   1.478   2.162 -0.0606  0.4836  0.1718
 1319SOL    HW115416   3.132   1.544   2.135  0.2977  0.4959  1.0347
 1319SOL    HW215417   3.064   1.408   2.097  2.1563  1.9756 -1.5789
 1320SOL     OW15418   1.851   3.976   8.661  0.7559 -0.6357  1.2081
 1320SOL    HW115419   1.919   4.018   8.608  0.2730 -0.8821  0.3905
 1320SOL    HW215420   1.779   4.039   8.661  1.5060  0.2422 -1.2090
 1321SOL     OW15421   3.415   3.512  16.827 -0.3838 -0.2307 -0.2068
 1321SOL    HW115422   3.493   3.458  16.822  0.9781  1.4295  3.7026
 1321SOL    HW215423   3.384   3.484  16.740  1.1763  0.4050 -0.9582
 1322SOL     OW15424   4.566   4.551   2.833 -0.1578 -0.4678 -0.3457
 1322SOL    HW115425   4.660   4.553   2.816 -0.0699 -1.6101 -0.0580
 1322SOL    HW215426   4.543   4.481   2.894  0.2658  0.4018  0.7970
 1323SOL     OW15427   0.521   2.181   6.713 -0.0405 -0.5640 -0.8914
 1323SOL    HW115428   0.602   2.191   6.662  0.1500 -0.5622 -0.5877
 1323SOL    HW215429   0.550   2.221   6.795  0.9948 -0.1951 -1.4327
 1324SOL     OW15430   4.177   1.469  12.386 -0.1236  0.4980 -0.4176
 1324SOL    HW115431   4.098   1.421  12.363  0.9567 -1.3736 -0.2484
 1324SOL    HW215432   4.233   1.445  12.312  0.8534 -0.6784  0.6958
 1325SOL     OW15433   0.068   2.188   3.782  0.4475  0.2607  0.5069
 1325SOL    HW115434   4.721   2.170   3.838  0.8140 -2.7355  0.0577
 1325SOL    HW215435   0.061   2.126   3.709 -0.2364  0.7338  0.1762
 1326SOL     OW15436   2.342   4.307   1.936 -0.2044 -0.4858 -0.2234
 1326SOL    HW115437   2.266   4.318   1.879 -0.8613 -0.7897  0.5938
 1326SOL    HW215438   2.399   4.249   1.884 -0.5688 -1.0129 -0.0326
 1327SOL     OW15439   2.688   2.527   9.653  0.2890  0.4615  0.7286
 1327SOL    HW115440   2.773   2.500   9.688  1.4909  0.4986 -2.2211
 1327SOL    HW215441   2.629   2.456   9.678 -0.6216  0.4244 -1.5696
 1328SOL     OW15442   3.357   4.052   4.035 -0.0257  0.1747 -0.0277
 1328SOL    HW115443   3.403   4.003   4.103 -0.0120  0.4621  0.1672
 1328SOL    HW215444   3.311   4.116   4.088  1.4599  0.3103  1.1034
 1329SOL     OW15445   1.454   3.490  12.098  0.4300  0.7326  0.1501
 1329SOL    HW115446   1.388   3.488  12.029  0.9649  0.4832 -0.3580
 1329SOL    HW215447   1.527   3.472  12.039  1.2028 -0.2536  1.4118
 1330SOL     OW15448   2.824   0.683   5.567 -0.2532  0.6505  0.0328
 1330SOL    HW115449   2.799   0.616   5.504  0.6711 -0.2463  0.6144
 1330SOL    HW215450   2.915   0.660   5.587 -0.0260  1.7897  0.3104
 1331SOL     OW15451   2.266   1.742  11.303  0.1072  0.4696 -0.2712
 1331SOL    HW115452   2.323   1.669  11.328 -2.4410 -1.4631 -0.1725
 1331SOL    HW215453   2.323   1.805  11.259  0.9983 -0.2655 -0.1745
 1332SOL     OW15454   2.641   1.850  11.449 -0.4489  0.0799  0.4317
 1332SOL    HW115455   2.548   1.837  11.430 -0.7987  0.5848  1.8058
 1332SOL    HW215456   2.661   1.918  11.385  0.4112  0.0711  0.6975
 1333SOL     OW15457   1.486   3.209   2.717 -0.1034 -0.3096 -0.1510
 1333SOL    HW115458   1.518   3.296   2.739  0.4332 -0.5213 -0.1149
 1333SOL    HW215459   1.503   3.166   2.801  0.4957 -0.6266 -0.4340
 1334SOL     OW15460   3.967   1.534   0.536 -0.1098  0.0974 -0.0729
 1334SOL    HW115461   4.026   1.558   0.465 -0.8695 -0.6422 -0.9553
 1334SOL    HW215462   3.929   1.613   0.575  0.6772 -0.8112  2.5717
 1335SOL     OW15463   4.603   4.515  12.768 -0.4989 -0.8162 -0.3474
 1335SOL    HW115464   4.655   4.462  12.707  0.5488  0.1909 -0.3334
 1335SOL    HW215465   4.614   4.604  12.735  0.8539 -0.1163  1.9913
 1336SOL     OW15466   0.263   1.204   4.464 -0.3813 -0.2681 -0.2732
 1336SOL    HW115467   0.308   1.120   4.459  0.7760  0.3528 -0.3776
 1336SOL    HW215468   0.264   1.219   4.558 -2.5147 -0.7010 -0.1785
 1337SOL     OW15469   0.374   3.315   3.911 -0.0932  0.5672 -0.8226
 1337SOL    HW115470   0.326   3.340   3.832 -1.8106  0.1508  0.0931
 1337SOL    HW215471   0.315   3.358   3.973 -1.5175 -3.0318  0.2865
 1338SOL     OW15472   1.285   3.515   0.660 -0.0233  0.1942 -0.3434
 1338SOL    HW115473   1.249   3.527   0.748 -3.0122 -0.8100 -1.4278
 1338SOL    HW215474   1.208   3.477   0.619 -0.4639  2.1359 -1.3079
 1339SOL     OW15475   1.726   0.356  14.602  0.4763 -0.5306  0.4818
 1339SOL    HW115476   1.686   0.390  14.683 -0.3857  1.2657 -0.6994
 1339SOL    HW215477   1.753   0.439  14.563 -1.1116 -0.6237 -0.8021
 1340SOL     OW15478   4.674   0.621   1.870  0.7357  0.1705  0.0113
 1340SOL    HW115479   4.710   0.533   1.875 -2.8166 -1.1773  1.6025
 1340SOL    HW215480   4.709   0.657   1.788 -0.5177 -0.0263 -0.6183
 1341SOL     OW15481   1.577   0.210   4.521 -0.0676  0.2736  0.4440
 1341SOL    HW115482   1.587   0.200   4.616  2.5631 -2.2482 -0.0819
 1341SOL    HW215483   1.491   0.249   4.506  0.3839  0.9318 -0.4579
 1342SOL     OW15484   3.672   3.864   9.144  0.0856  0.6104  0.5096
 1342SOL    HW115485   3.692   3.898   9.232 -0.2380  2.8503 -0.2712
 1342SOL    HW215486   3.748   3.896   9.096 -1.9601  1.5183 -2.0822
 1343SOL     OW15487   1.102   0.611   4.096  0.1887 -0.0949 -0.1752
 1343SOL    HW115488   1.080   0.598   4.004 -1.0167  1.2345 -0.0748
 1343SOL    HW215489   1.052   0.690   4.118  0.7712  0.0217  0.7720
 1344SOL     OW15490   1.021   2.812   3.015 -0.0250 -0.0377  0.2553
 1344SOL    HW115491   0.944   2.757   3.001  0.4615 -0.3502 -1.1701
 1344SOL    HW215492   0.983   2.873   3.079  0.5299  1.8992 -1.2545
 1345SOL     OW15493   4.057   4.312  17.675 -0.0611 -0.1331  0.3171
 1345SOL    HW115494   3.973   4.344   0.001 -0.9231  1.1327 -2.8123
 1345SOL    HW215495   4.043   4.218  17.677 -0.2999 -0.1272 -1.0467
 1346SOL     OW15496   2.203   0.417   5.265 -0.3265 -0.8044 -0.1935
 1346SOL    HW115497   2.203   0.376   5.179 -2.3276 -0.0824 -0.5319
 1346SOL    HW215498   2.111   0.441   5.280  0.1619 -0.2682  1.9242
 1347SOL     OW15499   1.476   1.684  10.538 -0.3122 -0.0759  0.2067
 1347SOL    HW115500   1.530   1.659  10.463 -0.5080 -0.0136  0.0447
 1347SOL    HW215501   1.406   1.621  10.520  1.5070 -2.1618  0.4471
 1348SOL     OW15502   1.939   1.366   4.865 -0.3939 -0.2331 -0.2929
 1348SOL    HW115503   1.885   1.345   4.941 -2.5804 -0.1315 -1.8148
 1348SOL    HW215504   1.936   1.461   4.855  0.7532 -0.5858 -4.0101
 1349SOL     OW15505   4.202   3.970   1.798  0.3356 -0.1680  0.4619
 1349SOL    HW115506   4.254   4.045   1.770  0.1959 -0.3476 -0.2858
 1349SOL    HW215507   4.244   3.945   1.880 -0.5551  3.2353  1.9702
 1350SOL     OW15508   3.046   4.125   8.256 -0.2162  0.5288 -0.2318
 1350SOL    HW115509   3.086   4.195   8.307 -0.0468 -0.0818  0.4804
 1350SOL    HW215510   2.989   4.178   8.200 -2.5279 -1.3565  0.3382
 1351SOL     OW15511   2.139   0.288   3.922 -0.2555  0.2804 -0.6764
 1351SOL    HW115512   2.163   0.325   4.007 -1.0535 -1.3452  0.2535
 1351SOL    HW215513   2.055   0.252   3.951  0.1342  0.7904  1.0984
 1352SOL     OW15514   4.119   2.082   8.905  0.3172  0.4313  0.0519
 1352SOL    HW115515   4.034   2.100   8.946 -0.3260 -1.1289 -0.5919
 1352SOL    HW215516   4.171   2.035   8.970  2.8710  2.4668 -0.5245
 1353SOL     OW15517   2.611   2.939   2.894 -0.6748 -0.6216 -0.2918
 1353SOL    HW115518   2.586   2.968   2.982  0.3856  1.9473 -0.8187
 1353SOL    HW215519   2.705   2.954   2.895 -0.8485  0.4028  2.1773
 1354SOL     OW15520   3.227   3.515  13.213  0.3639  0.1039 -0.6367
 1354SOL    HW115521   3.190   3.427  13.223 -0.2183  0.2880 -1.2133
 1354SOL    HW215522   3.236   3.540  13.305  4.3435 -0.5602 -0.8166
 1355SOL     OW15523   1.024   3.607   3.372  0.3179  0.2723  0.4969
 1355SOL    HW115524   1.064   3.572   3.451 -1.2097 -1.8177  0.3309
 1355SOL    HW215525   0.939   3.630   3.410 -0.7697 -1.9118 -0.6278
 1356SOL     OW15526   0.647   3.313   3.956  0.1056 -0.0618  0.3803
 1356SOL    HW115527   0.557   3.322   3.925 -0.7261 -2.4676  2.1251
 1356SOL    HW215528   0.669   3.400   3.989  1.4527 -0.8280  1.5323
 1357SOL     OW15529   0.252   4.630   5.986 -0.0022 -0.4228 -0.0688
 1357SOL    HW115530   0.336   4.586   5.998  0.6901  1.6276  2.7022
 1357SOL    HW215531   0.287   4.705   5.938  1.0447 -0.3012  0.8898
 1358SOL     OW15532   2.938   0.445   9.267 -0.2299 -0.8294  0.3946
 1358SOL    HW115533   2.935   0.350   9.262  0.0678 -0.9057  1.8425
 1358SOL    HW215534   3.010   0.462   9.206 -0.4646 -2.3141 -0.2960
 1359SOL     OW15535   1.787   2.957  12.944  0.0687  0.4054 -0.0051
 1359SOL    HW115536   1.781   3.050  12.967 -2.6217  0.1447  0.2958
 1359SOL    HW215537   1.701   2.926  12.917  0.2401 -0.0356 -0.0435
 1360SOL     OW15538   2.751   3.820   8.896  0.0988 -0.1996  0.2420
 1360SOL    HW115539   2.810   3.778   8.957 -0.3790 -0.7121  0.3449
 1360SOL    HW215540   2.677   3.759   8.894  0.3343 -0.3982 -2.1866
 1361SOL     OW15541   4.694   4.206   1.297 -0.3710  0.4957  0.0004
 1361SOL    HW115542   4.699   4.111   1.292  1.6107  0.5106  1.7696
 1361SOL    HW215543   4.605   4.226   1.324 -0.3678 -1.3736  1.3575
 1362SOL     OW15544   3.469   0.342   1.410 -0.3856  0.2800 -0.4799
 1362SOL    HW115545   3.517   0.264   1.383 -0.0763 -0.0317  0.9643
 1362SOL    HW215546   3.530   0.386   1.470  1.8890 -2.2475 -0.9444
 1363SOL     OW15547   1.754   1.282   6.361  0.3332 -0.0146  0.0620
 1363SOL    HW115548   1.755   1.285   6.457  0.0773 -1.3505  0.1035
 1363SOL    HW215549   1.821   1.340   6.325  1.1285 -0.7442  0.3806
 1364SOL     OW15550   0.961   2.893  12.306  0.1219 -0.0386  0.0123
 1364SOL    HW115551   0.899   2.821  12.316  0.1250 -0.1887 -1.0716
 1364SOL    HW215552   0.925   2.937  12.229  0.8741  0.2336 -0.1759
 1365SOL     OW15553   2.394   4.306  11.284  0.0459  0.6563  0.0107
 1365SOL    HW115554   2.340   4.242  11.331  1.7375 -0.9834 -0.2766
 1365SOL    HW215555   2.370   4.381  11.338  0.0584  1.4090 -1.0430
 1366SOL     OW15556   2.395   3.276   7.935  0.3696  0.1579  0.2281
 1366SOL    HW115557   2.354   3.280   8.022  1.9794 -0.7346  1.0287
 1366SOL    HW215558   2.435   3.189   7.940  0.8471  0.3259 -0.6494
 1367SOL     OW15559   4.583   4.147   9.753 -0.1679 -0.2252  0.1616
 1367SOL    HW115560   4.611   4.071   9.702  0.9778  0.7874 -0.7073
 1367SOL    HW215561   4.663   4.197   9.744  0.5907 -0.7162  4.1967
 1368SOL     OW15562   4.718   2.842   4.973  0.3905  0.0320 -0.1562
 1368SOL    HW115563   4.714   2.775   4.905 -0.4036  0.3747 -0.4438
 1368SOL    HW215564   0.060   2.804   5.027 -0.6399  0.1453  1.2526
 1369SOL     OW15565   4.222   2.223   7.958 -0.4746  0.4589 -0.6656
 1369SOL    HW115566   4.199   2.140   7.999 -2.7277  1.3273 -0.1815
 1369SOL    HW215567   4.135   2.250   7.929 -0.1663  0.4864 -1.5648
 1370SOL     OW15568   0.263   3.093  14.901  0.6134 -0.3166  0.2407
 1370SOL    HW115569   0.258   3.187  14.920  0.9372 -0.7260  2.3759
 1370SOL    HW215570   0.346   3.070  14.944 -0.2194  0.4680  2.2794
 1371SOL     OW15571   4.043   2.774   3.282 -0.6988 -0.1114  0.1635
 1371SOL    HW115572   3.959   2.818   3.296 -1.0646 -0.8713  0.3748
 1371SOL    HW215573   4.016   2.684   3.265  0.6068 -0.6745  1.0139
 1372SOL     OW15574   3.575   0.771   6.764  0.1591 -0.3511  0.2342
 1372SOL    HW115575   3.487   0.772   6.727  1.0518  0.5840 -1.8148
 1372SOL    HW215576   3.632   0.799   6.693 -0.9230  1.2321 -0.0047
 1373SOL     OW15577   1.800   4.127   5.719 -0.1750 -0.7523  0.5118
 1373SOL    HW115578   1.839   4.095   5.638 -0.4821  1.0873 -0.3590
 1373SOL    HW215579   1.705   4.124   5.707 -0.1970  0.3139  0.4492
 1374SOL     OW15580   3.772   0.863   6.566  0.3334 -0.3023  0.3146
 1374SOL    HW115581   3.809   0.776   6.551  2.6537  0.4669  1.4909
 1374SOL    HW215582   3.793   0.902   6.481 -0.2089  0.5798  0.5959
 1375SOL     OW15583   0.846   2.609   3.038  0.1590  0.0327 -0.3058
 1375SOL    HW115584   0.841   2.546   3.110 -1.3925  1.5404  0.8935
 1375SOL    HW215585   0.753   2.629   3.027  0.5136  0.4225 -2.5020
 1376SOL     OW15586   0.505   0.795  11.598 -0.1919 -0.4677  0.1162
 1376SOL    HW115587   0.429   0.739  11.581  0.6533 -2.1664  1.9316
 1376SOL    HW215588   0.565   0.723  11.619 -2.7679 -3.0747 -1.4535
 1377SOL     OW15589   2.197   0.588   3.655 -0.0595 -0.1964  0.0436
 1377SOL    HW115590   2.133   0.548   3.597 -0.9446 -0.3963  1.1565
 1377SOL    HW215591   2.279   0.542   3.638 -0.4133 -0.9033  0.2515
 1378SOL     OW15592   1.745   3.465   5.798 -0.0201 -0.3456  0.2988
 1378SOL    HW115593   1.737   3.535   5.733  2.8719 -0.4252 -0.1646
 1378SOL    HW215594   1.692   3.397   5.757  3.7806 -4.6450  2.5725
 1379SOL     OW15595   4.174   1.355   3.352 -0.1436  0.0410  0.5431
 1379SOL    HW115596   4.191   1.447   3.374  0.4090  0.9378 -3.6173
 1379SOL    HW215597   4.220   1.348   3.269 -1.2899 -2.2000  0.1039
 1380SOL     OW15598   2.841   0.738  15.948 -0.0764 -0.2003 -0.0829
 1380SOL    HW115599   2.811   0.647  15.949  0.4984 -0.3968 -1.0578
 1380SOL    HW215600   2.935   0.727  15.934 -0.7495 -2.3676 -2.8324
 1381SOL     OW15601   4.551   4.567   8.165 -0.4462 -0.0204  0.0848
 1381SOL    HW115602   4.570   4.611   8.248  0.2333  2.6516 -1.4745
 1381SOL    HW215603   4.467   4.610   8.152  0.6321  1.0797 -3.3539
 1382SOL     OW15604   1.816   0.469   2.343  0.8455  0.2657  0.1440
 1382SOL    HW115605   1.892   0.527   2.351  0.7061  0.4832 -0.1027
 1382SOL    HW215606   1.785   0.478   2.433  0.8628  1.6524  0.0124
 1383SOL     OW15607   4.721   3.385   2.357  0.1139 -0.2914  0.4203
 1383SOL    HW115608   0.008   3.304   2.407  1.8085 -1.7606 -2.4204
 1383SOL    HW215609   4.714   3.349   2.268 -1.9545  0.1004  0.4253
 1384SOL     OW15610   1.620   0.637   5.826  0.0963  0.1661 -0.6128
 1384SOL    HW115611   1.584   0.678   5.905 -0.0519 -0.4308 -0.3733
 1384SOL    HW215612   1.604   0.545   5.845  2.3249 -0.2497 -0.6559
 1385SOL     OW15613   3.270   4.187  10.612 -0.1317 -0.2063 -0.4237
 1385SOL    HW115614   3.322   4.223  10.683 -0.4939  1.3905 -0.9656
 1385SOL    HW215615   3.182   4.189  10.648  0.6854 -1.0177  1.6308
 1386SOL     OW15616   1.153   3.189  12.044  0.2126 -0.7544 -0.4760
 1386SOL    HW115617   1.199   3.271  12.028 -0.1826 -0.5230 -0.4403
 1386SOL    HW215618   1.104   3.212  12.123  0.2904  0.4214 -0.7689
 1387SOL     OW15619   1.788   1.265   5.910  0.2246 -0.6462 -0.1814
 1387SOL    HW115620   1.716   1.291   5.968 -1.3801 -0.5691 -2.1851
 1387SOL    HW215621   1.781   1.342   5.852  0.6395 -0.4669  0.0135
 1388SOL     OW15622   3.643   3.489  13.346 -0.0161 -0.1776  0.5487
 1388SOL    HW115623   3.639   3.425  13.417 -4.8537  0.1451  0.5536
 1388SOL    HW215624   3.591   3.561  13.383  0.5408  1.4866 -1.9394
 1389SOL     OW15625   4.649   1.156   8.235  0.0253 -0.5795 -0.4754
 1389SOL    HW115626   4.615   1.068   8.224  1.0461 -0.9334 -0.7716
 1389SOL    HW215627   4.578   1.193   8.289  1.8896  1.0705  0.8393
 1390SOL     OW15628   2.268   4.283   2.942 -0.1504 -0.2199  0.7256
 1390SOL    HW115629   2.352   4.276   2.986 -1.5063  0.2163  3.3600
 1390SOL    HW215630   2.286   4.358   2.885 -0.9192 -0.9238 -0.4415
 1391SOL     OW15631   1.574   4.301   4.035 -0.1538  0.7418  0.2397
 1391SOL    HW115632   1.622   4.346   3.966  1.6435 -0.0835  0.9475
 1391SOL    HW215633   1.636   4.276   4.104  0.9822 -0.4591 -1.2229
 1392SOL     OW15634   1.608   0.887   7.534  0.1159  0.7453 -0.6202
 1392SOL    HW115635   1.632   0.955   7.471  1.6434 -1.1577 -2.0629
 1392SOL    HW215636   1.535   0.928   7.581  0.9085  0.7378  0.6299
 1393SOL     OW15637   4.086   3.886   8.588  0.8111  0.0645 -0.4867
 1393SOL    HW115638   4.028   3.819   8.622 -1.0861  0.5292 -2.8185
 1393SOL    HW215639   4.091   3.951   8.658  0.0013 -3.1348  2.5118
 1394SOL     OW15640   2.884   0.458   7.950  0.2694 -0.2507  0.2569
 1394SOL    HW115641   2.873   0.371   7.911  2.1107 -0.0386 -0.6933
 1394SOL    HW215642   2.918   0.515   7.881 -1.1218 -0.1970 -0.3882
 1395SOL     OW15643   3.314   1.737   2.321  0.2949  0.1784  0.0718
 1395SOL    HW115644   3.247   1.688   2.367 -0.6197  0.2258 -1.2124
 1395SOL    HW215645   3.290   1.728   2.229  0.9344  0.3363 -0.1124
 1396SOL     OW15646   4.677   1.130   5.422  0.1714 -0.5254  0.4833
 1396SOL    HW115647   0.003   1.201   5.385  2.3399 -1.8504  1.0913
 1396SOL    HW215648   4.662   1.073   5.346  1.5664  0.6498 -0.6560
 1397SOL     OW15649   0.695   1.545   7.466  0.0545  0.6372 -0.1172
 1397SOL    HW115650   0.633   1.528   7.537  0.6048  1.8980  0.6622
 1397SOL    HW215651   0.761   1.603   7.503  1.1444 -0.7558  0.1044
 1398SOL     OW15652   0.916   4.603  11.765  0.4696 -0.3119 -0.3045
 1398SOL    HW115653   0.848   4.592  11.699 -0.2785  1.4992  0.1739
 1398SOL    HW215654   0.980   4.536  11.741 -0.1801 -0.9937 -0.1739
 1399SOL     OW15655   1.509   1.377   1.400  0.0451  0.1286 -0.2238
 1399SOL    HW115656   1.500   1.468   1.372  3.1853  0.0861 -1.3562
 1399SOL    HW215657   1.468   1.373   1.486  0.8119  0.3339  0.1568
 1400SOL     OW15658   4.405   3.720  14.696 -0.3239 -0.3343 -0.2350
 1400SOL    HW115659   4.337   3.663  14.732  0.7119 -1.3119  0.1657
 1400SOL    HW215660   4.411   3.792  14.759 -0.1568 -0.4438 -0.1280
 1401SOL     OW15661   4.252   4.470   3.532 -0.4055 -0.2053  1.1380
 1401SOL    HW115662   4.160   4.453   3.553 -0.6635 -0.6755 -0.3835
 1401SOL    HW215663   4.252   4.437   3.443  0.5056 -1.1599  1.4877
 1402SOL     OW15664   1.526   1.607   6.143 -0.7402 -0.0583 -0.2064
 1402SOL    HW115665   1.433   1.631   6.142 -0.9290 -0.7530  1.0373
 1402SOL    HW215666   1.552   1.652   6.223 -1.6509 -2.2362  1.3165
 1403SOL     OW15667   3.645   2.927   4.346 -0.8353 -0.1132 -0.3876
 1403SOL    HW115668   3.599   3.010   4.344  0.9087  0.8259 -1.2219
 1403SOL    HW215669   3.594   2.873   4.285 -1.7141  0.3745 -0.0940
 1404SOL     OW15670   3.965   3.887   4.550 -0.3566 -0.4973 -0.3841
 1404SOL    HW115671   3.981   3.979   4.529 -0.0541 -0.9299 -2.1115
 1404SOL    HW215672   4.033   3.867   4.615  0.4281  1.6221 -0.5571
 1405SOL     OW15673   3.069   0.909   1.806  0.1644 -0.2296 -0.5067
 1405SOL    HW115674   3.068   0.816   1.783  0.0877  0.1311 -1.9440
 1405SOL    HW215675   2.983   0.916   1.847 -0.0116 -0.7933 -0.7710
 1406SOL     OW15676   3.379   2.276   3.297  0.2751 -0.1650  0.5701
 1406SOL    HW115677   3.426   2.290   3.216  3.2391  0.9140  2.4793
 1406SOL    HW215678   3.441   2.304   3.364  0.1977 -1.5062  1.1977
 1407SOL     OW15679   0.283   1.027   7.703  0.7484  0.6657  0.4939
 1407SOL    HW115680   0.365   1.074   7.718  2.0586 -1.2569 -0.6565
 1407SOL    HW215681   0.266   0.987   7.788 -1.2461 -2.7239 -1.4738
 1408SOL     OW15682   4.203   2.858   6.490 -0.0464  0.8351  0.4629
 1408SOL    HW115683   4.173   2.833   6.577 -1.9607 -0.8933 -0.6751
 1408SOL    HW215684   4.297   2.846   6.478 -0.0036  1.9734 -0.2979
 1409SOL     OW15685   0.914   2.936   5.992  0.1492 -0.7532 -0.7726
 1409SOL    HW115686   0.883   2.856   6.033 -0.0861 -0.5343 -0.5241
 1409SOL    HW215687   0.889   2.932   5.900  1.8852  1.0196 -1.3288
 1410SOL     OW15688   1.687   3.488  15.553 -0.0267  0.2926 -0.1096
 1410SOL    HW115689   1.618   3.465  15.490 -0.9543  0.8118  0.7123
 1410SOL    HW215690   1.674   3.578  15.581  0.1199  0.0616  0.7055
 1411SOL     OW15691   2.359   4.005  15.910 -0.0095 -0.3528 -0.3919
 1411SOL    HW115692   2.452   4.001  15.935  0.3378  0.6057 -1.5448
 1411SOL    HW215693   2.347   4.100  15.906 -1.9046 -0.6053 -0.6572
 1412SOL     OW15694   0.051   3.081   4.874  0.2231  0.0400  0.0775
 1412SOL    HW115695   0.054   3.121   4.961  0.3369 -1.1952  0.6473
 1412SOL    HW215696   0.025   2.993   4.902  1.1151  0.0054  0.7748
 1413SOL     OW15697   1.326   2.182   2.792  0.0978 -0.0347  0.8037
 1413SOL    HW115698   1.253   2.182   2.854  0.8003  1.9060  1.6244
 1413SOL    HW215699   1.301   2.111   2.733  1.3874  0.5085 -0.3872
 1414SOL     OW15700   3.830   4.026   8.950 -0.6522 -0.2616 -0.2731
 1414SOL    HW115701   3.782   4.103   8.982 -0.0329  0.3203 -0.7264
 1414SOL    HW215702   3.917   4.040   8.988  0.2786 -1.5520 -1.9586
 1415SOL     OW15703   3.898   0.841   5.302 -1.1210  0.4190  0.7363
 1415SOL    HW115704   3.818   0.836   5.250 -1.0959  3.3449  0.4442
 1415SOL    HW215705   3.905   0.935   5.319  0.6404  0.6115 -1.1532
 1416SOL     OW15706   0.179   0.214   6.833  0.1241  0.6629 -0.3692
 1416SOL    HW115707   0.093   0.179   6.858  1.1654 -2.1565 -0.8173
 1416SOL    HW215708   0.148   0.295   6.792 -2.5980 -1.0182 -1.6495
 1417SOL     OW15709   0.572   3.487   5.510  0.2303 -0.1344  0.0403
 1417SOL    HW115710   0.645   3.541   5.538 -0.2808  0.2270  0.6758
 1417SOL    HW215711   0.580   3.415   5.572 -0.6484  1.9369  2.5388
 1418SOL     OW15712   4.014   0.795   3.994  0.4976 -0.6525 -0.0812
 1418SOL    HW115713   3.955   0.859   3.953 -1.3887 -1.9239  0.6738
 1418SOL    HW215714   3.949   0.725   3.990 -0.7484  0.6238 -2.2684
 1419SOL     OW15715   1.863   2.829   2.183 -0.1153  0.2130 -0.2243
 1419SOL    HW115716   1.882   2.922   2.171  0.9952  0.1406  1.0609
 1419SOL    HW215717   1.767   2.825   2.183 -0.1564  1.0110 -0.4328
 1420SOL     OW15718   3.228   3.936   3.246  0.5588  0.5876  0.3392
 1420SOL    HW115719   3.300   3.915   3.306 -1.2174 -0.5577  2.0809
 1420SOL    HW215720   3.260   3.914   3.159  0.9901 -3.2743  1.4573
 1421SOL     OW15721   0.755   4.220  15.120 -0.0877  0.1110 -0.2948
 1421SOL    HW115722   0.664   4.211  15.147  0.7817 -1.0392  2.2191
 1421SOL    HW215723   0.743   4.310  15.089  3.2151  1.0963  1.2766
 1422SOL     OW15724   2.006   0.705  14.985  0.0053 -0.5150 -0.1126
 1422SOL    HW115725   1.934   0.764  14.966  0.1347 -0.2892  0.0974
 1422SOL    HW215726   2.020   0.662  14.901 -1.4596  1.5230 -1.3825
 1423SOL     OW15727   0.523   2.478   4.737 -0.4730  0.0463 -0.2043
 1423SOL    HW115728   0.583   2.535   4.690 -1.8463 -1.5832 -3.9280
 1423SOL    HW215729   0.540   2.390   4.703  2.6882  1.0871 -1.3176
 1424SOL     OW15730   4.475   3.737  16.393 -0.6045 -0.0471 -0.0785
 1424SOL    HW115731   4.462   3.804  16.460  1.7231 -0.9637  1.2956
 1424SOL    HW215732   4.400   3.679  16.406  0.4700 -1.8023 -1.7262
 1425SOL     OW15733   1.095   3.121   8.638  0.6985  0.5002  0.3909
 1425SOL    HW115734   1.187   3.134   8.614  0.6024 -0.5503 -0.5482
 1425SOL    HW215735   1.103   3.039   8.687  0.4935 -0.9494 -2.0249
 1426SOL     OW15736   3.740   2.078   3.973  0.7148 -0.4235  0.2544
 1426SOL    HW115737   3.722   2.149   4.034 -0.4045 -1.7509  1.4547
 1426SOL    HW215738   3.648   2.060   3.956  0.5237 -0.1087  0.9788
 1427SOL     OW15739   4.704   1.602   4.893 -0.2113 -0.0402 -0.1790
 1427SOL    HW115740   4.718   1.681   4.945  1.7251  0.6161 -1.7063
 1427SOL    HW215741   0.028   1.625   4.815  0.7136  0.5092  0.5940
 1428SOL     OW15742   1.063   0.428  13.749 -0.4582 -0.0792  0.5469
 1428SOL    HW115743   0.979   0.473  13.747 -1.2174 -1.4767  0.7160
 1428SOL    HW215744   1.107   0.498  13.797  1.5515 -1.6862  1.1028
 1429SOL     OW15745   1.495   3.211  15.165 -0.0393 -0.2920  0.1198
 1429SOL    HW115746   1.400   3.216  15.155 -0.4327 -0.4984  3.7184
 1429SOL    HW215747   1.517   3.247  15.079 -0.4587 -1.2398 -0.3798
 1430SOL     OW15748   0.076   0.929  14.995 -0.1614 -0.3319  0.2759
 1430SOL    HW115749   0.121   0.844  14.995 -0.1034 -0.2781 -2.5074
 1430SOL    HW215750   0.135   0.972  15.056  0.0633 -1.4451  0.8469
 1431SOL     OW15751   0.743   1.499   6.651  0.3056 -0.3060 -0.3254
 1431SOL    HW115752   0.830   1.462   6.639  1.0669  1.6101 -0.8107
 1431SOL    HW215753   0.713   1.434   6.714  3.0306 -1.5180 -0.2896
 1432SOL     OW15754   0.657   2.966   2.737 -0.1590 -0.6981 -0.4582
 1432SOL    HW115755   0.637   2.898   2.674  2.3687  0.5409 -2.5773
 1432SOL    HW215756   0.733   3.013   2.703  0.8676 -1.3989  0.8619
 1433SOL     OW15757   3.618   1.734  12.397  0.1530 -0.3878  0.5363
 1433SOL    HW115758   3.622   1.715  12.491 -1.3990 -0.3358  0.6113
 1433SOL    HW215759   3.707   1.750  12.366 -0.0410 -0.2477  0.0555
 1434SOL     OW15760   0.147   3.644   8.014  0.3146  0.2419 -0.2622
 1434SOL    HW115761   0.091   3.622   8.088 -0.4470  0.8033 -0.6807
 1434SOL    HW215762   0.083   3.640   7.943  0.9716  2.8271 -1.0025
 1435SOL     OW15763   1.926   2.645   9.906 -0.2671  0.0361  0.0366
 1435SOL    HW115764   2.000   2.671   9.961  0.7354  0.8836 -1.7156
 1435SOL    HW215765   1.933   2.704   9.831 -1.5301  0.9731  0.6528
 1436SOL     OW15766   0.457   1.099   6.161 -0.1333  0.2391  0.1499
 1436SOL    HW115767   0.398   1.025   6.180 -0.0949  0.3108  0.5488
 1436SOL    HW215768   0.432   1.162   6.228 -0.6215 -0.3481  0.5278
 1437SOL     OW15769   1.193   0.919  15.190  0.7444  0.3113 -0.7449
 1437SOL    HW115770   1.274   0.876  15.217 -0.7375 -0.9543  1.6463
 1437SOL    HW215771   1.221   1.002  15.229  1.8469 -0.6636  0.5257
 1438SOL     OW15772   3.241   4.701   5.445 -0.4486 -0.0503 -0.2766
 1438SOL    HW115773   3.246   0.062   5.409  0.8898 -0.0682 -0.1129
 1438SOL    HW215774   3.156   4.667   5.417 -0.6837  0.7282 -0.5147
 1439SOL     OW15775   2.691   1.445  16.089  0.3774  0.2404 -0.0388
 1439SOL    HW115776   2.681   1.474  15.998 -0.9795 -2.1829 -0.6803
 1439SOL    HW215777   2.772   1.395  16.093 -0.2123 -0.7908 -0.9018
 1440SOL     OW15778   1.994   3.530   3.548 -0.5171 -0.4686  0.3461
 1440SOL    HW115779   1.976   3.478   3.470 -2.6285  0.4798  0.2055
 1440SOL    HW215780   2.089   3.536   3.546 -0.6891  2.1290  0.5171
 1441SOL     OW15781   4.057   0.005   8.926  0.0836  0.0191 -0.0889
 1441SOL    HW115782   4.070   0.059   8.848 -0.9805 -2.2704 -1.8754
 1441SOL    HW215783   4.028   0.067   8.993  0.7554  0.8388 -0.5591
 1442SOL     OW15784   3.217   2.452   4.207  0.7328  0.0967  0.1105
 1442SOL    HW115785   3.226   2.455   4.302  0.5536 -1.0128  0.1721
 1442SOL    HW215786   3.148   2.517   4.193  0.0454 -0.5841  0.2744
 1443SOL     OW15787   0.975   3.510   3.098  0.0367 -0.6443  0.2050
 1443SOL    HW115788   0.991   3.565   3.175  2.3834  0.1195 -0.8425
 1443SOL    HW215789   1.041   3.536   3.033  0.1081  0.7805  0.8448
 1444SOL     OW15790   2.569   3.401   6.663  0.0121  0.2491  0.5382
 1444SOL    HW115791   2.578   3.486   6.619  1.1663  0.1796  0.6511
 1444SOL    HW215792   2.481   3.400   6.701  1.0618 -1.3719  2.8494
 1445SOL     OW15793   2.237   4.358   8.243 -0.2170 -0.7527 -0.0126
 1445SOL    HW115794   2.265   4.391   8.328  0.7188 -0.9686 -0.2390
 1445SOL    HW215795   2.316   4.309   8.221  0.1013 -0.5007  0.5728
 1446SOL     OW15796   3.785   3.191   9.113  0.1638  0.0980 -0.1642
 1446SOL    HW115797   3.691   3.191   9.132  0.6811  2.1962  2.3797
 1446SOL    HW215798   3.797   3.264   9.053 -0.8651 -0.0743 -0.5816
 1447SOL     OW15799   1.500   4.434  17.334 -0.6373  0.5481  0.1229
 1447SOL    HW115800   1.551   4.394  17.404  0.7838  0.0214 -1.2227
 1447SOL    HW215801   1.573   4.464  17.279  0.0972 -0.4056  0.5802
 1448SOL     OW15802   2.932   1.145   6.447 -0.0509 -0.1703  0.1888
 1448SOL    HW115803   2.926   1.145   6.351 -2.0544  0.8038  0.3136
 1448SOL    HW215804   2.865   1.082   6.474  0.8964 -1.9893 -1.7202
 1449SOL     OW15805   4.381   3.408   2.736  0.5027  0.4523 -0.1238
 1449SOL    HW115806   4.422   3.407   2.649 -0.3352 -0.0448 -0.5157
 1449SOL    HW215807   4.444   3.358   2.787  0.0608 -1.5805 -1.5740
 1450SOL     OW15808   1.752   2.815   7.325  0.6913  0.6939 -0.3300
 1450SOL    HW115809   1.733   2.889   7.382 -0.3420  1.4970 -1.7452
 1450SOL    HW215810   1.669   2.769   7.317  2.2724 -2.5176  1.4770
 1451SOL     OW15811   3.999   4.110   9.649  1.0556  0.4571  0.2315
 1451SOL    HW115812   4.035   4.021   9.649 -1.4366 -0.5523 -0.3651
 1451SOL    HW215813   4.072   4.167   9.625  1.3182  0.6967  1.6098
 1452SOL     OW15814   0.032   3.241   1.426  0.0836 -0.3172 -0.1394
 1452SOL    HW115815   4.693   3.199   1.371 -0.4759  0.5692 -0.1301
 1452SOL    HW215816   4.711   3.278   1.500  0.1032  0.2573 -0.4177
 1453SOL     OW15817   4.464   3.894   1.918  0.0196 -0.2175 -0.1538
 1453SOL    HW115818   4.469   3.900   2.014  0.3137 -2.2491 -0.0263
 1453SOL    HW215819   4.411   3.815   1.904 -0.2426 -0.3440  1.5334
 1454SOL     OW15820   3.482   3.605  17.101  0.3859 -0.4702  0.0987
 1454SOL    HW115821   3.435   3.597  17.018  1.3679 -1.1697 -0.3880
 1454SOL    HW215822   3.554   3.662  17.071 -0.1482  0.0784 -0.1508
 1455SOL     OW15823   1.320   0.527   3.316  0.3447 -0.4222  0.0293
 1455SOL    HW115824   1.254   0.459   3.332 -0.4520  1.0796  2.9914
 1455SOL    HW215825   1.262   0.588   3.271 -1.0938 -1.6326  0.2350
 1456SOL     OW15826   1.315   1.798   1.105 -0.0547 -0.1185 -0.2698
 1456SOL    HW115827   1.308   1.859   1.032  0.5510 -0.1800 -0.3779
 1456SOL    HW215828   1.233   1.752   1.091  0.0781 -0.5950  0.5091
 1457SOL     OW15829   0.596   3.731   7.596 -0.1385  0.1760  0.5125
 1457SOL    HW115830   0.584   3.681   7.677  1.2220  0.2290  0.7527
 1457SOL    HW215831   0.528   3.694   7.540 -2.0544  1.0456  2.2847
 1458SOL     OW15832   2.361   4.677  14.646  0.4345 -0.2412  0.1053
 1458SOL    HW115833   2.346   4.634  14.729 -0.4842  2.7741  1.5003
 1458SOL    HW215834   2.274   4.715  14.635  0.6145 -0.4886 -2.2079
 1459SOL     OW15835   2.425   0.549   0.428 -0.7964 -0.7437 -0.4454
 1459SOL    HW115836   2.406   0.631   0.384 -1.0028 -0.0324  0.9573
 1459SOL    HW215837   2.398   0.484   0.363 -0.9178  0.3883 -1.5114
 1460SOL     OW15838   2.138   4.278   5.980 -0.7057 -0.4053 -0.2080
 1460SOL    HW115839   2.082   4.289   6.057 -0.9867  0.4444 -0.5325
 1460SOL    HW215840   2.076   4.254   5.911 -1.5038  0.8356  0.0835
 1461SOL     OW15841   4.595   1.759   2.528  0.1302 -0.2533 -0.6819
 1461SOL    HW115842   4.655   1.736   2.599  0.5037 -1.3388 -1.3277
 1461SOL    HW215843   4.663   1.797   2.472  0.9362 -0.8087 -0.0687
 1462SOL     OW15844   0.678   3.120  16.897  0.2891  0.1410  0.1605
 1462SOL    HW115845   0.620   3.193  16.875 -0.2799  0.0762  1.5100
 1462SOL    HW215846   0.702   3.084  16.811  0.4885 -0.5742  0.5147
 1463SOL     OW15847   2.149   3.562   0.231  0.0761 -0.5600 -0.2548
 1463SOL    HW115848   2.130   3.567   0.137 -2.3489 -2.4406  0.1335
 1463SOL    HW215849   2.154   3.467   0.240 -1.4696 -0.6074  0.2458
 1464SOL     OW15850   3.177   1.058   6.525  0.1488 -0.4788 -0.2143
 1464SOL    HW115851   3.094   1.091   6.492  0.9225  0.4220 -1.2665
 1464SOL    HW215852   3.232   1.103   6.461 -0.9669  0.2725 -0.6324
 1465SOL     OW15853   4.133   3.323  11.803  0.3276  0.1238  0.5696
 1465SOL    HW115854   4.054   3.356  11.760  0.2959  0.5598  0.9581
 1465SOL    HW215855   4.183   3.404  11.793  0.1749  0.3770  1.9046
 1466SOL     OW15856   4.056   2.151   2.387 -0.3246 -0.0797 -0.3070
 1466SOL    HW115857   3.964   2.136   2.408 -0.2714  0.7090  0.5120
 1466SOL    HW215858   4.080   2.208   2.460 -1.0437  1.1570 -1.0331
 1467SOL     OW15859   0.512   3.315   5.880 -0.2028 -0.0825 -0.2314
 1467SOL    HW115860   0.566   3.311   5.801  2.0914  0.7243  1.2830
 1467SOL    HW215861   0.459   3.236   5.871 -0.5439 -0.0021  1.0628
 1468SOL     OW15862   3.681   4.248  11.766  0.4612  0.4676 -0.5679
 1468SOL    HW115863   3.660   4.190  11.693  0.1754  0.0572 -0.1592
 1468SOL    HW215864   3.648   4.198  11.841  0.3377 -3.0650 -2.9952
 1469SOL     OW15865   2.040   0.607   6.761  0.4921  0.2455 -0.2096
 1469SOL    HW115866   2.018   0.633   6.850  1.7263 -0.3052  0.2528
 1469SOL    HW215867   2.096   0.679   6.733 -0.9648  0.6424 -2.1117
 1470SOL     OW15868   1.963   4.266  13.179  0.9254  0.0229  0.3743
 1470SOL    HW115869   1.929   4.178  13.195 -1.4574  0.9713  0.4454
 1470SOL    HW215870   2.023   4.275  13.253 -0.2112 -0.5803  1.3491
 1471SOL     OW15871   2.557   0.141   2.723  0.4439 -0.6024  0.0655
 1471SOL    HW115872   2.568   0.114   2.631 -0.1610  2.1695 -0.8209
 1471SOL    HW215873   2.607   0.073   2.768  2.3763  0.5342 -0.3420
 1472SOL     OW15874   3.844   3.789   8.648  0.7184 -0.2212 -0.5329
 1472SOL    HW115875   3.769   3.730   8.640  0.3628  0.5482 -2.6176
 1472SOL    HW215876   3.884   3.754   8.728  0.5336  0.8872  0.0417
 1473SOL     OW15877   0.210   2.974   6.079  0.2999 -0.4005  0.6642
 1473SOL    HW115878   0.136   2.919   6.053  0.9547 -0.4727 -1.0308
 1473SOL    HW215879   0.206   2.984   6.174  1.8073  4.1138  0.2227
 1474SOL     OW15880   3.445   1.883  16.256 -0.1691 -0.3284  0.0594
 1474SOL    HW115881   3.495   1.927  16.325 -0.3147  1.1608 -0.7817
 1474SOL    HW215882   3.445   1.792  16.287  0.9807 -0.5890 -0.7016
 1475SOL     OW15883   2.417   0.603   4.221 -0.1086  0.1384  0.2443
 1475SOL    HW115884   2.339   0.556   4.251 -0.7360 -0.7631 -2.7877
 1475SOL    HW215885   2.414   0.579   4.128 -1.1523  0.9311  0.0669
 1476SOL     OW15886   2.168   2.615   5.142  0.2550 -0.2278  0.3855
 1476SOL    HW115887   2.228   2.562   5.090  0.8432 -0.6855  1.5261
 1476SOL    HW215888   2.163   2.692   5.086  0.2076 -0.6971 -0.2605
 1477SOL     OW15889   4.325   2.148  13.655 -0.3910 -0.1749 -0.1253
 1477SOL    HW115890   4.236   2.151  13.688 -0.2869 -0.1796  0.1546
 1477SOL    HW215891   4.356   2.237  13.672  1.5275 -1.1329  1.4805
 1478SOL     OW15892   1.946   3.687   3.145  0.0227 -0.2799 -0.0148
 1478SOL    HW115893   1.897   3.666   3.065 -0.1457  0.5397 -0.1294
 1478SOL    HW215894   2.005   3.613   3.156 -0.6716 -0.7125  0.8492
 1479SOL     OW15895   3.785   3.107   7.297  0.0385  0.0168  0.2574
 1479SOL    HW115896   3.735   3.076   7.222 -0.1248  0.4555  0.1844
 1479SOL    HW215897   3.718   3.156   7.345  1.2656  1.5972  0.3995
 1480SOL     OW15898   1.289   2.291   1.356  0.3857  0.3798  0.6400
 1480SOL    HW115899   1.350   2.350   1.402  0.4623  1.1379 -0.4455
 1480SOL    HW215900   1.301   2.208   1.403 -0.6339 -0.0889  0.0522
 1481SOL     OW15901   4.405   0.498   0.718 -0.2823  0.1263  0.0761
 1481SOL    HW115902   4.490   0.455   0.728 -0.5294 -0.3668  0.0524
 1481SOL    HW215903   4.355   0.456   0.787 -1.4380 -0.1409 -0.9318
 1482SOL     OW15904   4.670   3.045   7.117  0.3141  0.6851  0.5148
 1482SOL    HW115905   4.645   2.984   7.047  1.6463  1.7407 -0.8946
 1482SOL    HW215906   0.037   3.026   7.124  0.1387 -0.3955  0.0189
 1483SOL     OW15907   0.100   3.803   2.890  0.5650 -0.2371  0.0638
 1483SOL    HW115908   0.073   3.826   2.801 -0.7767 -1.0270  0.2574
 1483SOL    HW215909   0.168   3.738   2.874  0.5222 -0.2091 -0.2376
 1484SOL     OW15910   0.179   0.194   0.104 -0.3727  0.1538  0.0021
 1484SOL    HW115911   0.184   0.158   0.192 -2.5488 -0.5092 -0.1522
 1484SOL    HW215912   0.267   0.187   0.065  0.4582  1.9315  1.5541
 1485SOL     OW15913   4.102   3.094   2.519  0.0736  0.1744 -0.3700
 1485SOL    HW115914   4.147   3.171   2.484 -1.8327 -0.2312 -3.7604
 1485SOL    HW215915   4.035   3.080   2.452 -0.8435 -0.3212  0.6668
 1486SOL     OW15916   1.707   4.171   3.197  0.1670  0.1655  0.1628
 1486SOL    HW115917   1.765   4.134   3.264 -1.0460  0.6878  1.5059
 1486SOL    HW215918   1.727   4.264   3.209  0.5079  0.2102 -0.7867
 1487SOL     OW15919   3.109   3.370  10.473 -0.0506 -0.1613  0.0518
 1487SOL    HW115920   3.026   3.328  10.494 -1.0091  2.3036  1.2714
 1487SOL    HW215921   3.083   3.428  10.401  1.3299  1.6191  0.9777
 1488SOL     OW15922   0.532   1.225   2.005 -0.0136  0.4352  0.4844
 1488SOL    HW115923   0.570   1.306   1.972 -1.3910  0.5521 -0.7871
 1488SOL    HW215924   0.613   1.179   2.028 -0.3014 -1.9592 -3.3378
 1489SOL     OW15925   3.601   3.264   2.319  0.6617 -0.2006  0.4267
 1489SOL    HW115926   3.647   3.326   2.262  0.4597 -0.3587  0.0904
 1489SOL    HW215927   3.646   3.180   2.311 -2.1742 -1.7559  0.9307
 1490SOL     OW15928   4.157   4.645   4.157 -0.0269 -0.2517  0.0257
 1490SOL    HW115929   4.068   4.671   4.131  1.4395  3.1934 -1.5445
 1490SOL    HW215930   4.194   4.617   4.073  0.0280 -0.2444  0.0477
 1491SOL     OW15931   1.316   3.378   3.420  0.3171 -0.1431  0.1093
 1491SOL    HW115932   1.247   3.440   3.447  0.6192  0.6920 -1.0232
 1491SOL    HW215933   1.366   3.352   3.497 -1.6258 -0.9349  1.1177
 1492SOL     OW15934   2.760   2.025   1.431 -0.6683  0.7876  0.0346
 1492SOL    HW115935   2.717   2.033   1.517 -0.1766  0.8453  0.2732
 1492SOL    HW215936   2.699   2.083   1.385 -1.3469 -0.0493 -0.1156
 1493SOL     OW15937   3.135   2.645   8.535  0.0342 -0.6110 -0.6415
 1493SOL    HW115938   3.094   2.725   8.566  1.5888 -0.0132 -0.1677
 1493SOL    HW215939   3.227   2.665   8.554  0.2872  0.5209 -2.9576
 1494SOL     OW15940   0.814   3.494  11.175  0.4687  0.1270  0.4391
 1494SOL    HW115941   0.751   3.460  11.238 -2.8487  1.6540 -2.1155
 1494SOL    HW215942   0.783   3.584  11.176 -0.0229 -0.0605  2.5095
 1495SOL     OW15943   2.110   0.943  16.491  0.4010 -0.2345  0.8261
 1495SOL    HW115944   2.021   0.968  16.469  1.2183 -0.1829 -2.3928
 1495SOL    HW215945   2.107   0.849  16.509  1.1939 -0.4782 -0.3654
 1496SOL     OW15946   4.431   0.515   6.488  0.4667 -0.0894 -0.2948
 1496SOL    HW115947   4.420   0.420   6.494 -0.0615 -0.0889 -1.3782
 1496SOL    HW215948   4.526   0.523   6.481  0.4617  0.2953  0.0912
 1497SOL     OW15949   4.284   1.411  12.142 -0.5046  0.4258  0.0612
 1497SOL    HW115950   4.365   1.440  12.184 -0.4713 -0.9048  0.9288
 1497SOL    HW215951   4.302   1.317  12.138 -0.3792  0.4245  0.5973
 1498SOL     OW15952   2.532   2.835  13.599 -0.7577 -0.1240 -0.4248
 1498SOL    HW115953   2.447   2.860  13.563 -1.2591  0.3194  1.0879
 1498SOL    HW215954   2.530   2.741  13.577 -0.0414 -0.7510  2.2111
 1499SOL     OW15955   0.650   1.962  14.816 -0.2978 -0.0580 -0.3645
 1499SOL    HW115956   0.713   1.915  14.871  1.2696 -0.0341 -2.1496
 1499SOL    HW215957   0.600   2.011  14.882 -0.8396 -4.7664  2.7671
 1500SOL     OW15958   4.424   4.011  11.252 -0.2701 -0.4455 -0.2064
 1500SOL    HW115959   4.331   3.990  11.243  0.2299 -2.1918 -1.3498
 1500SOL    HW215960   4.427   4.013  11.348 -1.0971 -1.8765 -0.1526
 1501SOL     OW15961   1.824   3.467  10.909 -0.0376  0.0211  0.2263
 1501SOL    HW115962   1.831   3.408  10.834 -0.4133  0.7352 -0.3611
 1501SOL    HW215963   1.906   3.446  10.953  0.1278  1.6235  0.6781
 1502SOL     OW15964   1.474   1.642   1.297 -0.0503  0.4366  0.1441
 1502SOL    HW115965   1.447   1.717   1.244  0.6882 -1.0068 -2.2488
 1502SOL    HW215966   1.419   1.663   1.372  0.4011  0.3882  0.4871
 1503SOL     OW15967   1.859   4.689  10.396  0.1230 -0.5453 -0.2145
 1503SOL    HW115968   1.790   4.639  10.351 -1.1221 -0.5690  1.7132
 1503SOL    HW215969   1.928   4.628  10.370  0.4379 -0.4438  0.3758
 1504SOL     OW15970   3.792   3.579   1.222  0.0348  0.2171 -0.2315
 1504SOL    HW115971   3.842   3.647   1.177  1.9607  1.0115  3.1476
 1504SOL    HW215972   3.713   3.578   1.167  0.0256  2.1814 -0.2486
 1505SOL     OW15973   1.202   0.586  10.077  0.2763 -0.1157 -0.8040
 1505SOL    HW115974   1.277   0.553  10.028 -1.1079  0.2946 -3.1945
 1505SOL    HW215975   1.220   0.541  10.160 -0.5987  1.4152  0.2291
 1506SOL     OW15976   2.909   4.504   3.459  0.1953 -1.1170  0.1797
 1506SOL    HW115977   2.883   4.584   3.414  1.2611 -0.3098  1.0383
 1506SOL    HW215978   2.829   4.451   3.448  0.5980 -1.4457 -1.2566
 1507SOL     OW15979   0.408   2.111   7.805 -0.0278  0.5464 -0.0693
 1507SOL    HW115980   0.393   2.069   7.721  1.2235 -0.0501  0.0036
 1507SOL    HW215981   0.343   2.180   7.812 -0.9250 -0.2109 -1.0989
 1508SOL     OW15982   1.885   1.060   8.633 -0.5706  0.2685 -0.1996
 1508SOL    HW115983   1.794   1.039   8.654 -0.4235 -2.0114 -1.8565
 1508SOL    HW215984   1.909   1.104   8.715 -1.5951  2.2817 -0.9706
 1509SOL     OW15985   4.609   4.045   0.562  0.1398 -0.5723  0.7081
 1509SOL    HW115986   4.539   4.003   0.613  0.4879 -1.3308  0.5567
 1509SOL    HW215987   4.639   4.103   0.632 -0.7309 -0.8331  1.3053
 1510SOL     OW15988   2.410   2.345   8.283 -0.4571  0.3686  0.4941
 1510SOL    HW115989   2.451   2.277   8.337  0.0870  1.3299  1.2814
 1510SOL    HW215990   2.467   2.418   8.307 -0.4064  0.5445 -0.1579
 1511SOL     OW15991   0.840   0.602  11.012 -0.0812 -0.5376  0.4941
 1511SOL    HW115992   0.906   0.573  10.948 -2.7277 -1.0793 -1.9922
 1511SOL    HW215993   0.826   0.518  11.056 -0.0858 -0.5560  0.4585
 1512SOL     OW15994   4.307   0.583   8.891 -0.5358  0.2099 -0.2778
 1512SOL    HW115995   4.290   0.677   8.892 -0.0023  0.3009  0.3045
 1512SOL    HW215996   4.388   0.598   8.940 -1.3884 -2.3714  1.9479
 1513SOL     OW15997   2.431   0.806   8.287  0.0499  0.3693  0.0828
 1513SOL    HW115998   2.363   0.741   8.270 -0.8741  1.6914 -1.3389
 1513SOL    HW215999   2.414   0.834   8.376 -0.0403 -0.4395  0.3188
 1514SOL     OW16000   2.673   0.068   8.410  0.0790  0.7169 -0.4597
 1514SOL    HW116001   2.603   0.130   8.427 -1.5485 -1.0163 -0.8135
 1514SOL    HW216002   2.745   0.081   8.473  0.5325  2.3823 -1.3252
 1515SOL     OW16003   2.304   0.935   3.889  0.2403  0.1140 -0.0574
 1515SOL    HW116004   2.237   0.867   3.885 -2.3349  2.8349 -3.5184
 1515SOL    HW216005   2.267   1.016   3.925 -1.1668 -0.3908 -0.3775
 1516SOL     OW16006   4.059   1.258   3.008  0.1068  0.2281 -0.0222
 1516SOL    HW116007   4.067   1.198   2.934  0.1308 -0.8311  0.8172
 1516SOL    HW216008   4.107   1.198   3.066 -2.1322 -0.6379  0.9587
 1517SOL     OW16009   0.608   3.352   2.923  0.4205 -0.5182 -0.0865
 1517SOL    HW116010   0.525   3.314   2.950  0.3355  1.6413  2.7000
 1517SOL    HW216011   0.614   3.333   2.829 -0.0711 -1.2132  0.0239
 1518SOL     OW16012   0.622   2.922  13.012  0.1543  0.1711 -0.0177
 1518SOL    HW116013   0.662   2.959  13.091 -0.9359  1.2798  0.0254
 1518SOL    HW216014   0.697   2.870  12.985 -0.7538 -0.1701 -1.8780
 1519SOL     OW16015   0.584   0.838   5.940 -0.1260 -0.1720 -0.2981
 1519SOL    HW116016   0.666   0.792   5.923 -0.9176 -0.8872 -2.1916
 1519SOL    HW216017   0.534   0.775   5.993 -0.0385  1.6158  1.8670
 1520SOL     OW16018   4.152   1.493  11.819 -0.4602 -0.0687  0.3724
 1520SOL    HW116019   4.223   1.548  11.852 -1.2657  0.7926  0.6845
 1520SOL    HW216020   4.208   1.429  11.775  0.3432  0.3578  0.7641
 1521SOL     OW16021   2.829   1.765   7.286 -0.0187 -0.3900  0.1720
 1521SOL    HW116022   2.746   1.759   7.238 -0.8811  0.1003  1.6164
 1521SOL    HW216023   2.827   1.855   7.318 -1.8859 -0.6906  0.9179
 1522SOL     OW16024   1.988   1.886   5.356 -0.2754  0.1365  0.7036
 1522SOL    HW116025   1.964   1.966   5.309 -1.4645 -0.8547 -0.3564
 1522SOL    HW216026   1.904   1.853   5.387 -0.0768 -1.0608 -0.0414
 1523SOL     OW16027   2.327   1.128   7.336 -0.6826  0.0404 -0.6450
 1523SOL    HW116028   2.403   1.153   7.283 -0.8008 -0.9416 -1.2764
 1523SOL    HW216029   2.321   1.036   7.313  0.2818 -0.8506  2.6379
 1524SOL     OW16030   4.216   3.091  11.697  0.0497 -0.6233  0.2152
 1524SOL    HW116031   4.279   3.115  11.629 -0.4721 -1.7032 -0.6387
 1524SOL    HW216032   4.190   3.172  11.742 -2.4129 -1.7111  0.7902
 1525SOL     OW16033   1.236   1.960  15.022  0.0496  0.0133 -0.1024
 1525SOL    HW116034   1.195   1.885  15.064 -2.6240  0.9872 -0.9614
 1525SOL    HW216035   1.175   1.996  14.957  0.9670  0.4131 -0.7349
 1526SOL     OW16036   1.128   0.333   3.358  0.5924 -0.1273 -0.6271
 1526SOL    HW116037   1.132   0.295   3.446 -3.0602  0.2109 -0.2785
 1526SOL    HW216038   1.038   0.312   3.331  0.1022  2.6248 -1.1660
 1527SOL     OW16039   0.670   3.863   5.781 -0.2385  0.4539  0.3000
 1527SOL    HW116040   0.756   3.903   5.796 -1.3776  3.3331 -0.9184
 1527SOL    HW216041   0.682   3.771   5.807 -0.0254  0.6868  1.0359
 1528SOL     OW16042   1.830   3.225   6.553  0.4057 -0.1888  0.0269
 1528SOL    HW116043   1.806   3.188   6.638 -1.4061  1.7337  0.3666
 1528SOL    HW216044   1.750   3.261   6.515 -0.8598 -3.0636  0.0069
 1529SOL     OW16045   0.339   1.429   4.345  0.1218  0.2064 -0.3631
 1529SOL    HW116046   0.416   1.386   4.381 -2.4514 -3.8995  0.2246
 1529SOL    HW216047   0.277   1.362   4.375  0.0822  0.6175  0.4872
 1530SOL     OW16048   2.127   3.890  16.674  0.0348  0.2937  0.1797
 1530SOL    HW116049   2.198   3.866  16.614  1.2000  0.5180  1.4910
 1530SOL    HW216050   2.056   3.833  16.642 -0.0479  0.3682  0.2286
 1531SOL     OW16051   4.225   0.524   9.690 -0.0711  0.3351  1.1596
 1531SOL    HW116052   4.145   0.525   9.638  1.4724  0.8669 -1.2136
 1531SOL    HW216053   4.237   0.609   9.733  1.3129  1.1945 -0.8857
 1532SOL     OW16054   2.899   0.117   8.541 -0.1129 -0.2917 -0.0676
 1532SOL    HW116055   2.943   0.201   8.526  1.0693 -0.5756  1.7450
 1532SOL    HW216056   2.892   0.112   8.636  1.5787  1.7719  0.1619
 1533SOL     OW16057   3.711   1.951   5.254  0.4175  0.0457 -0.2685
 1533SOL    HW116058   3.794   1.913   5.284  0.1496  0.1510  0.6198
 1533SOL    HW216059   3.712   1.916   5.165  1.3926 -1.2648  0.2543
 1534SOL     OW16060   0.563   1.034   9.628 -0.2592 -0.1703 -0.0393
 1534SOL    HW116061   0.645   1.000   9.662 -0.0268 -1.8330 -2.3095
 1534SOL    HW216062   0.568   1.128   9.649 -1.0826  0.2933 -1.9144
 1535SOL     OW16063   1.609   4.530   1.888  0.3764 -0.2833 -0.4142
 1535SOL    HW116064   1.611   4.434   1.895  3.0705 -0.1819  0.0141
 1535SOL    HW216065   1.621   4.559   1.978  1.3502  1.6518 -1.1847
 1536SOL     OW16066   4.248   1.943   0.747 -0.5634  0.0196 -0.0539
 1536SOL    HW116067   4.262   1.923   0.840  1.0459  1.3608 -0.0102
 1536SOL    HW216068   4.283   1.861   0.714 -0.0219  0.4778 -0.6045
 1537SOL     OW16069   1.099   2.907   7.625 -0.0366 -0.2962 -0.1645
 1537SOL    HW116070   1.015   2.950   7.606 -0.7855 -1.3714  0.6580
 1537SOL    HW216071   1.061   2.829   7.666 -1.0087  0.7760  0.9936
 1538SOL     OW16072   3.424   0.273   7.782 -0.2071 -0.8086  0.1313
 1538SOL    HW116073   3.463   0.212   7.844  0.4116 -0.0690  0.4629
 1538SOL    HW216074   3.465   0.241   7.701 -0.3438  0.6060 -0.5044
 1539SOL     OW16075   4.135   2.395   4.947  0.2444 -0.5371 -0.0941
 1539SOL    HW116076   4.116   2.431   5.034  0.1367 -0.1485 -0.2782
 1539SOL    HW216077   4.132   2.301   4.964  1.9775 -0.2521  1.8572
 1540SOL     OW16078   1.218   1.999   2.636 -0.2048  1.1812 -0.4120
 1540SOL    HW116079   1.146   1.950   2.595 -1.5826  1.4883  1.6431
 1540SOL    HW216080   1.287   1.942   2.668 -0.4013  0.9995 -0.3154
 1541SOL     OW16081   2.309   3.156   9.881 -0.3462  0.3570 -0.9756
 1541SOL    HW116082   2.332   3.145   9.973 -0.1948  0.5575 -0.9875
 1541SOL    HW216083   2.313   3.252   9.877  1.5886  0.3788  1.1311
 1542SOL     OW16084   3.964   0.892   4.819  0.8220  0.0439  0.3429
 1542SOL    HW116085   3.950   0.820   4.758 -0.5765  0.1667  0.5093
 1542SOL    HW216086   3.977   0.846   4.903 -0.2034  0.3677  0.6860
 1543SOL     OW16087   1.794   2.735   5.112  0.1228  0.1567 -0.1688
 1543SOL    HW116088   1.728   2.730   5.182  0.3705  1.0927  0.1312
 1543SOL    HW216089   1.818   2.827   5.109 -1.8147  0.6599 -0.5193
 1544SOL     OW16090   3.055   3.995  11.901  0.1768 -0.7026  0.6922
 1544SOL    HW116091   2.973   3.949  11.919  0.1870 -0.4426  1.3884
 1544SOL    HW216092   3.028   4.045  11.824 -0.4458  0.8862  1.9285
 1545SOL     OW16093   2.944   0.972   0.933  0.3734 -0.2229 -0.2987
 1545SOL    HW116094   3.000   0.963   1.010  0.5488 -0.1519 -0.4172
 1545SOL    HW216095   2.949   1.067   0.919 -0.3774 -0.2535 -0.7602
 1546SOL     OW16096   2.481   4.310   7.858 -0.2235 -0.3014  0.0617
 1546SOL    HW116097   2.446   4.261   7.783  1.3796  0.6212 -1.2865
 1546SOL    HW216098   2.454   4.401   7.847 -0.1013 -0.3122 -0.3363
 1547SOL     OW16099   2.837   3.508   9.114  0.0346 -0.3587  0.1209
 1547SOL    HW116100   2.871   3.598   9.121  1.7302 -1.0997  1.5324
 1547SOL    HW216101   2.857   3.480   9.204  1.9875  0.1231 -0.1634
 1548SOL     OW16102   2.735   4.500   2.622 -0.0522  0.0710  0.3166
 1548SOL    HW116103   2.771   4.441   2.556  1.9711  2.7276 -0.9602
 1548SOL    HW216104   2.662   4.532   2.569  1.1357  0.8898 -0.8012
 1549SOL     OW16105   2.914   3.854   9.384 -0.3775 -0.2017 -0.3606
 1549SOL    HW116106   3.008   3.853   9.399 -0.3835 -1.3880 -0.4445
 1549SOL    HW216107   2.895   3.945   9.408  0.4734 -0.8733  2.8439
 1550SOL     OW16108   2.020   3.849   3.420 -0.1060  0.4218 -0.7095
 1550SOL    HW116109   2.085   3.824   3.354 -0.2821 -2.2082  0.0995
 1550SOL    HW216110   1.943   3.793   3.409  1.8650 -3.0964  3.3138
 1551SOL     OW16111   3.522   2.986   0.823 -0.3743 -0.2144 -0.6327
 1551SOL    HW116112   3.614   2.988   0.847 -0.0735 -2.8132 -1.4960
 1551SOL    HW216113   3.509   2.891   0.834 -2.0825  0.2085  1.0781
 1552SOL     OW16114   3.401   1.040  12.775 -0.6748  0.2194 -0.0200
 1552SOL    HW116115   3.458   1.027  12.699 -3.0026 -2.2475 -1.3492
 1552SOL    HW216116   3.457   1.050  12.851 -0.6189  0.1804 -0.0568
 1553SOL     OW16117   4.284   0.776   3.116  0.3503  0.2047  0.1183
 1553SOL    HW116118   4.371   0.740   3.098  1.2810  1.9643  1.1294
 1553SOL    HW216119   4.264   0.796   3.024  0.5435 -2.3635 -0.4745
 1554SOL     OW16120   2.276   1.231  12.502  0.1146 -0.5655 -0.1414
 1554SOL    HW116121   2.348   1.234  12.440  1.8043 -1.6643  1.7476
 1554SOL    HW216122   2.295   1.163  12.567 -0.1248 -0.4819  0.0186
 1555SOL     OW16123   3.723   2.563   3.078  0.1376 -0.3646 -0.0513
 1555SOL    HW116124   3.766   2.645   3.052  1.3128 -0.1820  2.4536
 1555SOL    HW216125   3.635   2.573   3.043  1.1558  1.1049 -2.1847
 1556SOL     OW16126   3.141   1.937  16.578  0.2970 -0.5425 -0.0706
 1556SOL    HW116127   3.206   2.006  16.586  1.0530 -1.3641  0.8279
 1556SOL    HW216128   3.175   1.862  16.627  0.0489 -1.0115 -0.6169
 1557SOL     OW16129   4.591   0.768   3.672 -0.3123 -0.1799 -0.0113
 1557SOL    HW116130   4.669   0.745   3.723  0.2027 -0.3903 -0.8888
 1557SOL    HW216131   4.636   0.820   3.605 -0.4374  1.7655  1.4148
 1558SOL     OW16132   2.579   4.331   9.833 -0.3151 -0.1293  0.7323
 1558SOL    HW116133   2.553   4.309   9.923  0.6460 -1.1861  0.7491
 1558SOL    HW216134   2.504   4.304   9.780 -0.9571  0.1236  1.5073
 1559SOL     OW16135   4.541   0.076   4.633  0.0705  0.0775 -0.5345
 1559SOL    HW116136   4.635   0.057   4.636  0.1102  0.1162 -1.6154
 1559SOL    HW216137   4.550   0.170   4.644 -0.7983  0.1521 -0.4811
 1560SOL     OW16138   1.558   3.165   5.984  0.2467  0.1463  0.1447
 1560SOL    HW116139   1.606   3.082   5.974  0.2273  0.2649 -0.8862
 1560SOL    HW216140   1.590   3.200   5.901 -1.5496 -2.2803 -1.5814
 1561SOL     OW16141   1.796   0.916   4.661 -0.2832 -0.0326  0.0275
 1561SOL    HW116142   1.812   0.822   4.657  1.9997  0.3740 -0.4301
 1561SOL    HW216143   1.860   0.953   4.601  0.5048  1.3557  1.7233
 1562SOL     OW16144   2.030   2.048   0.953  0.4248 -0.1223 -0.4504
 1562SOL    HW116145   2.071   2.132   0.934  1.1002 -0.4927 -0.6555
 1562SOL    HW216146   1.981   2.063   1.033  1.8095 -4.2531  1.1794
 1563SOL     OW16147   3.047   2.680  11.329  0.5251 -0.6643 -0.1192
 1563SOL    HW116148   3.039   2.703  11.237  0.7998 -1.7980 -0.4305
 1563SOL    HW216149   3.033   2.766  11.369 -2.0474  0.1844 -2.8306
 1564SOL     OW16150   0.567   4.695   0.694  0.4918 -0.0147  0.2324
 1564SOL    HW116151   0.517   0.044   0.722  1.2220  0.2449  0.8101
 1564SOL    HW216152   0.620   0.007   0.625 -0.2561 -1.4125 -1.1540
 1565SOL     OW16153   0.931   4.727   3.997 -0.1575  0.3710  0.6132
 1565SOL    HW116154   0.957   4.636   4.010 -1.0412  0.1249  0.6749
 1565SOL    HW216155   0.868   4.727   4.069 -2.3527  1.1497 -1.3081
 1566SOL     OW16156   0.065   1.611   5.325  0.2510  0.3803  0.4315
 1566SOL    HW116157   0.064   1.706   5.317  0.6110  0.3712  0.2586
 1566SOL    HW216158   0.146   1.585   5.281 -0.4368 -2.3199  0.7392
 1567SOL     OW16159   3.440   3.979   4.473 -0.3053  0.3525  0.2422
 1567SOL    HW116160   3.392   3.947   4.550 -2.3601 -1.7024 -1.8813
 1567SOL    HW216161   3.413   3.911   4.412  0.2386 -0.1186  0.5233
 1568SOL     OW16162   0.850   4.544  14.181  0.0247  0.4957  0.5000
 1568SOL    HW116163   0.882   4.593  14.106 -0.8797  0.9575  0.4141
 1568SOL    HW216164   0.799   4.612  14.225 -0.5890  0.9943 -0.9994
 1569SOL     OW16165   2.817   3.812  14.657  0.6739 -0.1887 -0.2685
 1569SOL    HW116166   2.876   3.877  14.619 -0.1381  0.3472 -0.6034
 1569SOL    HW216167   2.740   3.826  14.602  1.2249 -0.9575 -1.2254
 1570SOL     OW16168   3.939   2.131  17.122  0.8750  0.4654  0.8556
 1570SOL    HW116169   3.881   2.092  17.187 -0.5502  0.1790 -0.5919
 1570SOL    HW216170   3.902   2.219  17.113  1.8521  0.9957  1.8794
 1571SOL     OW16171   3.166   3.665   4.794  0.2553  0.2261 -0.1679
 1571SOL    HW116172   3.194   3.694   4.881 -0.1040 -0.0115  0.0239
 1571SOL    HW216173   3.196   3.574   4.790  1.4850  0.5912  0.5287
 1572SOL     OW16174   2.223   0.022   2.881  0.1220 -0.8579 -0.0107
 1572SOL    HW116175   2.208   0.112   2.910  0.1300 -1.1564  0.9146
 1572SOL    HW216176   2.148   0.010   2.823 -1.4998 -4.0969  2.7177
 1573SOL     OW16177   1.210   1.861   5.683  0.0545  0.4440  0.0376
 1573SOL    HW116178   1.217   1.810   5.602 -0.6573 -0.4529  0.5458
 1573SOL    HW216179   1.273   1.819   5.740 -0.6219 -1.4048 -0.5954
 1574SOL     OW16180   1.952   0.593  16.228 -0.3004  0.9004  0.3059
 1574SOL    HW116181   1.935   0.608  16.321  0.9266  2.9103  0.2020
 1574SOL    HW216182   2.043   0.623  16.226 -0.8192  2.6239  1.8794
 1575SOL     OW16183   2.252   4.378   3.629  0.0157  0.4880  0.2698
 1575SOL    HW116184   2.175   4.331   3.598  0.3464 -0.3155  0.6946
 1575SOL    HW216185   2.319   4.318   3.594  1.1763  1.6027  0.5613
 1576SOL     OW16186   3.712   3.745  14.877  0.1884  0.0094  0.1108
 1576SOL    HW116187   3.797   3.743  14.922 -0.8257  0.3315  2.0460
 1576SOL    HW216188   3.695   3.659  14.839  0.1589 -0.2558  0.7149
 1577SOL     OW16189   2.448   1.901   3.873  0.6156  0.5431  0.0005
 1577SOL    HW116190   2.544   1.893   3.873  0.6006  0.2640 -3.1828
 1577SOL    HW216191   2.429   1.878   3.782  0.2488 -1.3039  0.5466
 1578SOL     OW16192   4.505   3.602   2.919 -0.3476 -0.1998 -0.1250
 1578SOL    HW116193   4.455   3.564   2.847 -0.7569  0.1956 -0.0504
 1578SOL    HW216194   4.446   3.641   2.984  0.0145 -0.2764  0.2469
 1579SOL     OW16195   0.784   4.304  10.324 -0.0022 -0.4038 -0.1023
 1579SOL    HW116196   0.800   4.231  10.384 -0.1439 -0.7022 -0.4287
 1579SOL    HW216197   0.789   4.374  10.390  1.5473 -0.6006 -0.0092
 1580SOL     OW16198   2.099   2.929  12.676 -0.1792 -0.1777 -0.0244
 1580SOL    HW116199   2.065   2.866  12.613  0.5079 -0.5351 -0.0420
 1580SOL    HW216200   2.192   2.915  12.655  0.2521  1.1474  0.9923
 1581SOL     OW16201   1.364   2.179   3.431  0.2589  0.5758  0.2833
 1581SOL    HW116202   1.438   2.211   3.482  0.4433 -3.4397  2.4922
 1581SOL    HW216203   1.409   2.143   3.355 -1.4838 -0.7585 -0.1081
 1582SOL     OW16204   3.732   0.242   6.371 -0.0596  0.1554  0.2706
 1582SOL    HW116205   3.718   0.323   6.322  1.1962  0.3997  0.3128
 1582SOL    HW216206   3.653   0.189   6.356  1.5375 -1.9179 -0.8863
 1583SOL     OW16207   4.701   4.467   6.641  0.5218  0.2011  0.0353
 1583SOL    HW116208   4.660   4.458   6.555  1.6638 -1.1718 -0.3540
 1583SOL    HW216209   4.649   4.532   6.690  1.0261  0.5874  0.0559
 1584SOL     OW16210   0.424   3.125   2.767 -0.0559  0.3353 -0.3438
 1584SOL    HW116211   0.414   3.140   2.861  1.0733 -1.9258  0.1533
 1584SOL    HW216212   0.489   3.055   2.766 -0.7700 -0.3391  1.4867
 1585SOL     OW16213   0.037   2.266   7.141  0.3720 -0.2741  0.6238
 1585SOL    HW116214   0.002   2.248   7.053  1.4739  0.0464  0.1175
 1585SOL    HW216215   4.689   2.304   7.186  0.7369 -0.1777  1.1498
 1586SOL     OW16216   3.004   1.065   7.328  0.0035 -0.6556 -0.4297
 1586SOL    HW116217   2.961   1.117   7.396  1.2562 -0.8791  0.5348
 1586SOL    HW216218   2.953   1.094   7.252  2.8959  0.9431 -1.7846
 1587SOL     OW16219   4.490   2.443  15.270 -0.0698 -0.1446 -0.0492
 1587SOL    HW116220   4.477   2.538  15.274 -0.1354 -0.1005 -1.1832
 1587SOL    HW216221   4.498   2.427  15.364  2.1193 -0.7490 -0.3431
 1588SOL     OW16222   0.346   0.518  16.209  0.2983 -0.0733  0.0375
 1588SOL    HW116223   0.352   0.540  16.116  0.6526  0.6876  0.2367
 1588SOL    HW216224   0.434   0.483  16.225  1.8858  2.9837 -2.0420
 1589SOL     OW16225   3.057   0.806   3.434  0.2157  0.1825 -0.1892
 1589SOL    HW116226   2.994   0.795   3.506 -0.2694  0.8164 -0.5077
 1589SOL    HW216227   3.088   0.896   3.444 -0.6741  0.6546 -1.5309
 1590SOL     OW16228   3.372   3.291   3.858  0.4891  0.3779 -0.1188
 1590SOL    HW116229   3.465   3.307   3.845 -0.1045  1.2603 -3.3360
 1590SOL    HW216230   3.357   3.368   3.912  2.1410  0.5818  0.0504
 1591SOL     OW16231   0.949   1.563   7.281 -0.5291  0.7190 -0.2027
 1591SOL    HW116232   0.857   1.569   7.307 -0.0873 -0.3705  1.6712
 1591SOL    HW216233   0.997   1.542   7.361 -1.3418  1.9013  0.5875
 1592SOL     OW16234   0.167   1.794  10.549 -0.8165 -0.0219  0.2798
 1592SOL    HW116235   0.116   1.861  10.596 -0.9962 -0.3172  0.5066
 1592SOL    HW216236   0.194   1.739  10.623 -3.1616 -2.4076 -0.6616
 1593SOL     OW16237   1.335   0.464   3.712 -0.3398  0.0635 -0.7317
 1593SOL    HW116238   1.260   0.483   3.769 -1.4387  2.3014 -2.8835
 1593SOL    HW216239   1.362   0.375   3.734 -0.9060 -0.1801 -0.9911
 1594SOL     OW16240   0.675   3.464   4.444 -0.1198  0.5581 -0.1795
 1594SOL    HW116241   0.580   3.456   4.452  0.1114 -1.3046  0.6078
 1594SOL    HW216242   0.681   3.560   4.450  0.4150  0.6427 -1.9757
 1595SOL     OW16243   0.813   3.614   5.555  0.5869 -0.2774 -0.0515
 1595SOL    HW116244   0.814   3.646   5.465  1.1318 -1.3074 -0.4050
 1595SOL    HW216245   0.906   3.593   5.563  0.4203 -1.0291 -0.1047
 1596SOL     OW16246   0.516   0.311   8.423 -0.4811  0.2453 -0.2180
 1596SOL    HW116247   0.557   0.321   8.337  0.2847  2.0642  0.3583
 1596SOL    HW216248   0.428   0.307   8.386 -1.2539  1.8483  1.4499
 1597SOL     OW16249   0.581   3.011  10.964  0.3890  0.0110  0.6678
 1597SOL    HW116250   0.503   3.026  10.911  2.0348  0.4346 -1.6597
 1597SOL    HW216251   0.565   3.059  11.045 -2.1754  2.9274 -1.5389
 1598SOL     OW16252   1.817   4.486   6.034 -0.2777  0.0918  0.8252
 1598SOL    HW116253   1.724   4.504   6.047 -0.7545 -1.0067 -0.9470
 1598SOL    HW216254   1.829   4.487   5.939  1.2981  0.0143  1.0371
 1599SOL     OW16255   4.725   1.320  13.037  0.1605  0.4184  0.0202
 1599SOL    HW116256   4.690   1.409  13.037 -0.7938  0.0259 -2.0839
 1599SOL    HW216257   4.642   1.280  13.012 -0.2691  0.0682  2.0217
 1600SOL     OW16258   4.403   2.143  16.264  0.3477  0.1074  0.0172
 1600SOL    HW116259   4.463   2.101  16.325  0.5789  1.6712  0.8760
 1600SOL    HW216260   4.337   2.076  16.280 -0.6275  1.6814  2.6423
 1601SOL     OW16261   1.554   3.359   2.121 -0.1317 -0.3448  0.0337
 1601SOL    HW116262   1.496   3.285   2.142 -2.5896  1.9990  1.4831
 1601SOL    HW216263   1.561   3.338   2.028 -3.2963 -0.7750 -0.1075
 1602SOL     OW16264   1.512   2.750   8.163  0.2063  0.3447 -0.1854
 1602SOL    HW116265   1.466   2.677   8.122 -0.1213 -0.7952  2.1672
 1602SOL    HW216266   1.443   2.812   8.185 -2.2029 -1.7481 -1.9009
 1603SOL     OW16267   2.039   2.854   7.342 -0.5193  0.3043 -0.2109
 1603SOL    HW116268   1.952   2.834   7.308  0.4476 -1.7546 -1.5027
 1603SOL    HW216269   2.082   2.768   7.341  0.2617  0.7064 -0.8866
 1604SOL     OW16270   3.064   2.664   2.070  0.0257 -0.4997  0.1425
 1604SOL    HW116271   3.031   2.704   2.150  0.4418  0.8180 -0.3426
 1604SOL    HW216272   3.002   2.695   2.004  0.9411 -0.2081 -0.5813
 1605SOL     OW16273   0.816   3.351   8.941  0.4464 -0.7151  0.2311
 1605SOL    HW116274   0.760   3.291   8.990 -1.5697 -0.4712 -1.7607
 1605SOL    HW216275   0.899   3.305   8.951  0.2077 -0.7068  2.4032
 1606SOL     OW16276   1.860   0.759   2.271  0.0326 -0.1850  0.3999
 1606SOL    HW116277   1.941   0.709   2.285 -0.6487 -0.9119  1.7261
 1606SOL    HW216278   1.882   0.838   2.222  2.7202 -0.0793  1.7366
 1607SOL     OW16279   4.374   3.413   1.265 -0.0732  0.1866 -0.6803
 1607SOL    HW116280   4.372   3.326   1.304 -0.1896  0.3084 -0.4178
 1607SOL    HW216281   4.313   3.407   1.192  0.0948  0.1966 -0.8219
 1608SOL     OW16282   1.311   4.163   8.849 -0.4616  0.0391  0.1268
 1608SOL    HW116283   1.387   4.213   8.877  0.1516 -1.1896  0.6639
 1608SOL    HW216284   1.294   4.106   8.924 -1.1053  1.8411  1.3318
 1609SOL     OW16285   0.784   1.104  16.924  0.4328 -0.0801 -0.5200
 1609SOL    HW116286   0.786   1.175  16.988 -2.8201  0.6518 -1.2397
 1609SOL    HW216287   0.774   1.027  16.980  0.6788  1.1658  1.2424
 1610SOL     OW16288   0.157   1.706   9.696 -0.4331 -0.1204 -0.0001
 1610SOL    HW116289   0.162   1.796   9.663  2.2555 -0.7719 -1.4331
 1610SOL    HW216290   0.246   1.685   9.725  0.2585  0.8344 -1.3941
 1611SOL     OW16291   4.080   3.810   5.312  0.0113  0.2454  0.2201
 1611SOL    HW116292   4.153   3.786   5.370  0.1991 -0.3450 -0.2556
 1611SOL    HW216293   4.124   3.823   5.227 -2.9128 -0.6113 -1.4024
 1612SOL     OW16294   4.228   0.957   2.547  0.9214  0.2022  0.7639
 1612SOL    HW116295   4.169   1.028   2.573  0.6321  0.7787 -1.4188
 1612SOL    HW216296   4.163   0.887   2.554 -0.2923  1.2081 -0.3789
 1613SOL     OW16297   4.392   0.397   3.545  0.5282  0.0813 -0.3452
 1613SOL    HW116298   4.374   0.333   3.477 -0.3675  0.0373 -0.0695
 1613SOL    HW216299   4.478   0.381   3.583  1.3781  0.1390 -2.2928
 1614SOL     OW16300   2.480   1.949   6.930  0.1287  0.3679  0.2252
 1614SOL    HW116301   2.415   1.880   6.916 -2.0728  2.4352  0.2620
 1614SOL    HW216302   2.449   2.010   6.863  1.0088 -0.0772 -0.5899
 1615SOL     OW16303   1.595   4.508   7.853 -0.8610  0.5273 -0.2447
 1615SOL    HW116304   1.649   4.453   7.796  0.0362  0.5958  0.5431
 1615SOL    HW216305   1.660   4.542   7.914 -0.7136  1.0461 -0.7003
 1616SOL     OW16306   1.613   0.513   2.636  0.1226 -0.5312  0.9957
 1616SOL    HW116307   1.606   0.541   2.728  3.0894 -1.0207  1.3743
 1616SOL    HW216308   1.599   0.601   2.601 -1.9172 -0.2854  2.4103
 1617SOL     OW16309   2.133   2.140  12.755 -0.7015  0.1231 -0.6988
 1617SOL    HW116310   2.081   2.061  12.742 -4.8159  2.6711  0.4518
 1617SOL    HW216311   2.149   2.147  12.849  2.1468  1.5991 -1.2854
 1618SOL     OW16312   1.877   3.454   7.274 -0.3679 -0.0137  0.1372
 1618SOL    HW116313   1.938   3.510   7.225  0.8467 -0.4692  1.1300
 1618SOL    HW216314   1.918   3.369   7.262  1.1278  0.5359  1.4952
 1619SOL     OW16315   1.691   2.218   0.999 -0.0903 -0.3762  0.0098
 1619SOL    HW116316   1.745   2.190   1.072  1.4952  0.4261 -0.8605
 1619SOL    HW216317   1.760   2.250   0.942  0.1143  1.6294  1.3708
 1620SOL     OW16318   2.842   1.558   5.359  0.0049  0.3043 -0.1256
 1620SOL    HW116319   2.931   1.557   5.395 -0.2870  0.7920  0.5957
 1620SOL    HW216320   2.832   1.468   5.327  2.3792  0.5370 -1.4984
 1621SOL     OW16321   3.328   1.349   0.894  0.3750 -0.4759 -0.1732
 1621SOL    HW116322   3.245   1.358   0.941  0.8547  0.7313  0.4301
 1621SOL    HW216323   3.371   1.434   0.882  0.8536 -0.7777 -0.6307
 1622SOL     OW16324   3.012   4.234   4.360 -0.4520 -0.1937 -0.0721
 1622SOL    HW116325   3.016   4.139   4.351  1.5065 -0.0681 -0.4149
 1622SOL    HW216326   2.984   4.241   4.452 -0.0970 -0.2650  0.0397
 1623SOL     OW16327   0.426   0.197   8.028  0.2393 -0.2643 -0.0756
 1623SOL    HW116328   0.356   0.256   8.057  2.0576  1.4326  0.8555
 1623SOL    HW216329   0.421   0.208   7.933  2.1819 -0.5690 -0.2107
 1624SOL     OW16330   1.732   3.761   3.323  0.0254 -0.2985 -0.0262
 1624SOL    HW116331   1.744   3.675   3.362  0.0287 -0.1171  0.3763
 1624SOL    HW216332   1.782   3.750   3.243 -0.4069  0.3072 -0.3789
 1625SOL     OW16333   2.256   3.935  10.738 -0.2434  0.1431 -0.1084
 1625SOL    HW116334   2.206   3.863  10.699  0.2357 -0.7556  0.9354
 1625SOL    HW216335   2.252   4.005  10.673 -0.5849 -1.5308 -1.8871
 1626SOL     OW16336   0.888   0.761   3.942  0.3524  0.1416  0.6446
 1626SOL    HW116337   0.845   0.834   3.898 -1.4058 -1.3176 -0.0403
 1626SOL    HW216338   0.816   0.728   3.996 -1.1593 -0.0801 -1.5078
 1627SOL     OW16339   3.100   0.395   7.360 -0.1918 -0.3183  0.1127
 1627SOL    HW116340   3.144   0.331   7.303 -1.3479 -0.4368 -0.6503
 1627SOL    HW216341   3.117   0.474   7.308 -1.9788  0.5839  0.9333
 1628SOL     OW16342   0.606   2.105   5.871 -0.1089 -0.6965  0.1748
 1628SOL    HW116343   0.620   2.133   5.961 -2.0056 -1.0747  0.5924
 1628SOL    HW216344   0.513   2.084   5.876 -0.2595  0.4196  2.1523
 1629SOL     OW16345   1.193   1.621   2.090  0.0447  0.1885 -0.0506
 1629SOL    HW116346   1.138   1.638   2.013 -1.4653 -2.3923  0.4513
 1629SOL    HW216347   1.174   1.702   2.136 -0.0943  0.4167 -0.5075
 1630SOL     OW16348   2.872   1.858  16.518  0.2118  0.4756  0.0641
 1630SOL    HW116349   2.964   1.882  16.525 -0.3895  2.6445  0.4677
 1630SOL    HW216350   2.860   1.838  16.611 -0.6948 -1.0118 -0.3747
 1631SOL     OW16351   1.517   1.442   3.581 -0.3052 -0.2253 -0.0049
 1631SOL    HW116352   1.453   1.504   3.615  2.1789  1.5596  1.3825
 1631SOL    HW216353   1.515   1.379   3.653 -2.5963 -0.1040  0.0367
 1632SOL     OW16354   0.626   1.418   4.217 -0.3061 -0.4853 -0.0639
 1632SOL    HW116355   0.683   1.418   4.140 -0.2850  0.3524 -0.0478
 1632SOL    HW216356   0.566   1.349   4.185 -1.5876 -0.4889  2.3501
 1633SOL     OW16357   0.827   0.810   2.162 -0.1941 -0.1451  0.2499
 1633SOL    HW116358   0.915   0.838   2.187 -0.1724 -1.6813  1.9291
 1633SOL    HW216359   0.791   0.770   2.242 -0.2853  0.9639  0.7718
 1634SOL     OW16360   2.737   3.802   4.811 -0.1086  0.1536 -0.2550
 1634SOL    HW116361   2.665   3.834   4.757 -2.5756 -1.5990  1.9854
 1634SOL    HW216362   2.699   3.723   4.850  2.3299 -1.7384 -1.7347
 1635SOL     OW16363   0.673   1.825   9.774  0.1285  0.0716 -0.1471
 1635SOL    HW116364   0.703   1.902   9.726  1.3340  0.4409  1.1865
 1635SOL    HW216365   0.683   1.860   9.862 -0.1427 -2.0413  0.7330
 1636SOL     OW16366   2.672   1.106  13.381  0.5644 -0.3808 -0.1544
 1636SOL    HW116367   2.655   1.194  13.414 -0.2564 -0.8159  0.5864
 1636SOL    HW216368   2.733   1.120  13.309 -0.4429 -4.5099 -1.8433
 1637SOL     OW16369   1.843   2.949   7.072  0.6362  0.2666  0.1144
 1637SOL    HW116370   1.838   2.859   7.038  1.2124  0.0011  0.7227
 1637SOL    HW216371   1.785   2.931   7.146  0.0621  0.3791 -0.3121
 1638SOL     OW16372   4.631   0.584   5.514 -0.1466 -0.4605  0.3611
 1638SOL    HW116373   4.635   0.578   5.419 -1.9260  0.8947  0.1914
 1638SOL    HW216374   4.670   0.671   5.525 -1.2367  0.2157 -0.9787
 1639SOL     OW16375   2.690   4.450   8.866 -0.2127 -0.0836  0.5150
 1639SOL    HW116376   2.760   4.407   8.816  2.4442  0.6759  3.5805
 1639SOL    HW216377   2.738   4.465   8.948  0.8933 -0.9108  0.0262
 1640SOL     OW16378   1.534   1.561   7.767  0.6850  0.2537  0.5177
 1640SOL    HW116379   1.442   1.543   7.748  1.2322 -1.9994 -0.0284
 1640SOL    HW216380   1.525   1.649   7.803 -2.2781 -0.8392  2.4278
 1641SOL     OW16381   3.120   0.065  14.010  0.0513  0.3105 -0.1676
 1641SOL    HW116382   3.109   0.040  14.102 -1.1050 -1.3183 -0.7329
 1641SOL    HW216383   3.210   0.036  13.995 -0.4557 -0.2339 -2.1488
 1642SOL     OW16384   0.024   2.419   3.405  0.1452  0.5975  0.6783
 1642SOL    HW116385   4.704   2.426   3.322 -1.3512 -1.9939  1.3052
 1642SOL    HW216386   4.714   2.491   3.455 -0.7146  0.2086  0.5919
 1643SOL     OW16387   1.803   2.731   5.469 -0.4116  0.5137 -0.2682
 1643SOL    HW116388   1.798   2.732   5.565  0.0469  5.0627 -0.3201
 1643SOL    HW216389   1.896   2.745   5.456 -0.0943 -1.4818 -0.2005
 1644SOL     OW16390   0.277   1.932  16.358 -0.4857  0.4338  0.2193
 1644SOL    HW116391   0.306   1.871  16.426  0.3972  1.3663  0.6931
 1644SOL    HW216392   0.185   1.918  16.340 -0.2440 -1.2112  0.2751
 1645SOL     OW16393   1.995   3.232  14.440 -0.0618  0.8290  0.5117
 1645SOL    HW116394   1.926   3.293  14.412  1.3538  2.4793  0.6213
 1645SOL    HW216395   1.951   3.174  14.504  1.0327  1.6830  2.0428
 1646SOL     OW16396   3.763   4.230  13.977  0.1704 -0.3480 -0.0893
 1646SOL    HW116397   3.853   4.261  13.966 -0.1162  1.4297  2.7436
 1646SOL    HW216398   3.779   4.164  14.045  1.8156 -0.6931 -0.8127
 1647SOL     OW16399   0.399   2.851   6.996  0.0705 -0.2594  0.1818
 1647SOL    HW116400   0.462   2.825   7.064 -0.1826  1.6343  1.1178
 1647SOL    HW216401   0.456   2.851   6.919  1.9242 -3.2569  1.5256
 1648SOL     OW16402   2.267   1.211   2.403  0.5181  1.1404  0.1979
 1648SOL    HW116403   2.330   1.226   2.474  0.9154 -3.1428  0.7478
 1648SOL    HW216404   2.326   1.158   2.349 -1.2714  1.9446 -2.5698
 1649SOL     OW16405   0.101   2.835   6.545  0.3664 -0.3645  0.2034
 1649SOL    HW116406   0.135   2.797   6.627  3.0974  0.2445 -0.6291
 1649SOL    HW216407   0.013   2.799   6.542  0.1862 -0.1594  2.8670
 1650SOL     OW16408   3.238   1.182  17.025 -0.0236 -0.1477  0.2529
 1650SOL    HW116409   3.221   1.145  16.938 -1.4349 -2.1700  1.3998
 1650SOL    HW216410   3.278   1.109  17.071 -0.7134 -1.7289 -1.6356
 1651SOL     OW16411   1.797   4.140  12.241  0.2889 -0.0927 -0.2788
 1651SOL    HW116412   1.864   4.203  12.267  1.1288 -1.0157 -0.1943
 1651SOL    HW216413   1.760   4.195  12.171 -2.0289  0.6913  1.5452
 1652SOL     OW16414   4.230   0.364  10.650  0.4827 -0.2464  0.0217
 1652SOL    HW116415   4.202   0.447  10.611  0.3812 -0.6441 -0.7617
 1652SOL    HW216416   4.188   0.369  10.736  0.0961 -1.4918 -0.0866
 1653SOL     OW16417   1.859   4.451   4.624 -0.2071  0.1357  0.3442
 1653SOL    HW116418   1.859   4.441   4.529  1.9521  1.4789  0.1749
 1653SOL    HW216419   1.955   4.459   4.619  0.0145  0.1371  3.9122
 1654SOL     OW16420   1.463   1.737   0.375  0.0449  0.2369 -0.0652
 1654SOL    HW116421   1.442   1.693   0.457  0.1295  1.9347  0.8460
 1654SOL    HW216422   1.473   1.667   0.310  1.0172 -0.4452  0.8193
 1655SOL     OW16423   3.973   1.537   7.992  0.3106  0.0775 -0.0943
 1655SOL    HW116424   4.061   1.503   7.978  0.4405 -0.7013  2.7139
 1655SOL    HW216425   3.929   1.458   8.022  1.2093  0.2692  1.6850
 1656SOL     OW16426   0.304   0.539   7.705 -0.3861 -0.1807  0.0043
 1656SOL    HW116427   0.349   0.500   7.780  0.2455  0.7201  0.0882
 1656SOL    HW216428   0.280   0.457   7.663 -0.1816 -0.6561  0.7973
 1657SOL     OW16429   0.058   2.736  13.503  0.3167  0.1888 -0.0773
 1657SOL    HW116430   0.114   2.739  13.580 -1.0046  1.0206  0.8552
 1657SOL    HW216431   0.106   2.783  13.435 -0.0112 -1.9800 -1.8166
 1658SOL     OW16432   2.460   3.892  10.910  0.0178  0.2228  0.1283
 1658SOL    HW116433   2.401   3.928  10.845 -2.9878 -0.4234  2.5139
 1658SOL    HW216434   2.544   3.914  10.870 -0.5597  0.4698 -0.9497
 1659SOL     OW16435   4.034   3.651   6.554 -0.3931 -0.3316  0.5924
 1659SOL    HW116436   3.994   3.614   6.633 -1.3422  0.1847  0.3493
 1659SOL    HW216437   4.041   3.743   6.579  1.3884 -0.0687 -0.8258
 1660SOL     OW16438   2.251   3.573   5.274  0.2567  0.1570  0.1144
 1660SOL    HW116439   2.315   3.544   5.339  1.1441  2.8332  0.4585
 1660SOL    HW216440   2.263   3.516   5.198 -0.9272 -0.5751  0.4782
 1661SOL     OW16441   2.709   3.320   8.947 -0.5101 -0.6842 -0.2374
 1661SOL    HW116442   2.664   3.318   9.031  1.6350 -1.1792  0.9094
 1661SOL    HW216443   2.781   3.383   8.952  0.7936 -2.2086  0.1778
 1662SOL     OW16444   2.611   0.889   5.565  0.5255 -0.5631  0.1306
 1662SOL    HW116445   2.580   0.868   5.653 -1.1173 -0.1190 -0.3332
 1662SOL    HW216446   2.660   0.810   5.545 -0.1831 -0.8403 -0.5222
 1663SOL     OW16447   4.414   3.932  14.505  0.4209  0.7319 -0.0443
 1663SOL    HW116448   4.409   3.870  14.577  0.6840  0.6459 -0.1003
 1663SOL    HW216449   4.336   3.987  14.517 -0.9005 -1.0037 -0.7815
 1664SOL     OW16450   1.401   0.207   3.754  0.0888  0.3869 -0.2396
 1664SOL    HW116451   1.482   0.192   3.802 -1.1680 -1.0060  1.4287
 1664SOL    HW216452   1.366   0.118   3.759  0.6123  0.3905  3.6180
 1665SOL     OW16453   2.701   0.305   0.047 -0.1161  0.0063 -0.0509
 1665SOL    HW116454   2.793   0.297   0.020 -0.3630 -1.4603 -0.4649
 1665SOL    HW216455   2.711   0.369   0.116  0.5723 -2.3304  2.0298
 1666SOL     OW16456   3.028   0.614   1.756  0.1466  0.3298 -0.1814
 1666SOL    HW116457   2.961   0.584   1.694 -0.9109  0.0117  1.1061
 1666SOL    HW216458   3.045   0.530   1.799 -0.1837  0.0811 -0.5397
 1667SOL     OW16459   2.638   0.340   4.185  0.5262 -0.0701  0.5454
 1667SOL    HW116460   2.597   0.296   4.110  3.1408  1.4052 -1.7670
 1667SOL    HW216461   2.706   0.395   4.146  0.8935  0.2097  1.6038
 1668SOL     OW16462   4.667   2.615  14.958  0.4274  0.5688 -0.2420
 1668SOL    HW116463   4.577   2.646  14.943  0.3322  0.1037 -0.6293
 1668SOL    HW216464   4.651   2.523  14.937  0.2143  0.8555 -1.3893
 1669SOL     OW16465   2.387   0.449   3.203  0.5135 -0.1237 -0.1648
 1669SOL    HW116466   2.364   0.463   3.111  1.1291 -1.5354 -0.5307
 1669SOL    HW216467   2.470   0.406   3.186 -0.4616 -1.7887 -0.7074
 1670SOL     OW16468   2.315   1.863   5.419  0.4913  0.3621 -0.7816
 1670SOL    HW116469   2.346   1.777   5.447 -0.2805  0.1597 -0.5556
 1670SOL    HW216470   2.346   1.916   5.492 -0.1543  0.4714 -0.5822
 1671SOL     OW16471   3.553   3.743  13.462  0.1316 -0.1688 -0.0462
 1671SOL    HW116472   3.556   3.838  13.470 -2.0317 -0.0916 -0.2598
 1671SOL    HW216473   3.590   3.722  13.548  0.9960 -1.0037 -0.6267
 1672SOL     OW16474   1.802   1.760   8.959 -0.2368  0.1274  0.2154
 1672SOL    HW116475   1.850   1.712   8.892 -1.5249 -0.4774 -0.2889
 1672SOL    HW216476   1.813   1.846   8.918  0.5197 -0.7387 -1.3971
 1673SOL     OW16477   1.921   1.205   1.817 -0.0491 -0.1947  0.1466
 1673SOL    HW116478   1.871   1.177   1.740 -0.5904  1.3144 -0.0571
 1673SOL    HW216479   2.004   1.160   1.801 -1.1238 -0.6242 -4.4138
 1674SOL     OW16480   0.419   1.896   7.480  0.1415  0.1745 -0.2139
 1674SOL    HW116481   0.462   1.913   7.397  0.3994  0.9504  0.0726
 1674SOL    HW216482   0.478   1.838   7.528 -1.5405 -0.0835  1.5679
 1675SOL     OW16483   1.801   2.790   3.297 -0.4105  0.4543 -0.0955
 1675SOL    HW116484   1.779   2.874   3.337  2.3370  0.5183  1.2490
 1675SOL    HW216485   1.713   2.752   3.292 -0.0771 -0.4176  0.6057
 1676SOL     OW16486   3.732   4.240  17.591 -0.4957 -0.7304  0.5774
 1676SOL    HW116487   3.776   4.300  17.651  1.3229 -1.1671 -0.3302
 1676SOL    HW216488   3.670   4.198  17.651 -1.3231 -1.0690 -0.5119
 1677SOL     OW16489   1.641   1.361   7.367 -0.9117 -0.6706  0.7401
 1677SOL    HW116490   1.625   1.429   7.301  1.9699 -2.2192 -1.5803
 1677SOL    HW216491   1.693   1.402   7.435 -2.4447 -0.0426  1.5295
 1678SOL     OW16492   1.667   1.116  12.087 -0.1078  0.6014  0.4543
 1678SOL    HW116493   1.595   1.054  12.076 -0.1487  0.7406 -0.0241
 1678SOL    HW216494   1.661   1.145  12.178  0.8413 -2.6215  1.5628
 1679SOL     OW16495   1.646   0.956  15.768 -0.7287  0.6142  0.1173
 1679SOL    HW116496   1.689   0.938  15.852 -0.6656  2.3184  0.4544
 1679SOL    HW216497   1.718   1.006  15.729  0.4870 -1.3128 -0.0793
 1680SOL     OW16498   2.802   3.007   7.543 -0.1770 -0.6355  0.1544
 1680SOL    HW116499   2.711   3.017   7.572  0.2840 -0.0417  1.3939
 1680SOL    HW216500   2.804   3.093   7.502  1.0231 -1.9420 -2.4809
 1681SOL     OW16501   0.636   0.399   7.201  0.3181 -0.4827  0.2352
 1681SOL    HW116502   0.606   0.449   7.277  0.5011 -0.9973  0.6519
 1681SOL    HW216503   0.731   0.398   7.212  0.3092 -1.3094  0.2186
 1682SOL     OW16504   0.407   4.157   8.859  0.0158 -0.0742  0.7289
 1682SOL    HW116505   0.406   4.171   8.954 -0.7313  0.8468  0.5816
 1682SOL    HW216506   0.403   4.245   8.822  0.5882 -0.8216 -1.1418
 1683SOL     OW16507   0.892   2.424  12.895  0.2540  0.3974  0.0750
 1683SOL    HW116508   0.931   2.512  12.892  0.4050  0.3177 -0.2717
 1683SOL    HW216509   0.970   2.368  12.899 -0.8476 -1.1151  0.4539
 1684SOL     OW16510   1.752   1.821   4.625  0.0899  0.1146 -0.2616
 1684SOL    HW116511   1.664   1.857   4.640 -0.4742 -1.5558  0.4571
 1684SOL    HW216512   1.728   1.735   4.591  1.3934 -0.1567 -0.4722
 1685SOL     OW16513   2.978   2.212   4.614 -0.0264 -0.2295 -0.0475
 1685SOL    HW116514   3.073   2.219   4.623 -0.0776 -1.6253  1.6215
 1685SOL    HW216515   2.955   2.257   4.695  1.4358  0.0439  0.2277
 1686SOL     OW16516   4.002   3.514   8.262 -0.0772 -0.1893  0.1427
 1686SOL    HW116517   3.988   3.466   8.181 -1.5361  0.1764  0.1863
 1686SOL    HW216518   3.923   3.557   8.296 -0.4324 -0.6180 -0.1489
 1687SOL     OW16519   4.371   3.656   8.053 -0.0124 -0.6100  0.5157
 1687SOL    HW116520   4.283   3.690   8.038 -0.1185 -1.4738 -0.8053
 1687SOL    HW216521   4.429   3.729   8.029 -1.5574  0.2150 -0.6817
 1688SOL     OW16522   2.886   1.790  10.270  0.1801  0.0800  0.5119
 1688SOL    HW116523   2.915   1.799  10.180 -0.3113  0.7127  0.4174
 1688SOL    HW216524   2.920   1.703  10.293 -0.3537 -0.5311 -1.0184
 1689SOL     OW16525   0.187   2.204   0.818  0.0696 -0.6132 -0.3559
 1689SOL    HW116526   0.209   2.274   0.879 -2.5059  1.4549 -1.7825
 1689SOL    HW216527   0.223   2.134   0.872  1.6765  0.2054 -0.3626
 1690SOL     OW16528   2.961   2.528   6.299  0.1673  0.6264 -0.8522
 1690SOL    HW116529   2.914   2.536   6.382  1.0567  1.8347 -0.4682
 1690SOL    HW216530   3.034   2.469   6.318 -1.8332 -1.2791  0.8394
 1691SOL     OW16531   3.346   0.753   4.000  0.1565 -0.3213 -0.4988
 1691SOL    HW116532   3.313   0.840   4.023  3.4798  1.3156 -1.9639
 1691SOL    HW216533   3.270   0.701   4.027  2.0540 -1.6200  2.2055
 1692SOL     OW16534   1.296   3.462   6.261  0.4081  0.2871 -0.0381
 1692SOL    HW116535   1.307   3.384   6.207 -0.9185 -1.1265  1.7356
 1692SOL    HW216536   1.204   3.457   6.286  0.2262  0.2594 -0.7052
 1693SOL     OW16537   0.107   4.508   2.731 -0.2413  0.2966 -0.0173
 1693SOL    HW116538   0.093   4.474   2.642  1.3243 -1.1288  0.2872
 1693SOL    HW216539   0.146   4.434   2.777 -0.4255 -0.3898 -0.9535
 1694SOL     OW16540   3.543   1.261   7.818  0.4974  0.5996  0.2025
 1694SOL    HW116541   3.615   1.323   7.828  2.7260 -1.3816 -3.6205
 1694SOL    HW216542   3.566   1.245   7.726 -0.7030  3.1418 -0.5523
 1695SOL     OW16543   3.977   0.448   7.445 -0.1098 -0.5251  1.0393
 1695SOL    HW116544   3.939   0.520   7.496 -4.1056 -1.3583 -0.7449
 1695SOL    HW216545   4.050   0.501   7.412 -1.3458  0.1271 -0.6865
 1696SOL     OW16546   2.292   0.270   8.146 -1.2065  0.1253 -0.4011
 1696SOL    HW116547   2.357   0.322   8.100 -0.0054  0.5569  1.7644
 1696SOL    HW216548   2.222   0.336   8.152 -0.1227  1.1710  0.9505
 1697SOL     OW16549   0.788   1.029   2.637 -0.1171 -0.3424  0.6189
 1697SOL    HW116550   0.753   1.101   2.689  0.0703  1.7723 -2.1910
 1697SOL    HW216551   0.709   0.975   2.632 -0.9384  0.9145 -0.0926
 1698SOL     OW16552   2.014   2.940   8.587 -0.3925 -0.2895  0.3157
 1698SOL    HW116553   1.976   2.859   8.552  1.2264 -1.7847  2.0092
 1698SOL    HW216554   1.943   3.003   8.577  1.8275  2.3495  1.3370
 1699SOL     OW16555   4.119   4.552  10.220  0.4890 -0.0295  0.1202
 1699SOL    HW116556   4.198   4.598  10.194  0.6431 -0.4576 -0.1745
 1699SOL    HW216557   4.077   4.620  10.272  1.2504  2.2847 -2.3421
 1700SOL     OW16558   2.931   0.936   2.548 -0.2904  0.6202  0.1299
 1700SOL    HW116559   2.997   0.975   2.491 -0.7505  0.1136 -0.7416
 1700SOL    HW216560   2.935   0.998   2.621 -1.0096 -0.2767  0.9415
 1701SOL     OW16561   3.765   1.452   3.019 -0.0825 -0.2084 -0.0293
 1701SOL    HW116562   3.802   1.400   3.089 -1.3225  1.9961  2.2710
 1701SOL    HW216563   3.821   1.420   2.948 -0.4436 -0.4538 -0.1988
 1702SOL     OW16564   1.721   1.683   5.675 -0.1540  0.3984  0.1154
 1702SOL    HW116565   1.718   1.597   5.634  1.3724  0.0154  0.8198
 1702SOL    HW216566   1.708   1.736   5.596 -0.8834 -0.3821 -0.2820
 1703SOL     OW16567   3.378   1.045  17.288 -0.0313 -0.0862  0.2473
 1703SOL    HW116568   3.350   0.953  17.284 -0.6103  0.0684  0.7714
 1703SOL    HW216569   3.413   1.044  17.376  1.3723 -0.3340 -0.3218
 1704SOL     OW16570   2.188   1.492   5.403 -0.3449 -0.4757 -0.0187
 1704SOL    HW116571   2.196   1.559   5.336 -0.9949  0.4140  0.7843
 1704SOL    HW216572   2.121   1.526   5.463 -0.6028 -1.0274  0.0065
 1705SOL     OW16573   2.668   1.158   7.470  1.0781  0.0207 -0.0700
 1705SOL    HW116574   2.719   1.234   7.443 -1.0001  1.5519  0.3293
 1705SOL    HW216575   2.702   1.097   7.405  3.2395  1.6972 -0.5109
 1706SOL     OW16576   2.909   0.210  12.312  0.0815  0.0267  0.6731
 1706SOL    HW116577   3.003   0.210  12.332  0.5672 -1.9070 -1.6546
 1706SOL    HW216578   2.912   0.299  12.277 -0.3265 -0.4747 -0.6132
 1707SOL     OW16579   1.259   3.424   7.872  0.4512  0.0813 -0.1952
 1707SOL    HW116580   1.228   3.333   7.878 -0.1342  0.4135  1.8135
 1707SOL    HW216581   1.190   3.470   7.920 -0.4603 -0.8278 -0.6056
 1708SOL     OW16582   1.527   1.790  17.077 -0.1531 -0.0103 -0.4495
 1708SOL    HW116583   1.444   1.833  17.096  0.5645  1.5770 -0.9635
 1708SOL    HW216584   1.508   1.711  17.027  1.8156  0.4003 -1.8307
 1709SOL     OW16585   0.504   3.701  11.251  0.6392  0.1972 -0.1172
 1709SOL    HW116586   0.508   3.630  11.315  1.0397  1.5272  1.3261
 1709SOL    HW216587   0.596   3.712  11.227  1.2546  0.8216  2.5406
 1710SOL     OW16588   3.967   3.991   2.543 -0.2175  0.1133  0.1100
 1710SOL    HW116589   4.060   3.987   2.566  0.0868  1.0178 -0.9880
 1710SOL    HW216590   3.969   3.930   2.469 -0.7864 -0.0312  0.2114
 1711SOL     OW16591   0.011   3.197  17.329  0.1025 -0.1204  0.3568
 1711SOL    HW116592   0.054   3.282  17.333  0.0559 -0.1446  1.2268
 1711SOL    HW216593   4.691   3.204  17.246  0.5810  1.2671  0.1943
 1712SOL     OW16594   0.610   3.298  10.997 -0.0289 -0.0480 -0.3239
 1712SOL    HW116595   0.625   3.328  11.087 -0.4709  3.3917 -1.4235
 1712SOL    HW216596   0.560   3.375  10.970 -1.6243 -1.1671 -0.6155
 1713SOL     OW16597   1.792   3.611   4.185 -0.1196 -0.0935  0.2153
 1713SOL    HW116598   1.697   3.621   4.193 -0.4360 -2.5369 -0.5688
 1713SOL    HW216599   1.821   3.690   4.138 -2.7171  1.1403  0.6842
 1714SOL     OW16600   0.704   2.184   3.453 -0.0874  0.5595  0.2996
 1714SOL    HW116601   0.758   2.130   3.396 -1.1601  0.4717 -0.6285
 1714SOL    HW216602   0.772   2.243   3.485 -1.2545  2.1013 -0.0473
 1715SOL     OW16603   0.701   3.482   3.472  0.0802 -0.2346 -0.4202
 1715SOL    HW116604   0.607   3.502   3.469 -0.0093 -0.6032 -0.1233
 1715SOL    HW216605   0.738   3.561   3.512 -0.3251 -0.4355  0.3562
 1716SOL     OW16606   1.560   0.943   1.802 -0.1592  0.5359  0.5434
 1716SOL    HW116607   1.627   0.988   1.751  0.7029 -1.5012 -0.0922
 1716SOL    HW216608   1.486   0.940   1.741  1.4954  2.4908 -1.5791
 1717SOL     OW16609   0.817   0.699   0.778  0.2882 -0.4174  0.2189
 1717SOL    HW116610   0.882   0.629   0.779  0.0161 -0.6525  1.0443
 1717SOL    HW216611   0.745   0.638   0.792 -1.0335  0.9504 -0.5168
 1718SOL     OW16612   1.633   2.437   6.234 -0.3360  0.2204  0.0314
 1718SOL    HW116613   1.545   2.403   6.219  0.3369  0.0166 -3.3407
 1718SOL    HW216614   1.637   2.531   6.218 -1.2086  0.6685  2.3115
 1719SOL     OW16615   0.836   4.463  10.541 -0.2893  0.9757 -0.3310
 1719SOL    HW116616   0.833   4.409  10.620 -0.1777  0.1626 -0.8756
 1719SOL    HW216617   0.794   4.540  10.579 -2.2375  1.8361 -4.1809
 1720SOL     OW16618   3.530   0.313   2.270  0.6035  0.4312 -0.3972
 1720SOL    HW116619   3.533   0.271   2.184 -0.2430  0.7534 -0.5803
 1720SOL    HW216620   3.438   0.338   2.278  0.5949 -0.0202  0.9311
 1721SOL     OW16621   0.653   2.122  17.029  0.1126  0.4386  0.0758
 1721SOL    HW116622   0.712   2.196  17.017  2.6143 -1.3451  1.2220
 1721SOL    HW216623   0.584   2.162  17.082 -0.0937  2.3446 -1.6332
 1722SOL     OW16624   1.179   3.667  16.799 -0.5163  0.4520  0.6537
 1722SOL    HW116625   1.095   3.620  16.804 -1.3419  1.9467  0.9966
 1722SOL    HW216626   1.244   3.623  16.745  0.1886  0.9799  1.0781
 1723SOL     OW16627   0.161   3.830  11.862  0.1959 -1.1956 -0.0661
 1723SOL    HW116628   0.142   3.780  11.782  1.4582  0.3659 -1.3446
 1723SOL    HW216629   0.152   3.764  11.930 -3.9685 -0.6099 -0.1035
 1724SOL     OW16630   2.228   3.698  17.436  0.0970  0.0290 -0.3866
 1724SOL    HW116631   2.178   3.779  17.432  1.1523  0.7152  0.1462
 1724SOL    HW216632   2.306   3.724  17.388  1.1450  1.5970  2.1438
 1725SOL     OW16633   2.327   4.010   4.602 -0.3697 -0.1966  0.3779
 1725SOL    HW116634   2.313   4.093   4.647  0.8901 -0.7584  1.7919
 1725SOL    HW216635   2.372   3.960   4.670  1.3939 -0.7430 -1.2081
 1726SOL     OW16636   3.128   4.175   5.951  0.4328 -0.2385  0.0936
 1726SOL    HW116637   3.070   4.103   5.928  3.1371 -2.2960 -0.3255
 1726SOL    HW216638   3.183   4.190   5.874  0.9099  1.3354  0.7321
 1727SOL     OW16639   1.887   3.781   7.765 -0.2521  0.1566 -0.5144
 1727SOL    HW116640   1.795   3.781   7.791 -0.0698 -1.0736  0.1316
 1727SOL    HW216641   1.896   3.765   7.671 -0.2868  2.0089 -0.8412
 1728SOL     OW16642   0.433   1.466   8.050 -0.0756 -0.3672 -0.3748
 1728SOL    HW116643   0.485   1.545   8.065 -0.9740  0.2771 -0.7236
 1728SOL    HW216644   0.404   1.448   8.139 -1.1051  0.7327 -0.4990
 1729SOL     OW16645   1.239   2.383   3.074  0.1467 -0.3036  0.0196
 1729SOL    HW116646   1.208   2.445   3.008  1.7916 -0.0385 -0.5109
 1729SOL    HW216647   1.296   2.445   3.121 -0.7850  0.1433  0.5571
 1730SOL     OW16648   0.765   4.419   1.550 -0.3502  0.5295  0.0641
 1730SOL    HW116649   0.852   4.450   1.525  0.8352 -0.9623  2.3551
 1730SOL    HW216650   0.719   4.502   1.533 -0.0323  0.7604  0.3276
 1731SOL     OW16651   3.296   0.973  16.480 -0.0164  0.4985 -0.0481
 1731SOL    HW116652   3.348   1.050  16.457  0.0513  0.3764 -0.2979
 1731SOL    HW216653   3.338   0.902  16.431  0.4950  1.3639 -0.8561
 1732SOL     OW16654   0.758   0.298   6.633  0.2042 -0.4408 -0.3665
 1732SOL    HW116655   0.764   0.295   6.728 -0.0121 -1.5524 -0.3833
 1732SOL    HW216656   0.846   0.321   6.604  1.1091 -2.2822  0.9264
 1733SOL     OW16657   1.872   3.062   4.824  0.3044  0.5008 -0.4691
 1733SOL    HW116658   1.946   3.121   4.806 -0.0153  0.6626 -1.2625
 1733SOL    HW216659   1.796   3.109   4.790  0.1430 -1.1389 -2.3450
 1734SOL     OW16660   3.537   2.848   3.023  0.6591 -0.2583 -0.4377
 1734SOL    HW116661   3.629   2.861   3.045  0.3983  0.3012  0.3156
 1734SOL    HW216662   3.539   2.781   2.955  1.1335 -0.2516 -0.4271
 1735SOL     OW16663   1.570   0.279   6.904  0.1803  0.6655  0.2852
 1735SOL    HW116664   1.531   0.367   6.909 -1.1723 -0.0251  1.9398
 1735SOL    HW216665   1.633   0.286   6.833  0.8606  1.2528  0.9515
 1736SOL     OW16666   4.647   3.348   6.616  0.3541  0.2700  0.2479
 1736SOL    HW116667   4.592   3.376   6.689  0.5327  1.2100  0.0163
 1736SOL    HW216668   4.606   3.384   6.537 -0.7032  0.8521  1.0533
 1737SOL     OW16669   4.034   3.082   4.903 -0.6507 -0.5065  0.1592
 1737SOL    HW116670   4.129   3.086   4.889 -0.3968 -0.9312  1.6993
 1737SOL    HW216671   4.021   2.987   4.896 -1.4988 -0.1836 -2.4223
 1738SOL     OW16672   3.966   4.269  16.497 -0.3390  0.0607  0.4107
 1738SOL    HW116673   4.057   4.239  16.500 -0.2744 -0.1344 -3.5948
 1738SOL    HW216674   3.977   4.356  16.536 -0.8908  0.9000 -1.2821
 1739SOL     OW16675   3.154   1.343   2.638  0.3354 -0.0148  0.5883
 1739SOL    HW116676   3.086   1.362   2.703  1.8403  0.3437  2.0670
 1739SOL    HW216677   3.122   1.389   2.561  1.9830  2.3339  1.3178
 1740SOL     OW16678   3.484   3.921  10.342 -0.6047  0.3234  0.0096
 1740SOL    HW116679   3.502   4.010  10.314 -2.7226  0.2738 -1.5591
 1740SOL    HW216680   3.454   3.924  10.433  0.3712 -0.0641  0.3399
 1741SOL     OW16681   2.205   4.712   3.795 -0.3936  0.1750  0.0744
 1741SOL    HW116682   2.257   0.009   3.719 -1.3486  1.0804 -0.2923
 1741SOL    HW216683   2.213   0.067   3.843 -0.3417 -0.5615  1.3216
 1742SOL     OW16684   1.795   1.242  13.124  0.3567 -0.0558  0.1170
 1742SOL    HW116685   1.803   1.154  13.161  0.7532 -0.4627 -0.9274
 1742SOL    HW216686   1.849   1.290  13.187 -3.1058 -2.8861  5.2605
 1743SOL     OW16687   4.347   2.230   8.944  0.3140  0.9262  0.0885
 1743SOL    HW116688   4.282   2.177   8.897  1.1738 -0.0680  0.0336
 1743SOL    HW216689   4.401   2.157   8.974 -0.7817  0.3674  0.6755
 1744SOL     OW16690   2.356   2.437   9.875  0.3215 -0.1718  0.4515
 1744SOL    HW116691   2.375   2.366   9.813  1.9304  1.4836 -0.9470
 1744SOL    HW216692   2.443   2.436   9.914  0.6617 -0.6056 -0.3179
 1745SOL     OW16693   2.965   1.682   6.274  0.3043 -0.2366  0.2046
 1745SOL    HW116694   2.925   1.681   6.361 -0.6706 -0.8845 -0.2514
 1745SOL    HW216695   2.986   1.589   6.265  1.1159 -0.1195  0.8535
 1746SOL     OW16696   3.858   2.579  10.985 -0.5119 -0.3257  0.2733
 1746SOL    HW116697   3.829   2.601  11.074 -0.4470  0.4222  0.1122
 1746SOL    HW216698   3.926   2.644  10.966 -0.8145 -0.7145 -2.1736
 1747SOL     OW16699   1.659   3.385   5.099 -0.0172 -0.4347 -0.0767
 1747SOL    HW116700   1.646   3.387   5.194  1.3161  1.4617  0.0736
 1747SOL    HW216701   1.716   3.461   5.087 -0.3905  0.1418  1.8489
 1748SOL     OW16702   3.858   2.327  16.517  0.0178  0.2355  0.6306
 1748SOL    HW116703   3.888   2.411  16.483  1.2140 -0.6621 -0.5374
 1748SOL    HW216704   3.916   2.267  16.469  0.9733  0.5014  1.4643
 1749SOL     OW16705   0.156   1.357   6.117  0.1672 -0.7473 -0.0019
 1749SOL    HW116706   0.155   1.452   6.118  1.2633 -0.7207 -2.1096
 1749SOL    HW216707   0.122   1.339   6.029  1.5956 -2.2170 -0.2518
 1750SOL     OW16708   0.063   1.714  11.812  0.6493 -0.3452  0.2197
 1750SOL    HW116709   0.095   1.625  11.828  1.8758 -0.3514 -2.3084
 1750SOL    HW216710   4.697   1.697  11.799  0.1925  2.7164 -0.5669
 1751SOL     OW16711   4.068   2.869   4.415  0.0521 -0.5007  0.3441
 1751SOL    HW116712   3.984   2.828   4.435 -0.8438  1.3877  0.4671
 1751SOL    HW216713   4.074   2.939   4.480  2.1793 -0.3699 -0.0066
 1752SOL     OW16714   4.063   1.379  11.546  0.6176 -0.1028  1.4880
 1752SOL    HW116715   4.070   1.465  11.505  1.2462  0.4565  2.7504
 1752SOL    HW216716   4.029   1.400  11.633 -0.4445 -0.9412  1.2666
 1753SOL     OW16717   4.250   2.020   7.336  0.4497  1.0123 -0.2774
 1753SOL    HW116718   4.203   2.103   7.332 -0.0129  0.8789  2.3083
 1753SOL    HW216719   4.323   2.040   7.395  0.9053  0.8903 -0.7934
 1754SOL     OW16720   2.305   0.608   0.875 -0.1721  0.4089  0.0428
 1754SOL    HW116721   2.358   0.552   0.817 -1.3679 -2.9758  2.1877
 1754SOL    HW216722   2.268   0.551   0.943  1.0968  0.4004  0.7147
 1755SOL     OW16723   1.210   2.721   7.811  0.2393  0.4640 -0.2798
 1755SOL    HW116724   1.264   2.740   7.734  1.1590  0.4115  0.3396
 1755SOL    HW216725   1.215   2.626   7.817  1.3083  0.5565  0.4555
 1756SOL     OW16726   1.565   2.003  10.140 -0.4400  0.7449 -0.1741
 1756SOL    HW116727   1.529   1.978  10.055 -2.0004  2.9613 -0.1760
 1756SOL    HW216728   1.535   1.943  10.209  1.8459 -0.3303 -0.1177
 1757SOL     OW16729   4.260   1.359  10.277 -0.1252  0.4985 -0.4543
 1757SOL    HW116730   4.192   1.364  10.210 -0.3396 -0.8954 -0.3580
 1757SOL    HW216731   4.281   1.452  10.275  1.0316  0.1902 -2.4881
 1758SOL     OW16732   3.779   4.316   1.170  0.0078  0.6929 -0.2133
 1758SOL    HW116733   3.759   4.337   1.079  0.3226 -1.5706 -0.8283
 1758SOL    HW216734   3.860   4.366   1.178  0.4302 -0.4002  2.6697
 1759SOL     OW16735   1.859   0.999   9.312  0.2082  0.2476  0.1147
 1759SOL    HW116736   1.886   0.996   9.220 -1.6250 -0.3324 -0.4015
 1759SOL    HW216737   1.812   1.082   9.308 -1.7961 -0.8574  1.0672
 1760SOL     OW16738   4.054   0.102   4.433 -0.0262 -0.4502 -0.2216
 1760SOL    HW116739   4.127   0.157   4.403  1.7936 -1.5740  2.2050
 1760SOL    HW216740   3.994   0.122   4.361  0.3184 -1.2198 -0.7233
 1761SOL     OW16741   4.242   2.305   4.156 -0.3651  0.3819 -0.2613
 1761SOL    HW116742   4.329   2.319   4.194  0.2129 -0.0591 -1.4184
 1761SOL    HW216743   4.250   2.354   4.074 -0.7448 -0.4258 -0.7760
 1762SOL     OW16744   4.012   0.634   7.159 -0.0365  0.3368  0.0850
 1762SOL    HW116745   4.071   0.674   7.222 -0.9185 -1.0441  1.7855
 1762SOL    HW216746   3.926   0.672   7.177 -0.3635  1.2961 -3.4197
 1763SOL     OW16747   3.464   1.473  10.486 -0.1549  0.1590 -0.1926
 1763SOL    HW116748   3.395   1.419  10.447  0.5320  0.2432 -1.5205
 1763SOL    HW216749   3.425   1.558  10.465  1.5095  0.8755 -0.3414
 1764SOL     OW16750   1.057   1.851   6.381  0.2641 -0.1500  0.1529
 1764SOL    HW116751   0.986   1.788   6.397  1.8439 -2.3082 -1.3142
 1764SOL    HW216752   1.116   1.795   6.330  0.4969 -0.6067  0.9297
 1765SOL     OW16753   0.970   0.481   0.781 -0.3429 -0.1409  0.5764
 1765SOL    HW116754   0.891   0.427   0.783  0.2890 -1.0804 -0.1332
 1765SOL    HW216755   1.032   0.417   0.817  4.0464  2.9552 -1.4352
 1766SOL     OW16756   4.116   1.528   0.794 -0.8799  0.1371 -0.5620
 1766SOL    HW116757   4.093   1.436   0.805  3.7642 -1.1310 -1.3803
 1766SOL    HW216758   4.070   1.549   0.713 -0.1089 -0.6693 -1.2152
 1767SOL     OW16759   2.460   0.091   1.002 -0.6430  0.1866 -0.5315
 1767SOL    HW116760   2.552   0.117   1.000 -0.4092 -0.4273  2.3617
 1767SOL    HW216761   2.444   0.124   0.914 -1.2299 -0.1457 -0.5440
 1768SOL     OW16762   1.334   2.263  16.940  0.3278 -0.1855 -0.0933
 1768SOL    HW116763   1.374   2.345  16.911 -0.8433  0.2126 -0.6032
 1768SOL    HW216764   1.420   2.222  16.937  0.4796  0.2668 -2.2503
 1769SOL     OW16765   2.130   0.301   9.073  0.2206  0.0655  0.0716
 1769SOL    HW116766   2.196   0.263   9.015 -1.0876 -2.3483  0.1603
 1769SOL    HW216767   2.086   0.356   9.008 -0.6377  0.9021  1.3638
 1770SOL     OW16768   1.411   0.563   6.447  0.2553 -0.0127  0.1611
 1770SOL    HW116769   1.456   0.647   6.439 -2.1298  1.3713  1.3511
 1770SOL    HW216770   1.372   0.578   6.533 -1.0893 -1.6637 -0.1524
 1771SOL     OW16771   3.460   2.211  13.431 -0.1255  0.2170  0.0758
 1771SOL    HW116772   3.414   2.135  13.395  3.8551 -2.0183 -0.2578
 1771SOL    HW216773   3.544   2.167  13.423  0.1009  0.3440  1.6497
 1772SOL     OW16774   3.507   3.838   8.673  0.1894  0.1944  0.1752
 1772SOL    HW116775   3.565   3.762   8.666 -1.6364 -1.2012  0.2194
 1772SOL    HW216776   3.569   3.899   8.715 -0.0292 -0.0638  0.8701
 1773SOL     OW16777   2.998   1.061  14.453  0.0525  0.1314 -0.2615
 1773SOL    HW116778   2.990   1.127  14.384  2.9437 -0.7563 -1.4412
 1773SOL    HW216779   3.048   0.996  14.404  1.9859  1.2181  0.2163
 1774SOL     OW16780   2.152   0.407   6.964  0.1354 -0.4173 -0.4312
 1774SOL    HW116781   2.167   0.466   6.890  1.1229  2.6161  2.1734
 1774SOL    HW216782   2.065   0.370   6.957 -0.1745  0.4690 -1.3030
 1775SOL     OW16783   2.920   0.903   1.527  0.7474 -1.0146  0.1649
 1775SOL    HW116784   2.903   0.815   1.493  0.9431 -0.4612 -1.3871
 1775SOL    HW216785   2.862   0.903   1.602  1.1191 -2.2864  0.4467
 1776SOL     OW16786   4.084   1.805   6.865 -1.1045 -0.2245 -0.2066
 1776SOL    HW116787   4.149   1.875   6.865 -2.0293  0.6068 -2.4706
 1776SOL    HW216788   4.139   1.728   6.881 -1.4297  0.0814  2.3898
 1777SOL     OW16789   1.150   2.361  17.109  0.0978 -0.1339 -0.0086
 1777SOL    HW116790   1.140   2.451  17.077 -0.1038  0.1465  0.8584
 1777SOL    HW216791   1.206   2.326  17.040  2.3453  0.3318  1.5860
 1778SOL     OW16792   2.447   0.834   4.769 -0.5167  0.0559  0.5721
 1778SOL    HW116793   2.358   0.802   4.786 -0.9019  1.1641  0.6657
 1778SOL    HW216794   2.417   0.924   4.754 -1.9403 -0.6336 -0.7170
 1779SOL     OW16795   3.663   2.265   4.146  0.0801 -0.2175  0.1694
 1779SOL    HW116796   3.579   2.292   4.108  0.4006  0.6247  0.0649
 1779SOL    HW216797   3.657   2.297   4.236  0.9174 -0.8233  0.4393
 1780SOL     OW16798   0.210   4.646   8.691  0.0541 -0.1224 -0.8066
 1780SOL    HW116799   0.223   4.661   8.785 -1.1701 -1.4355 -0.4251
 1780SOL    HW216800   0.288   4.694   8.662  1.0741 -0.2004  1.8268
 1781SOL     OW16801   1.635   1.597   5.131  0.1301  0.0989  0.5939
 1781SOL    HW116802   1.559   1.587   5.189  0.3969 -0.7517  0.8011
 1781SOL    HW216803   1.597   1.673   5.087  0.7177  2.0726  3.4814
 1782SOL     OW16804   2.524   0.954   7.107  0.2600  0.2608 -0.2678
 1782SOL    HW116805   2.528   1.048   7.121  1.0668  0.4426 -1.7438
 1782SOL    HW216806   2.494   0.950   7.016  1.1450 -0.3876 -0.5356
 1783SOL     OW16807   3.810   2.591   8.316  0.8034  0.1213  0.0210
 1783SOL    HW116808   3.878   2.554   8.261 -0.1364 -0.7714 -0.5451
 1783SOL    HW216809   3.802   2.676   8.272 -2.2400  1.0525  2.3542
 1784SOL     OW16810   2.703   1.488  16.503 -0.6242  0.2860 -0.0534
 1784SOL    HW116811   2.707   1.432  16.426 -1.7496 -1.1028  0.8877
 1784SOL    HW216812   2.716   1.573  16.460  1.2042 -0.8718 -1.7568
 1785SOL     OW16813   4.096   3.064   3.357  0.1343 -0.2286 -0.4322
 1785SOL    HW116814   4.155   2.992   3.377 -0.1559 -1.2581 -3.2396
 1785SOL    HW216815   4.133   3.091   3.273  0.8587 -2.2492 -0.7586
 1786SOL     OW16816   2.359   0.666   7.673  0.8609  0.3612  0.6770
 1786SOL    HW116817   2.281   0.715   7.646  2.1086  1.8922 -0.1184
 1786SOL    HW216818   2.326   0.620   7.750  0.4938  0.6798  0.7112
 1787SOL     OW16819   3.068   2.515   5.754  0.0496  0.4051  0.9838
 1787SOL    HW116820   3.120   2.446   5.795 -3.0015 -3.0257 -0.8813
 1787SOL    HW216821   2.986   2.482   5.792 -1.1161  2.1510 -0.0475
 1788SOL     OW16822   2.940   0.160   9.132 -0.2354 -0.7030  0.1209
 1788SOL    HW116823   2.896   0.155   9.217  1.0517 -1.3412  0.7344
 1788SOL    HW216824   3.028   0.127   9.151  0.2747 -1.1448 -3.0135
 1789SOL     OW16825   0.312   2.959   8.460 -0.7919  0.4192 -0.4528
 1789SOL    HW116826   0.273   3.024   8.401  1.0871  1.7909 -0.2068
 1789SOL    HW216827   0.406   2.971   8.447 -0.3731  0.9216  2.9052
 1790SOL     OW16828   0.952   4.596   6.765 -0.2814 -0.8364 -0.8859
 1790SOL    HW116829   1.003   4.515   6.767 -1.1378 -1.3175  3.0467
 1790SOL    HW216830   1.009   4.645   6.824 -2.0737 -1.9032  1.7717
 1791SOL     OW16831   1.337   1.436   8.150  0.2835 -0.6321  0.0050
 1791SOL    HW116832   1.338   1.461   8.057  0.7279 -3.4263 -0.7472
 1791SOL    HW216833   1.401   1.495   8.190 -0.7787 -0.2796  1.1846
 1792SOL     OW16834   0.807   0.275   5.425 -0.0716 -0.0276 -0.5531
 1792SOL    HW116835   0.852   0.349   5.465  0.9592 -1.6092  1.2421
 1792SOL    HW216836   0.725   0.310   5.390  0.8739  1.2863 -1.4212
 1793SOL     OW16837   0.294   1.836   6.773  0.5215 -0.4516  0.1148
 1793SOL    HW116838   0.232   1.897   6.733  1.9361  1.4275  0.7678
 1793SOL    HW216839   0.237   1.798   6.841 -1.2501 -0.4359 -1.3512
 1794SOL     OW16840   2.416   1.456   5.197  0.1177  0.8164 -0.0183
 1794SOL    HW116841   2.478   1.414   5.257 -1.5672 -1.1954  0.3090
 1794SOL    HW216842   2.343   1.394   5.205  0.4321  0.6333  1.5226
 1795SOL     OW16843   1.195   4.460   3.519 -0.3103  0.4369 -0.6401
 1795SOL    HW116844   1.100   4.444   3.520 -0.4500  1.4749  2.1601
 1795SOL    HW216845   1.216   4.373   3.484 -0.5838  0.9780 -2.1475
 1796SOL     OW16846   4.282   2.867  10.515  0.2131  0.8316 -0.5794
 1796SOL    HW116847   4.229   2.945  10.499 -1.8646 -0.4395  0.2015
 1796SOL    HW216848   4.281   2.856  10.610 -2.2968 -0.7366 -0.8013
 1797SOL     OW16849   4.125   0.488   5.395 -0.0415 -0.6566  0.0785
 1797SOL    HW116850   4.175   0.407   5.390  1.4893  0.3089 -0.4043
 1797SOL    HW216851   4.187   0.546   5.439 -0.0982  0.0899 -0.8258
 1798SOL     OW16852   1.747   1.310   2.909  0.0546  0.7683 -0.1491
 1798SOL    HW116853   1.796   1.265   2.978 -0.0760  0.3292 -0.3409
 1798SOL    HW216854   1.793   1.268   2.836  1.3530 -2.2281  2.3657
 1799SOL     OW16855   3.691   2.190  10.969 -0.3823  0.4089  0.1817
 1799SOL    HW116856   3.722   2.213  11.057 -1.0943  2.1633 -0.0453
 1799SOL    HW216857   3.598   2.172  10.985 -0.0477 -0.0135  1.6673
 1800SOL     OW16858   2.620   0.437  11.383 -0.3989 -0.7285 -0.4109
 1800SOL    HW116859   2.639   0.344  11.371  1.9902 -0.4813  1.2523
 1800SOL    HW216860   2.660   0.458  11.298 -1.0074  2.1074 -0.0012
 1801SOL     OW16861   0.909   4.515   6.192 -0.3918 -0.2543  0.0745
 1801SOL    HW116862   0.841   4.449   6.181  0.5870 -1.2399 -0.0427
 1801SOL    HW216863   0.935   4.481   6.278 -0.7327 -0.6348  0.0229
 1802SOL     OW16864   2.557   1.717  13.497 -0.0916 -0.2357 -0.2063
 1802SOL    HW116865   2.632   1.731  13.555 -1.6846 -3.6765  2.6784
 1802SOL    HW216866   2.540   1.804  13.461  2.7493  1.0926  1.6736
 1803SOL     OW16867   3.837   2.359  13.905 -0.2453 -0.4809  0.7850
 1803SOL    HW116868   3.813   2.278  13.861 -2.9337  0.4644  0.4804
 1803SOL    HW216869   3.843   2.420  13.832  1.9986 -2.2447 -0.4705
 1804SOL     OW16870   4.514   1.379   8.798  0.2514 -0.1052  0.6407
 1804SOL    HW116871   4.435   1.395   8.850 -0.3378  0.2521 -0.3609
 1804SOL    HW216872   4.479   1.329   8.724  1.1577 -0.4496  0.4477
 1805SOL     OW16873   3.007   1.096   0.286  0.3960  0.1081  0.4099
 1805SOL    HW116874   3.024   1.190   0.291 -1.1558  0.3694  0.7363
 1805SOL    HW216875   3.034   1.066   0.372  0.0843  1.3090  0.9260
 1806SOL     OW16876   3.958   2.946   8.016  0.4832  0.3331  0.3671
 1806SOL    HW116877   3.970   2.881   7.947 -1.4326 -0.2827  0.6146
 1806SOL    HW216878   3.893   2.903   8.073  1.0826 -2.8312 -1.3647
 1807SOL     OW16879   3.853   1.750   4.279  0.0941  0.1284  0.4142
 1807SOL    HW116880   3.897   1.834   4.288 -0.7671  0.4291  1.7914
 1807SOL    HW216881   3.870   1.704   4.361  2.3761 -0.4668 -0.3977
 1808SOL     OW16882   3.834   3.951  10.442 -0.3354  0.5123 -0.1233
 1808SOL    HW116883   3.800   3.946  10.531 -1.2194 -2.6319 -0.6531
 1808SOL    HW216884   3.839   4.045  10.424  0.2587  0.2594 -1.2612
 1809SOL     OW16885   3.779   2.297  15.953 -0.0499 -0.1521 -0.1259
 1809SOL    HW116886   3.777   2.218  16.007  2.3608 -0.3737 -0.3561
 1809SOL    HW216887   3.693   2.282  15.915 -1.2094 -1.5174  3.0377
 1810SOL     OW16888   1.953   0.810   3.048 -0.1912 -0.3208 -0.3777
 1810SOL    HW116889   1.927   0.872   2.980 -0.4660  0.5341  0.5070
 1810SOL    HW216890   2.040   0.789   3.014 -0.6979 -0.1069 -1.8226
 1811SOL     OW16891   0.178   2.211   8.218  0.6164 -0.5650 -0.1699
 1811SOL    HW116892   0.236   2.139   8.193  1.6552  0.5097 -0.8709
 1811SOL    HW216893   0.151   2.185   8.306  0.5615 -0.9542 -0.3013
 1812SOL     OW16894   3.645   0.659  14.487  0.7284 -0.0772  0.0238
 1812SOL    HW116895   3.621   0.642  14.578 -0.0943 -1.3355 -0.4217
 1812SOL    HW216896   3.702   0.586  14.463 -0.4516 -0.6136 -1.1290
 1813SOL     OW16897   0.043   0.952   9.118 -0.1294  0.5688  0.0511
 1813SOL    HW116898   0.052   0.994   9.204 -0.8173  0.3147  0.2454
 1813SOL    HW216899   0.077   1.025   9.066  0.1982  0.2266 -0.2154
 1814SOL     OW16900   4.062   1.204   6.091  0.6050 -0.0676  0.0871
 1814SOL    HW116901   4.090   1.174   6.177  1.5889  0.6843  0.0217
 1814SOL    HW216902   4.075   1.120   6.045 -2.1401 -1.2780  1.5004
 1815SOL     OW16903   3.702   1.580   6.769 -0.2023 -0.2880 -0.2113
 1815SOL    HW116904   3.657   1.595   6.686 -0.2580 -1.8771 -0.4663
 1815SOL    HW216905   3.629   1.549   6.823 -0.0516  0.3078  0.3270
 1816SOL     OW16906   2.639   3.960   7.626 -0.2501 -0.2302 -0.6238
 1816SOL    HW116907   2.652   3.978   7.719  0.1359 -2.2699 -0.2854
 1816SOL    HW216908   2.699   3.887   7.611  2.3263  2.2142 -2.2613
 1817SOL     OW16909   3.890   3.137   3.554 -0.4190  0.2872  0.2913
 1817SOL    HW116910   3.972   3.111   3.511 -1.3306 -0.9090 -0.7375
 1817SOL    HW216911   3.868   3.214   3.502  0.1475  1.2749  1.5198
 1818SOL     OW16912   4.411   2.972   5.821  0.6595  0.2750 -0.4176
 1818SOL    HW116913   4.392   2.951   5.913  0.7150  0.0845 -0.4498
 1818SOL    HW216914   4.340   3.032   5.796 -0.0584  0.3575  1.7597
 1819SOL     OW16915   3.138   4.708   6.557  0.4294 -0.7233  0.1374
 1819SOL    HW116916   3.212   4.646   6.556 -0.1940 -1.4770  0.7682
 1819SOL    HW216917   3.113   4.719   6.649 -0.4948 -1.7263 -0.0023
 1820SOL     OW16918   1.321   1.977   9.645  0.1653  0.0694 -0.1653
 1820SOL    HW116919   1.383   1.986   9.717  0.9250 -1.2512 -0.6459
 1820SOL    HW216920   1.379   2.014   9.579  0.8330 -0.6833 -0.0065
 1821SOL     OW16921   0.454   0.953   2.964  1.0240  0.3674  0.5688
 1821SOL    HW116922   0.491   1.024   2.911 -1.8195  2.5989  1.5343
 1821SOL    HW216923   0.531   0.911   3.002  0.6114  1.0507  2.1586
 1822SOL     OW16924   0.886   0.685   5.260  0.7125 -0.2821  0.0758
 1822SOL    HW116925   0.925   0.742   5.194  0.2211 -0.7602 -0.6234
 1822SOL    HW216926   0.793   0.704   5.247  0.1516 -2.9427  0.2171
 1823SOL     OW16927   4.204   0.770   2.849  0.5271 -0.4271  0.8291
 1823SOL    HW116928   4.273   0.763   2.784 -0.7594 -0.4827 -0.5148
 1823SOL    HW216929   4.204   0.680   2.884  1.4651 -0.9182 -0.4413
 1824SOL     OW16930   3.165   1.970   0.778  0.1815 -0.3296 -0.1858
 1824SOL    HW116931   3.237   2.016   0.820 -0.2206 -0.4922  0.6930
 1824SOL    HW216932   3.152   1.893   0.834  0.8261 -0.5204 -0.2968
 1825SOL     OW16933   2.680   3.265  10.835  0.0401  0.3537  0.2328
 1825SOL    HW116934   2.628   3.258  10.755 -0.7653 -1.3806  0.9331
 1825SOL    HW216935   2.625   3.209  10.889  1.2608 -1.1714 -0.1118
 1826SOL     OW16936   4.182   1.632   3.266  0.1180 -0.1370 -0.0001
 1826SOL    HW116937   4.113   1.694   3.288  0.4059  0.3710 -0.5399
 1826SOL    HW216938   4.142   1.577   3.199 -1.4539 -0.1057  0.9050
 1827SOL     OW16939   2.307   1.743  12.495 -0.5261 -0.1888  0.5580
 1827SOL    HW116940   2.342   1.819  12.541  0.0878 -0.5397  0.6668
 1827SOL    HW216941   2.374   1.675  12.507  0.4755  0.3615 -1.7570
 1828SOL     OW16942   0.849   0.089   8.953 -0.0875 -0.2483  0.5060
 1828SOL    HW116943   0.857   0.031   9.029  0.3577  2.6406  2.6505
 1828SOL    HW216944   0.885   0.027   8.890 -1.2700 -0.6506  0.2394
 1829SOL     OW16945   2.978   3.895   5.446 -0.4944  0.3269  0.1517
 1829SOL    HW116946   2.947   3.954   5.378 -0.4946  0.5865  0.3791
 1829SOL    HW216947   2.952   3.810   5.409 -2.3422  0.3353  1.4642
 1830SOL     OW16948   0.185   3.992   0.490 -0.0612  0.0537 -0.3798
 1830SOL    HW116949   0.092   4.011   0.478  0.2058  1.7319  0.1648
 1830SOL    HW216950   0.225   4.066   0.443 -0.5131  0.3128 -0.3592
 1831SOL     OW16951   3.979   1.394   4.958 -0.0914  0.4605 -0.5318
 1831SOL    HW116952   3.979   1.312   5.006  0.6218  1.2968  0.8749
 1831SOL    HW216953   4.010   1.463   5.017 -1.4941  2.2670 -1.8885
 1832SOL     OW16954   0.631   2.816   5.185  0.6835  0.1861  0.5180
 1832SOL    HW116955   0.568   2.888   5.185 -2.5967 -2.7077  0.3509
 1832SOL    HW216956   0.638   2.803   5.090  2.6653 -1.1832  0.8625
 1833SOL     OW16957   3.528   1.058   5.384 -0.6274  0.1575  0.3226
 1833SOL    HW116958   3.533   1.154   5.394 -0.4479  0.1866 -0.0626
 1833SOL    HW216959   3.593   1.051   5.315 -1.5170  1.0871 -0.6201
 1834SOL     OW16960   1.214   3.250   1.578 -0.0344 -0.6532 -0.1286
 1834SOL    HW116961   1.176   3.337   1.570  2.0725  0.3860  0.9606
 1834SOL    HW216962   1.256   3.252   1.665 -1.1214  0.7411  0.3685
 1835SOL     OW16963   3.585   3.217   3.383 -0.0048  0.3594  0.1002
 1835SOL    HW116964   3.498   3.189   3.352  0.7221 -0.5268 -1.1377
 1835SOL    HW216965   3.625   3.161   3.316 -1.6196 -0.5294 -0.1284
 1836SOL     OW16966   3.216   3.339   8.726  0.4171  0.1970 -0.7095
 1836SOL    HW116967   3.250   3.413   8.676  1.5534  0.5784  0.5989
 1836SOL    HW216968   3.297   3.305   8.765  1.2413  0.6142 -2.0740
 1837SOL     OW16969   2.551   3.709   1.902  0.3707  0.1531 -0.2312
 1837SOL    HW116970   2.601   3.635   1.938 -2.4868 -2.4942 -1.6749
 1837SOL    HW216971   2.558   3.707   1.807  1.4309  0.1864 -0.1518
 1838SOL     OW16972   1.046   3.567   5.014 -0.2951 -0.0818 -0.2586
 1838SOL    HW116973   0.958   3.549   4.979 -1.0145  0.6707  1.1324
 1838SOL    HW216974   1.043   3.663   5.008  0.9554  0.0107  0.5319
 1839SOL     OW16975   3.750   3.600  17.479 -0.1805 -0.2102  0.2106
 1839SOL    HW116976   3.757   3.540  17.404  0.6376  1.5132 -1.0742
 1839SOL    HW216977   3.837   3.604  17.519 -0.2117  1.2545  0.1227
 1840SOL     OW16978   3.290   4.087  11.374 -0.1904 -0.3214 -0.0075
 1840SOL    HW116979   3.350   4.014  11.359 -0.7547 -0.8254  0.1729
 1840SOL    HW216980   3.220   4.039  11.419  1.6052 -0.5376  2.5965
 1841SOL     OW16981   0.660   0.364   0.596 -0.1106 -0.1548  0.0850
 1841SOL    HW116982   0.680   0.414   0.675 -3.7323 -1.6335  1.9490
 1841SOL    HW216983   0.596   0.421   0.553 -2.0673 -2.5699 -0.2258
 1842SOL     OW16984   3.248   4.590  12.365 -0.0836 -0.1017 -0.3564
 1842SOL    HW116985   3.277   4.500  12.375 -0.3498 -0.2075 -0.5297
 1842SOL    HW216986   3.323   4.634  12.326  2.4446 -0.6677  3.8908
 1843SOL     OW16987   1.040   3.829   3.668 -0.4162 -0.0697  0.1276
 1843SOL    HW116988   1.100   3.891   3.627  1.4815 -1.9294  0.1083
 1843SOL    HW216989   1.097   3.752   3.672 -0.0567  0.1295 -1.4264
 1844SOL     OW16990   1.938   1.684   2.647  0.0670 -0.2707 -0.0617
 1844SOL    HW116991   1.969   1.595   2.632 -0.9358 -0.3328 -1.8341
 1844SOL    HW216992   1.863   1.690   2.587 -1.5530  0.4840  2.0572
 1845SOL     OW16993   2.063   3.331   7.919  0.3282 -0.2755 -0.1408
 1845SOL    HW116994   1.970   3.326   7.938  0.1442  0.5002 -0.8210
 1845SOL    HW216995   2.105   3.337   8.005 -0.0964  2.2383 -0.1257
 1846SOL     OW16996   1.384   2.333   6.147 -0.8274 -0.1448 -0.1926
 1846SOL    HW116997   1.332   2.277   6.089 -0.6141 -0.3912 -0.1465
 1846SOL    HW216998   1.386   2.420   6.107  0.9689 -0.9617 -1.8572
 1847SOL     OW16999   2.551   3.038   7.647  0.0610 -0.0152  0.6517
 1847SOL    HW117000   2.492   3.108   7.619  0.1335 -0.6121 -0.9627
 1847SOL    HW217001   2.558   3.069   7.738  1.1701  0.8931  0.2578
 1848SOL     OW17002   2.252   0.010  11.306  0.4834  0.7982  0.0711
 1848SOL    HW117003   2.284   4.662  11.256 -1.7242  0.8866 -1.4691
 1848SOL    HW217004   2.194   0.057  11.248  2.2757  1.0058 -1.5650
 1849SOL     OW17005   0.511   0.487   7.874 -0.0134 -0.3669 -0.4459
 1849SOL    HW117006   0.575   0.475   7.945 -1.5455 -1.2378  0.7915
 1849SOL    HW217007   0.557   0.557   7.828  1.1764  0.4183  1.9447
 1850SOL     OW17008   1.852   2.440   9.373 -0.4415  0.5551 -0.3993
 1850SOL    HW117009   1.888   2.363   9.418 -2.5324  1.7848  3.3275
 1850SOL    HW217010   1.931   2.458   9.322 -1.3758  1.1260 -1.6433
 1851SOL     OW17011   2.860   2.362   5.862 -0.1223  0.0351  0.1853
 1851SOL    HW117012   2.804   2.406   5.925 -2.3166 -0.7012 -1.2807
 1851SOL    HW217013   2.887   2.289   5.917 -2.5028 -2.9873 -2.6589
 1852SOL     OW17014   0.263   4.068   6.480 -0.0652  0.1415 -0.1905
 1852SOL    HW117015   0.264   3.984   6.526 -3.1884  0.4493  0.4622
 1852SOL    HW217016   0.202   4.050   6.409  0.0215  0.2686 -0.2990
 1853SOL     OW17017   0.506   3.635  16.518 -0.3143  0.0838 -0.2150
 1853SOL    HW117018   0.471   3.546  16.522  1.5908 -0.7402 -1.6429
 1853SOL    HW217019   0.495   3.661  16.609  1.1279  1.1310 -0.3298
 1854SOL     OW17020   3.215   0.813  17.280 -0.3258 -0.1578  0.1769
 1854SOL    HW117021   3.165   0.893  17.265 -2.9132 -1.4801  1.8985
 1854SOL    HW217022   3.156   0.738  17.285 -1.3591  0.5785 -1.0630
 1855SOL     OW17023   4.391   1.330  11.791 -0.3554 -0.7590 -0.1342
 1855SOL    HW117024   4.434   1.244  11.793 -0.9628 -1.1003 -2.0935
 1855SOL    HW217025   4.401   1.350  11.884  1.5234 -1.2051 -0.2367
 1856SOL     OW17026   3.010   2.353   8.980  0.2922  0.2235 -0.4635
 1856SOL    HW117027   3.041   2.343   9.070 -2.1123 -2.3043  0.0796
 1856SOL    HW217028   2.936   2.292   8.975 -0.4733  1.3366 -3.1656
 1857SOL     OW17029   4.567   3.566   9.178  0.2301 -0.3660 -0.7177
 1857SOL    HW117030   4.549   3.602   9.091 -0.6915  0.0056 -0.3746
 1857SOL    HW217031   4.484   3.522   9.194 -0.1908  0.5789 -0.2732
 1858SOL     OW17032   1.322   4.685   2.840  0.3388 -0.7320  0.0235
 1858SOL    HW117033   1.322   4.628   2.917 -0.1759 -0.0713  0.5152
 1858SOL    HW217034   1.348   4.627   2.769  0.0746 -1.2956  0.3926
 1859SOL     OW17035   0.754   2.775   5.430 -0.9926 -0.3717 -0.2403
 1859SOL    HW117036   0.715   2.782   5.343  0.3906  0.3122 -0.8172
 1859SOL    HW217037   0.841   2.810   5.409 -1.4310  0.5479 -0.5171
 1860SOL     OW17038   1.356   1.494   3.350  0.4677  0.2073  0.0552
 1860SOL    HW117039   1.422   1.470   3.415  1.1504  0.9790 -0.3521
 1860SOL    HW217040   1.289   1.426   3.358 -0.1656  0.9390  1.1212
 1861SOL     OW17041   4.291   0.080  16.963 -0.1205  0.1786  0.0323
 1861SOL    HW117042   4.302   0.152  17.026  0.2219  0.6451 -0.5593
 1861SOL    HW217043   4.275   0.132  16.884  4.2544  0.6647 -0.5132
 1862SOL     OW17044   3.583   1.146   6.557 -0.1981  0.2108  0.0852
 1862SOL    HW117045   3.601   1.053   6.541 -0.3210  0.0247  1.0881
 1862SOL    HW217046   3.596   1.147   6.651 -0.4490  2.2222  0.0961
 1863SOL     OW17047   0.030   2.245   1.239 -0.3425  0.0243  0.1623
 1863SOL    HW117048   4.719   2.287   1.316  1.1367 -0.1282  0.9858
 1863SOL    HW217049   0.021   2.325   1.187  0.7608 -0.6182 -1.0394
 1864SOL     OW17050   4.335   1.880   5.997 -0.4404 -0.1471  0.1538
 1864SOL    HW117051   4.291   1.935   5.931  1.0393 -1.8045 -2.2168
 1864SOL    HW217052   4.334   1.799   5.947 -0.5625 -0.5229  0.7738
 1865SOL     OW17053   0.060   4.470   6.128 -0.1514 -0.3041 -0.7435
 1865SOL    HW117054   0.120   4.395   6.119 -0.9554 -0.7265 -2.6348
 1865SOL    HW217055   0.111   4.536   6.081  0.6485  0.7799  1.7083
 1866SOL     OW17056   2.993   1.143   9.114  0.2517 -0.4121  0.7833
 1866SOL    HW117057   2.897   1.153   9.111  0.5081  1.4353 -1.6932
 1866SOL    HW217058   3.002   1.180   9.201  0.0133  0.7763  0.3118
 1867SOL     OW17059   0.088   1.034   0.824 -0.3227  0.3085 -0.8096
 1867SOL    HW117060   0.096   1.107   0.884  0.4789 -1.6949  1.5238
 1867SOL    HW217061   0.171   0.998   0.856 -0.2267  1.3230  0.0661
 1868SOL     OW17062   2.092   3.457  17.296  0.4144  0.0149 -0.0144
 1868SOL    HW117063   2.018   3.468  17.236  2.3149 -0.1330 -2.3766
 1868SOL    HW217064   2.107   3.546  17.327 -1.1717  0.1246  0.4644
 1869SOL     OW17065   2.129   4.348   5.605  0.4456  0.3197  0.2189
 1869SOL    HW117066   2.146   4.275   5.545 -1.9507 -2.3332  2.7407
 1869SOL    HW217067   2.170   4.415   5.551  0.6206  1.2752  1.5370
 1870SOL     OW17068   1.018   1.460   5.378  0.1159  0.1330 -0.4461
 1870SOL    HW117069   0.971   1.434   5.457 -2.5770  2.7503 -1.1724
 1870SOL    HW217070   1.059   1.377   5.356  2.6690  1.0678  0.7294
 1871SOL     OW17071   3.765   1.705   6.492 -0.2882 -0.1909  0.5213
 1871SOL    HW117072   3.729   1.755   6.419 -0.5010 -0.6464  0.3162
 1871SOL    HW217073   3.684   1.695   6.542  0.1895  0.2428  1.3868
 1872SOL     OW17074   3.889   2.773  10.211 -0.1064 -0.2085  0.3364
 1872SOL    HW117075   3.976   2.739  10.230  0.7037  2.2357  1.0539
 1872SOL    HW217076   3.887   2.803  10.120 -0.8056 -3.2289 -0.6452
 1873SOL     OW17077   2.967   1.402   2.814 -0.1210  0.0743 -0.8350
 1873SOL    HW117078   2.966   1.376   2.906  0.0741  0.4559 -0.7224
 1873SOL    HW217079   2.879   1.377   2.784 -0.6280  1.2761 -0.3729
 1874SOL     OW17080   4.421   1.344   6.159 -0.3071 -0.4254 -0.2734
 1874SOL    HW117081   4.431   1.375   6.068 -3.6016  0.5283 -0.2927
 1874SOL    HW217082   4.382   1.260   6.135 -1.3795 -0.2899  1.0729
 1875SOL     OW17083   1.410   1.690  11.310 -0.2988  0.1226 -0.6651
 1875SOL    HW117084   1.472   1.673  11.381 -0.4735  1.8909 -0.1055
 1875SOL    HW217085   1.443   1.770  11.270 -1.3022 -0.1335 -2.0063
 1876SOL     OW17086   1.685   2.300   3.835  0.4123 -0.2769 -0.0572
 1876SOL    HW117087   1.749   2.233   3.858  1.2456 -0.0239 -1.5932
 1876SOL    HW217088   1.640   2.330   3.914 -1.2619 -0.0520 -1.0956
 1877SOL     OW17089   1.431   1.245  13.916  0.0783  0.9245 -0.0461
 1877SOL    HW117090   1.419   1.321  13.974  1.9223 -0.3383  1.9973
 1877SOL    HW217091   1.449   1.284  13.830 -1.5483  1.6233 -0.0651
 1878SOL     OW17092   0.129   0.771  11.439  0.2640 -0.6552 -0.6806
 1878SOL    HW117093   0.093   0.696  11.391  1.6221 -0.9261 -1.2814
 1878SOL    HW217094   0.206   0.788  11.385 -0.1663 -2.1220 -1.7819
 1879SOL     OW17095   1.058   3.470  10.155  0.0905 -0.5877 -0.2180
 1879SOL    HW117096   0.998   3.542  10.173  0.4323 -0.5346  0.7048
 1879SOL    HW217097   1.091   3.501  10.071 -0.4804 -4.5804 -1.9063
 1880SOL     OW17098   0.150   1.899   1.418 -0.4098  0.3994  0.1347
 1880SOL    HW117099   0.106   1.907   1.503 -0.9123 -2.2597  0.1226
 1880SOL    HW217100   0.161   1.994   1.411 -1.2692  0.5071  0.1925
 1881SOL     OW17101   0.016   3.839  11.196  0.0198  0.3083  0.1243
 1881SOL    HW117102   4.713   3.769  11.254 -0.2330  0.4159  0.1213
 1881SOL    HW217103   0.099   3.800  11.168  0.4196 -0.6610  2.7002
 1882SOL     OW17104   0.973   1.728   9.452 -0.4421 -0.4396 -0.4015
 1882SOL    HW117105   1.014   1.645   9.478 -0.7364 -1.8747 -4.6012
 1882SOL    HW217106   0.994   1.771   9.535 -2.7398  2.6153 -1.3999
 1883SOL     OW17107   0.704   0.322   6.933 -0.2738 -0.7333  0.3441
 1883SOL    HW117108   0.666   0.367   7.008 -0.0245  1.4053 -0.8356
 1883SOL    HW217109   0.752   0.251   6.977  0.2734 -0.9698 -0.6470
 1884SOL     OW17110   3.874   3.268  16.512  0.2907 -0.7553  0.4676
 1884SOL    HW117111   3.921   3.274  16.428 -3.1792  1.6414 -1.2771
 1884SOL    HW217112   3.783   3.279  16.484 -0.5325 -0.4699  3.2433
 1885SOL     OW17113   3.062   2.311  16.622  0.2516 -0.3613  0.6210
 1885SOL    HW117114   3.064   2.331  16.715 -2.5631  0.9530  0.4011
 1885SOL    HW217115   3.085   2.397  16.588 -1.4614 -0.1984 -0.1441
 1886SOL     OW17116   0.589   1.981   2.110  0.1090  0.2516 -0.0607
 1886SOL    HW117117   0.637   1.966   2.191 -0.2136  0.3127  0.1400
 1886SOL    HW217118   0.503   1.952   2.140  0.3754  0.5289  0.9728
 1887SOL     OW17119   3.132   0.243  11.819 -0.4164 -0.6585 -0.0855
 1887SOL    HW117120   3.177   0.201  11.746 -1.5478 -3.3501  0.7503
 1887SOL    HW217121   3.039   0.247  11.797 -0.0400  1.9356 -1.2157
 1888SOL     OW17122   3.725   2.810   6.533  0.1222  0.0359 -0.1161
 1888SOL    HW117123   3.654   2.745   6.526 -0.5762  0.7284  0.5023
 1888SOL    HW217124   3.780   2.787   6.608 -0.5422 -0.1069  0.3304
 1889SOL     OW17125   3.378   4.496   7.192 -0.7823  0.1079 -0.2105
 1889SOL    HW117126   3.363   4.408   7.229  1.4388 -1.1713 -2.3473
 1889SOL    HW217127   3.294   4.539   7.181  0.8922  2.4319 -3.7797
 1890SOL     OW17128   1.422   1.589   6.549 -0.0403 -0.0419  0.1506
 1890SOL    HW117129   1.450   1.612   6.460 -0.4821 -0.4084 -0.0831
 1890SOL    HW217130   1.383   1.670   6.582 -1.1643 -0.3626 -0.4076
 1891SOL     OW17131   2.889   0.862   3.693 -0.3083 -0.0935  0.5015
 1891SOL    HW117132   2.978   0.883   3.721 -0.4768  0.0280  0.9369
 1891SOL    HW217133   2.844   0.831   3.771 -2.5252 -1.3418 -1.2769
 1892SOL     OW17134   3.306   0.874   3.656 -0.2902  0.0385 -0.5167
 1892SOL    HW117135   3.258   0.928   3.593  1.0214  2.0964  0.2458
 1892SOL    HW217136   3.278   0.933   3.726 -0.7452 -1.6064  0.6957
 1893SOL     OW17137   4.348   3.661   1.889  0.0437  0.6075 -0.4255
 1893SOL    HW117138   4.350   3.618   1.804  1.4051  1.2054 -0.6943
 1893SOL    HW217139   4.327   3.588   1.947  0.0663  1.9256  1.2414
 1894SOL     OW17140   0.408   3.046   5.455  0.1017 -0.0419 -0.1860
 1894SOL    HW117141   0.469   3.031   5.526  0.6233 -0.6735 -0.7709
 1894SOL    HW217142   0.463   3.080   5.384  1.4586 -2.9875 -0.5187
 1895SOL     OW17143   3.154   2.153   6.534 -0.0042  0.2567 -0.4531
 1895SOL    HW117144   3.139   2.096   6.609  2.5466 -0.5362 -0.5317
 1895SOL    HW217145   3.238   2.191   6.561  0.2179 -0.3246 -0.3113
 1896SOL     OW17146   4.184   0.160   9.452  0.7972  0.6319 -0.3526
 1896SOL    HW117147   4.224   0.230   9.504 -1.7250 -0.2499  2.7439
 1896SOL    HW217148   4.144   0.101   9.515 -0.5535  0.9628 -0.9055
 1897SOL     OW17149   3.010   2.632   4.188 -0.5363 -0.0888  0.2512
 1897SOL    HW117150   2.938   2.628   4.124 -1.2284  3.4669  0.7651
 1897SOL    HW217151   2.974   2.687   4.258 -3.1287 -0.3697 -0.8341
 1898SOL     OW17152   3.226   3.729   2.001 -0.6257  0.5454 -0.0659
 1898SOL    HW117153   3.230   3.637   1.975 -1.6468  0.3820  0.3646
 1898SOL    HW217154   3.141   3.730   2.046 -1.1191  0.9836 -1.0040
 1899SOL     OW17155   0.244   1.691   8.305 -0.3144 -0.1211 -0.1403
 1899SOL    HW117156   0.233   1.707   8.399  0.3911 -1.1348  0.1148
 1899SOL    HW217157   0.308   1.620   8.312  0.1726  0.4576  1.2403
 1900SOL     OW17158   4.400   1.988   3.421  0.4037  0.4074  0.0881
 1900SOL    HW117159   4.341   1.998   3.496 -0.0450 -0.2300 -0.1812
 1900SOL    HW217160   4.473   2.043   3.451 -0.1465  2.3648 -2.1157
 1901SOL     OW17161   1.859   0.323  11.387  0.3148  0.6923 -0.6161
 1901SOL    HW117162   1.906   0.303  11.306  1.9033 -1.0432  0.7350
 1901SOL    HW217163   1.825   0.237  11.414 -0.0819  0.9788 -0.1962
 1902SOL     OW17164   4.232   3.646   8.381  0.1677 -0.0219  0.2127
 1902SOL    HW117165   4.231   3.651   8.477 -0.3862  0.0505  0.2031
 1902SOL    HW217166   4.145   3.612   8.360  0.8164 -0.9762 -0.9329
 1903SOL     OW17167   0.096   2.425   3.930 -0.5284 -0.4954  0.2779
 1903SOL    HW117168   0.009   2.399   3.960 -1.0692  1.0156  0.0006
 1903SOL    HW217169   0.107   2.355   3.866  1.0717  0.0428 -0.0326
 1904SOL     OW17170   2.355   4.712   2.354  0.1606 -0.3587 -0.1907
 1904SOL    HW117171   2.302   4.632   2.353 -0.5440  0.1218 -1.5674
 1904SOL    HW217172   2.308   0.033   2.422 -0.4441 -0.3519 -0.6076
 1905SOL     OW17173   1.217   2.237   5.966 -0.4405 -0.5928 -0.2097
 1905SOL    HW117174   1.239   2.171   5.900  3.1381  1.7133 -1.3394
 1905SOL    HW217175   1.124   2.220   5.978 -0.7532  0.4792 -1.1218
 1906SOL     OW17176   2.169   3.407   6.040 -0.6164 -0.0503  0.2337
 1906SOL    HW117177   2.110   3.452   5.979  0.4069  0.5056 -0.3514
 1906SOL    HW217178   2.119   3.326   6.039  0.4029 -0.6583 -0.8282
 1907SOL     OW17179   4.672   0.262   4.248 -0.5508  0.2277  0.2427
 1907SOL    HW117180   4.608   0.231   4.312  1.7930  0.2987  2.6276
 1907SOL    HW217181   4.687   0.352   4.280  0.1033 -0.0458  0.7064
 1908SOL     OW17182   4.110   0.898  16.450  0.1728  0.2234  1.0772
 1908SOL    HW117183   4.149   0.971  16.403 -1.5486  1.3777  1.4550
 1908SOL    HW217184   4.023   0.934  16.435 -0.1498 -1.6688 -1.6524
 1909SOL     OW17185   1.634   4.243   1.890 -0.2071  0.3836  0.0976
 1909SOL    HW117186   1.592   4.157   1.885  0.2398 -0.0225  3.6289
 1909SOL    HW217187   1.716   4.217   1.850 -0.2733  1.3892 -0.7130
 1910SOL     OW17188   2.906   3.675   7.027 -0.3951  0.5039  0.4157
 1910SOL    HW117189   2.817   3.660   6.993 -1.0376  1.9966  1.4163
 1910SOL    HW217190   2.934   3.706   6.940 -1.7648 -0.7745 -0.4763
 1911SOL     OW17191   3.718   3.466   3.024  0.1225  0.4538 -0.4180
 1911SOL    HW117192   3.737   3.471   2.931  1.8268  2.1401 -0.0090
 1911SOL    HW217193   3.627   3.439   3.034 -0.1468  1.3420 -0.4487
 1912SOL     OW17194   2.820   4.324   2.417  0.0863 -0.3113  0.6154
 1912SOL    HW117195   2.786   4.373   2.341 -0.9568 -1.5953  0.2468
 1912SOL    HW217196   2.767   4.244   2.417  3.0306 -2.2509  0.7627
 1913SOL     OW17197   1.554   1.256   5.156  0.0749 -0.1769 -0.5494
 1913SOL    HW117198   1.538   1.259   5.251  1.2318 -1.2291 -0.3213
 1913SOL    HW217199   1.538   1.162   5.150  0.9609 -0.3831  0.1353
 1914SOL     OW17200   4.635   0.027  13.122 -0.2839  0.1646  0.0751
 1914SOL    HW117201   4.623   4.660  13.133 -0.8706 -0.0303 -2.1584
 1914SOL    HW217202   4.574   0.037  13.048  1.5078  2.2970 -1.1165
 1915SOL     OW17203   4.308   4.619   9.035  0.0686 -0.1713  0.2025
 1915SOL    HW117204   4.216   4.631   9.056  0.3742  0.1233  1.4035
 1915SOL    HW217205   4.308   4.614   8.939 -0.6945 -2.0074  0.3000
 1916SOL     OW17206   4.675   0.859   7.877  0.0884  0.5345 -0.3980
 1916SOL    HW117207   0.043   0.861   7.871 -0.0496  0.4772 -2.3050
 1916SOL    HW217208   4.657   0.776   7.921  1.7922  0.5202  0.2745
 1917SOL     OW17209   2.911   1.421   9.681  0.1963 -0.0412  0.8387
 1917SOL    HW117210   2.965   1.479   9.628 -0.6505 -0.4624 -0.4906
 1917SOL    HW217211   2.925   1.452   9.770  0.3011 -2.1924  1.5763
 1918SOL     OW17212   2.544   2.943  16.380 -0.0732 -0.0166 -0.1582
 1918SOL    HW117213   2.584   2.864  16.344  1.2895  1.1385 -1.1956
 1918SOL    HW217214   2.556   2.996  16.301 -0.5514  0.0548 -0.1833
 1919SOL     OW17215   0.776   0.498   4.513 -0.1602 -0.7550  0.3103
 1919SOL    HW117216   0.782   0.484   4.608 -0.0294  1.2367  0.5950
 1919SOL    HW217217   0.747   0.588   4.522  0.4906 -0.4119 -0.9462
 1920SOL     OW17218   0.033   4.027   3.043  0.3601  0.4295 -0.3182
 1920SOL    HW117219   0.108   3.995   3.093 -1.0208 -1.1423  0.7993
 1920SOL    HW217220   0.041   3.961   2.974  0.5448  0.4999 -0.3635
 1921SOL     OW17221   3.631   3.010   4.708  0.1385  0.4075 -0.8251
 1921SOL    HW117222   3.673   3.056   4.635  0.8649  1.2121  0.1083
 1921SOL    HW217223   3.607   2.931   4.660 -3.5142  0.5455  0.7757
 1922SOL     OW17224   2.858   3.686   5.290 -0.2268  0.1754 -0.3412
 1922SOL    HW117225   2.773   3.713   5.255 -0.4199  0.9215  0.6884
 1922SOL    HW217226   2.839   3.694   5.384 -0.7526 -2.3358 -0.2439
 1923SOL     OW17227   1.055   3.140   6.475  0.1571 -0.2663  0.4291
 1923SOL    HW117228   0.991   3.151   6.546  0.2998  0.7104  0.4128
 1923SOL    HW217229   1.005   3.101   6.403  0.9832  0.9158 -0.7843
 1924SOL     OW17230   2.309   4.695   8.036 -0.1075  0.2422 -0.1462
 1924SOL    HW117231   2.239   4.659   8.092  1.4046 -0.0181  1.5752
 1924SOL    HW217232   2.360   0.025   8.093 -1.0866  2.0033 -1.0477
 1925SOL     OW17233   0.316   2.069   5.906  0.1127 -0.4092  0.2377
 1925SOL    HW117234   0.250   2.104   5.966  0.6194 -0.5789  0.8959
 1925SOL    HW217235   0.288   1.979   5.888  1.8466 -0.5367 -1.7924
 1926SOL     OW17236   0.261   0.237   8.326  0.3997  0.1357 -0.1060
 1926SOL    HW117237   0.220   0.260   8.242 -0.3758 -0.5703  0.0869
 1926SOL    HW217238   0.198   0.173   8.358 -0.4631  0.9115 -0.2186
 1927SOL     OW17239   0.535   3.981   0.357  0.8120 -0.4705  0.1062
 1927SOL    HW117240   0.465   4.035   0.321  0.9060 -1.4993 -1.6094
 1927SOL    HW217241   0.547   4.026   0.441  2.5349 -1.1185  0.2084
 1928SOL     OW17242   2.077   3.770   6.041  0.0334  0.5603  0.0794
 1928SOL    HW117243   2.042   3.691   5.999 -0.3572 -0.5059  2.3990
 1928SOL    HW217244   2.047   3.843   5.986 -1.0514  1.4607  1.8665
 1929SOL     OW17245   0.946   0.953   0.803 -0.0082  0.3168 -0.4247
 1929SOL    HW117246   0.922   0.861   0.794  1.3868 -0.1324  0.4310
 1929SOL    HW217247   0.990   0.973   0.721 -0.1132 -0.3118 -0.6279
 1930SOL     OW17248   1.450   3.662   5.210 -0.0866  0.2227  0.0107
 1930SOL    HW117249   1.424   3.754   5.205  0.4840  0.2141 -3.0148
 1930SOL    HW217250   1.365   3.622   5.229  0.1010 -1.0243 -1.7871
 1931SOL     OW17251   1.205   0.136  12.353  0.2118  0.2225  0.2294
 1931SOL    HW117252   1.282   0.119  12.407  1.2439 -0.3536 -1.4117
 1931SOL    HW217253   1.235   0.194  12.283  0.7886  0.4845  0.6983
 1932SOL     OW17254   0.213   4.194   7.522  0.1367 -0.0488  0.4229
 1932SOL    HW117255   0.263   4.273   7.498  0.7849 -0.7800 -0.6347
 1932SOL    HW217256   0.127   4.236   7.524 -1.3895 -3.2386  1.9287
 1933SOL     OW17257   4.650   3.441   4.530  0.1260 -0.4323 -0.0630
 1933SOL    HW117258   4.678   3.428   4.620  3.5458 -3.5745 -1.5735
 1933SOL    HW217259   4.655   3.352   4.495  0.6847 -0.4170 -0.0302
 1934SOL     OW17260   3.549   0.474  12.132 -0.4213 -1.0445  0.1340
 1934SOL    HW117261   3.458   0.449  12.146 -0.6625 -0.1389  0.1957
 1934SOL    HW217262   3.574   0.398  12.079  1.2289 -0.6799  0.3715
 1935SOL     OW17263   2.542   1.385   3.034 -0.3043 -0.1496 -0.3345
 1935SOL    HW117264   2.483   1.310   3.043 -1.4089  0.6201 -1.1482
 1935SOL    HW217265   2.482   1.459   3.044  0.4227  0.4444 -0.3727
 1936SOL     OW17266   4.366   3.152   7.839  0.2608  0.0189  0.6373
 1936SOL    HW117267   4.338   3.064   7.861 -1.8297  0.4592 -0.2587
 1936SOL    HW217268   4.320   3.197   7.910 -1.0519 -0.6447  0.1968
 1937SOL     OW17269   1.783   4.660   4.756  0.9701  0.4927  0.2663
 1937SOL    HW117270   1.815   4.590   4.698  0.6108  0.5828 -0.0433
 1937SOL    HW217271   1.837   4.650   4.834 -0.3353 -0.5174  1.0571
 1938SOL     OW17272   0.399   1.792   0.785 -0.0591  0.0787  0.3391
 1938SOL    HW117273   0.442   1.808   0.701 -1.1870  0.5851 -0.1484
 1938SOL    HW217274   0.375   1.700   0.780 -0.2810  0.1273  0.5085
 1939SOL     OW17275   0.561   3.639   2.907  0.1447  0.1983 -0.1203
 1939SOL    HW117276   0.584   3.548   2.926 -1.6297 -0.4079 -0.8117
 1939SOL    HW217277   0.480   3.639   2.957  0.3048  0.1724  0.1361
 1940SOL     OW17278   3.726   4.068  15.037 -0.1173 -0.3010  0.2014
 1940SOL    HW117279   3.747   3.976  15.026 -1.8027 -0.8505  1.5978
 1940SOL    HW217280   3.766   4.075  15.123  0.2909 -0.7683  0.0463
 1941SOL     OW17281   1.715   3.893  12.345 -0.0741 -0.0487 -0.4039
 1941SOL    HW117282   1.652   3.965  12.348 -1.7375 -1.6488  2.1996
 1941SOL    HW217283   1.781   3.952  12.307  0.8647 -1.3054 -0.7287
 1942SOL     OW17284   4.353   0.257   8.809  0.1250  0.2075  0.0021
 1942SOL    HW117285   4.302   0.281   8.886 -2.2604 -1.3786 -1.0562
 1942SOL    HW217286   4.414   0.330   8.813 -1.0881  1.1915  0.5198
 1943SOL     OW17287   4.619   0.294   3.650  0.4605  0.2958 -0.2610
 1943SOL    HW117288   4.598   0.298   3.743 -1.1744 -0.7295 -0.5818
 1943SOL    HW217289   4.696   0.237   3.653  0.3782  0.3012  1.6821
 1944SOL     OW17290   0.126   3.021  17.681 -0.2558 -0.0826  0.1170
 1944SOL    HW117291   0.131   2.949   0.034 -1.6970 -1.7960 -1.7062
 1944SOL    HW217292   0.201   3.002  17.624  0.2663 -0.8904  1.0707
 1945SOL     OW17293   3.346   1.424   5.805  0.2681  0.7440  0.1058
 1945SOL    HW117294   3.411   1.362   5.773 -1.5652 -2.7040  3.1734
 1945SOL    HW217295   3.311   1.370   5.876 -1.6082  0.5229 -0.9895
 1946SOL     OW17296   2.973   2.901  10.890  0.1535  0.1642 -0.3129
 1946SOL    HW117297   2.882   2.874  10.873 -0.3285  1.1832  0.6552
 1946SOL    HW217298   3.013   2.895  10.803  0.1848  0.8444 -0.3404
 1947SOL     OW17299   2.727   1.819   3.858  0.3131 -0.6604  0.6896
 1947SOL    HW117300   2.821   1.809   3.843  0.1670 -2.4037  0.8306
 1947SOL    HW217301   2.693   1.733   3.832 -2.4919  0.4554  0.6234
 1948SOL     OW17302   4.394   0.215   6.007 -0.3060 -0.2973  0.4715
 1948SOL    HW117303   4.479   0.257   6.018 -0.4922  0.2679 -0.2271
 1948SOL    HW217304   4.377   0.198   5.914  1.3658 -4.3842  0.9273
 1949SOL     OW17305   1.159   2.674   2.203 -0.1943 -0.0783 -0.7113
 1949SOL    HW117306   1.182   2.596   2.254  0.2943  0.2443 -0.4292
 1949SOL    HW217307   1.105   2.729   2.260  1.2335 -0.5470  1.1158
 1950SOL     OW17308   1.277   3.964   3.255  0.4459 -0.3187  0.2178
 1950SOL    HW117309   1.240   3.909   3.324 -1.7542 -1.4074 -1.8375
 1950SOL    HW217310   1.371   3.957   3.268  0.8712  0.7220 -2.1939
 1951SOL     OW17311   0.747   3.550   8.436 -0.0725  0.1097  0.6021
 1951SOL    HW117312   0.755   3.635   8.479 -1.6686  0.9599 -0.7457
 1951SOL    HW217313   0.752   3.501   8.518  0.7921  3.1466  2.3888
 1952SOL     OW17314   0.321   0.621   1.065  0.3490 -0.0689 -0.1858
 1952SOL    HW117315   0.344   0.531   1.088  1.7635  0.1587 -0.6732
 1952SOL    HW217316   0.392   0.668   1.110 -0.0618  0.4680 -0.0966
 1953SOL     OW17317   1.586   3.090   2.938  0.2073  0.0546  0.2515
 1953SOL    HW117318   1.523   3.086   3.010 -1.1747  1.3885 -0.8889
 1953SOL    HW217319   1.626   3.003   2.943  0.3959  0.0796 -0.9623
 1954SOL     OW17320   0.057   1.722   2.709 -0.2938  0.3256  0.2053
 1954SOL    HW117321   0.107   1.641   2.722 -2.1786 -0.5792  1.8836
 1954SOL    HW217322   0.124   1.788   2.690 -0.4266 -0.1501 -1.9456
 1955SOL     OW17323   0.640   1.207   6.545 -0.5086 -0.0194  0.1737
 1955SOL    HW117324   0.670   1.164   6.465 -0.1764 -1.8415  1.2698
 1955SOL    HW217325   0.554   1.166   6.554 -0.2891 -0.8410 -1.4005
 1956SOL     OW17326   3.344   1.550   7.184 -0.3302 -0.8585 -0.3825
 1956SOL    HW117327   3.386   1.489   7.245  0.2043  1.3359  1.4366
 1956SOL    HW217328   3.339   1.631   7.235 -0.3455  0.8640 -3.1231
 1957SOL     OW17329   4.423   0.217   0.668  0.0717  0.3338 -0.1199
 1957SOL    HW117330   4.419   0.305   0.630  2.4553 -0.5342 -2.4010
 1957SOL    HW217331   4.354   0.217   0.734  1.8185  3.9074  1.7086
 1958SOL     OW17332   0.320   3.281  11.584  0.4037 -0.1984 -0.1006
 1958SOL    HW117333   0.375   3.223  11.531  1.2519  1.3592 -0.9161
 1958SOL    HW217334   0.321   3.242  11.671 -0.2128  0.3867  0.1716
 1959SOL     OW17335   3.956   1.510   1.582 -0.3927  0.3036 -0.7595
 1959SOL    HW117336   3.888   1.464   1.630  1.0387  0.1770  1.1471
 1959SOL    HW217337   4.039   1.477   1.616 -1.4522 -0.7425  0.7414
 1960SOL     OW17338   4.132   1.858   0.030 -0.0078  0.5185 -0.0998
 1960SOL    HW117339   4.113   1.949   0.008  0.6821  0.4134 -1.1357
 1960SOL    HW217340   4.042   1.824   0.029  0.1829 -0.0433  2.0087
 1961SOL     OW17341   4.055   4.133   5.371  0.1355 -0.2500 -0.0208
 1961SOL    HW117342   4.091   4.045   5.386  0.3262 -0.4149 -1.3779
 1961SOL    HW217343   4.087   4.144   5.281  1.0313 -2.1011  0.0714
 1962SOL     OW17344   1.110   0.341  13.498  0.2012  0.3088 -0.2004
 1962SOL    HW117345   1.203   0.338  13.476 -0.0893 -0.6541 -1.3080
 1962SOL    HW217346   1.111   0.365  13.590 -2.0412  0.8632 -0.3202
 1963SOL     OW17347   4.613   0.864   8.472 -0.0539 -0.1076  0.1462
 1963SOL    HW117348   4.611   0.770   8.490 -0.5679 -0.3660 -1.2754
 1963SOL    HW217349   4.691   0.890   8.522 -0.9331 -0.2683  1.6108
 1964SOL     OW17350   4.653   1.712   7.665 -0.0628  0.0569 -0.6121
 1964SOL    HW117351   4.674   1.624   7.696  0.6148 -0.5418 -2.8131
 1964SOL    HW217352   0.015   1.743   7.670  0.1453 -0.7652  0.8992
 1965SOL     OW17353   4.047   1.790   8.800  0.0507 -0.5321  0.3636
 1965SOL    HW117354   4.097   1.869   8.820 -1.3478  0.1819  1.0404
 1965SOL    HW217355   3.982   1.833   8.744 -2.0973 -0.2224  3.1122
 1966SOL     OW17356   1.796   3.576   7.490  0.0251  0.0584 -0.3323
 1966SOL    HW117357   1.827   3.545   7.405 -1.5988 -0.4178 -0.7390
 1966SOL    HW217358   1.874   3.615   7.529 -0.5688  1.8407 -0.8976
 1967SOL     OW17359   4.215   2.946   8.473 -0.2441  0.1010 -0.6363
 1967SOL    HW117360   4.252   3.007   8.408  0.3267 -1.4753 -1.7921
 1967SOL    HW217361   4.279   2.875   8.475 -0.3632 -0.0060 -0.6742
 1968SOL     OW17362   1.488   3.829   4.619  0.0158 -0.0249 -0.4341
 1968SOL    HW117363   1.451   3.743   4.640  1.3911 -0.5991 -0.3814
 1968SOL    HW217364   1.432   3.854   4.546  0.3652 -0.1090 -0.7352
 1969SOL     OW17365   0.910   4.365  11.417 -0.4642  0.0886 -0.1874
 1969SOL    HW117366   0.986   4.390  11.468  0.7892 -1.8651 -1.0969
 1969SOL    HW217367   0.952   4.290  11.376 -2.3096 -1.6005  0.9726
 1970SOL     OW17368   0.465   3.670  16.777 -0.6030 -0.4589  0.0889
 1970SOL    HW117369   0.502   3.690  16.863 -0.2596 -1.4117  0.1707
 1970SOL    HW217370   0.393   3.610  16.797 -1.4709  0.5726  0.0245
 1971SOL     OW17371   3.755   3.713   4.542  0.1398  0.8089 -0.7584
 1971SOL    HW117372   3.826   3.778   4.538  2.0218 -1.2431 -1.0139
 1971SOL    HW217373   3.680   3.768   4.563 -0.8854 -0.4722 -1.1064
 1972SOL     OW17374   1.359   1.903   6.231 -0.3679  0.5266  0.2488
 1972SOL    HW117375   1.313   1.820   6.243  0.9781 -0.4639 -1.3712
 1972SOL    HW217376   1.376   1.937   6.320  0.8738  0.5854 -0.0025
 1973SOL     OW17377   0.937   4.683   2.775  0.5462  0.9138  0.5869
 1973SOL    HW117378   0.938   0.044   2.740 -2.2780 -0.6115 -3.3558
 1973SOL    HW217379   1.007   4.640   2.726 -1.9777 -1.7877 -0.6635
 1974SOL     OW17380   1.655   3.773  17.426  0.1935  0.0218 -0.0696
 1974SOL    HW117381   1.651   3.681  17.451  0.6557  0.3623  1.2319
 1974SOL    HW217382   1.563   3.795  17.441  0.9521  0.6733  3.6950
 1975SOL     OW17383   1.963   0.717   1.111  0.5012  0.0467  0.6526
 1975SOL    HW117384   2.047   0.673   1.098  0.0352 -0.6382 -0.0153
 1975SOL    HW217385   1.933   0.682   1.194  0.8369 -2.3300 -0.2391
 1976SOL     OW17386   3.482   4.429  11.603  0.3738  0.2861  0.3131
 1976SOL    HW117387   3.415   4.463  11.662  1.3791  2.3314  0.2770
 1976SOL    HW217388   3.549   4.409  11.669  1.4082 -1.0878 -1.1548
 1977SOL     OW17389   0.417   0.112   9.058 -0.6735  0.2385  0.2095
 1977SOL    HW117390   0.440   0.064   9.138 -1.0166 -1.4042 -0.6978
 1977SOL    HW217391   0.422   0.044   8.992 -2.4186 -0.6001  0.9481
 1978SOL     OW17392   1.996   3.559   5.861  0.1661  0.0247 -0.0273
 1978SOL    HW117393   2.032   3.574   5.774  0.4491  0.5665  0.1858
 1978SOL    HW217394   1.913   3.517   5.837  0.2262  0.5470 -1.1121
 1979SOL     OW17395   4.060   4.031   6.245 -0.7484 -0.4837  0.4905
 1979SOL    HW117396   3.984   4.008   6.191  0.0459  1.7266 -1.5862
 1979SOL    HW217397   4.103   4.098   6.192 -1.8247 -2.3614 -2.7095
 1980SOL     OW17398   0.081   1.409  11.772  0.4919  0.2175 -0.2678
 1980SOL    HW117399   0.049   1.400  11.682  2.1570  0.5872 -0.9003
 1980SOL    HW217400   0.150   1.344  11.764 -0.1893 -0.5616  0.1736
 1981SOL     OW17401   2.823   0.415   4.980  0.1751  0.0923  0.0298
 1981SOL    HW117402   2.901   0.466   4.958  1.8825 -1.9280  1.3977
 1981SOL    HW217403   2.752   0.476   4.963  0.5201  0.1023 -1.4178
 1982SOL     OW17404   2.940   2.398  15.752 -0.5254 -0.2503 -0.5314
 1982SOL    HW117405   2.924   2.365  15.664 -1.0209 -0.4132 -0.3800
 1982SOL    HW217406   2.887   2.334  15.799 -1.1783  1.3713  0.9286
 1983SOL     OW17407   0.004   2.649  15.372 -0.1702  0.1718  0.0962
 1983SOL    HW117408   0.000   2.626  15.465 -1.5904 -0.1188 -0.0354
 1983SOL    HW217409   4.639   2.659  15.350 -0.3189 -1.7889 -0.1329
 1984SOL     OW17410   1.794   2.819   2.682  0.1053  0.0800  0.5390
 1984SOL    HW117411   1.877   2.831   2.635 -0.1533 -1.1102 -0.2140
 1984SOL    HW217412   1.832   2.756   2.743  0.3428  0.3631  0.6806
 1985SOL     OW17413   2.309   2.420   5.024 -0.1350 -0.0222  0.2270
 1985SOL    HW117414   2.273   2.410   4.935 -2.3744 -0.7100  1.2068
 1985SOL    HW217415   2.337   2.335   5.056 -0.8034 -0.6046 -0.7154
 1986SOL     OW17416   0.980   3.057   4.846  0.0584  0.1686  0.0193
 1986SOL    HW117417   1.051   2.992   4.852  0.4908  0.6954  0.6176
 1986SOL    HW217418   1.036   3.135   4.851 -0.9818  0.9685 -0.7970
 1987SOL     OW17419   2.444   0.033  13.466 -0.2000  0.3177  0.6535
 1987SOL    HW117420   2.378   4.726  13.525  0.0953  0.1777  0.9011
 1987SOL    HW217421   2.490   0.097  13.520  0.3881  1.5815 -1.3158
 1988SOL     OW17422   1.170   4.152   4.931  0.1191 -0.4375 -0.0551
 1988SOL    HW117423   1.117   4.198   4.997  1.0707 -0.5174  0.7788
 1988SOL    HW217424   1.248   4.208   4.937  0.6319 -1.2463  0.8613
 1989SOL     OW17425   0.286   0.873   0.922  0.1609  0.3857 -0.6723
 1989SOL    HW117426   0.306   0.789   0.962 -0.4118 -0.3909 -2.0136
 1989SOL    HW217427   0.363   0.894   0.868  0.8473 -0.1743  0.0969
 1990SOL     OW17428   4.663   1.388   9.220  0.3952 -0.5054  0.0194
 1990SOL    HW117429   4.647   1.460   9.281  0.9800 -0.6982  0.4023
 1990SOL    HW217430   4.643   1.313   9.275  1.0335 -0.2040  0.6567
 1991SOL     OW17431   1.564   3.977   8.878  0.0119  0.0946 -0.3312
 1991SOL    HW117432   1.590   4.061   8.840 -2.6184  1.3185  0.5956
 1991SOL    HW217433   1.570   3.991   8.972  0.5173 -0.6472 -0.2487
 1992SOL     OW17434   0.177   1.401   8.466  0.2175 -0.1725 -0.3989
 1992SOL    HW117435   0.267   1.432   8.472  0.2660 -0.8196  2.1979
 1992SOL    HW217436   0.140   1.419   8.552 -0.0432  2.9906 -1.1705
 1993SOL     OW17437   2.942   1.527   7.326 -0.0044 -0.4799 -0.7094
 1993SOL    HW117438   2.898   1.612   7.315 -1.9353 -1.2595  0.9417
 1993SOL    HW217439   3.023   1.558   7.366 -0.0205  0.0805 -1.1028
 1994SOL     OW17440   0.734   4.690   0.477 -0.6301  0.0155 -0.2476
 1994SOL    HW117441   0.703   4.630   0.409 -2.9831  1.8428 -0.7642
 1994SOL    HW217442   0.799   4.635   0.522 -0.4878  0.6420  0.3118
 1995SOL     OW17443   1.829   1.868  11.355  0.6049 -0.3902  0.2078
 1995SOL    HW117444   1.875   1.838  11.434 -1.7057  0.9372  2.0582
 1995SOL    HW217445   1.878   1.811  11.296 -0.4510  0.2489 -1.2876
 1996SOL     OW17446   3.247   2.222   3.847 -0.0293  0.7528 -0.0207
 1996SOL    HW117447   3.161   2.213   3.804  0.5930  2.4464 -1.6223
 1996SOL    HW217448   3.290   2.278   3.782  0.7999  0.9250  0.6867
 1997SOL     OW17449   4.217   2.142   4.386 -0.6392  0.3241 -0.5532
 1997SOL    HW117450   4.252   2.220   4.428  0.3761 -0.1579 -0.5242
 1997SOL    HW217451   4.207   2.183   4.300 -0.4355 -0.6975 -1.0660
 1998SOL     OW17452   3.995   1.850  11.284  0.0061  0.1995 -0.3098
 1998SOL    HW117453   3.989   1.901  11.203  2.9822 -1.8881 -1.8826
 1998SOL    HW217454   3.902   1.851  11.305 -0.0255 -3.6046 -0.1487
 1999SOL     OW17455   2.692   3.644   6.287 -0.4683  0.1107  0.1774
 1999SOL    HW117456   2.640   3.634   6.367  1.2086 -0.3240  1.2176
 1999SOL    HW217457   2.771   3.670   6.335 -1.3787  1.1474  1.1377
 2000SOL     OW17458   0.656   3.734   1.132  0.1265 -0.1623 -0.2403
 2000SOL    HW117459   0.623   3.776   1.211 -0.7122 -1.0742 -0.1050
 2000SOL    HW217460   0.585   3.748   1.069 -1.4427  0.4782  1.6634
 2001SOL     OW17461   2.245   4.070  11.467  0.6426  0.5883  0.0197
 2001SOL    HW117462   2.172   4.128  11.491  1.8735  1.6913  1.0779
 2001SOL    HW217463   2.281   4.060  11.554 -1.8189  0.7248  1.0666
 2002SOL     OW17464   4.386   3.744   3.117 -0.2533 -0.0965 -0.0597
 2002SOL    HW117465   4.299   3.756   3.079 -0.6831 -3.0223 -0.0059
 2002SOL    HW217466   4.397   3.838   3.132 -1.7758  0.2031 -0.7413
 2003SOL     OW17467   2.387   1.528  11.461  0.0211  0.3937 -0.1265
 2003SOL    HW117468   2.351   1.468  11.395 -1.7139  2.1780 -0.7893
 2003SOL    HW217469   2.344   1.510  11.544  0.9988 -1.0581  0.0792
 2004SOL     OW17470   3.888   3.665   2.880  0.0873 -0.8728  0.2652
 2004SOL    HW117471   3.800   3.627   2.880 -0.8108  1.1804 -2.8990
 2004SOL    HW217472   3.925   3.624   2.802  1.3916  2.9156 -1.0905
 2005SOL     OW17473   4.602   0.654   5.262 -0.3992  0.1357  0.2299
 2005SOL    HW117474   4.567   0.633   5.175  4.1786  0.0143 -1.5612
 2005SOL    HW217475   4.566   0.742   5.275 -0.2235  0.2560 -0.1146
 2006SOL     OW17476   1.384   2.927   5.466  0.1946  0.1260  0.7805
 2006SOL    HW117477   1.320   2.855   5.466  0.9832 -0.5740  1.5845
 2006SOL    HW217478   1.403   2.922   5.559 -1.2058 -1.0849  1.0077
 2007SOL     OW17479   1.259   1.788   3.476  0.1005 -0.4259  0.0385
 2007SOL    HW117480   1.246   1.773   3.383  0.0452  2.5060 -0.4192
 2007SOL    HW217481   1.178   1.836   3.494 -0.7598 -1.4595 -1.1049
 2008SOL     OW17482   1.157   4.198   3.163  0.2824  0.1986  0.2128
 2008SOL    HW117483   1.212   4.245   3.226  1.1245 -1.6645  0.8842
 2008SOL    HW217484   1.185   4.110   3.188 -1.4365 -1.0678 -2.3928
 2009SOL     OW17485   3.626   0.415  13.005  0.2818  0.5311  0.1711
 2009SOL    HW117486   3.563   0.370  13.061 -0.0064 -0.3235 -0.8210
 2009SOL    HW217487   3.690   0.442  13.070  0.6789  1.0208 -0.4253
 2010SOL     OW17488   2.150   2.112   7.197  0.3412  0.1085 -0.1765
 2010SOL    HW117489   2.166   2.196   7.153 -1.4871  0.6242  0.1705
 2010SOL    HW217490   2.113   2.148   7.277  1.5502 -2.1480  1.3880
 2011SOL     OW17491   4.422   2.876   4.582  0.2056 -0.1252  0.0215
 2011SOL    HW117492   4.362   2.911   4.647 -0.0985  0.5832 -0.6415
 2011SOL    HW217493   4.447   2.953   4.532 -3.3378  1.4247  0.6433
 2012SOL     OW17494   4.125   2.238   5.341  0.5464 -0.4295  0.0558
 2012SOL    HW117495   4.203   2.289   5.360  0.6276 -0.5203 -0.0337
 2012SOL    HW217496   4.157   2.161   5.295  1.2458 -0.8886  1.3317
 2013SOL     OW17497   1.084   1.080   8.395 -0.7294 -0.0399  0.2523
 2013SOL    HW117498   1.018   1.080   8.325  1.3106 -0.7739 -1.6574
 2013SOL    HW217499   1.041   1.017   8.452 -0.7389  1.5154  1.9463
 2014SOL     OW17500   1.529   4.083   5.684  0.3278  0.4557  0.1776
 2014SOL    HW117501   1.484   4.167   5.674  1.9458  1.4989  1.6390
 2014SOL    HW217502   1.520   4.063   5.777  0.8201 -0.6306 -0.0077
 2015SOL     OW17503   0.986   2.352  17.373 -0.1987 -0.0919  0.3783
 2015SOL    HW117504   1.051   2.355  17.444  0.2894  0.6049 -0.1011
 2015SOL    HW217505   1.035   2.343  17.292  1.8575  2.3623  1.3414
 2016SOL     OW17506   2.967   0.024  12.104  0.4074 -0.1985  0.5206
 2016SOL    HW117507   3.003   4.674  12.146  1.5086  0.2114  0.3387
 2016SOL    HW217508   2.924   0.065  12.179 -1.1664  0.3984 -0.6881
 2017SOL     OW17509   1.593   3.269  13.114 -0.9927 -0.1877 -0.3119
 2017SOL    HW117510   1.548   3.323  13.180  0.7611  1.2751 -0.3035
 2017SOL    HW217511   1.684   3.295  13.131 -0.4106 -2.2454 -0.3735
 2018SOL     OW17512   2.570   1.966   4.872  0.3182  0.1641 -0.4895
 2018SOL    HW117513   2.663   1.971   4.850  0.8093 -3.2263  0.7725
 2018SOL    HW217514   2.580   1.955   4.967  0.4030 -0.2766 -0.5487
 2019SOL     OW17515   0.145   2.752  10.045 -0.0149 -0.0070  0.2709
 2019SOL    HW117516   0.185   2.791  10.123 -0.9198  0.5544  0.4527
 2019SOL    HW217517   0.211   2.683  10.036  0.5298  0.3330  1.6319
 2020SOL     OW17518   3.039   1.530  13.048 -0.4525  0.1808  0.4834
 2020SOL    HW117519   3.028   1.507  12.956  0.1512 -2.2909  1.0021
 2020SOL    HW217520   3.118   1.583  13.037 -0.8794  0.6687 -0.2032
 2021SOL     OW17521   3.655   2.962  16.672 -0.2373 -0.5879  0.7455
 2021SOL    HW117522   3.630   2.890  16.615 -0.7836  1.7529 -1.9355
 2021SOL    HW217523   3.581   3.022  16.683  0.6917  0.6788  0.0854
 2022SOL     OW17524   3.319   0.439  11.962 -0.3243 -0.0558 -0.1268
 2022SOL    HW117525   3.391   0.381  11.937  0.4018  1.3774 -1.3351
 2022SOL    HW217526   3.235   0.398  11.942 -0.8615  1.2239 -0.4727
 2023SOL     OW17527   1.328   0.297  14.640  0.0132 -0.4324  0.4896
 2023SOL    HW117528   1.400   0.261  14.691  0.7246  1.0652  0.5437
 2023SOL    HW217529   1.296   0.364  14.700 -3.5058 -1.0402 -0.7158
 2024SOL     OW17530   1.005   4.692  10.591 -0.3207  0.2373 -0.6247
 2024SOL    HW117531   1.006   4.615  10.535  1.3690  1.4204 -2.2247
 2024SOL    HW217532   0.925   4.677  10.641 -0.0794  0.9835  0.0044
 2025SOL     OW17533   2.422   2.482   5.784 -0.3647  0.2316  0.2543
 2025SOL    HW117534   2.445   2.412   5.846 -1.1299 -1.2776 -1.1592
 2025SOL    HW217535   2.345   2.442   5.745 -0.1575 -0.1398  0.2235
 2026SOL     OW17536   0.860   3.968   9.669  0.3018 -0.6374  0.1389
 2026SOL    HW117537   0.849   3.943   9.577  0.9461 -1.0150  0.1620
 2026SOL    HW217538   0.784   3.919   9.702 -0.6989  1.2037  0.5816
 2027SOL     OW17539   4.206   3.282   8.065  0.4421  0.2162  0.3287
 2027SOL    HW117540   4.128   3.227   8.070  0.7785 -0.0878  2.1927
 2027SOL    HW217541   4.165   3.365   8.039  0.8192 -0.4540 -2.4628
 2028SOL     OW17542   1.852   1.641   2.973 -0.6105 -0.1635 -0.2501
 2028SOL    HW117543   1.824   1.708   2.910  2.8217 -0.8128 -2.4364
 2028SOL    HW217544   1.803   1.570   2.931 -0.0830 -1.1381  0.8152
 2029SOL     OW17545   3.359   1.025   3.245 -0.6199 -0.1033  0.1843
 2029SOL    HW117546   3.344   0.939   3.207  2.1653 -0.8269  0.7009
 2029SOL    HW217547   3.400   1.070   3.171  4.0403 -1.5561  1.8786
 2030SOL     OW17548   3.327   3.171   3.259 -0.2020  0.6461 -0.8624
 2030SOL    HW117549   3.333   3.111   3.334  0.5088  0.3450 -1.1608
 2030SOL    HW217550   3.249   3.220   3.285  1.2121  1.8359  1.0863
 2031SOL     OW17551   3.136   3.624  17.320  0.0526  0.0292 -0.2657
 2031SOL    HW117552   3.165   3.548  17.268  0.2230 -0.1309  0.0626
 2031SOL    HW217553   3.047   3.639  17.287  0.2143  0.0630 -0.6948
 2032SOL     OW17554   3.015   1.485   7.757 -0.3132 -0.2287 -0.5723
 2032SOL    HW117555   3.060   1.564   7.727 -1.6042  0.1335 -1.5690
 2032SOL    HW217556   3.064   1.414   7.716  1.3638  0.3754  0.4114
 2033SOL     OW17557   2.623   2.281  16.188  0.6240  0.0826  0.6498
 2033SOL    HW117558   2.611   2.209  16.127  2.3883 -0.2298  0.6763
 2033SOL    HW217559   2.632   2.237  16.273  1.2616  0.8456  0.9820
 2034SOL     OW17560   3.465   0.927   5.627  0.2625  0.5754 -0.2104
 2034SOL    HW117561   3.391   0.884   5.585  2.0191 -1.3774 -1.2835
 2034SOL    HW217562   3.515   0.967   5.557 -0.7020  1.4745 -0.3802
 2035SOL     OW17563   2.113   3.174   5.124 -0.9824 -0.1147  0.9157
 2035SOL    HW117564   2.151   3.184   5.211 -0.7666 -2.1242  1.0379
 2035SOL    HW217565   2.077   3.262   5.110 -1.6525 -0.7248 -1.2950
 2036SOL     OW17566   1.425   2.755   5.004  0.0212 -0.1859  0.0764
 2036SOL    HW117567   1.498   2.801   4.962 -1.5667  1.5748 -0.7394
 2036SOL    HW217568   1.450   2.749   5.096  0.9857 -2.6731 -0.3470
 2037SOL     OW17569   2.190   3.538  15.929 -0.3212 -0.1462  0.1247
 2037SOL    HW117570   2.198   3.472  15.860  0.2080 -0.0516  0.1000
 2037SOL    HW217571   2.193   3.489  16.011 -0.0227  0.1668  0.3004
 2038SOL     OW17572   0.766   0.745   2.853  0.1794  0.1392  0.4227
 2038SOL    HW117573   0.727   0.807   2.914  1.7854  0.0093  1.5723
 2038SOL    HW217574   0.739   0.664   2.898 -1.9834 -1.2668 -3.4211
 2039SOL     OW17575   3.937   3.594  13.272  0.0835  0.2551 -0.4057
 2039SOL    HW117576   4.023   3.625  13.301 -0.8413  0.6301  1.9967
 2039SOL    HW217577   3.952   3.500  13.269  1.5326  0.5259 -1.3231
 2040SOL     OW17578   3.255   0.247   3.245 -0.4317 -0.5360 -0.4705
 2040SOL    HW117579   3.226   0.295   3.322  0.2089 -0.9575  0.0426
 2040SOL    HW217580   3.245   0.156   3.273 -3.0872  0.8893  3.2143
 2041SOL     OW17581   4.201   1.970  12.621  0.2416  0.3738  0.1948
 2041SOL    HW117582   4.152   1.949  12.542  0.9530 -0.8299  0.0623
 2041SOL    HW217583   4.126   1.957  12.678 -1.0218  0.1676 -1.5102
 2042SOL     OW17584   0.231   0.849  10.066  0.0020 -0.0889  0.1604
 2042SOL    HW117585   0.306   0.808  10.023  1.9943  2.3777  1.2654
 2042SOL    HW217586   0.170   0.776  10.055 -1.7803  1.6240 -1.1540
 2043SOL     OW17587   0.873   1.403   8.819  0.2939 -0.1374  0.2098
 2043SOL    HW117588   0.849   1.353   8.741 -2.2220  2.8515 -0.9155
 2043SOL    HW217589   0.834   1.344   8.884 -0.4038 -2.0567 -1.9607
 2044SOL     OW17590   1.462   4.689  10.224 -0.1535 -0.1139  0.7696
 2044SOL    HW117591   1.384   4.707  10.171 -0.1082  0.8725  1.0463
 2044SOL    HW217592   1.426   4.631  10.291 -1.7649 -0.4298 -0.3493
 2045SOL     OW17593   3.631   4.493   2.942 -0.4859 -0.7348  0.0061
 2045SOL    HW117594   3.691   4.438   2.992 -2.6337 -2.0893  1.0922
 2045SOL    HW217595   3.669   4.577   2.967 -1.8732  0.3256 -1.4324
 2046SOL     OW17596   2.983   0.370   1.402 -0.2486 -0.0301 -0.4169
 2046SOL    HW117597   2.945   0.299   1.350  1.3393  1.1142 -3.1323
 2046SOL    HW217598   3.057   0.319   1.436 -0.5923 -0.8378 -0.8925
 2047SOL     OW17599   3.608   0.954   0.040  0.8657 -0.2893  0.1573
 2047SOL    HW117600   3.659   1.033   0.020  0.1280  0.4180  1.0393
 2047SOL    HW217601   3.560   0.991   0.115  0.2049  1.5080 -1.1664
 2048SOL     OW17602   0.144   0.482   2.770  0.8665 -0.6370  0.5825
 2048SOL    HW117603   0.147   0.387   2.759  2.6974 -0.2736 -1.8171
 2048SOL    HW217604   0.121   0.481   2.864  1.9413  0.2024  0.8433
 2049SOL     OW17605   3.503   0.311   8.564  0.3958  0.5796 -0.2568
 2049SOL    HW117606   3.557   0.289   8.487  0.0274  0.3076 -0.4402
 2049SOL    HW217607   3.543   0.394   8.589  0.6138  0.6440 -0.8063
 2050SOL     OW17608   0.402   3.077  11.368  0.4889 -0.3671  0.5324
 2050SOL    HW117609   0.349   3.091  11.290  1.6075 -0.1841 -0.2050
 2050SOL    HW217610   0.440   2.990  11.353 -1.9069 -0.8320 -2.6986
 2051SOL     OW17611   3.844   0.500   5.359  0.0763  0.1687 -0.2743
 2051SOL    HW117612   3.845   0.596   5.359  0.1006  0.1690  0.4578
 2051SOL    HW217613   3.936   0.479   5.370 -0.2665 -1.3965 -0.3411
 2052SOL     OW17614   3.186   3.577   4.516  1.0246 -0.2708  0.5125
 2052SOL    HW117615   3.173   3.525   4.595 -0.5332 -1.2498 -0.3889
 2052SOL    HW217616   3.177   3.509   4.449 -1.5718  0.0346  0.5689
 2053SOL     OW17617   1.446   0.666   5.161  0.0360  0.0269  0.7745
 2053SOL    HW117618   1.455   0.649   5.068 -3.2011  1.3186  0.2209
 2053SOL    HW217619   1.450   0.575   5.189 -0.4989 -0.1998  0.1020
 2054SOL     OW17620   0.291   4.406  17.699  0.8813 -0.0817  0.3777
 2054SOL    HW117621   0.206   4.388   0.028  0.8607 -1.8243 -0.4488
 2054SOL    HW217622   0.295   4.501  17.684 -0.4703  0.5085  3.8862
 2055SOL     OW17623   0.944   1.996   3.609  0.2681  0.3682  0.1727
 2055SOL    HW117624   0.916   2.005   3.518  0.4478  1.2341  0.2028
 2055SOL    HW217625   1.026   2.043   3.620  0.0584  0.4431  1.4946
 2056SOL     OW17626   4.141   0.448   0.501  0.0124 -0.0243 -0.2031
 2056SOL    HW117627   4.052   0.458   0.534  0.3408 -2.0349  1.3373
 2056SOL    HW217628   4.143   0.352   0.494 -2.4314 -0.1796  1.3863
 2057SOL     OW17629   0.199   4.239   4.738  0.0862 -0.2582 -0.0213
 2057SOL    HW117630   0.158   4.270   4.819 -1.3546 -0.0799 -0.8163
 2057SOL    HW217631   0.280   4.289   4.747  0.0564 -0.0964 -0.6956
 2058SOL     OW17632   0.387   4.616  11.302 -0.2904  0.4521 -0.0581
 2058SOL    HW117633   0.378   4.521  11.298  2.3896  0.1867  0.2067
 2058SOL    HW217634   0.303   4.636  11.342  0.3983  1.0011  1.1224
 2059SOL     OW17635   0.660   3.041  14.384  0.4448  0.4069 -0.4777
 2059SOL    HW117636   0.602   2.968  14.362  0.4399 -0.2507  1.6435
 2059SOL    HW217637   0.610   3.092  14.449 -1.1908  1.0397 -2.2493
 2060SOL     OW17638   2.133   1.774   8.439 -0.1123  0.3226 -0.1854
 2060SOL    HW117639   2.085   1.856   8.454 -0.5940  0.0485 -0.2210
 2060SOL    HW217640   2.140   1.767   8.344  1.2892  0.1713 -0.0686
 2061SOL     OW17641   2.094   0.458  10.737 -0.0704  0.7108  0.6142
 2061SOL    HW117642   2.120   0.544  10.768 -1.9479  1.8177 -0.8571
 2061SOL    HW217643   2.034   0.448  10.810  0.1245  0.7137  0.7744
 2062SOL     OW17644   2.611   2.408   7.755 -0.3228 -0.7111  0.0988
 2062SOL    HW117645   2.557   2.407   7.833 -0.1204  0.5154  0.2572
 2062SOL    HW217646   2.627   2.503   7.747 -0.3967 -0.9434 -3.1697
 2063SOL     OW17647   1.966   0.623   1.744  0.0655 -0.2753  0.3524
 2063SOL    HW117648   1.944   0.565   1.816 -0.8506  1.4211  1.4165
 2063SOL    HW217649   1.885   0.674   1.742  0.7221  0.7028 -1.6845
 2064SOL     OW17650   0.727   3.860   5.150  0.0727  0.2143  0.1844
 2064SOL    HW117651   0.649   3.841   5.203 -0.7305 -0.1599 -1.1216
 2064SOL    HW217652   0.729   3.785   5.092  0.4112  0.7134 -0.4446
 2065SOL     OW17653   4.003   2.505   3.532 -0.4872 -0.1200 -0.0626
 2065SOL    HW117654   3.923   2.537   3.572 -1.1973  0.0202 -1.5888
 2065SOL    HW217655   3.976   2.509   3.440  0.8951  1.6961 -0.3922
 2066SOL     OW17656   0.751   0.436   8.191 -0.1489 -0.4095  0.5032
 2066SOL    HW117657   0.846   0.441   8.192 -0.2118  0.8728 -1.4122
 2066SOL    HW217658   0.741   0.346   8.160 -1.2106 -0.9128  2.2897
 2067SOL     OW17659   4.307   4.112   5.803  0.1145  0.1365  0.4930
 2067SOL    HW117660   4.355   4.036   5.837 -0.3793 -0.7009 -0.6657
 2067SOL    HW217661   4.236   4.058   5.769 -1.3636  1.9900  0.6371
 2068SOL     OW17662   1.897   1.858  11.076 -0.1756 -0.2917 -0.0543
 2068SOL    HW117663   1.850   1.787  11.032  0.4060 -1.4160  1.1372
 2068SOL    HW217664   1.968   1.803  11.108  0.8585  0.1104 -1.6669
 2069SOL     OW17665   3.862   2.008   6.053 -0.3151  0.0070  0.2049
 2069SOL    HW117666   3.830   2.028   5.965 -1.4984  0.5447  0.7494
 2069SOL    HW217667   3.842   1.915   6.049  0.9616 -0.2244 -0.8399
 2070SOL     OW17668   1.676   0.818   5.186 -0.2772 -0.1374 -0.2929
 2070SOL    HW117669   1.638   0.900   5.154  1.9918  0.0528 -2.5198
 2070SOL    HW217670   1.600   0.761   5.201  1.0159 -2.1773 -1.4482
 2071SOL     OW17671   1.035   0.039   2.168  0.0351  0.5149  0.0952
 2071SOL    HW117672   1.036   0.070   2.077 -3.0354  2.8748  0.8786
 2071SOL    HW217673   0.942   0.016   2.178  0.1072  0.8379  1.3942
 2072SOL     OW17674   1.768   1.813   7.750  0.2544 -0.1514  0.5890
 2072SOL    HW117675   1.823   1.734   7.751 -2.7419 -2.2325  0.8765
 2072SOL    HW217676   1.695   1.774   7.798 -1.3990  3.3915  0.9056
 2073SOL     OW17677   2.782   0.594  13.383  0.7428  0.8560  0.0837
 2073SOL    HW117678   2.729   0.644  13.321  2.2383  3.7171  1.0933
 2073SOL    HW217679   2.719   0.541  13.432  0.7963 -1.6131 -2.4983
 2074SOL     OW17680   1.977   4.429   4.363 -0.0522 -0.3778  0.2533
 2074SOL    HW117681   2.007   4.444   4.273 -0.0809 -0.7797  0.1764
 2074SOL    HW217682   2.038   4.480   4.416 -1.7920  0.7267  1.1610
 2075SOL     OW17683   0.538   1.242   9.085 -0.0186  0.7040 -0.0825
 2075SOL    HW117684   0.484   1.321   9.088 -0.4525  0.4115 -0.2069
 2075SOL    HW217685   0.585   1.251   9.168  0.3086 -0.4371 -0.1443
 2076SOL     OW17686   2.168   0.986   0.206 -0.1737  0.3881 -0.5557
 2076SOL    HW117687   2.119   1.058   0.245  0.5146 -0.6757  2.2369
 2076SOL    HW217688   2.143   0.994   0.114 -2.8844  1.4356  0.2731
 2077SOL     OW17689   3.670   2.573  12.012  0.4011  0.6019 -0.0965
 2077SOL    HW117690   3.585   2.568  11.967  0.7539 -1.3775 -0.5412
 2077SOL    HW217691   3.701   2.483  12.006 -0.3440  0.2787  0.9907
 2078SOL     OW17692   3.553   2.444   4.328 -0.4677  0.0483 -0.0258
 2078SOL    HW117693   3.505   2.516   4.369 -1.8668  0.2740 -2.0938
 2078SOL    HW217694   3.490   2.430   4.258 -0.1591  1.5102 -0.5876
 2079SOL     OW17695   2.900   3.486   6.717 -0.3958 -0.4563  0.2480
 2079SOL    HW117696   2.815   3.479   6.761 -0.4330  0.9579  0.4022
 2079SOL    HW217697   2.954   3.440   6.781  0.3322 -1.3355 -1.0063
 2080SOL     OW17698   2.757   1.615   7.744 -1.1467  0.0607  0.0403
 2080SOL    HW117699   2.829   1.583   7.690 -0.9070  0.1540  0.3050
 2080SOL    HW217700   2.745   1.539   7.801 -0.2457 -1.0446 -1.2637
 2081SOL     OW17701   4.283   1.035  11.754  0.3223  0.0761  0.2105
 2081SOL    HW117702   4.202   1.064  11.796  0.2996  0.3428 -0.0175
 2081SOL    HW217703   4.323   0.969  11.811  0.0936 -1.0246 -0.9004
 2082SOL     OW17704   3.142   3.607   7.512  0.0761  0.2301 -0.1086
 2082SOL    HW117705   3.220   3.634   7.464 -1.9270  1.5607 -2.6086
 2082SOL    HW217706   3.074   3.594   7.445  1.4786  2.2516 -1.9381
 2083SOL     OW17707   1.793   0.841   4.077 -0.1611  0.1634  0.5681
 2083SOL    HW117708   1.870   0.810   4.124  1.7487  2.1618 -1.2079
 2083SOL    HW217709   1.747   0.761   4.051 -2.8742  1.5944  0.9569
 2084SOL     OW17710   3.416   0.807   4.854  0.3035  0.1296  0.5589
 2084SOL    HW117711   3.409   0.718   4.888  0.4149  1.1748  3.3223
 2084SOL    HW217712   3.482   0.805   4.785 -2.5380  0.3875 -2.1890
 2085SOL     OW17713   2.265   3.074  10.795 -0.5559  0.1733  0.3962
 2085SOL    HW117714   2.297   2.985  10.807  1.0334  0.7630  0.5018
 2085SOL    HW217715   2.293   3.116  10.876  1.3226 -0.4875  0.0788
 2086SOL     OW17716   2.222   1.379   6.783 -0.5905 -0.2312 -0.6457
 2086SOL    HW117717   2.199   1.303   6.730  1.3408  0.0149 -1.8659
 2086SOL    HW217718   2.301   1.343   6.822 -0.1127  1.1824 -0.2874
 2087SOL     OW17719   1.209   1.613  16.148  0.0785 -0.2201  0.1592
 2087SOL    HW117720   1.254   1.544  16.196  1.2226  1.5757  1.6400
 2087SOL    HW217721   1.157   1.648  16.220 -1.7959 -1.1152 -0.7615
 2088SOL     OW17722   1.445   0.452   4.707  0.2891 -0.2107  0.3710
 2088SOL    HW117723   1.480   0.498   4.631  0.5942  0.0572  0.6708
 2088SOL    HW217724   1.408   0.520   4.763  1.2154 -0.2513  1.0445
 2089SOL     OW17725   1.511   0.274  14.397  0.0896 -0.0340  0.0836
 2089SOL    HW117726   1.570   0.316  14.459 -0.2738 -0.4707  0.7221
 2089SOL    HW217727   1.429   0.261  14.445  0.9615  0.1732  1.6203
 2090SOL     OW17728   2.330   3.253   7.004 -0.5691  0.2059  0.9442
 2090SOL    HW117729   2.268   3.186   7.035 -0.4710  0.3920  1.5363
 2090SOL    HW217730   2.369   3.192   6.942  0.8034  3.1799 -1.1017
 2091SOL     OW17731   2.233   1.610  13.210  0.1145 -0.2418  0.2364
 2091SOL    HW117732   2.288   1.563  13.148  0.0623 -1.3629  1.0424
 2091SOL    HW217733   2.275   1.604  13.296  1.2126 -0.8246 -0.3552
 2092SOL     OW17734   2.038   3.649   9.718 -0.1769  0.0118  0.0647
 2092SOL    HW117735   2.038   3.577   9.781 -2.6123 -0.7139 -0.7638
 2092SOL    HW217736   2.003   3.723   9.767 -1.6837  0.9010 -2.4000
 2093SOL     OW17737   3.514   2.390   5.281  0.0867 -0.0948  0.3865
 2093SOL    HW117738   3.571   2.467   5.279  0.8467 -0.6341  1.3045
 2093SOL    HW217739   3.556   2.327   5.223 -0.1421  0.5191 -0.4516
 2094SOL     OW17740   3.363   1.126  11.262 -0.3044  0.2639 -0.4241
 2094SOL    HW117741   3.381   1.218  11.280 -0.4369 -0.0680  1.4360
 2094SOL    HW217742   3.450   1.098  11.290 -0.4024 -0.2613 -0.6477
 2095SOL     OW17743   2.150   0.399   2.483 -0.9564  0.3532  0.1042
 2095SOL    HW117744   2.129   0.405   2.576 -1.9095  1.1938 -0.1737
 2095SOL    HW217745   2.178   0.310   2.461 -1.8479  0.0816  0.0841
 2096SOL     OW17746   1.529   3.762   6.558  0.3170 -0.0871 -0.2696
 2096SOL    HW117747   1.502   3.672   6.574 -1.3666  0.2991 -0.9787
 2096SOL    HW217748   1.441   3.794   6.538 -0.2259 -0.7683  1.0536
 2097SOL     OW17749   2.123   1.870   2.289 -0.5536  0.4763  0.0818
 2097SOL    HW117750   2.048   1.812   2.273 -1.0273  0.9489  0.5782
 2097SOL    HW217751   2.086   1.951   2.323 -0.8555  0.5179 -0.3392
 2098SOL     OW17752   4.649   1.194  10.390 -0.2492 -0.1509 -0.0832
 2098SOL    HW117753   4.626   1.109  10.427  0.3335 -0.4993 -0.5158
 2098SOL    HW217754   4.719   1.174  10.328 -1.5239 -0.8161 -1.3355
 2099SOL     OW17755   0.903   2.635  16.962 -0.4261 -0.2836 -0.3267
 2099SOL    HW117756   0.841   2.700  16.995 -0.7362 -0.7935  0.1007
 2099SOL    HW217757   0.973   2.638  17.027  0.0480  1.9112 -0.9374
 2100SOL     OW17758   0.412   1.165   3.629 -0.2939  0.4418  0.5799
 2100SOL    HW117759   0.413   1.218   3.549  0.6115 -0.3637  0.0521
 2100SOL    HW217760   0.329   1.185   3.672  0.7601  2.8528  1.4806
 2101SOL     OW17761   3.012   2.024   6.176  0.4491 -0.7009  0.0903
 2101SOL    HW117762   2.952   1.960   6.136 -0.9431  0.9088 -0.4037
 2101SOL    HW217763   2.964   2.101   6.146  2.4550  1.2062  1.8190
 2102SOL     OW17764   3.038   2.220   3.595  0.1868 -0.1480  0.0250
 2102SOL    HW117765   2.989   2.287   3.549 -1.3476 -1.7303 -0.6473
 2102SOL    HW217766   2.966   2.176   3.641  2.0179 -1.7417  1.4226
 2103SOL     OW17767   3.530   2.757   8.241 -0.2758 -0.1362  0.1609
 2103SOL    HW117768   3.458   2.782   8.299  0.0135  0.2000  0.3764
 2103SOL    HW217769   3.473   2.728   8.170 -0.8982  1.4465  0.0335
 2104SOL     OW17770   3.236   1.040   7.740 -1.0093  0.5690 -0.3749
 2104SOL    HW117771   3.152   1.008   7.772  0.3132 -1.1167  1.4499
 2104SOL    HW217772   3.290   0.975   7.784 -2.3205  2.3835  3.8741
 2105SOL     OW17773   3.479   3.749   0.112  0.2185  0.6843  0.4062
 2105SOL    HW117774   3.512   3.822   0.164  0.4239 -1.3641  3.1436
 2105SOL    HW217775   3.398   3.731   0.160 -0.0608 -2.1220 -1.0750
 2106SOL     OW17776   0.238   0.773   7.869  0.0037  0.1438  0.3342
 2106SOL    HW117777   0.326   0.784   7.906  0.0122  2.2406 -0.3418
 2106SOL    HW217778   0.246   0.687   7.827  1.5300  0.4357  0.0096
 2107SOL     OW17779   1.135   1.026   7.521 -0.5842 -0.3201 -0.4237
 2107SOL    HW117780   1.219   1.015   7.566 -0.5813 -0.2783 -0.4184
 2107SOL    HW217781   1.066   1.039   7.586  1.4320 -2.4214  2.1258
 2108SOL     OW17782   1.961   1.572   8.779  0.6057 -0.0452  0.0985
 2108SOL    HW117783   1.974   1.567   8.684  1.3769 -1.5045  0.2800
 2108SOL    HW217784   2.051   1.563   8.811  0.5911 -2.1482 -0.3971
 2109SOL     OW17785   1.277   4.407   2.039  0.7375  0.8730 -0.6726
 2109SOL    HW117786   1.299   4.495   2.071 -1.5017  0.7888  1.1125
 2109SOL    HW217787   1.261   4.417   1.946 -0.6218  1.7330 -0.3520
 2110SOL     OW17788   4.628   0.037   3.779 -0.4894  0.2716  0.0068
 2110SOL    HW117789   4.656   0.022   3.869 -2.4542 -2.8387  0.1323
 2110SOL    HW217790   4.539   0.068   3.799 -1.2641 -1.9724  0.0442
 2111SOL     OW17791   2.201   0.694   4.861  0.4099  0.1825 -0.3589
 2111SOL    HW117792   2.168   0.616   4.818 -0.1488  0.4107 -0.3393
 2111SOL    HW217793   2.125   0.749   4.843  0.3079  0.2368  0.2690
 2112SOL     OW17794   1.758   2.301   5.064 -0.3915 -0.1502 -0.0548
 2112SOL    HW117795   1.788   2.225   5.114  0.0325 -0.2795 -0.5115
 2112SOL    HW217796   1.669   2.281   5.032 -0.1394 -0.4563 -0.5618
 2113SOL     OW17797   2.806   2.976   3.204 -0.3170 -0.2751  0.0222
 2113SOL    HW117798   2.830   2.955   3.114 -1.1967  0.5149 -0.4015
 2113SOL    HW217799   2.733   3.032   3.179 -1.2612 -0.6875  1.8180
 2114SOL     OW17800   2.983   1.364  16.970  0.1792 -0.0908 -0.2212
 2114SOL    HW117801   2.977   1.355  17.066  0.2770 -0.8437 -0.2843
 2114SOL    HW217802   3.071   1.332  16.948 -0.6794 -2.2556 -0.5179
 2115SOL     OW17803   0.313   1.125  12.046  0.1930  0.1883  0.3412
 2115SOL    HW117804   0.328   1.033  12.067  0.7821  0.8708  2.8586
 2115SOL    HW217805   0.331   1.180  12.122  0.6816 -1.0561  1.1114
 2116SOL     OW17806   0.367   4.350   8.448 -0.1863 -0.8920 -0.1814
 2116SOL    HW117807   0.356   4.255   8.440  0.8516 -0.7721 -2.9697
 2116SOL    HW217808   0.285   4.374   8.405 -0.5618 -1.3160  0.2985
 2117SOL     OW17809   4.042   1.637  15.868 -0.5000 -0.6726 -0.6723
 2117SOL    HW117810   4.013   1.629  15.777  3.1936  1.7417 -2.0532
 2117SOL    HW217811   4.118   1.693  15.852 -2.4206  1.9746 -0.5649
 2118SOL     OW17812   3.191   0.854  10.555  0.4524 -0.4344 -0.4025
 2118SOL    HW117813   3.098   0.875  10.562  0.2680 -0.8086 -1.8397
 2118SOL    HW217814   3.217   0.839  10.646 -0.1176 -0.8395 -0.3119
 2119SOL     OW17815   2.257   2.670   5.643 -0.7050  0.5984  0.1288
 2119SOL    HW117816   2.331   2.611   5.629 -0.3054  1.2054 -0.2765
 2119SOL    HW217817   2.225   2.616   5.715 -0.4265 -0.5330 -0.5958
 2120SOL     OW17818   3.061   0.997  10.343  0.2794  0.4154 -0.2221
 2120SOL    HW117819   3.010   0.950  10.277  0.5770  1.8070 -1.4414
 2120SOL    HW217820   3.103   0.921  10.385 -1.8751  0.1894  1.5412
 2121SOL     OW17821   1.444   2.431   7.577 -0.8035 -0.3721 -0.2071
 2121SOL    HW117822   1.404   2.354   7.618 -1.4718  0.2513  0.3092
 2121SOL    HW217823   1.538   2.414   7.582 -1.4834 -3.8919  0.4130
 2122SOL     OW17824   0.774   2.491   7.732 -0.0302 -0.2687  0.6952
 2122SOL    HW117825   0.680   2.485   7.752  0.4496 -0.3069  3.0214
 2122SOL    HW217826   0.802   2.575   7.769 -2.0615  0.9328 -0.5009
 2123SOL     OW17827   3.637   2.384  13.696 -0.2834  0.0939 -0.1812
 2123SOL    HW117828   3.624   2.428  13.780  1.1057  0.1091  0.0256
 2123SOL    HW217829   3.571   2.315  13.704  1.8055 -1.9196 -0.4519
 2124SOL     OW17830   1.760   3.497   6.590  1.0919  0.6052  0.2232
 2124SOL    HW117831   1.693   3.450   6.542 -0.8426  2.1914  1.3755
 2124SOL    HW217832   1.841   3.482   6.540  1.8325 -0.9362  1.8931
 2125SOL     OW17833   4.567   3.269   7.015  0.1689 -0.4267  0.6528
 2125SOL    HW117834   4.621   3.194   7.038 -1.1789 -0.7901  2.5931
 2125SOL    HW217835   4.517   3.226   6.946 -1.5262  2.2336  0.1983
 2126SOL     OW17836   0.005   1.745   4.063 -0.7388 -0.1971  0.2530
 2126SOL    HW117837   0.049   1.662   4.081 -1.3713 -0.8736 -1.3097
 2126SOL    HW217838   0.020   1.786   4.148  2.2117  1.0607 -0.8985
 2127SOL     OW17839   0.667   2.184   7.902 -0.2064  0.0381  0.3333
 2127SOL    HW117840   0.647   2.244   7.974  1.2988 -1.2549  1.8261
 2127SOL    HW217841   0.578   2.160   7.877  0.1026  0.1665 -0.8748
 2128SOL     OW17842   2.457   1.169  12.816 -0.4436  0.1658  0.0497
 2128SOL    HW117843   2.503   1.100  12.862  1.1748  0.7460 -0.7028
 2128SOL    HW217844   2.517   1.239  12.843 -1.1453  0.4129  0.9581
 2129SOL     OW17845   2.959   2.684   4.818  0.0170 -0.0208 -0.4298
 2129SOL    HW117846   3.001   2.644   4.742 -0.0446  2.4507 -1.7423
 2129SOL    HW217847   2.940   2.610   4.876  2.5787 -0.8256 -0.6281
 2130SOL     OW17848   4.094   0.991   4.316 -0.3659  0.1437 -0.2231
 2130SOL    HW117849   4.046   1.061   4.271  1.0417  0.7342 -0.8069
 2130SOL    HW217850   4.035   0.977   4.390 -0.7628  0.9178 -0.3937
 2131SOL     OW17851   3.364   2.338   6.795 -0.0686 -0.2208 -0.1341
 2131SOL    HW117852   3.432   2.361   6.857 -0.8633  0.5421  0.4662
 2131SOL    HW217853   3.286   2.346   6.850 -0.2360 -0.2722 -0.3589
 2132SOL     OW17854   2.021   4.049  10.915 -0.5368  1.0833 -0.3401
 2132SOL    HW117855   1.971   3.986  10.863  0.6256  0.3502 -0.5726
 2132SOL    HW217856   2.109   4.032  10.883 -0.1459  2.0044  0.2658
 2133SOL     OW17857   1.400   0.558   0.868  0.7239  0.3910 -0.1172
 2133SOL    HW117858   1.384   0.583   0.959 -0.1301  0.6414 -0.3319
 2133SOL    HW217859   1.495   0.552   0.862  0.4973 -1.1793 -2.1039
 2134SOL     OW17860   1.443   1.858   8.153 -0.6072 -1.3253 -0.7854
 2134SOL    HW117861   1.507   1.929   8.159 -0.8571 -1.2393  1.0509
 2134SOL    HW217862   1.406   1.856   8.242  1.4543  1.1328  0.1438
 2135SOL     OW17863   2.568   2.635   5.948 -0.0249  0.5357 -0.1707
 2135SOL    HW117864   2.536   2.569   5.886 -0.4578  0.1437  0.4680
 2135SOL    HW217865   2.483   2.664   5.981 -0.3861 -1.0581  0.2911
 2136SOL     OW17866   3.719   2.165  13.484 -0.1570 -0.1708  0.5881
 2136SOL    HW117867   3.749   2.209  13.563  0.9869 -0.3027  0.2372
 2136SOL    HW217868   3.682   2.082  13.513  0.9807 -0.1570  2.0413
 2137SOL     OW17869   2.765   3.715   7.295 -0.0884  0.1532  0.1515
 2137SOL    HW117870   2.753   3.624   7.267  0.6304  0.4124 -0.9910
 2137SOL    HW217871   2.758   3.769   7.216  1.5749  0.8313  0.4746
 2138SOL     OW17872   1.896   1.958   2.887  0.4804 -0.5531 -0.4473
 2138SOL    HW117873   1.935   1.977   2.972  1.2179  0.3829 -0.9950
 2138SOL    HW217874   1.957   1.894   2.850 -0.4645 -0.2455 -2.5412
 2139SOL     OW17875   0.696   3.590   5.814 -0.5843  0.2083 -0.4427
 2139SOL    HW117876   0.764   3.539   5.859 -1.2220 -1.2313 -1.1332
 2139SOL    HW217877   0.726   3.609   5.725 -2.3054  0.9377 -0.8663
 2140SOL     OW17878   4.473   0.120  13.882  0.0845  0.5433  0.4968
 2140SOL    HW117879   4.424   0.087  13.806 -0.5549  3.1711 -0.2249
 2140SOL    HW217880   4.484   0.212  13.858  1.2134  0.0873 -0.7907
 2141SOL     OW17881   3.860   0.235   8.845  0.0160  0.1689 -0.1076
 2141SOL    HW117882   3.915   0.292   8.900 -1.6868  0.4614  1.2863
 2141SOL    HW217883   3.893   0.255   8.757  0.6720  0.3913  0.1855
 2142SOL     OW17884   2.698   0.235  15.793  0.6998  0.9249 -0.3457
 2142SOL    HW117885   2.721   0.144  15.775 -2.4187 -0.3956  2.2112
 2142SOL    HW217886   2.630   0.216  15.857  0.2241  0.5591 -0.9532
 2143SOL     OW17887   2.551   3.049   0.093 -0.5238 -0.8008 -0.1745
 2143SOL    HW117888   2.566   2.980   0.028 -1.1294  0.9342 -2.1753
 2143SOL    HW217889   2.508   3.115   0.038 -1.3249  0.6325  2.1967
 2144SOL     OW17890   4.498   2.715   2.780  0.6037 -0.3846 -0.4914
 2144SOL    HW117891   4.539   2.629   2.769  0.7588 -0.4920  0.9930
 2144SOL    HW217892   4.514   2.746   2.691  1.4231  0.8526  0.0905
 2145SOL     OW17893   3.805   2.690  12.208 -0.1395  0.4401  0.4435
 2145SOL    HW117894   3.762   2.640  12.137  1.7906  0.0718 -0.4745
 2145SOL    HW217895   3.817   2.775  12.165  1.1554 -0.2475 -0.5606
 2146SOL     OW17896   3.123   1.909   9.658 -0.2790  0.1601  0.0567
 2146SOL    HW117897   3.059   1.975   9.634  0.7249  2.0099  2.4863
 2146SOL    HW217898   3.209   1.951   9.669 -1.9402  3.4536  0.3209
 2147SOL     OW17899   1.457   2.819   6.182  0.5483  0.3316  0.0683
 2147SOL    HW117900   1.374   2.865   6.164  0.3778 -0.9459 -2.5026
 2147SOL    HW217901   1.466   2.837   6.275 -0.1592  1.0560 -0.0064
 2148SOL     OW17902   1.447   0.027   0.110 -0.3626 -0.7065 -0.5384
 2148SOL    HW117903   1.541   0.008   0.111 -0.0034  1.1323  1.5949
 2148SOL    HW217904   1.427   0.092   0.042  2.1609 -0.0483 -0.6391
 2149SOL     OW17905   3.274   1.845   7.291  0.3513 -0.4100  0.4767
 2149SOL    HW117906   3.316   1.911   7.345 -1.4533  1.3278 -0.2619
 2149SOL    HW217907   3.308   1.868   7.205 -1.7231  1.9373  0.2798
 2150SOL     OW17908   0.795   1.439   2.430  0.1384 -0.1087 -0.1087
 2150SOL    HW117909   0.790   1.526   2.392  0.1450 -0.5942 -1.2273
 2150SOL    HW217910   0.732   1.395   2.373 -2.3901  1.3397  1.5564
 2151SOL     OW17911   1.373   1.292  12.456  0.4082  0.6795  0.9391
 2151SOL    HW117912   1.396   1.330  12.371  2.7545 -1.3339  0.7029
 2151SOL    HW217913   1.352   1.376  12.497 -3.7950  0.1136 -0.0580
 2152SOL     OW17914   1.180   2.548   8.489 -0.6406 -0.0555 -0.8220
 2152SOL    HW117915   1.261   2.532   8.440  0.1478 -0.3221  0.5732
 2152SOL    HW217916   1.120   2.482   8.453  1.3284 -2.1238 -0.2789
 2153SOL     OW17917   2.029   0.017   2.681  0.1393 -0.2141  0.0543
 2153SOL    HW117918   2.020   4.723   2.588 -1.0917  0.2170  0.0728
 2153SOL    HW217919   1.955   0.076   2.699 -0.4651  0.2374 -3.8830
 2154SOL     OW17920   2.246   0.172   5.354  0.2291 -0.0391 -0.3772
 2154SOL    HW117921   2.227   0.263   5.332  2.4621  1.0430  2.1799
 2154SOL    HW217922   2.159   0.137   5.376 -0.3091  1.2689 -0.4270
 2155SOL     OW17923   1.103   3.887   6.180 -0.2584  0.0386  0.4894
 2155SOL    HW117924   1.172   3.828   6.211  1.2897  1.6649  0.0775
 2155SOL    HW217925   1.141   3.929   6.103  0.5149  0.5167  1.1244
 2156SOL     OW17926   0.652   1.852   0.566  0.4397  0.6603 -0.0284
 2156SOL    HW117927   0.690   1.914   0.504  0.2055 -0.5505 -1.3905
 2156SOL    HW217928   0.581   1.814   0.513 -0.5857 -0.3629  2.1017
 2157SOL     OW17929   1.517   0.995  14.779  0.2580 -0.5154 -0.1401
 2157SOL    HW117930   1.553   1.057  14.715 -0.0128 -1.2812 -1.0281
 2157SOL    HW217931   1.577   0.921  14.774  1.9689  0.7609  1.6013
 2158SOL     OW17932   0.956   3.922   3.117 -0.4504  0.0578 -0.1615
 2158SOL    HW117933   1.020   3.980   3.159  0.2424 -1.8350  1.4047
 2158SOL    HW217934   0.959   3.956   3.028  1.0952 -2.9340 -1.2681
 2159SOL     OW17935   1.627   2.733   3.984  0.6506  0.1911 -0.4409
 2159SOL    HW117936   1.709   2.742   4.033  0.5721 -0.7961 -0.1164
 2159SOL    HW217937   1.587   2.668   4.043  0.4819 -0.9591 -1.8067
 2160SOL     OW17938   2.931   2.057   5.804  0.4688  0.0542 -0.3834
 2160SOL    HW117939   2.994   2.015   5.863  3.2855  0.7909 -2.8003
 2160SOL    HW217940   2.980   2.075   5.723  2.9582  1.3860  1.4199
 2161SOL     OW17941   4.639   3.668   8.389  0.1597  0.0191 -0.0068
 2161SOL    HW117942   4.707   3.605   8.412 -1.3162 -1.7296 -0.4109
 2161SOL    HW217943   4.679   3.732   8.331  0.6118 -0.1310  0.1420
 2162SOL     OW17944   0.768   3.221   1.484 -0.3425  0.3683  0.4000
 2162SOL    HW117945   0.841   3.176   1.441  0.0141  0.7372  0.6219
 2162SOL    HW217946   0.700   3.160   1.513 -1.4311  1.2688 -0.2538
 2163SOL     OW17947   3.474   4.199   5.880  0.3134 -0.3540 -0.0903
 2163SOL    HW117948   3.385   4.229   5.898  0.5805 -0.4170  1.3552
 2163SOL    HW217949   3.464   4.193   5.785 -0.7645  0.0211 -0.0029
 2164SOL     OW17950   2.956   3.104   5.779 -0.1347 -0.7502  0.2498
 2164SOL    HW117951   2.958   3.018   5.821 -0.1680 -0.7949  0.1599
 2164SOL    HW217952   2.880   3.147   5.818 -0.8697 -2.9561  1.2095
 2165SOL     OW17953   2.650   1.170   2.520 -0.5409 -0.7051  0.2490
 2165SOL    HW117954   2.687   1.180   2.432 -0.9557 -2.3582 -0.1011
 2165SOL    HW217955   2.584   1.239   2.512 -0.6424 -0.7901  0.3690
 2166SOL     OW17956   1.959   1.811   6.841 -0.1493  0.4862  0.1827
 2166SOL    HW117957   1.895   1.873   6.807  0.9876  0.8898 -1.1830
 2166SOL    HW217958   2.029   1.865   6.876  0.9187 -1.0932  0.5100
 2167SOL     OW17959   4.417   4.719   7.530 -0.3759 -0.2921  0.6876
 2167SOL    HW117960   4.513   4.720   7.522 -0.1725  1.7488  3.1322
 2167SOL    HW217961   4.396   0.077   7.493 -0.1692  1.3602  4.3940
 2168SOL     OW17962   0.142   0.193  13.188 -0.1181  0.5331 -0.0483
 2168SOL    HW117963   0.158   0.180  13.094  0.8457  0.0785  0.1747
 2168SOL    HW217964   0.197   0.270  13.203  1.0563 -0.5323  1.2076
 2169SOL     OW17965   0.915   0.620   6.159 -0.5654 -0.7300 -0.6287
 2169SOL    HW117966   0.979   0.580   6.218 -0.4126  0.2014 -0.1614
 2169SOL    HW217967   0.855   0.549   6.135 -1.7865 -0.2230  0.9152
 2170SOL     OW17968   0.784   2.235  13.474  0.4256 -0.5239  0.1927
 2170SOL    HW117969   0.857   2.283  13.512 -2.1091  2.4215  1.3112
 2170SOL    HW217970   0.782   2.271  13.385  0.8611 -3.1917 -0.8968
 2171SOL     OW17971   0.767   3.399   6.046  1.2720 -0.4073 -0.3831
 2171SOL    HW117972   0.691   3.374   5.993 -0.3913  2.3535  0.7331
 2171SOL    HW217973   0.810   3.317   6.073 -1.5782 -1.9842 -0.6254
 2172SOL     OW17974   0.351   2.021   0.931 -0.1309  0.5269  0.5932
 2172SOL    HW117975   0.352   1.935   0.889 -0.5535  0.9525 -0.2836
 2172SOL    HW217976   0.413   2.072   0.880  1.5509 -2.3989 -0.3051
 2173SOL     OW17977   2.417   2.947   3.518 -0.0782  0.6222  0.5289
 2173SOL    HW117978   2.408   2.974   3.610  1.0077  2.2913  0.1398
 2173SOL    HW217979   2.404   3.031   3.475 -0.7129  0.0157 -0.4742
 2174SOL     OW17980   0.081   2.008  16.540  0.0960  0.1968 -0.5579
 2174SOL    HW117981   0.111   2.065  16.611 -1.5155  2.4390 -1.6766
 2174SOL    HW217982   0.139   1.934  16.557 -0.2862  0.1263  0.4668
 2175SOL     OW17983   2.637   2.635  15.871 -0.7115  0.5979  0.3405
 2175SOL    HW117984   2.600   2.583  15.943  1.6322  1.1048  1.9031
 2175SOL    HW217985   2.731   2.638  15.888 -1.0174  0.3470  2.0524
 2176SOL     OW17986   1.479   0.105  10.462  0.3619  0.0339 -0.1588
 2176SOL    HW117987   1.458   0.042  10.530 -0.8530  2.6288  1.8851
 2176SOL    HW217988   1.479   0.041  10.391  1.9235  1.4799 -1.4730
 2177SOL     OW17989   4.727   2.749  13.877  0.0027  0.1251 -0.7526
 2177SOL    HW117990   0.000   2.729  13.970  0.3778 -2.7651 -1.3843
 2177SOL    HW217991   0.006   2.658  13.848 -1.2229 -0.2387  0.1302
 2178SOL     OW17992   1.301   1.950   1.369 -0.6642 -0.3226  0.0628
 2178SOL    HW117993   1.293   1.875   1.428 -0.1232 -1.2002 -0.9688
 2178SOL    HW217994   1.269   1.916   1.285 -0.2830  0.7624 -0.5179
 2179SOL     OW17995   1.718   3.034   5.556  0.5730 -0.6361 -0.2536
 2179SOL    HW117996   1.809   3.021   5.530  1.5206  1.2048  2.1342
 2179SOL    HW217997   1.683   3.060   5.471  2.9475 -1.7906 -1.5787
 2180SOL     OW17998   1.062   4.075   4.440  0.2864 -0.8180  0.5591
 2180SOL    HW117999   1.111   4.144   4.395 -2.0030 -0.9070 -2.0706
 2180SOL    HW218000   1.117   4.082   4.518  0.0168 -1.4420  0.8026
 2181SOL     OW18001   3.132   0.099   1.960 -0.5982 -0.1075 -0.2473
 2181SOL    HW118002   3.112   0.129   1.871  0.9717 -1.3082 -1.0011
 2181SOL    HW218003   3.225   0.076   1.948 -0.8421 -1.2935  0.1472
 2182SOL     OW18004   4.576   3.193  15.351  0.0338 -0.0265 -0.4968
 2182SOL    HW118005   4.542   3.252  15.283 -0.6117  1.8810  1.4734
 2182SOL    HW218006   4.582   3.111  15.302  1.4444  0.5789 -1.3357
 2183SOL     OW18007   3.006   0.251   8.832  0.4010 -0.0722 -0.5827
 2183SOL    HW118008   2.938   0.245   8.898  2.5670  3.3769  1.9913
 2183SOL    HW218009   3.016   0.156   8.821 -0.5934 -0.4833  2.1641
 2184SOL     OW18010   1.327   3.380   2.453  0.0907  0.5574  0.5489
 2184SOL    HW118011   1.410   3.335   2.437 -0.6607 -0.4033 -0.6941
 2184SOL    HW218012   1.325   3.438   2.377 -1.2167  1.7391  1.4938
 2185SOL     OW18013   2.345   3.743   2.183 -0.5931 -0.2345 -0.0720
 2185SOL    HW118014   2.367   3.788   2.101 -0.3246  1.0385  0.7094
 2185SOL    HW218015   2.431   3.703   2.192 -0.6882 -0.4417 -0.0788
 2186SOL     OW18016   0.012   4.549   5.815 -0.1120 -0.2579 -0.9188
 2186SOL    HW118017   4.691   4.624   5.852  1.0824 -0.4324  1.0281
 2186SOL    HW218018   0.104   4.575   5.823 -0.4431  0.2249  1.5777
 2187SOL     OW18019   1.176   0.966   3.157 -0.4522  0.2148 -0.3313
 2187SOL    HW118020   1.195   1.016   3.078 -1.1610 -1.7225 -1.7169
 2187SOL    HW218021   1.263   0.925   3.164 -1.0199 -0.8476  0.5440
 2188SOL     OW18022   0.958   3.105   3.904  0.1122  0.3407 -0.4482
 2188SOL    HW118023   0.915   3.053   3.836 -0.5433 -0.4662  0.5793
 2188SOL    HW218024   0.892   3.174   3.914 -1.0306 -0.9111  0.6120
 2189SOL     OW18025   0.090   1.289   7.252 -0.1315  0.0558  0.0856
 2189SOL    HW118026   0.015   1.289   7.193  1.1356  0.7223 -1.5277
 2189SOL    HW218027   0.121   1.198   7.246  0.2088  0.2470 -0.9897
 2190SOL     OW18028   1.980   1.573   5.574  0.1540 -0.1426 -0.2292
 2190SOL    HW118029   1.915   1.572   5.505  1.9324 -0.0500 -1.9056
 2190SOL    HW218030   1.925   1.571   5.652 -3.5857  0.0210 -2.8675
 2191SOL     OW18031   1.610   3.152  11.934  0.1100  0.4162  0.2553
 2191SOL    HW118032   1.672   3.079  11.932  0.9400  1.1069  0.7500
 2191SOL    HW218033   1.541   3.106  11.982 -2.3137  1.6414 -2.0313
 2192SOL     OW18034   4.346   3.422   5.249  0.1779 -0.0820 -0.3938
 2192SOL    HW118035   4.308   3.402   5.335  0.6564  0.0674 -0.1529
 2192SOL    HW218036   4.266   3.422   5.196 -0.4289  0.8645  0.4978
 2193SOL     OW18037   1.149   0.250   3.049  0.0885  0.0668  0.7952
 2193SOL    HW118038   1.105   0.334   3.060  1.3980  0.4150  3.3557
 2193SOL    HW218039   1.085   0.189   3.087 -1.2759 -1.0857 -3.3516
 2194SOL     OW18040   4.510   2.340   4.719 -0.9350 -0.4861 -0.6820
 2194SOL    HW118041   4.558   2.314   4.798 -0.8849 -3.3703 -1.6551
 2194SOL    HW218042   4.484   2.432   4.724  0.4705 -0.1853  0.9200
 2195SOL     OW18043   2.757   1.554   8.134 -0.4638 -0.5526 -0.7225
 2195SOL    HW118044   2.847   1.585   8.145 -0.5749 -0.6721  0.5264
 2195SOL    HW218045   2.741   1.608   8.056  1.9873 -0.0411 -0.8805
 2196SOL     OW18046   2.898   4.202   9.825  0.7251  0.4126  0.6334
 2196SOL    HW118047   2.917   4.296   9.826 -0.5698  0.6750  0.3532
 2196SOL    HW218048   2.848   4.184   9.904  1.1242  2.3630  1.3316
 2197SOL     OW18049   4.400   0.649   3.835 -0.1980 -0.4698 -0.3688
 2197SOL    HW118050   4.466   0.658   3.766  0.5440 -3.4026 -0.0545
 2197SOL    HW218051   4.353   0.732   3.831 -0.7916 -0.7163  1.5864
 2198SOL     OW18052   0.208   2.739  17.372 -0.4148  0.0924  0.2794
 2198SOL    HW118053   0.119   2.738  17.406 -0.4537  0.5196  0.1911
 2198SOL    HW218054   0.231   2.830  17.392  1.6001 -0.4714  0.6122
 2199SOL     OW18055   1.513   0.632   7.444  0.3932 -0.0079 -0.3949
 2199SOL    HW118056   1.426   0.620   7.481  1.2494 -0.5948  1.4115
 2199SOL    HW218057   1.550   0.706   7.491 -1.5762  0.8546 -0.2244
 2200SOL     OW18058   1.737   0.154   6.720 -0.1688  0.4466  0.2297
 2200SOL    HW118059   1.705   0.202   6.644  1.3548 -1.0463 -1.3550
 2200SOL    HW218060   1.831   0.169   6.712 -0.1401 -0.6472 -1.3960
 2201SOL     OW18061   0.559   0.119   2.105  0.2244 -0.2470  0.0174
 2201SOL    HW118062   0.606   0.195   2.070  1.6156 -1.8538 -1.6189
 2201SOL    HW218063   0.470   0.154   2.109  1.1767  1.9526  2.5953
 2202SOL     OW18064   3.590   4.018   4.926 -0.4010  0.4353  0.0183
 2202SOL    HW118065   3.606   3.923   4.920 -3.2091  0.0856 -1.9843
 2202SOL    HW218066   3.662   4.056   4.876 -0.1966 -0.5034 -0.4002
 2203SOL     OW18067   3.416   3.080   5.932 -0.3818  0.5362  0.1646
 2203SOL    HW118068   3.508   3.086   5.956  0.1076 -0.9295 -1.3184
 2203SOL    HW218069   3.369   3.071   6.015 -2.7737  2.3491 -1.0111
 2204SOL     OW18070   2.711   1.164   1.758  0.4438 -0.1643  0.2758
 2204SOL    HW118071   2.656   1.221   1.811 -0.0318 -0.4345  0.0717
 2204SOL    HW218072   2.726   1.224   1.685 -0.3718  2.1291  2.0294
 2205SOL     OW18073   2.639   0.360   1.569 -0.1393 -0.6816  0.6786
 2205SOL    HW118074   2.591   0.388   1.491  2.0172  2.8638  0.6383
 2205SOL    HW218075   2.664   0.268   1.560 -0.9062 -0.7566 -0.6724
 2206SOL     OW18076   1.806   1.869   8.321  0.0011 -0.6834  0.6623
 2206SOL    HW118077   1.878   1.909   8.368  1.1776  0.3781 -2.0327
 2206SOL    HW218078   1.732   1.876   8.381  0.8827 -0.7036  1.7416
 2207SOL     OW18079   2.354   0.173   2.087 -0.0163 -0.2227  0.4201
 2207SOL    HW118080   2.441   0.213   2.091  0.9296 -2.0890 -1.3252
 2207SOL    HW218081   2.364   0.089   2.131 -0.7803 -2.0246 -2.8404
 2208SOL     OW18082   1.137   0.741   6.346 -0.0269  0.0849 -0.4888
 2208SOL    HW118083   1.172   0.829   6.362 -3.8076  1.2976  1.0816
 2208SOL    HW218084   1.059   0.745   6.401 -0.1137  0.0388 -0.6069
 2209SOL     OW18085   0.332   0.249   3.383  0.0673 -0.8411  0.5003
 2209SOL    HW118086   0.284   0.202   3.451 -0.0917 -2.7870 -0.9465
 2209SOL    HW218087   0.352   0.187   3.312 -1.5024  0.5542 -1.1320
 2210SOL     OW18088   0.306   2.610  14.480 -0.2529  0.4099 -0.6952
 2210SOL    HW118089   0.230   2.554  14.499 -0.0146  0.2170 -0.3026
 2210SOL    HW218090   0.303   2.601  14.385 -1.1551 -0.1311 -0.6232
 2211SOL     OW18091   1.188   3.774   7.497 -0.3334 -0.2620 -0.2358
 2211SOL    HW118092   1.213   3.683   7.513 -0.3352 -0.4239 -1.2001
 2211SOL    HW218093   1.156   3.806   7.582  0.9461 -0.9368  0.4948
 2212SOL     OW18094   1.280   1.666   7.728 -0.0194 -0.4825  0.0393
 2212SOL    HW118095   1.273   1.748   7.777 -0.4947 -0.8818  0.6354
 2212SOL    HW218096   1.271   1.702   7.640  0.0963 -2.7566 -0.8919
 2213SOL     OW18097   0.073   2.533  17.692 -0.5272 -0.5373 -0.0895
 2213SOL    HW118098   0.164   2.503  17.686  0.0335  0.9936  0.5379
 2213SOL    HW218099   0.032   2.455  17.657  0.9154 -1.5682  0.5171
 2214SOL     OW18100   3.427   4.555   2.251 -0.0112 -0.1952 -0.2101
 2214SOL    HW118101   3.348   4.513   2.288 -2.4756  3.4608 -1.3696
 2214SOL    HW218102   3.392   4.643   2.237 -1.8487 -0.7761  0.7030
 2215SOL     OW18103   2.592   1.714   0.957 -0.1793 -0.2921  0.0344
 2215SOL    HW118104   2.622   1.788   1.010 -0.8153 -0.9378  1.2930
 2215SOL    HW218105   2.586   1.746   0.867  1.6761 -0.1942 -0.0609
 2216SOL     OW18106   0.206   1.518  16.758 -0.5609 -0.3705  0.7418
 2216SOL    HW118107   0.185   1.529  16.850  1.1147  0.1688  1.0636
 2216SOL    HW218108   0.123   1.484  16.724 -1.0170 -0.1552  1.6462
 2217SOL     OW18109   0.083   2.744   2.793 -0.7393  0.0309 -0.2295
 2217SOL    HW118110   0.165   2.778   2.828 -0.1843  0.0230 -1.5442
 2217SOL    HW218111   0.101   2.731   2.700 -1.5801 -0.7415 -0.2811
 2218SOL     OW18112   1.855   1.474  17.395 -0.3055 -0.5216 -0.0570
 2218SOL    HW118113   1.951   1.470  17.394 -0.2869 -0.1066  0.0115
 2218SOL    HW218114   1.841   1.411  17.466  2.1258  1.7944  2.4999
 2219SOL     OW18115   4.370   0.937   3.759  0.0401  0.2955  1.0923
 2219SOL    HW118116   4.402   0.957   3.847  0.9074 -0.5325  0.9510
 2219SOL    HW218117   4.447   0.926   3.704 -0.6477  2.8306 -0.4134
 2220SOL     OW18118   3.775   1.690   8.313 -0.0994 -0.1023  0.1536
 2220SOL    HW118119   3.690   1.646   8.316  0.0672 -0.4317  0.0017
 2220SOL    HW218120   3.758   1.762   8.374 -1.5439  0.0109 -0.3884
 2221SOL     OW18121   4.515   2.346  12.504  0.1690  0.0296 -0.5193
 2221SOL    HW118122   4.453   2.309  12.567  0.0604 -0.5785 -0.9743
 2221SOL    HW218123   4.602   2.330  12.541  1.0259  3.1750 -1.1239
 2222SOL     OW18124   3.121   1.437   7.121  0.1464 -0.3922  0.2697
 2222SOL    HW118125   3.083   1.489   7.192 -1.2630  0.3499 -1.0223
 2222SOL    HW218126   3.208   1.478   7.128 -0.0101 -0.1387  0.7540
 2223SOL     OW18127   3.511   2.096   1.606 -0.2174  0.0464 -0.7695
 2223SOL    HW118128   3.437   2.060   1.655 -0.2991  0.1685 -0.8010
 2223SOL    HW218129   3.556   2.013   1.591  0.3020  0.0651  0.6875
 2224SOL     OW18130   1.422   0.890  10.839  0.7869  0.6889  0.2540
 2224SOL    HW118131   1.445   0.960  10.779 -0.7709  1.0098  0.0189
 2224SOL    HW218132   1.482   0.896  10.913  0.5659 -0.1263  0.5014
 2225SOL     OW18133   0.223   4.045   7.800 -0.3502  0.2538 -0.6325
 2225SOL    HW118134   0.317   4.066   7.802 -0.8893  2.7157 -0.8859
 2225SOL    HW218135   0.194   4.110   7.737  0.0416  0.8327 -0.2214
 2226SOL     OW18136   2.420   1.824   0.748 -0.1389 -0.4510  0.0844
 2226SOL    HW118137   2.406   1.774   0.668 -0.0927 -2.3359  1.2479
 2226SOL    HW218138   2.340   1.809   0.798 -0.3273  0.5750  0.1042
 2227SOL     OW18139   3.053   1.036   0.559 -0.0379 -0.1461 -0.3656
 2227SOL    HW118140   3.039   1.096   0.632 -1.0062 -0.1062 -0.5925
 2227SOL    HW218141   3.006   0.957   0.587  1.0293 -1.4202 -2.1266
 2228SOL     OW18142   1.702   4.056   2.137 -0.1087 -0.3928 -0.5362
 2228SOL    HW118143   1.789   4.087   2.114  1.1601 -4.3579 -1.1483
 2228SOL    HW218144   1.720   3.987   2.201  3.3629  0.3158 -0.7656
 2229SOL     OW18145   2.501   4.099   2.291 -0.2926  0.0988  0.3254
 2229SOL    HW118146   2.582   4.105   2.342  0.8240 -1.4540 -1.2733
 2229SOL    HW218147   2.477   4.186   2.259 -0.6114 -0.9365 -2.3202
 2230SOL     OW18148   3.641   1.572   5.707 -0.5844 -0.0188  0.5508
 2230SOL    HW118149   3.722   1.621   5.694  0.3764 -1.4032  1.2867
 2230SOL    HW218150   3.668   1.480   5.703 -2.1734 -0.4838  0.4389
 2231SOL     OW18151   3.990   3.091   0.017 -0.2489  0.5394 -0.0829
 2231SOL    HW118152   4.054   3.040   0.067 -1.1497 -1.8906 -1.4088
 2231SOL    HW218153   4.010   3.184   0.022  3.1997 -0.2091  0.5004
 2232SOL     OW18154   0.011   1.046   3.565 -0.1831 -0.7360  0.5295
 2232SOL    HW118155   0.064   1.064   3.488 -1.0350 -1.1190 -0.1470
 2232SOL    HW218156   0.076   1.058   3.634  2.1770 -1.7566 -1.5362
 2233SOL     OW18157   3.551   3.222   9.495 -0.0069 -0.7207  0.2016
 2233SOL    HW118158   3.559   3.212   9.589 -1.7565  2.3087  0.6639
 2233SOL    HW218159   3.584   3.136   9.470  1.1152 -0.6690  1.5245
 2234SOL     OW18160   0.266   0.480   0.082 -0.2878 -0.2912 -0.3634
 2234SOL    HW118161   0.183   0.459   0.124 -1.1197  1.7890 -0.9949
 2234SOL    HW218162   0.285   0.404   0.028  1.3305 -1.1350  1.3720
 2235SOL     OW18163   0.233   2.234   8.811  0.5450 -0.7556  0.4843
 2235SOL    HW118164   0.291   2.295   8.766 -1.8079  0.5067 -0.8245
 2235SOL    HW218165   0.288   2.232   8.890  1.5269  1.7905 -0.1435
 2236SOL     OW18166   4.643   3.959   7.612 -0.1309 -0.1143  0.4825
 2236SOL    HW118167   4.700   4.021   7.566 -1.1736  0.4743 -0.0201
 2236SOL    HW218168   4.590   4.013   7.671 -1.2307 -1.7595  0.9632
 2237SOL     OW18169   0.554   4.088   6.818 -0.0567  0.3720  0.4759
 2237SOL    HW118170   0.578   4.001   6.785 -1.3318 -0.0080  0.5282
 2237SOL    HW218171   0.532   4.129   6.734  1.1228 -0.9076 -0.4693
 2238SOL     OW18172   3.469   3.834   6.351  0.6744  0.3607 -0.0513
 2238SOL    HW118173   3.392   3.879   6.387 -0.1931 -1.3006  0.1771
 2238SOL    HW218174   3.437   3.786   6.275  1.8387 -3.4294  1.8757
 2239SOL     OW18175   2.567   1.835  15.162  0.2622  0.2831 -0.2235
 2239SOL    HW118176   2.568   1.929  15.144 -0.3609 -0.1378 -2.4514
 2239SOL    HW218177   2.483   1.835  15.207 -0.0800  1.0132 -0.8806
 2240SOL     OW18178   1.304   1.059   6.919  0.0582  0.2924  0.2589
 2240SOL    HW118179   1.296   0.984   6.861 -2.0727  0.5795  0.1688
 2240SOL    HW218180   1.310   1.008   6.999 -2.5909 -0.8722 -0.2821
 2241SOL     OW18181   1.635   3.343   4.238 -0.5393  0.1860 -0.0432
 2241SOL    HW118182   1.657   3.321   4.148 -1.2193 -1.1398  0.1214
 2241SOL    HW218183   1.609   3.434   4.225  0.0442  0.6457  1.9560
 2242SOL     OW18184   3.986   1.913   7.667 -0.6884  0.1370 -0.5302
 2242SOL    HW118185   4.069   1.879   7.698 -1.3648 -1.0217  0.0150
 2242SOL    HW218186   4.002   1.922   7.573 -4.7083  2.5122 -1.0143
 2243SOL     OW18187   0.581   3.267   8.738 -0.0582 -0.2090 -0.7353
 2243SOL    HW118188   0.576   3.198   8.805  0.5906  0.7432  0.2935
 2243SOL    HW218189   0.597   3.207   8.664 -0.4163  0.3588 -1.2693
 2244SOL     OW18190   1.002   1.116   2.143  0.0824 -0.2599  0.3460
 2244SOL    HW118191   0.960   1.116   2.229  0.7636  1.4072  0.6944
 2244SOL    HW218192   1.090   1.140   2.172 -0.5637  3.8525 -0.9454
 2245SOL     OW18193   2.522   2.961   5.393  0.0108 -0.3143 -0.2148
 2245SOL    HW118194   2.431   2.974   5.364  0.4864  1.0317 -1.0905
 2245SOL    HW218195   2.505   2.994   5.481  2.7946  0.2852  0.0984
 2246SOL     OW18196   3.073   0.933   8.962  0.0116 -0.2473  0.5376
 2246SOL    HW118197   3.046   1.007   9.015 -2.2405  0.2307 -1.2579
 2246SOL    HW218198   2.985   0.901   8.941 -0.1998  0.3800  0.4933
 2247SOL     OW18199   1.369   3.938   2.968 -0.3157  0.4718  0.1060
 2247SOL    HW118200   1.335   3.961   3.054 -0.4608  3.0805 -0.6399
 2247SOL    HW218201   1.441   4.000   2.957 -0.7800  0.9432 -0.2846
 2248SOL     OW18202   3.429   0.825   7.872  0.6376  0.2362 -0.0687
 2248SOL    HW118203   3.413   0.807   7.965 -1.0885  2.2261  0.0251
 2248SOL    HW218204   3.404   0.741   7.834 -0.5246 -1.3346  4.0907
 2249SOL     OW18205   1.850   2.387   4.404  0.1179  0.0283  0.2463
 2249SOL    HW118206   1.882   2.467   4.446 -2.7911  1.3126  0.0565
 2249SOL    HW218207   1.931   2.349   4.370 -0.3267 -2.0124  1.4811
 2250SOL     OW18208   4.014   3.186  12.048  0.1438  0.2803 -0.0249
 2250SOL    HW118209   4.036   3.094  12.038  1.2177  0.3660  1.6176
 2250SOL    HW218210   4.075   3.234  11.991 -0.2746  1.0808  0.1898
 2251SOL     OW18211   3.318   1.231   0.375 -0.2880 -0.0757 -0.1263
 2251SOL    HW118212   3.284   1.267   0.456  1.2767 -1.3348  1.0869
 2251SOL    HW218213   3.247   1.254   0.315  1.9921  1.2590 -2.3052
 2252SOL     OW18214   0.485   0.983  10.004  0.1374 -0.0356  0.3892
 2252SOL    HW118215   0.429   1.018   9.934  0.4389 -0.6225 -0.1462
 2252SOL    HW218216   0.462   1.033  10.082  1.7324 -0.6455  1.2247
 2253SOL     OW18217   1.793   0.171   3.391 -0.1483 -0.0598 -0.2245
 2253SOL    HW118218   1.712   0.205   3.352 -1.0066  0.8536  2.3957
 2253SOL    HW218219   1.780   0.077   3.379  3.6078 -0.7892  1.4970
 2254SOL     OW18220   0.299   1.614  16.395 -0.1221 -0.2052  0.1626
 2254SOL    HW118221   0.318   1.672  16.322  1.1581 -0.2010  0.4952
 2254SOL    HW218222   0.339   1.535  16.358  0.5691  0.0610  0.3483
 2255SOL     OW18223   0.466   3.511   8.363  0.5998 -0.3978  0.5073
 2255SOL    HW118224   0.443   3.559   8.444 -1.0728 -0.0844 -0.1398
 2255SOL    HW218225   0.561   3.511   8.369  0.6671 -0.1455 -0.5734
 2256SOL     OW18226   0.224   3.124   8.254  0.5500 -0.5693  0.2723
 2256SOL    HW118227   0.237   3.216   8.232  0.3677  0.3011  3.7727
 2256SOL    HW218228   0.276   3.079   8.187  0.9134 -1.4846  1.1678
 2257SOL     OW18229   3.428   1.547  16.005 -0.3314  0.2870  0.4863
 2257SOL    HW118230   3.462   1.502  16.082 -0.7073  3.5356  2.5299
 2257SOL    HW218231   3.502   1.587  15.960 -0.7791 -1.3834 -1.7336
 2258SOL     OW18232   0.978   2.005   7.161  0.4562 -0.1113  0.0882
 2258SOL    HW118233   0.930   2.002   7.244  0.2328  2.2237  0.0515
 2258SOL    HW218234   0.918   1.963   7.100 -0.9823  1.0795  0.6893
 2259SOL     OW18235   2.733   4.652   5.312 -0.2512 -0.3595  0.4212
 2259SOL    HW118236   2.697   4.623   5.228 -0.1294  0.9691 -0.0814
 2259SOL    HW218237   2.730   0.014   5.278 -1.8438  0.8935  3.8040
 2260SOL     OW18238   0.169   2.083  14.342 -0.6010 -0.3429  0.1582
 2260SOL    HW118239   0.221   2.007  14.316 -0.7621 -0.5221  0.3565
 2260SOL    HW218240   0.085   2.042  14.366 -1.0766  0.2763 -0.4589
 2261SOL     OW18241   1.191   0.958  10.554 -0.1629 -0.3688 -0.1738
 2261SOL    HW118242   1.155   0.936  10.468  1.0553 -2.9730 -0.0127
 2261SOL    HW218243   1.143   0.904  10.617 -1.8595 -0.4079 -1.5069
 2262SOL     OW18244   4.170   2.255   9.145  0.1679 -0.5633 -0.1361
 2262SOL    HW118245   4.226   2.228   9.218 -0.0147 -0.6154 -0.0153
 2262SOL    HW218246   4.234   2.263   9.074  0.3745  0.4942  0.1657
 2263SOL     OW18247   0.821   4.029   6.357  0.1760  0.6583 -0.4653
 2263SOL    HW118248   0.871   3.957   6.395  0.7919 -0.0262 -2.5743
 2263SOL    HW218249   0.732   4.004   6.381 -0.3275 -0.0342 -3.0869
 2264SOL     OW18250   3.021   0.693   3.183  0.1677 -0.4588  0.3022
 2264SOL    HW118251   3.027   0.732   3.270 -0.2759 -3.2719  1.5904
 2264SOL    HW218252   3.096   0.737   3.141  0.8438 -2.9606 -1.1298
 2265SOL     OW18253   4.432   0.512  13.223 -0.1704 -0.0173 -0.2805
 2265SOL    HW118254   4.522   0.492  13.248 -0.6098  1.5467  2.4926
 2265SOL    HW218255   4.397   0.424  13.208  1.4064 -0.7748  0.5403
 2266SOL     OW18256   2.171   3.923   8.389 -0.1872  0.2637  0.2702
 2266SOL    HW118257   2.104   3.937   8.322 -0.6974 -1.5735  0.3837
 2266SOL    HW218258   2.154   4.002   8.439  0.8875 -0.8426  2.3698
 2267SOL     OW18259   4.084   2.847   0.131 -0.5505 -0.2004 -0.3817
 2267SOL    HW118260   4.155   2.821   0.071 -1.8080  0.4504 -2.1561
 2267SOL    HW218261   4.015   2.811   0.075 -2.2158  0.2437  1.4253
 2268SOL     OW18262   1.003   2.312   8.445 -0.7724 -0.3754  0.5600
 2268SOL    HW118263   1.033   2.309   8.536 -0.0330  1.3803  0.3870
 2268SOL    HW218264   0.955   2.230   8.435  0.0058 -0.7698  0.1207
 2269SOL     OW18265   4.576   2.200  15.184  0.1223 -0.4835  0.0971
 2269SOL    HW118266   4.536   2.187  15.098  1.7818  0.3891 -0.8258
 2269SOL    HW218267   4.538   2.283  15.212  0.2970 -0.7883  1.2103
 2270SOL     OW18268   3.317   0.651   5.676  0.3440  0.0731  0.4940
 2270SOL    HW118269   3.382   0.672   5.609  0.0111  1.4041  0.5816
 2270SOL    HW218270   3.368   0.657   5.757  2.3405  0.7068 -0.7966
 2271SOL     OW18271   1.908   2.409   7.547  0.2492  0.1628 -0.2749
 2271SOL    HW118272   1.985   2.442   7.592  0.7230  0.2432 -1.1342
 2271SOL    HW218273   1.840   2.447   7.601  1.3373  3.0092 -0.9092
 2272SOL     OW18274   2.668   2.046   1.885 -0.4017 -0.2212 -0.4053
 2272SOL    HW118275   2.727   2.113   1.853  1.5996 -1.9328 -0.3390
 2272SOL    HW218276   2.715   2.019   1.964 -1.5427 -0.0236  0.3413
 2273SOL     OW18277   1.309   0.409  17.587  0.1292  0.6073  0.4141
 2273SOL    HW118278   1.257   0.368  17.656  0.3988  0.5290  0.5690
 2273SOL    HW218279   1.335   0.328  17.544 -0.5870  1.1286 -0.9986
 2274SOL     OW18280   0.182   3.369   1.174  0.3753  0.1702 -0.0444
 2274SOL    HW118281   0.197   3.308   1.246 -0.9305 -0.3782 -0.2421
 2274SOL    HW218282   0.102   3.415   1.200  0.1471 -1.5533  2.3677
 2275SOL     OW18283   3.078   0.733  10.245  0.0984 -0.2216 -0.1741
 2275SOL    HW118284   3.048   0.668  10.308 -2.6078  0.9619 -0.2229
 2275SOL    HW218285   3.170   0.738  10.270  0.0660 -0.6573  0.0304
 2276SOL     OW18286   3.940   2.955   8.525  0.0381 -0.3940 -0.6116
 2276SOL    HW118287   4.035   2.955   8.516 -0.0125  1.9534 -1.1642
 2276SOL    HW218288   3.922   3.048   8.520  2.1734  0.0693  0.4747
 2277SOL     OW18289   2.556   4.159   8.084 -0.0933  0.0087  0.5907
 2277SOL    HW118290   2.475   4.115   8.110 -0.5586 -0.3463 -1.4668
 2277SOL    HW218291   2.525   4.223   8.020  1.5029  0.9403  0.7457
 2278SOL     OW18292   2.900   2.753   2.247 -0.1733  0.6306  0.4147
 2278SOL    HW118293   2.882   2.699   2.324 -0.7311 -0.7581 -0.6925
 2278SOL    HW218294   2.887   2.843   2.278 -2.7094  0.3166  0.2250
 2279SOL     OW18295   1.300   3.286  10.297 -0.5018 -0.1728 -0.0180
 2279SOL    HW118296   1.236   3.321  10.235 -1.6149  1.1186  1.8670
 2279SOL    HW218297   1.380   3.296  10.246  0.3509  2.4779  1.8870
 2280SOL     OW18298   0.473   0.783   0.308  0.3882 -0.1167 -0.2749
 2280SOL    HW118299   0.542   0.842   0.276  0.7165 -0.0500  0.5519
 2280SOL    HW218300   0.513   0.702   0.275 -0.3330  0.0504 -1.5326
 2281SOL     OW18301   0.516   4.490   2.206  0.2260  0.1928  0.1298
 2281SOL    HW118302   0.582   4.550   2.241  2.0233 -1.6275 -0.1844
 2281SOL    HW218303   0.438   4.547   2.209  0.4559  0.5101  0.0998
 2282SOL     OW18304   3.457   4.403   8.499  0.3445  0.4208  0.4348
 2282SOL    HW118305   3.503   4.319   8.497  0.1351  0.3302 -0.8161
 2282SOL    HW218306   3.521   4.462   8.460  0.2992 -1.0132 -1.8450
 2283SOL     OW18307   1.799   1.389   8.624 -0.2473 -0.2349  0.1052
 2283SOL    HW118308   1.773   1.369   8.534  0.5460 -0.3911 -0.0847
 2283SOL    HW218309   1.843   1.468   8.592 -0.5975  0.6289  1.7301
 2284SOL     OW18310   0.755   0.735   7.318  0.4187 -0.2633  0.2931
 2284SOL    HW118311   0.725   0.797   7.385 -0.9311 -1.4389  0.7786
 2284SOL    HW218312   0.845   0.765   7.309  0.4019  1.0071  4.2832
 2285SOL     OW18313   4.514   0.778  11.366 -0.6605 -0.0599  0.1939
 2285SOL    HW118314   4.522   0.826  11.284  1.3995  0.5404  0.7464
 2285SOL    HW218315   4.536   0.686  11.348 -0.9078  0.5497 -3.2695
 2286SOL     OW18316   2.059   2.221   5.835  0.3827  0.2258  0.5194
 2286SOL    HW118317   2.071   2.137   5.791 -0.5695  0.6331 -0.5323
 2286SOL    HW218318   1.973   2.201   5.872  0.6819 -1.4539  0.3042
 2287SOL     OW18319   3.118   2.285   4.871  0.6292  0.4881 -0.3255
 2287SOL    HW118320   3.034   2.278   4.917  0.6944 -1.3053 -0.4738
 2287SOL    HW218321   3.161   2.362   4.908 -1.2077  1.4242 -0.1718
 2288SOL     OW18322   1.487   3.615   3.567  0.7955 -0.0481  0.6996
 2288SOL    HW118323   1.435   3.535   3.574 -2.2355  1.9435  0.8902
 2288SOL    HW218324   1.570   3.582   3.534  0.8915  0.4678  0.4224
 2289SOL     OW18325   0.918   1.860   1.545  0.2074 -0.3142  0.5595
 2289SOL    HW118326   0.875   1.776   1.564 -0.4617  0.0049  0.4546
 2289SOL    HW218327   0.923   1.883   1.638 -0.2944  1.4706  0.1437
 2290SOL     OW18328   2.971   0.007   2.173  0.1351  0.4432  0.0086
 2290SOL    HW118329   3.023   0.001   2.253  0.6879  0.5372 -0.3443
 2290SOL    HW218330   3.019   0.064   2.112 -1.9172  2.9987  0.8036
 2291SOL     OW18331   0.869   3.309   7.064  0.4677  0.0308  0.3099
 2291SOL    HW118332   0.921   3.380   7.027  0.1421  0.3083  0.3767
 2291SOL    HW218333   0.859   3.319   7.159  0.9304 -0.1957  0.3817
 2292SOL     OW18334   3.649   4.461   7.927 -0.3093 -0.5594  0.0276
 2292SOL    HW118335   3.577   4.481   7.987 -0.3035 -0.9530  0.1598
 2292SOL    HW218336   3.695   4.545   7.921 -0.9720  0.0435  3.7409
 2293SOL     OW18337   0.392   3.957   7.005  0.2102  0.5186 -0.0623
 2293SOL    HW118338   0.428   4.022   6.944 -2.5729  1.7830 -0.3389
 2293SOL    HW218339   0.306   3.956   6.965  0.3341 -0.9431 -0.2780
 2294SOL     OW18340   2.485   3.830  14.969  0.3883  0.1126 -0.1955
 2294SOL    HW118341   2.422   3.902  14.966 -0.3264 -0.5221 -0.4669
 2294SOL    HW218342   2.440   3.762  14.918 -0.4248  0.7280 -0.3051
 2295SOL     OW18343   2.659   2.581   2.906  0.2620 -0.5547 -0.5281
 2295SOL    HW118344   2.755   2.573   2.912  0.3352 -0.9991 -2.1879
 2295SOL    HW218345   2.651   2.623   2.992  0.0739 -1.8256  0.0728
 2296SOL     OW18346   2.556   0.704   7.188  0.1032  0.1224 -0.0022
 2296SOL    HW118347   2.538   0.733   7.277 -1.1060  0.4961 -0.3595
 2296SOL    HW218348   2.534   0.789   7.148  1.0986  0.5704  0.4193
 2297SOL     OW18349   0.012   1.344   4.789  0.3174 -0.1620  0.2471
 2297SOL    HW118350   4.720   1.416   4.850 -1.0591  0.8944 -1.4666
 2297SOL    HW218351   4.653   1.304   4.782  1.3321 -2.3431  0.4209
 2298SOL     OW18352   0.625   4.402   4.095 -0.2137 -0.4251 -0.0018
 2298SOL    HW118353   0.624   4.339   4.167 -1.5739 -1.6981 -1.1347
 2298SOL    HW218354   0.532   4.417   4.079  0.0115 -0.7417 -1.6493
 2299SOL     OW18355   4.022   0.548   0.165 -0.1219  0.0345 -0.6369
 2299SOL    HW118356   3.946   0.566   0.219 -1.2772 -0.7156 -2.0102
 2299SOL    HW218357   4.022   0.629   0.114  2.3893  0.7556  0.4682
 2300SOL     OW18358   0.345   1.069  12.776  0.2062 -0.2680 -0.1141
 2300SOL    HW118359   0.387   0.988  12.744  0.8103 -0.0863  0.2251
 2300SOL    HW218360   0.384   1.069  12.863  2.3172 -2.3332 -1.0581
 2301SOL     OW18361   4.434   2.371   6.095  0.2335 -0.5822  0.3051
 2301SOL    HW118362   4.376   2.356   6.019  1.0070  0.2554 -0.4501
 2301SOL    HW218363   4.484   2.289   6.092  0.8808 -0.1990  0.7627
 2302SOL     OW18364   1.720   0.796   7.044  0.1393 -0.3496 -0.0024
 2302SOL    HW118365   1.644   0.748   7.078 -0.6350 -0.2611 -1.6034
 2302SOL    HW218366   1.674   0.880   7.035 -2.6704 -1.6248  2.4528
 2303SOL     OW18367   3.413   3.285   8.515 -0.2893 -0.3593  0.6896
 2303SOL    HW118368   3.394   3.365   8.466 -0.9933 -0.3553  0.9782
 2303SOL    HW218369   3.474   3.308   8.586  0.1252  0.8148 -0.0558
 2304SOL     OW18370   2.394   3.954   0.308 -0.1212  0.1148 -0.7676
 2304SOL    HW118371   2.340   3.905   0.369  1.3610  0.3925  0.7802
 2304SOL    HW218372   2.393   4.040   0.350  1.6018  0.2817 -1.0510
 2305SOL     OW18373   1.288   3.486   1.881 -0.1941 -0.1300  0.0315
 2305SOL    HW118374   1.342   3.412   1.854 -0.1841 -0.3121  0.5414
 2305SOL    HW218375   1.247   3.447   1.959  0.6845 -1.5639 -0.2258
 2306SOL     OW18376   1.185   2.873   4.891  0.0666 -0.4305 -0.2486
 2306SOL    HW118377   1.241   2.827   4.954  2.5778  2.3736 -0.4761
 2306SOL    HW218378   1.247   2.880   4.819 -1.0536  0.1882 -1.1461
 2307SOL     OW18379   1.350   3.893   5.108 -0.2506 -0.8654  0.0559
 2307SOL    HW118380   1.310   3.962   5.160 -2.3182 -0.4818 -2.0810
 2307SOL    HW218381   1.415   3.944   5.059 -0.9397 -0.6717 -0.6453
 2308SOL     OW18382   3.494   1.126   5.829  0.0958  1.0585 -0.1068
 2308SOL    HW118383   3.521   1.049   5.779 -0.1855  1.5636 -1.0357
 2308SOL    HW218384   3.402   1.107   5.845  1.0471 -0.4849  3.4528
 2309SOL     OW18385   1.426   1.896   6.692 -0.0362  0.2692  0.0049
 2309SOL    HW118386   1.333   1.888   6.670  0.4682  1.1206 -2.4044
 2309SOL    HW218387   1.427   1.888   6.787  2.8061  1.3480  0.0526
 2310SOL     OW18388   2.731   3.052   5.201  0.4546 -0.4783 -0.1043
 2310SOL    HW118389   2.649   3.024   5.243  0.7632  0.2427  0.9904
 2310SOL    HW218390   2.787   3.063   5.278  0.9268 -2.1864 -0.2128
 2311SOL     OW18391   3.458   0.322   0.361 -0.2016 -0.4861 -0.1935
 2311SOL    HW118392   3.399   0.384   0.404 -1.1357 -0.5434 -1.4136
 2311SOL    HW218393   3.441   0.349   0.271 -2.3648  0.9875  0.6648
 2312SOL     OW18394   0.061   1.169   5.667 -0.0914  0.2227  0.2652
 2312SOL    HW118395   0.019   1.144   5.585  3.4602  0.5792 -1.6533
 2312SOL    HW218396   0.126   1.235   5.645  1.1605 -0.8381  0.8060
 2313SOL     OW18397   4.428   4.063   2.842 -0.0728 -0.1850 -0.5223
 2313SOL    HW118398   4.367   4.088   2.773 -0.7791  0.8255  0.4777
 2313SOL    HW218399   4.507   4.052   2.789 -0.7104 -2.2416 -1.0741
 2314SOL     OW18400   4.621   0.728  16.759 -0.2682  0.0337 -0.4313
 2314SOL    HW118401   4.717   0.719  16.759 -0.2789 -0.0574  0.0420
 2314SOL    HW218402   4.617   0.822  16.745  0.0361 -0.0829 -1.3004
 2315SOL     OW18403   2.026   0.868   5.534  0.3846 -0.5304  0.1445
 2315SOL    HW118404   1.945   0.881   5.582  0.6467 -0.7470  0.6403
 2315SOL    HW218405   1.994   0.829   5.452 -1.4084 -1.6797  1.3955
 2316SOL     OW18406   0.584   4.343   6.548 -0.0791 -0.1245  0.0158
 2316SOL    HW118407   0.505   4.308   6.505  0.6042  0.3376 -1.5975
 2316SOL    HW218408   0.542   4.418   6.590 -0.9533 -1.2965  1.2645
 2317SOL     OW18409   3.956   2.052   8.186 -0.0444 -0.4957 -0.6501
 2317SOL    HW118410   3.917   2.035   8.101  1.2997 -4.1352 -0.5589
 2317SOL    HW218411   4.040   2.007   8.173  0.8934  0.6956  1.2299
 2318SOL     OW18412   2.118   4.190   3.318 -0.6960  0.4243  0.3148
 2318SOL    HW118413   2.033   4.149   3.301 -0.1400 -1.8743  3.1064
 2318SOL    HW218414   2.090   4.272   3.359  1.1805  1.2716 -0.0695
 2319SOL     OW18415   1.157   2.640  17.095  0.0279  0.1112  0.0268
 2319SOL    HW118416   1.205   2.661  17.015  0.9759  1.2453  0.8774
 2319SOL    HW218417   1.227   2.624  17.160  1.3121  1.1474 -1.0981
 2320SOL     OW18418   2.693   0.099   1.545  0.1122  0.1291  0.1958
 2320SOL    HW118419   2.710   0.035   1.476 -1.6398 -0.8659  0.7034
 2320SOL    HW218420   2.609   0.060   1.568  0.2793 -0.3183  0.0482
 2321SOL     OW18421   2.869   2.305   3.147  0.0639 -0.5086  0.5859
 2321SOL    HW118422   2.952   2.295   3.099 -1.6921  1.3585 -2.8342
 2321SOL    HW218423   2.903   2.321   3.235 -2.5668  1.7673  1.1820
 2322SOL     OW18424   3.500   2.779   6.103 -0.6001 -0.5339  0.7895
 2322SOL    HW118425   3.588   2.796   6.071 -1.2644  0.8701 -0.3106
 2322SOL    HW218426   3.476   2.857   6.153  0.2476  0.2337 -0.0172
 2323SOL     OW18427   3.015   3.520  10.789  0.1624 -0.0838  0.4474
 2323SOL    HW118428   2.924   3.505  10.813 -0.6869  1.9712 -1.4929
 2323SOL    HW218429   2.995   3.546  10.699 -0.9857 -2.6608 -0.0394
 2324SOL     OW18430   0.070   3.474  13.472  0.2678 -0.0663  0.4460
 2324SOL    HW118431   0.149   3.510  13.431  1.1765  0.7937  2.9434
 2324SOL    HW218432   0.041   3.406  13.411 -0.3021  0.4108  0.1805
 2325SOL     OW18433   1.398   3.783   4.074  0.6459  0.4118  0.3024
 2325SOL    HW118434   1.418   3.778   3.981 -1.0531 -1.5261  0.0295
 2325SOL    HW218435   1.390   3.877   4.089 -0.4693  0.2277  0.8775
 2326SOL     OW18436   0.302   0.179   4.542  0.1339  0.2037 -0.2421
 2326SOL    HW118437   0.354   0.252   4.576 -0.9280  0.5253  0.6752
 2326SOL    HW218438   0.260   0.210   4.463 -0.9052  0.7041  0.5065
 2327SOL     OW18439   2.016   3.175   9.004 -0.0882 -0.1444  0.0982
 2327SOL    HW118440   1.972   3.231   8.939 -1.0076 -0.2458  0.6337
 2327SOL    HW218441   2.095   3.152   8.955  0.8554  1.7035  0.7761
 2328SOL     OW18442   3.414   3.519   8.094  0.1842 -0.7840  0.2191
 2328SOL    HW118443   3.385   3.446   8.041  1.3120 -0.0262 -1.4516
 2328SOL    HW218444   3.341   3.525   8.156  0.7884  1.4090  0.7581
 2329SOL     OW18445   2.547   4.615  10.212  0.1951 -0.1139 -0.2364
 2329SOL    HW118446   2.562   4.662  10.130 -0.0486  2.0673  0.9544
 2329SOL    HW218447   2.467   4.656  10.247  0.8155  2.1025 -1.4082
 2330SOL     OW18448   3.314   3.659   6.912  0.3332 -0.1148  0.2359
 2330SOL    HW118449   3.287   3.680   7.001 -2.8172 -1.7288 -0.3205
 2330SOL    HW218450   3.409   3.659   6.921  0.3172  2.3602  0.2593
 2331SOL     OW18451   2.981   2.434  13.094 -0.5391 -0.0337 -0.2461
 2331SOL    HW118452   3.067   2.449  13.055  0.8611  0.0826  2.8973
 2331SOL    HW218453   2.971   2.512  13.149 -0.0931  1.1329 -1.8300
 2332SOL     OW18454   1.228   0.290   4.701  0.0295 -0.3793 -0.0023
 2332SOL    HW118455   1.202   0.285   4.793 -1.0720  1.9479 -0.1848
 2332SOL    HW218456   1.302   0.350   4.703 -0.6368  0.5199 -1.9668
 2333SOL     OW18457   2.653   2.566   5.450  0.1344  0.6265 -0.0091
 2333SOL    HW118458   2.643   2.624   5.525 -2.4891  0.8892 -0.5736
 2333SOL    HW218459   2.699   2.494   5.494 -2.3726 -0.8685  0.1468
 2334SOL     OW18460   0.725   1.125  17.198  0.5500 -0.6338  0.3123
 2334SOL    HW118461   0.755   1.165  17.279 -0.0352 -0.9988  0.7094
 2334SOL    HW218462   0.633   1.141  17.215  0.2264 -0.4903 -1.5351
 2335SOL     OW18463   2.891   3.784  11.462  0.2526 -0.3399 -0.0270
 2335SOL    HW118464   2.940   3.703  11.443  0.7327 -0.2723  0.9481
 2335SOL    HW218465   2.828   3.755  11.527 -1.3378 -0.4143 -1.6011
 2336SOL     OW18466   4.524   3.603   4.181 -0.2230  0.6335  0.0885
 2336SOL    HW118467   4.586   3.617   4.110 -0.7271 -1.1133 -0.6945
 2336SOL    HW218468   4.444   3.610   4.130 -2.0042 -0.1443  2.8001
 2337SOL     OW18469   0.929   0.338   6.295  0.3438 -0.0637 -0.0059
 2337SOL    HW118470   0.866   0.267   6.313 -0.2030  0.0860 -1.3589
 2337SOL    HW218471   0.970   0.354   6.380  1.8254 -0.7973 -0.5890
 2338SOL     OW18472   1.756   1.222  17.567  0.1822 -0.0880  0.2750
 2338SOL    HW118473   1.743   1.280  17.642 -0.8032 -1.0761  0.8713
 2338SOL    HW218474   1.841   1.183  17.591 -0.2267 -0.4401  1.1560
 2339SOL     OW18475   3.483   2.094   3.904 -0.1209 -0.3910  0.0967
 2339SOL    HW118476   3.445   2.025   3.958  0.3039 -0.8571 -0.1975
 2339SOL    HW218477   3.402   2.138   3.879  1.8391  1.7196 -2.5052
 2340SOL     OW18478   0.627   2.773   5.878 -0.2546  0.2278 -0.6258
 2340SOL    HW118479   0.696   2.792   5.814  0.7768 -0.7967  0.1640
 2340SOL    HW218480   0.679   2.750   5.955 -0.4607  2.2205  0.0990
 2341SOL     OW18481   4.654   4.110  11.980 -0.3507  0.1390  0.3931
 2341SOL    HW118482   4.634   4.116  12.073  0.5892 -0.1090  0.6058
 2341SOL    HW218483   4.579   4.062  11.944 -0.6082 -0.8181  2.2226
 2342SOL     OW18484   2.557   4.666   0.191 -0.0013  0.1289 -0.8058
 2342SOL    HW118485   2.475   4.673   0.240  1.1486 -0.9843  1.2622
 2342SOL    HW218486   2.530   4.707   0.109 -1.1015 -0.8176 -0.9211
 2343SOL     OW18487   2.280   4.057   8.055  0.4760  0.1300 -0.1905
 2343SOL    HW118488   2.281   3.992   8.125  0.1841  0.4547  0.1185
 2343SOL    HW218489   2.188   4.068   8.030  0.0351  0.5881  1.6465
 2344SOL     OW18490   0.125   1.483   9.554  0.0921 -0.2009  0.3498
 2344SOL    HW118491   0.130   1.558   9.613  0.0781  1.4912 -1.7910
 2344SOL    HW218492   0.169   1.505   9.472  0.1540  2.1892  1.0162
 2345SOL     OW18493   1.343   3.142   4.585  0.3930 -0.5481  0.6930
 2345SOL    HW118494   1.279   3.152   4.655 -0.8350  2.2391 -0.8149
 2345SOL    HW218495   1.278   3.146   4.514 -0.9110 -0.3909  1.8828
 2346SOL     OW18496   2.389   3.699   2.802  0.3910 -0.3937  0.1539
 2346SOL    HW118497   2.476   3.702   2.843  0.6974 -1.4287 -0.4196
 2346SOL    HW218498   2.390   3.776   2.746  0.5452 -0.4492  0.0805
 2347SOL     OW18499   0.938   2.725   9.642 -0.1644  0.3964  0.0253
 2347SOL    HW118500   0.886   2.734   9.722 -0.3436  1.1300 -0.1715
 2347SOL    HW218501   1.027   2.722   9.677 -0.0203  1.5847 -0.2537
 2348SOL     OW18502   4.027   2.462   6.684  0.2579 -0.0049 -0.0342
 2348SOL    HW118503   4.035   2.367   6.695  2.4026  0.2310  0.4794
 2348SOL    HW218504   4.031   2.467   6.588  0.1638 -0.9606 -0.0929
 2349SOL     OW18505   1.648   2.442   5.279 -0.1633 -0.1261 -0.5657
 2349SOL    HW118506   1.634   2.391   5.199  0.1690  0.5070 -1.0242
 2349SOL    HW218507   1.743   2.442   5.275 -0.1474  0.6054 -0.2430
 2350SOL     OW18508   4.445   1.242  12.947  0.3502 -0.2053  0.2601
 2350SOL    HW118509   4.412   1.213  13.031  1.1178  0.3728  0.7654
 2350SOL    HW218510   4.363   1.277  12.911  0.8153 -0.2900 -0.8940
 2351SOL     OW18511   4.565   2.060   1.472 -0.0274  0.6203  0.2868
 2351SOL    HW118512   4.478   2.049   1.510 -0.4295 -0.4521 -0.9495
 2351SOL    HW218513   4.632   2.037   1.536  0.7452  2.1367  0.0051
 2352SOL     OW18514   0.405   1.512   0.054 -0.3797  0.2124 -0.0604
 2352SOL    HW118515   0.327   1.533   0.002 -1.2057 -2.1758  0.2208
 2352SOL    HW218516   0.474   1.534  17.702 -0.3988 -1.0210 -0.5060
 2353SOL     OW18517   0.545   4.705   7.454  0.3046 -0.0900  0.0794
 2353SOL    HW118518   0.577   4.673   7.370  1.3841  0.4165  0.2921
 2353SOL    HW218519   0.505   0.060   7.426  1.8018  0.9693  1.0304
 2354SOL     OW18520   2.461   3.417   2.790  0.2278 -0.0296 -0.4995
 2354SOL    HW118521   2.459   3.495   2.734 -2.4341  0.1333 -0.2192
 2354SOL    HW218522   2.472   3.343   2.730  0.1615  0.6800 -1.3845
 2355SOL     OW18523   3.532   3.385   2.560  0.0263  0.0734  0.3691
 2355SOL    HW118524   3.561   3.336   2.483 -1.8837 -0.7865  0.2162
 2355SOL    HW218525   3.466   3.330   2.602 -0.6933  1.0900  0.5531
 2356SOL     OW18526   4.685   1.540   1.977 -0.5937 -0.3705 -0.1383
 2356SOL    HW118527   4.650   1.606   2.037  2.2160 -0.8976  2.0729
 2356SOL    HW218528   0.037   1.515   2.025  0.2646 -0.3172 -1.5344
 2357SOL     OW18529   3.953   0.772  14.698  0.1062  0.2553  0.4284
 2357SOL    HW118530   3.949   0.774  14.603  1.4482 -2.2628  0.3097
 2357SOL    HW218531   4.029   0.715  14.712 -1.7394 -1.9918  1.4061
 2358SOL     OW18532   0.195   0.805   6.022 -0.0303  0.3472 -0.2180
 2358SOL    HW118533   0.251   0.765   5.955  0.2453  2.7571 -1.4159
 2358SOL    HW218534   0.178   0.890   5.982 -1.7485  0.1816  0.1607
 2359SOL     OW18535   1.817   3.275   8.770  0.8304 -0.1368 -0.4008
 2359SOL    HW118536   1.729   3.310   8.785  0.3088 -1.2004 -0.9916
 2359SOL    HW218537   1.815   3.224   8.690 -2.4895 -0.5647 -0.0778
 2360SOL     OW18538   3.655   2.076   6.733 -0.3902 -0.9223  0.0335
 2360SOL    HW118539   3.739   2.031   6.736  0.2989  0.2494 -1.9509
 2360SOL    HW218540   3.613   2.029   6.661 -0.1834 -2.9365  1.2290
 2361SOL     OW18541   3.235   0.178   6.370  0.6249 -0.1197 -0.1319
 2361SOL    HW118542   3.221   0.114   6.439 -0.8063 -0.0467 -0.3609
 2361SOL    HW218543   3.183   0.252   6.400  1.8693  1.0283 -0.8165
 2362SOL     OW18544   2.813   4.473   8.216  0.4758 -0.3418 -0.0078
 2362SOL    HW118545   2.813   4.395   8.160 -0.3472 -0.2331 -0.1510
 2362SOL    HW218546   2.882   4.520   8.170  0.3515  0.0158  0.1699
 2363SOL     OW18547   2.275   1.780   6.263  0.1883 -0.1614  0.0075
 2363SOL    HW118548   2.228   1.782   6.179  1.8396 -1.0382 -0.9316
 2363SOL    HW218549   2.325   1.862   6.266  2.0885 -1.3206  0.1406
 2364SOL     OW18550   2.118   0.746   3.853  0.2957 -0.1638  0.1250
 2364SOL    HW118551   2.034   0.771   3.814  0.8825 -2.4999 -2.7187
 2364SOL    HW218552   2.150   0.683   3.787  1.3727  1.1987 -0.6459
 2365SOL     OW18553   1.472   2.552  12.446 -0.5415  0.2959 -0.5174
 2365SOL    HW118554   1.566   2.562  12.458 -0.4199  0.9936 -2.1186
 2365SOL    HW218555   1.441   2.639  12.421  0.0232  1.1373  1.7346
 2366SOL     OW18556   1.142   0.730   7.788  0.4624 -0.1547 -0.2606
 2366SOL    HW118557   1.098   0.685   7.859  0.5695  1.4645  0.8237
 2366SOL    HW218558   1.205   0.791   7.827  0.9015  0.4114 -1.8117
 2367SOL     OW18559   0.403   3.537  10.977  0.0224  0.0687 -0.7357
 2367SOL    HW118560   0.458   3.600  10.931  0.1279  1.0193  0.7050
 2367SOL    HW218561   0.383   3.594  11.051  1.0720 -0.3073 -0.1690
 2368SOL     OW18562   0.230   2.756   0.386 -0.2344  0.2803  0.2789
 2368SOL    HW118563   0.209   2.733   0.477  1.6198 -1.5688  0.2292
 2368SOL    HW218564   0.207   2.849   0.379 -0.4031  0.2653  0.6214
 2369SOL     OW18565   1.919   2.440   2.033 -0.1601 -0.5056 -0.0630
 2369SOL    HW118566   1.837   2.430   1.985 -0.5295 -0.2088  0.5085
 2369SOL    HW218567   1.968   2.492   1.970  1.9743 -1.5425  0.7342
 2370SOL     OW18568   3.069   4.543   5.746  0.5573  0.6565 -0.5146
 2370SOL    HW118569   3.059   4.589   5.663  2.5874  1.0408 -0.5334
 2370SOL    HW218570   3.003   4.473   5.740  0.9240  0.3645 -1.1804
 2371SOL     OW18571   2.356   2.132   8.915 -0.0546  0.2747 -0.4146
 2371SOL    HW118572   2.282   2.155   8.971  1.1141  2.0101  0.4102
 2371SOL    HW218573   2.308   2.075   8.854  0.6603 -1.4476  0.6147
 2372SOL     OW18574   2.976   0.377   2.321  0.3989 -0.3892  0.2761
 2372SOL    HW118575   2.952   0.442   2.255  1.2122 -1.5326 -1.1517
 2372SOL    HW218576   2.982   0.425   2.403 -1.2228 -1.2596  0.8970
 2373SOL     OW18577   4.327   4.693   0.351 -0.1770 -0.2076 -0.1859
 2373SOL    HW118578   4.337   0.016   0.270  0.2486 -0.9442 -0.5899
 2373SOL    HW218579   4.296   4.606   0.324 -2.1827  1.1241 -2.1610
 2374SOL     OW18580   3.695   4.353   7.015  0.0022 -0.3094  0.0163
 2374SOL    HW118581   3.669   4.306   7.093 -0.6271  0.2577  0.1492
 2374SOL    HW218582   3.618   4.367   6.959 -0.4969 -2.7014  0.1163
 2375SOL     OW18583   1.766   1.256   4.568  0.2308  0.3807 -0.6191
 2375SOL    HW118584   1.825   1.323   4.533  0.4567  0.9696  0.8562
 2375SOL    HW218585   1.738   1.301   4.648  0.6825 -0.9713  0.2821
 2376SOL     OW18586   2.929   3.539   8.772 -0.0509  0.1127  0.2686
 2376SOL    HW118587   3.021   3.566   8.775 -0.2278  0.5101  2.1260
 2376SOL    HW218588   2.890   3.607   8.717 -0.8943 -2.0237 -1.7557
 2377SOL     OW18589   1.462   2.463   7.293  0.1645 -0.6268 -0.7354
 2377SOL    HW118590   1.479   2.556   7.277  0.5459  0.0678  3.6137
 2377SOL    HW218591   1.417   2.470   7.378  0.5302  0.0847 -0.5996
 2378SOL     OW18592   0.391   2.751   5.993  0.4487  0.9191 -0.0899
 2378SOL    HW118593   0.355   2.836   6.017 -0.0429  0.8277 -0.5108
 2378SOL    HW218594   0.476   2.783   5.961  0.8544  0.6382  0.7109
 2379SOL     OW18595   4.541   0.410   4.713 -0.5788 -0.2054 -0.8108
 2379SOL    HW118596   4.495   0.366   4.785  1.0158 -1.3314 -0.4670
 2379SOL    HW218597   4.477   0.480   4.705 -0.8848 -0.4048 -0.1530
 2380SOL     OW18598   3.981   0.104   2.545 -0.0423 -0.1649 -0.2002
 2380SOL    HW118599   4.036   0.098   2.466  0.2204 -2.1572  0.1376
 2380SOL    HW218600   4.004   0.021   2.586 -1.8552 -0.7897 -0.4537
 2381SOL     OW18601   2.839   1.844   4.419  0.1701  0.4065  0.3531
 2381SOL    HW118602   2.797   1.930   4.420 -0.5910  0.0474 -0.3042
 2381SOL    HW218603   2.912   1.853   4.358 -0.3795 -0.9288 -0.5021
 2382SOL     OW18604   2.977   0.525   8.829  0.1865 -0.6484  0.2193
 2382SOL    HW118605   2.919   0.575   8.772 -0.5415 -1.0093  0.6495
 2382SOL    HW218606   2.966   0.437   8.795 -0.8610 -0.7214  0.7420
 2383SOL     OW18607   2.824   4.700   0.127 -0.2278  0.5274  0.1459
 2383SOL    HW118608   2.824   0.050   0.183 -0.9171 -0.5802  1.6726
 2383SOL    HW218609   2.745   4.655   0.157  0.4556 -0.1207  0.9669
 2384SOL     OW18610   3.062   2.097   7.388  0.2462  0.0324  0.4291
 2384SOL    HW118611   2.998   2.158   7.351 -0.5451 -0.6395  0.6982
 2384SOL    HW218612   3.077   2.040   7.313 -1.9876 -1.7155  1.3447
 2385SOL     OW18613   2.619   3.769   5.175 -0.5708 -0.1596 -0.0167
 2385SOL    HW118614   2.588   3.685   5.210 -3.0946  0.9798  0.4251
 2385SOL    HW218615   2.535   3.792   5.137  0.0155  0.1233 -1.1546
 2386SOL     OW18616   1.031   1.201   0.946 -0.2649 -0.2854  0.5104
 2386SOL    HW118617   1.015   1.292   0.922  1.9624  0.1900  0.9092
 2386SOL    HW218618   0.951   1.153   0.922  1.4143 -2.5301 -0.5575
 2387SOL     OW18619   3.999   1.095   8.977 -0.1363  0.1919  0.2433
 2387SOL    HW118620   3.983   1.163   9.041  1.5657  0.1909  0.6651
 2387SOL    HW218621   4.037   1.134   8.899  0.5301 -0.6574  0.1387
 2388SOL     OW18622   1.631   3.429   2.810  0.2247  0.2852  0.3168
 2388SOL    HW118623   1.687   3.491   2.764  0.4410 -0.8720 -0.9796
 2388SOL    HW218624   1.699   3.375   2.848  0.3120 -0.9094 -1.5537
 2389SOL     OW18625   1.573   0.604   3.199 -0.1311  0.8486 -0.0446
 2389SOL    HW118626   1.481   0.590   3.222  0.0580 -1.3883 -0.6042
 2389SOL    HW218627   1.567   0.699   3.192 -0.5729  0.7604 -0.8434
 2390SOL     OW18628   0.490   2.736   8.933  0.0985  0.3992  0.4519
 2390SOL    HW118629   0.423   2.678   8.968  2.1540 -1.4366  1.3761
 2390SOL    HW218630   0.494   2.711   8.841  0.5566  0.3491  0.4820
 2391SOL     OW18631   1.345   2.312   5.145  0.0867 -0.3728  0.1017
 2391SOL    HW118632   1.307   2.250   5.207  0.9930  0.1751  1.2202
 2391SOL    HW218633   1.370   2.391   5.193 -0.6212 -0.7412  1.0757
 2392SOL     OW18634   1.866   3.896   5.202 -0.8234 -0.3742 -0.3713
 2392SOL    HW118635   1.818   3.967   5.244 -0.3685 -0.5968  0.5290
 2392SOL    HW218636   1.808   3.874   5.129 -1.2024  1.5706 -0.6605
 2393SOL     OW18637   4.498   0.208  17.444  0.0381 -0.5089 -0.1197
 2393SOL    HW118638   4.484   0.113  17.447 -1.6425 -0.2111  1.8934
 2393SOL    HW218639   4.423   0.235  17.498  0.3420  1.3903 -0.6427
 2394SOL     OW18640   1.342   4.565   6.354  0.2168  0.0023  0.2545
 2394SOL    HW118641   1.261   4.614   6.368 -1.6947 -2.6394 -1.6731
 2394SOL    HW218642   1.332   4.491   6.413  0.9912 -0.8139 -0.6518
 2395SOL     OW18643   0.592   2.985  12.255  0.6162  0.1401  0.5036
 2395SOL    HW118644   0.623   2.895  12.246 -2.7727 -0.9587 -0.6234
 2395SOL    HW218645   0.672   3.029  12.226  0.2606  0.0006 -0.7041
 2396SOL     OW18646   4.384   1.060  11.490 -0.2675 -0.3173  0.1350
 2396SOL    HW118647   4.414   0.974  11.459 -1.7215 -0.1384 -1.7605
 2396SOL    HW218648   4.332   1.025  11.563 -2.1954  1.7530 -0.2653
 2397SOL     OW18649   3.931   2.222  14.658 -0.3377 -0.3846 -0.2292
 2397SOL    HW118650   3.875   2.149  14.632  2.9132 -1.6610 -3.5511
 2397SOL    HW218651   3.902   2.242  14.748 -0.3024  0.2988 -0.3692
 2398SOL     OW18652   1.804   0.387  14.115 -0.0747  0.0695 -0.1623
 2398SOL    HW118653   1.867   0.317  14.129 -1.8732 -1.4122  0.5550
 2398SOL    HW218654   1.826   0.424  14.030  0.0394  0.4918  0.0481
 2399SOL     OW18655   3.358   0.812   6.577 -0.0161  0.1652 -0.1385
 2399SOL    HW118656   3.294   0.856   6.522  2.3116  0.6370 -2.4700
 2399SOL    HW218657   3.345   0.723   6.544 -1.0872  0.1606  0.2911
 2400SOL     OW18658   1.655   4.400   0.424 -0.3650 -0.1324  0.2471
 2400SOL    HW118659   1.601   4.393   0.504 -3.4710 -1.1036 -1.9336
 2400SOL    HW218660   1.738   4.373   0.463 -0.0670  2.2249  1.2504
 2401SOL     OW18661   4.211   3.251   8.980  0.2518  0.1636  0.1880
 2401SOL    HW118662   4.248   3.162   8.980 -0.3287 -0.0762  1.9401
 2401SOL    HW218663   4.289   3.306   8.982 -0.6381  1.3948  1.2924
 2402SOL     OW18664   4.169   2.780   6.775  0.4894  0.6411 -0.4514
 2402SOL    HW118665   4.223   2.713   6.815 -0.5456  0.3359  0.4565
 2402SOL    HW218666   4.169   2.843   6.847  0.0435  0.1296 -0.0031
 2403SOL     OW18667   2.152   1.759   3.433  0.4447  0.0010  0.3888
 2403SOL    HW118668   2.086   1.756   3.364 -0.1487  1.2941  0.9033
 2403SOL    HW218669   2.229   1.764   3.376  0.0234 -1.2476 -0.3027
 2404SOL     OW18670   0.093   1.721   4.680 -0.2201 -0.1161  0.5209
 2404SOL    HW118671   0.152   1.756   4.612  0.1552  1.0800  1.4631
 2404SOL    HW218672   0.004   1.737   4.650 -0.1138 -3.4600 -1.6434
 2405SOL     OW18673   4.549   1.758   2.096  0.0349 -0.0247 -0.4628
 2405SOL    HW118674   4.514   1.716   2.175  2.3347 -0.6471  0.2073
 2405SOL    HW218675   4.469   1.795   2.059 -0.1125 -2.5911 -2.7317
 2406SOL     OW18676   2.450   3.826   4.774  0.0043 -0.0182  0.6205
 2406SOL    HW118677   2.457   3.731   4.766 -1.1283 -0.1606  1.2856
 2406SOL    HW218678   2.398   3.827   4.854 -0.6227 -0.9376  0.2201
 2407SOL     OW18679   0.901   4.353   8.392 -0.0712  0.2329 -0.1618
 2407SOL    HW118680   0.978   4.340   8.447 -0.3465  0.5137  0.2843
 2407SOL    HW218681   0.903   4.271   8.342 -0.0743 -1.6167  2.8933
 2408SOL     OW18682   0.184   1.882   8.958  0.0260 -0.2492  0.4980
 2408SOL    HW118683   0.242   1.926   8.895  0.5074  0.0913  1.1850
 2408SOL    HW218684   0.183   1.951   9.024  0.6821 -0.0065  0.2658
 2409SOL     OW18685   3.513   1.314  13.755 -0.1500 -0.2878 -0.0212
 2409SOL    HW118686   3.494   1.253  13.827 -0.0497 -0.2052  0.0745
 2409SOL    HW218687   3.607   1.324  13.766 -0.0957 -1.0303  0.1714
 2410SOL     OW18688   2.993   3.331   8.382 -0.1003  0.0901  0.5529
 2410SOL    HW118689   2.938   3.284   8.444 -1.3002 -2.0690 -2.1409
 2410SOL    HW218690   2.961   3.420   8.398 -0.7167  0.1705 -1.1239
 2411SOL     OW18691   2.915   3.261   7.962  0.0566  0.0253  0.4759
 2411SOL    HW118692   2.867   3.337   7.928  0.0776 -0.4610 -0.6332
 2411SOL    HW218693   2.895   3.199   7.893  1.7184  0.6921 -0.6217
 2412SOL     OW18694   1.354   3.090   3.110  0.1602  0.0249 -0.3070
 2412SOL    HW118695   1.306   3.138   3.177  1.3825  0.1287  0.4875
 2412SOL    HW218696   1.349   3.002   3.147 -0.4995  1.3367  2.6951
 2413SOL     OW18697   3.930   1.848  13.694 -0.1223  0.4131 -0.2418
 2413SOL    HW118698   4.014   1.859  13.739 -0.0142 -0.4938 -0.2165
 2413SOL    HW218699   3.941   1.902  13.615  0.5744 -1.5434 -1.4723
 2414SOL     OW18700   1.008   2.471   7.994  0.2408 -0.2043 -0.4488
 2414SOL    HW118701   1.050   2.458   7.909  0.6500 -1.8855  0.0124
 2414SOL    HW218702   1.075   2.439   8.054 -1.3414 -1.9973  0.3785
 2415SOL     OW18703   0.852   2.402   3.214 -0.3088 -0.2249  0.3207
 2415SOL    HW118704   0.853   2.400   3.310 -0.2539 -1.4822  0.2864
 2415SOL    HW218705   0.933   2.355   3.194 -0.1016 -0.2138  1.1158
 2416SOL     OW18706   2.711   0.900   9.366 -0.0492  0.0179  0.3240
 2416SOL    HW118707   2.689   0.824   9.421  0.6784 -0.7399 -0.4242
 2416SOL    HW218708   2.776   0.859   9.310  0.5672 -0.9731  1.7593
 2417SOL     OW18709   2.732   2.838   4.799  0.7045 -0.5584  0.3264
 2417SOL    HW118710   2.812   2.787   4.785 -0.0674 -2.2534  1.9494
 2417SOL    HW218711   2.756   2.915   4.850 -0.1659  0.5368 -0.9196
 2418SOL     OW18712   2.034   3.827   1.676 -0.1292  0.1301  0.5195
 2418SOL    HW118713   2.083   3.751   1.708 -0.1204 -0.6763 -1.3965
 2418SOL    HW218714   2.004   3.870   1.755 -0.2204 -0.7377  0.9583
 2419SOL     OW18715   0.162   3.397   7.445  0.1584  0.3784 -0.0935
 2419SOL    HW118716   0.070   3.372   7.446  0.3244 -0.2314 -0.0357
 2419SOL    HW218717   0.171   3.446   7.527 -0.9423  1.5331 -0.6575
 2420SOL     OW18718   3.965   1.764   3.629  0.2793 -0.7661  0.0815
 2420SOL    HW118719   3.955   1.671   3.650 -3.1707 -0.1167  1.3268
 2420SOL    HW218720   3.962   1.809   3.714  1.2621 -1.2183  0.3536
 2421SOL     OW18721   3.068   2.861   1.165 -0.1913  0.1454  0.1995
 2421SOL    HW118722   3.090   2.905   1.082  0.7659 -1.0640 -0.1893
 2421SOL    HW218723   3.130   2.898   1.227 -0.6676  2.1304 -0.4836
 2422SOL     OW18724   2.261   4.531  11.127 -0.5158  0.2222 -0.7645
 2422SOL    HW118725   2.170   4.502  11.132 -0.5550  0.4666  0.0765
 2422SOL    HW218726   2.313   4.452  11.139 -1.5722 -0.2002  1.0573
 2423SOL     OW18727   3.258   0.729   1.632  0.2279  0.8149 -0.0387
 2423SOL    HW118728   3.180   0.696   1.676 -0.1626  1.8065  0.0085
 2423SOL    HW218729   3.269   0.822   1.653 -0.3835  0.4488  1.9099
 2424SOL     OW18730   3.319   4.004   2.585  0.1361  0.0455  0.1263
 2424SOL    HW118731   3.369   4.086   2.582  0.2917 -0.0872 -0.8358
 2424SOL    HW218732   3.313   3.990   2.490 -2.0112  0.5869  0.1728
 2425SOL     OW18733   4.314   0.262   6.921  0.3711 -0.1712 -0.1630
 2425SOL    HW118734   4.277   0.302   7.000  1.7052  1.5674 -0.4020
 2425SOL    HW218735   4.238   0.215   6.887  0.4167  0.6865 -1.4786
 2426SOL     OW18736   0.588   3.104   8.511  0.3989  0.3990 -0.0647
 2426SOL    HW118737   0.585   3.102   8.416  1.8905  0.5903 -0.1093
 2426SOL    HW218738   0.681   3.092   8.528  0.0093  0.2005  1.9490
 2427SOL     OW18739   1.357   4.012   2.562 -0.2605  0.1388 -0.1799
 2427SOL    HW118740   1.384   4.084   2.619  0.9878 -1.2314  0.9881
 2427SOL    HW218741   1.374   3.939   2.622 -4.1876  0.9565  1.8880
 2428SOL     OW18742   3.840   1.614  11.574 -0.2854 -0.1311  0.5608
 2428SOL    HW118743   3.879   1.572  11.497  0.1614  1.9389 -0.3578
 2428SOL    HW218744   3.758   1.566  11.577  0.9238 -2.3189 -1.4759
 2429SOL     OW18745   3.635   3.332   4.209  0.5502  0.0771 -0.2765
 2429SOL    HW118746   3.668   3.329   4.299 -0.8617  1.0002  0.2580
 2429SOL    HW218747   3.583   3.253   4.197  1.2827 -0.2178 -1.5607
 2430SOL     OW18748   4.036   1.328   6.912 -0.0161  0.5773  0.2545
 2430SOL    HW118749   4.115   1.327   6.966  0.3404  1.2941 -0.2662
 2430SOL    HW218750   4.001   1.417   6.912  2.0589  1.3894 -1.1676
 2431SOL     OW18751   1.459   0.973   3.168 -0.1907  0.2783 -0.7595
 2431SOL    HW118752   1.550   0.974   3.198 -0.6377  1.3011  0.5640
 2431SOL    HW218753   1.466   0.911   3.095 -1.2055  0.0949 -0.6969
 2432SOL     OW18754   2.197   3.432   3.169 -1.3616  0.7361  0.2428
 2432SOL    HW118755   2.250   3.494   3.120 -1.0561  0.8704  0.7422
 2432SOL    HW218756   2.262   3.410   3.236 -0.6737  2.6346  0.1865
 2433SOL     OW18757   0.011   2.248  13.375 -0.3266 -0.2686  0.8762
 2433SOL    HW118758   4.663   2.194  13.395  0.1020 -0.9997  0.5039
 2433SOL    HW218759   4.705   2.336  13.393  1.5426  0.1080  2.5485
 2434SOL     OW18760   3.699   1.601   7.600  0.5278 -0.2687  0.4272
 2434SOL    HW118761   3.738   1.542   7.536 -0.2621  0.5808 -0.8353
 2434SOL    HW218762   3.719   1.680   7.550 -0.9596  1.3205  2.3080
 2435SOL     OW18763   3.496   4.237   4.785 -0.0072 -0.8222 -0.4404
 2435SOL    HW118764   3.521   4.152   4.823 -0.8091 -0.0059  1.9013
 2435SOL    HW218765   3.542   4.297   4.843 -0.9350  1.3678 -2.0024
 2436SOL     OW18766   2.655   2.742  17.102 -0.2784  0.9602 -0.2804
 2436SOL    HW118767   2.609   2.660  17.084 -1.7540  1.2441  2.1488
 2436SOL    HW218768   2.597   2.776  17.170 -0.0122  1.6494 -0.4058
 2437SOL     OW18769   0.525   2.064  13.298  0.6496  0.3969  0.2521
 2437SOL    HW118770   0.432   2.089  13.293  0.1899 -0.6254  4.0518
 2437SOL    HW218771   0.541   2.053  13.204 -1.2575  0.8721 -0.1265
 2438SOL     OW18772   2.633   2.000  16.071 -0.4537 -0.0747  0.3975
 2438SOL    HW118773   2.672   1.958  15.995  0.7110  0.3869  0.7339
 2438SOL    HW218774   2.629   1.929  16.135  1.3773 -0.0082  0.5900
 2439SOL     OW18775   4.460   1.425  13.209 -0.2385  0.1218  0.2791
 2439SOL    HW118776   4.502   1.484  13.146 -0.7556  1.5529  1.3010
 2439SOL    HW218777   4.466   1.468  13.294  0.2090 -2.9017  1.7993
 2440SOL     OW18778   2.458   4.177   9.284 -0.0182  0.4729 -0.1834
 2440SOL    HW118779   2.411   4.203   9.205  1.2711  1.6577 -0.5672
 2440SOL    HW218780   2.464   4.267   9.318  0.2336  0.0350  0.9119
 2441SOL     OW18781   4.388   1.353   5.894 -0.1376 -0.6800  0.0116
 2441SOL    HW118782   4.412   1.371   5.803  1.5710  2.7182  1.1074
 2441SOL    HW218783   4.295   1.373   5.885  0.1112  0.9686  1.2218
 2442SOL     OW18784   4.008   3.052  13.493 -0.5594  0.1471  0.2104
 2442SOL    HW118785   4.045   2.966  13.473  0.5828  0.9404 -1.1119
 2442SOL    HW218786   4.012   3.102  13.411 -0.6811  0.1684  0.2181
 2443SOL     OW18787   0.639   1.805   8.809  0.0345 -0.4346  0.6745
 2443SOL    HW118788   0.696   1.771   8.739  1.7223  1.1710  1.2519
 2443SOL    HW218789   0.615   1.723   8.851 -1.9338  0.1488  0.6873
 2444SOL     OW18790   3.252   1.406   7.961  0.5078 -0.0122 -0.2920
 2444SOL    HW118791   3.204   1.394   7.879  2.5989  0.8399 -1.6625
 2444SOL    HW218792   3.181   1.453   8.004  1.6618 -0.5861  2.2614
 2445SOL     OW18793   3.464   1.337   2.493  0.0564 -0.7529  0.7521
 2445SOL    HW118794   3.379   1.361   2.455  1.2465 -0.4953 -1.7208
 2445SOL    HW218795   3.460   1.398   2.567 -2.6904 -0.5550  0.4655
 2446SOL     OW18796   4.529   3.563  13.526 -0.8499  0.2520 -0.4177
 2446SOL    HW118797   4.516   3.599  13.439  0.7753  0.8407 -0.4023
 2446SOL    HW218798   4.610   3.515  13.514 -2.7963 -3.2866  0.4315
 2447SOL     OW18799   2.686   0.298   6.774 -0.4334 -0.5513 -0.1031
 2447SOL    HW118800   2.596   0.316   6.800 -0.4917 -0.8606 -0.0991
 2447SOL    HW218801   2.735   0.361   6.827 -1.5839  1.2073 -1.1404
 2448SOL     OW18802   0.606   4.648   6.557  0.4680 -0.5118  0.4246
 2448SOL    HW118803   0.613   4.608   6.470  1.1790 -0.2639  0.3712
 2448SOL    HW218804   0.537   4.600   6.602  1.5865 -1.3795  1.2079
 2449SOL     OW18805   1.468   2.472   0.813 -0.0263  0.0211  0.0815
 2449SOL    HW118806   1.561   2.488   0.828 -0.6035  2.2300  1.2846
 2449SOL    HW218807   1.433   2.516   0.891  0.9616 -1.0084  1.1036
 2450SOL     OW18808   3.839   2.936   3.314 -0.3059 -0.1149  0.0328
 2450SOL    HW118809   3.793   3.004   3.265 -3.1756 -1.7023  0.5122
 2450SOL    HW218810   3.913   2.994   3.335 -1.8052  1.1918  1.6724
 2451SOL     OW18811   0.723   0.032  14.304  0.2386  0.2819  0.1684
 2451SOL    HW118812   0.694   0.034  14.395 -1.1359 -0.1491 -0.2525
 2451SOL    HW218813   0.735   0.126  14.290  0.5439  0.4079  1.2750
 2452SOL     OW18814   4.541   2.069  16.769  0.1318  0.1405 -0.2255
 2452SOL    HW118815   4.582   2.012  16.834 -1.3461 -0.5798  0.0748
 2452SOL    HW218816   4.462   2.099  16.814  0.7265 -0.8784  1.4995
 2453SOL     OW18817   4.070   3.856   7.107  0.1844  0.4806 -0.0142
 2453SOL    HW118818   4.089   3.926   7.169 -2.2833 -1.0135  2.3984
 2453SOL    HW218819   4.158   3.820   7.104  1.0759  2.6359  0.1437
 2454SOL     OW18820   4.315   2.890   2.361  0.0404  0.0356  0.0955
 2454SOL    HW118821   4.257   2.898   2.285  0.2427 -1.2538 -0.2002
 2454SOL    HW218822   4.386   2.950   2.335  0.0496 -0.3492 -0.7677
 2455SOL     OW18823   0.727   4.211   6.965 -0.6120 -0.1729 -0.4874
 2455SOL    HW118824   0.658   4.165   6.917 -0.6798  0.4706 -1.0114
 2455SOL    HW218825   0.703   4.302   6.944 -1.1059 -0.6407 -1.9876
 2456SOL     OW18826   1.630   0.026  10.724  0.1167 -0.3716  0.6397
 2456SOL    HW118827   1.612   4.717  10.810  0.4503  0.0172  0.8701
 2456SOL    HW218828   1.559   4.710  10.675  0.8782 -1.8259  0.8499
 2457SOL     OW18829   0.807   4.681   7.753  0.3890  0.0823 -0.0587
 2457SOL    HW118830   0.819   4.646   7.841 -2.0945 -0.2745  0.1487
 2457SOL    HW218831   0.788   4.601   7.704  1.5549 -0.0676 -0.2651
 2458SOL     OW18832   4.382   2.295  14.417 -0.1607  0.2017 -0.0851
 2458SOL    HW118833   4.298   2.257  14.444 -0.7861  1.8342  0.2467
 2458SOL    HW218834   4.420   2.220  14.370 -0.8344 -1.3242  1.8072
 2459SOL     OW18835   3.817   2.549   4.426 -0.3753 -0.3281 -0.3740
 2459SOL    HW118836   3.903   2.508   4.432 -1.4409 -2.8114 -1.7902
 2459SOL    HW218837   3.763   2.500   4.363 -0.0784 -1.0661 -0.0554
 2460SOL     OW18838   0.351   3.667   3.429 -0.0178 -0.3624 -0.3830
 2460SOL    HW118839   0.366   3.628   3.342 -3.0480 -2.3196 -0.0545
 2460SOL    HW218840   0.315   3.597   3.483 -0.6807 -0.7974 -1.3757
 2461SOL     OW18841   1.680   0.303   1.011 -0.0128 -0.4571 -0.2259
 2461SOL    HW118842   1.684   0.270   1.101 -1.3992  1.0930  0.4272
 2461SOL    HW218843   1.679   0.398   1.026 -2.2052 -0.5023 -0.0241
 2462SOL     OW18844   2.532   3.789   5.587  0.0068 -0.2893  0.0923
 2462SOL    HW118845   2.473   3.850   5.543  1.1722  0.1481 -0.8624
 2462SOL    HW218846   2.534   3.825   5.676 -1.0861  0.8921 -0.3593
 2463SOL     OW18847   0.215   0.682   6.638 -0.4152 -0.6979  0.2694
 2463SOL    HW118848   0.174   0.609   6.685 -2.1093  0.0403 -0.0897
 2463SOL    HW218849   0.305   0.679   6.671  0.4177  1.4680 -1.7949
 2464SOL     OW18850   3.590   3.609   7.602 -0.3783 -0.1646 -0.2263
 2464SOL    HW118851   3.567   3.672   7.670  1.6787 -1.7897  1.9507
 2464SOL    HW218852   3.609   3.534   7.659  0.2649 -0.4446 -0.8118
 2465SOL     OW18853   1.532   4.127   3.505  0.4170  0.4717 -0.3973
 2465SOL    HW118854   1.544   4.067   3.431 -0.7973 -0.8093  0.4409
 2465SOL    HW218855   1.561   4.074   3.578  0.1657 -0.3240 -0.8749
 2466SOL     OW18856   1.861   3.896   2.301 -0.3605 -0.2269 -0.3180
 2466SOL    HW118857   1.834   3.889   2.393 -0.3123  0.9375 -0.2203
 2466SOL    HW218858   1.924   3.967   2.292 -1.4774  0.3694 -3.5983
 2467SOL     OW18859   1.946   0.208   1.357 -0.0794  0.7412 -0.6171
 2467SOL    HW118860   1.956   0.137   1.294  2.2836  0.9177 -0.4405
 2467SOL    HW218861   1.982   0.164   1.434 -0.1625 -0.5038 -1.3057
 2468SOL     OW18862   2.089   4.427   7.176  0.1297 -0.3564  0.5601
 2468SOL    HW118863   2.088   4.472   7.092 -1.3649  0.5218  1.0420
 2468SOL    HW218864   2.100   4.504   7.232 -0.2759 -1.7946  2.6253
 2469SOL     OW18865   0.512   3.059   5.159 -0.2436 -0.0515  0.6317
 2469SOL    HW118866   0.604   3.073   5.137 -0.2852 -1.1673 -0.3266
 2469SOL    HW218867   0.467   3.143   5.162  0.4884  0.2832  2.1873
 2470SOL     OW18868   1.259   1.502   5.927 -0.7015 -0.0528  0.2490
 2470SOL    HW118869   1.231   1.424   5.974  1.7912 -1.2721 -0.3005
 2470SOL    HW218870   1.171   1.517   5.893 -0.6759 -0.0834  0.1702
 2471SOL     OW18871   2.339   1.139   1.116  0.1757  0.3912  0.4161
 2471SOL    HW118872   2.257   1.092   1.129 -0.0357  0.5748 -0.2140
 2471SOL    HW218873   2.307   1.226   1.140 -1.4841 -0.1022 -0.0184
 2472SOL     OW18874   3.733   4.030   6.571 -0.0327  0.4503 -0.0680
 2472SOL    HW118875   3.679   3.951   6.572  3.0025 -1.6319 -0.3985
 2472SOL    HW218876   3.679   4.093   6.524 -0.3745  0.3892  0.2390
 2473SOL     OW18877   2.074   1.189  12.301  0.6694 -0.3499 -0.0490
 2473SOL    HW118878   2.129   1.119  12.267 -0.8571 -1.8071  0.4987
 2473SOL    HW218879   2.127   1.214  12.377 -0.6131  1.7241  0.1773
 2474SOL     OW18880   4.080   2.535  16.976 -0.1346  1.1231 -0.8007
 2474SOL    HW118881   4.144   2.480  16.931 -1.9430  0.4103 -2.4845
 2474SOL    HW218882   4.131   2.544  17.057 -1.2720  1.6511 -0.1464
 2475SOL     OW18883   3.912   4.510   4.107  0.6457 -0.6968 -0.0435
 2475SOL    HW118884   3.971   4.483   4.177 -0.9927  0.0054  1.6238
 2475SOL    HW218885   3.831   4.490   4.155  2.7857 -3.1258  2.5729
 2476SOL     OW18886   3.997   3.130   2.258  0.4053 -0.0461  0.2848
 2476SOL    HW118887   3.913   3.083   2.257 -1.6089  3.5009 -1.3380
 2476SOL    HW218888   4.013   3.136   2.163 -1.9233 -1.4260 -0.2216
 2477SOL     OW18889   0.856   4.296   2.862 -0.3503 -0.1742  0.4645
 2477SOL    HW118890   0.883   4.363   2.926  2.2950  0.8524 -1.7264
 2477SOL    HW218891   0.800   4.349   2.805 -3.0201 -3.6238 -0.0828
 2478SOL     OW18892   0.325   3.655   6.774  0.2075 -0.2317 -0.5284
 2478SOL    HW118893   0.280   3.572   6.759 -1.2928  0.2537  1.2837
 2478SOL    HW218894   0.378   3.635   6.851 -2.5337 -0.1625  1.3467
 2479SOL     OW18895   2.706   1.961   9.883  0.4447 -0.3344  0.9058
 2479SOL    HW118896   2.614   1.971   9.906  0.1628  0.8368 -0.7098
 2479SOL    HW218897   2.721   2.029   9.817  0.9058 -0.5503  0.7913
 2480SOL     OW18898   3.682   2.159  10.684  0.3914 -0.3063 -0.1482
 2480SOL    HW118899   3.777   2.162  10.694  0.1439  2.0051  1.5095
 2480SOL    HW218900   3.646   2.134  10.770 -0.8892  0.6171 -0.4211
 2481SOL     OW18901   0.212   1.034   0.493  0.3247 -0.3119 -0.1983
 2481SOL    HW118902   0.168   1.117   0.508  0.7326 -0.2970  0.9092
 2481SOL    HW218903   0.285   1.075   0.446  0.3513  0.9893  0.9867
 2482SOL     OW18904   0.773   1.010   9.776  0.1144  0.1176 -0.0753
 2482SOL    HW118905   0.788   1.098   9.811 -1.6661  1.0317 -1.6425
 2482SOL    HW218906   0.861   0.988   9.745  0.6659  2.9087 -0.5424
 2483SOL     OW18907   0.926   3.698   6.156 -0.8158 -0.1026  0.2214
 2483SOL    HW118908   0.962   3.655   6.078  2.2527 -0.8842  2.0522
 2483SOL    HW218909   0.986   3.771   6.171  0.0024 -0.9276  1.0075
 2484SOL     OW18910   4.114   0.284   3.202 -0.0212  0.4902 -0.2845
 2484SOL    HW118911   4.143   0.248   3.118  0.1324  0.7386 -0.3375
 2484SOL    HW218912   4.126   0.379   3.192  1.6816  0.1032 -1.7499
 2485SOL     OW18913   0.641   0.069   8.432 -0.8941  0.0331  0.0886
 2485SOL    HW118914   0.591   0.151   8.429 -2.1128 -0.7052  0.6117
 2485SOL    HW218915   0.587   0.009   8.380 -2.1267  0.0581  1.3768
 2486SOL     OW18916   3.872   4.180   3.290 -0.0088  0.2687  0.2978
 2486SOL    HW118917   3.966   4.163   3.283 -0.5467 -2.3117 -0.7696
 2486SOL    HW218918   3.845   4.107   3.345 -0.7823  0.6921  0.4802
 2487SOL     OW18919   1.850   3.718   2.846 -0.2356  0.0803  0.1188
 2487SOL    HW118920   1.807   3.731   2.762  0.7357  2.1786 -0.0400
 2487SOL    HW218921   1.859   3.622   2.841 -1.5027 -0.0341  0.0293
 2488SOL     OW18922   3.209   1.167  14.208  0.6507 -0.0577  0.2977
 2488SOL    HW118923   3.267   1.099  14.242 -0.3516 -1.8303 -1.5749
 2488SOL    HW218924   3.184   1.118  14.130  3.4600 -2.6733  1.0500
 2489SOL     OW18925   3.827   1.333   2.678  0.1148 -0.1727  0.1500
 2489SOL    HW118926   3.778   1.312   2.599  0.4602 -1.3084  0.2346
 2489SOL    HW218927   3.855   1.421   2.652  0.1622 -0.2923 -0.2035
 2490SOL     OW18928   2.217   0.695  16.449  0.0776  0.4806 -0.3960
 2490SOL    HW118929   2.126   0.668  16.460  0.0728  0.4180 -0.5904
 2490SOL    HW218930   2.225   0.692  16.354  0.4717 -0.7819 -0.3280
 2491SOL     OW18931   3.230   4.041   7.621 -0.0194 -1.1787 -0.6954
 2491SOL    HW118932   3.284   3.970   7.588  2.9627 -0.7593  3.2502
 2491SOL    HW218933   3.146   3.999   7.635 -0.1053 -0.8795 -0.3206
 2492SOL     OW18934   0.790   1.404   4.008 -0.6367  0.2430  0.4800
 2492SOL    HW118935   0.874   1.414   4.052 -0.6493  0.7901  0.3884
 2492SOL    HW218936   0.810   1.327   3.955  3.1415 -0.1557  2.5364
 2493SOL     OW18937   0.871   1.367   3.755 -0.1215 -0.0743  0.1232
 2493SOL    HW118938   0.822   1.427   3.697  0.2822  0.4890  0.3707
 2493SOL    HW218939   0.936   1.334   3.693  0.0079  1.9588 -0.8476
 2494SOL     OW18940   1.850   1.044   0.527  0.6489  0.6576 -0.0525
 2494SOL    HW118941   1.771   1.095   0.510 -1.1680 -1.7712  1.1512
 2494SOL    HW218942   1.833   1.017   0.618  1.8634 -0.4653 -0.1600
 2495SOL     OW18943   0.116   0.912   8.631  0.4995 -0.4303 -0.0351
 2495SOL    HW118944   0.155   0.877   8.710 -0.2735  0.9688  0.9737
 2495SOL    HW218945   0.153   0.846   8.573 -0.2573 -2.1984  1.5102
 2496SOL     OW18946   4.455   4.696   3.554  0.0083 -0.7980  0.5161
 2496SOL    HW118947   4.386   4.630   3.561 -0.5112 -0.3505 -0.4160
 2496SOL    HW218948   4.526   4.676   3.615  0.7501  0.6585  0.1388
 2497SOL     OW18949   3.585   3.573  15.159  0.0257  0.7955  0.7409
 2497SOL    HW118950   3.635   3.634  15.105  1.3864 -1.0604 -0.0600
 2497SOL    HW218951   3.597   3.595  15.252  0.0277 -2.3048  1.4492
 2498SOL     OW18952   0.875   0.951   8.254  0.7835 -0.3381 -0.0116
 2498SOL    HW118953   0.837   0.875   8.211 -0.1199  1.1388 -1.8327
 2498SOL    HW218954   0.791   0.972   8.296  0.3895 -1.6196 -0.1707
 2499SOL     OW18955   0.387   2.836  11.714  0.1982  0.2704 -0.9264
 2499SOL    HW118956   0.320   2.845  11.781  2.9148  1.1181  1.6991
 2499SOL    HW218957   0.405   2.742  11.710 -0.0591  0.1629  0.6344
 2500SOL     OW18958   4.671   3.185   3.383  0.3344  0.3572 -0.7969
 2500SOL    HW118959   4.586   3.211   3.419  0.3514  1.0144 -1.2190
 2500SOL    HW218960   4.717   3.153   3.460 -2.7106 -1.2662  0.3229
 2501SOL     OW18961   0.083   4.383   8.707 -0.0590  0.2069 -0.8086
 2501SOL    HW118962   0.135   4.462   8.697  1.7799 -0.6939  1.7365
 2501SOL    HW218963   0.092   4.370   8.801 -0.6098 -0.7500 -0.8743
 2502SOL     OW18964   1.426   4.547   2.652  0.7498 -0.3097 -0.2804
 2502SOL    HW118965   1.416   4.615   2.585 -1.3238 -1.3997 -1.1016
 2502SOL    HW218966   1.411   4.475   2.590 -0.5924  1.3207 -1.8396
 2503SOL     OW18967   0.999   1.611   6.998  0.7395  0.1086 -1.0546
 2503SOL    HW118968   0.977   1.605   7.091  0.4154  0.9031 -1.0823
 2503SOL    HW218969   0.921   1.647   6.955 -0.0054  1.1765  1.1899
 2504SOL     OW18970   1.447   4.151  12.173  0.1650 -0.1555  0.0620
 2504SOL    HW118971   1.520   4.211  12.156 -2.7583  3.1824 -0.7765
 2504SOL    HW218972   1.495   4.109  12.245 -1.1307 -1.5069  0.1615
 2505SOL     OW18973   2.743   2.631   0.763  0.5418 -0.5710  0.3137
 2505SOL    HW118974   2.772   2.700   0.704 -0.1318 -2.0770 -1.7552
 2505SOL    HW218975   2.730   2.558   0.704  0.0673 -0.4870  0.3081
 2506SOL     OW18976   0.932   4.353  16.943  0.4553  0.0181  0.2757
 2506SOL    HW118977   1.017   4.385  16.973  0.3937  0.6877 -0.2707
 2506SOL    HW218978   0.956   4.262  16.960  0.4777 -0.0476 -0.1048
 2507SOL     OW18979   4.358   0.942   8.564  0.0048 -0.7218 -0.3681
 2507SOL    HW118980   4.430   0.896   8.522  0.7549  1.3029 -1.3403
 2507SOL    HW218981   4.369   0.912   8.654 -1.2829 -0.2925 -0.0607
 2508SOL     OW18982   4.390   3.708  10.489  0.5511 -0.1713  0.2854
 2508SOL    HW118983   4.452   3.779  10.505  0.5955 -0.2357  0.4003
 2508SOL    HW218984   4.382   3.672  10.578 -0.7624 -1.8372 -0.5132
 2509SOL     OW18985   2.698   4.517  12.157  0.3784  0.7609  0.3406
 2509SOL    HW118986   2.627   4.454  12.162  1.6906 -0.6608  1.0224
 2509SOL    HW218987   2.772   4.460  12.180 -1.4270 -0.7457  2.3006
 2510SOL     OW18988   3.745   1.488  13.543 -0.0459  0.0712 -0.2262
 2510SOL    HW118989   3.837   1.462  13.535 -0.3121 -1.2797  1.2364
 2510SOL    HW218990   3.720   1.448  13.626  0.6141 -0.2457 -0.1799
 2511SOL     OW18991   3.445   1.863   5.002 -0.3672  0.6000 -0.0468
 2511SOL    HW118992   3.395   1.841   5.081  0.1067  0.2856  0.1600
 2511SOL    HW218993   3.380   1.910   4.949 -2.0349  0.1299  1.5739
 2512SOL     OW18994   2.083   3.553   6.844  0.3027 -0.3547  0.5921
 2512SOL    HW118995   2.176   3.549   6.820  0.7433 -0.8349  2.3463
 2512SOL    HW218996   2.059   3.463   6.821  2.4162 -0.6503 -0.4875
 2513SOL     OW18997   3.624   0.185  16.386  0.1591 -0.2618  0.3581
 2513SOL    HW118998   3.630   0.111  16.325 -0.8895  0.7482 -0.9923
 2513SOL    HW218999   3.713   0.221  16.386 -1.1646  3.0494 -4.7885
 2514SOL     OW19000   2.827   1.977   2.155 -0.4148  0.0236 -0.1257
 2514SOL    HW119001   2.876   2.021   2.225  1.2149  1.4098 -2.1615
 2514SOL    HW219002   2.871   1.894   2.143 -1.7180 -0.6179 -0.4601
 2515SOL     OW19003   4.588   1.020   4.894  0.1762  0.3116 -0.4352
 2515SOL    HW119004   4.666   0.970   4.871 -1.0340 -1.6694 -0.2168
 2515SOL    HW219005   4.589   1.097   4.837  0.8250  2.3275  2.3116
 2516SOL     OW19006   3.713   1.204   2.885  0.0381  0.5915  0.0520
 2516SOL    HW119007   3.735   1.277   2.827  0.2685  0.4719 -0.0104
 2516SOL    HW219008   3.792   1.150   2.881  0.0859  0.7632 -1.3546
 2517SOL     OW19009   4.015   0.096   5.404 -0.5427  0.6555 -0.0971
 2517SOL    HW119010   3.939   0.148   5.430 -0.7716 -0.1872  0.9004
 2517SOL    HW219011   3.970   0.036   5.345 -1.4266 -0.2644  1.5393
 2518SOL     OW19012   4.553   4.372   5.926 -0.6851  0.0980  0.6495
 2518SOL    HW119013   4.638   4.416   5.922 -1.7455  2.1873  1.0046
 2518SOL    HW219014   4.565   4.295   5.981  2.7362  0.8108  0.8629
 2519SOL     OW19015   0.317   1.925   3.874  0.2402 -0.1542  0.3631
 2519SOL    HW119016   0.307   2.010   3.833  1.0413 -0.2653 -0.0699
 2519SOL    HW219017   0.340   1.947   3.964  0.4429  1.9146 -0.2023
 2520SOL     OW19018   3.243   2.863   8.287  0.0188  0.1221 -0.1176
 2520SOL    HW119019   3.158   2.851   8.329 -0.6977  0.7593 -1.3715
 2520SOL    HW219020   3.261   2.956   8.301 -0.5801  0.2101  0.0439
 2521SOL     OW19021   0.041   1.454   7.787 -0.0421 -0.5483  0.0605
 2521SOL    HW119022   0.021   1.476   7.878 -0.2790 -0.1900 -0.0774
 2521SOL    HW219023   0.126   1.413   7.804  0.3196  0.6714  1.1936
 2522SOL     OW19024   0.651   3.083   6.454  0.3025 -0.2738  0.5936
 2522SOL    HW119025   0.567   3.039   6.439  0.0093 -0.8809  4.0959
 2522SOL    HW219026   0.624   3.175   6.445 -0.4748 -0.3715  1.8288
 2523SOL     OW19027   2.373   3.037   4.420 -0.0253 -0.1224 -0.9504
 2523SOL    HW119028   2.457   2.992   4.414 -1.4108 -2.7174 -0.7379
 2523SOL    HW219029   2.365   3.080   4.505  0.4921  0.0096 -0.9677
 2524SOL     OW19030   4.353   2.415   7.443 -0.0055 -0.1642  0.7356
 2524SOL    HW119031   4.383   2.392   7.355 -0.2610  1.2209  0.2800
 2524SOL    HW219032   4.405   2.493   7.463  2.6301 -1.6740 -0.1505
 2525SOL     OW19033   1.281   1.431   7.876 -0.2521  0.1401 -0.4417
 2525SOL    HW119034   1.271   1.494   7.804  0.9589 -0.8422 -1.4820
 2525SOL    HW219035   1.227   1.358   7.845  0.2433  0.3312 -1.7516
 2526SOL     OW19036   2.671   1.325   2.001  0.6072  0.3896 -0.1319
 2526SOL    HW119037   2.593   1.380   1.988  0.6741  0.5673  0.2144
 2526SOL    HW219038   2.725   1.392   1.961  0.3180  0.8217  0.1926
 2527SOL     OW19039   2.287   4.036   3.187 -0.4986  0.3438  0.2297
 2527SOL    HW119040   2.355   4.102   3.176  0.3467 -0.7933 -1.4072
 2527SOL    HW219041   2.217   4.092   3.219  0.0148  0.5705  0.9354
 2528SOL     OW19042   2.603   1.324   5.366  0.6066  0.2414  0.0269
 2528SOL    HW119043   2.612   1.303   5.459  1.9411  2.4966  0.4218
 2528SOL    HW219044   2.598   1.237   5.327  1.2454 -0.7802  2.2671
 2529SOL     OW19045   4.567   4.496  15.779  0.4302 -0.4124  0.0075
 2529SOL    HW119046   4.602   4.449  15.703  1.0193  0.9132 -0.5451
 2529SOL    HW219047   4.616   4.450  15.847  1.9459 -0.0774 -0.8435
 2530SOL     OW19048   1.966   2.183   9.440  0.4995  0.2460 -0.4084
 2530SOL    HW119049   1.958   2.123   9.366  4.8107 -0.1339 -0.5701
 2530SOL    HW219050   2.056   2.159   9.462  0.0209 -0.3994  0.8638
 2531SOL     OW19051   3.398   0.306  15.248 -0.0409  0.4932 -0.0211
 2531SOL    HW119052   3.304   0.287  15.252 -0.0365  0.6407  0.8501
 2531SOL    HW219053   3.442   0.237  15.298 -0.8430  0.6332  0.8942
 2532SOL     OW19054   0.304   0.174   5.844 -0.0861  0.1849 -0.3873
 2532SOL    HW119055   0.239   0.216   5.899 -0.8059 -0.7504 -0.5220
 2532SOL    HW219056   0.385   0.172   5.895 -0.0151 -3.0605 -0.6359
 2533SOL     OW19057   3.133   1.369  13.268  0.3122 -0.1242  0.4404
 2533SOL    HW119058   3.158   1.293  13.216  1.3859  0.8428 -0.4684
 2533SOL    HW219059   3.111   1.425  13.193 -0.2381 -0.2772  0.4866
 2534SOL     OW19060   3.195   1.032  15.008 -0.4811 -0.0407 -0.2089
 2534SOL    HW119061   3.193   0.990  14.922  2.0510  0.5979 -0.5702
 2534SOL    HW219062   3.226   1.120  14.986 -2.2335  0.8402  0.8187
 2535SOL     OW19063   1.462   3.581   9.038  0.3206 -0.1506  0.3417
 2535SOL    HW119064   1.408   3.538   8.972 -0.2103  0.7338  0.1847
 2535SOL    HW219065   1.399   3.634   9.088  0.4529  0.1414  0.2015
 2536SOL     OW19066   1.599   1.837   9.181  0.1508  0.5670  0.5184
 2536SOL    HW119067   1.627   1.750   9.210 -1.4432  0.1580  0.8254
 2536SOL    HW219068   1.681   1.876   9.150  0.4014 -0.0132  0.4403
 2537SOL     OW19069   3.448   3.861  15.090 -0.5172  0.0226  0.1690
 2537SOL    HW119070   3.502   3.906  15.155 -1.0940  1.1687 -0.1474
 2537SOL    HW219071   3.398   3.935  15.054  0.7083 -0.5747 -2.7200
 2538SOL     OW19072   0.545   3.977   8.710 -0.5588 -0.0969 -0.3358
 2538SOL    HW119073   0.473   4.020   8.757  1.0712  1.7790  0.4555
 2538SOL    HW219074   0.604   3.959   8.783  1.2139 -1.0816 -1.9828
 2539SOL     OW19075   1.907   3.624  15.494 -0.0563 -0.4156  0.9544
 2539SOL    HW119076   1.833   3.564  15.505  0.5773 -1.0237  1.9552
 2539SOL    HW219077   1.909   3.622  15.399  0.9394 -1.0842  0.9864
 2540SOL     OW19078   4.173   4.564   8.390  0.0490 -0.0445  0.0709
 2540SOL    HW119079   4.086   4.542   8.425  0.4484  0.3148  1.2986
 2540SOL    HW219080   4.208   4.476   8.398 -1.5384 -0.9123 -2.7400
 2541SOL     OW19081   0.054   1.638   5.625 -0.1446 -0.0469 -0.8070
 2541SOL    HW119082   0.069   1.602   5.538  0.5594 -1.7058 -0.0052
 2541SOL    HW219083   0.131   1.611   5.676 -1.7337 -0.1502  1.5724
 2542SOL     OW19084   4.005   3.220   4.111  0.2303  0.3506 -0.0486
 2542SOL    HW119085   3.959   3.136   4.115 -0.2521  0.6213  0.1429
 2542SOL    HW219086   4.058   3.215   4.032 -2.5876  1.1560 -1.9654
 2543SOL     OW19087   0.904   4.146   2.251  0.2123 -0.1962  0.1365
 2543SOL    HW119088   0.912   4.234   2.215  2.6465 -0.3599  0.2182
 2543SOL    HW219089   0.820   4.145   2.297  1.2735  0.9999  2.0968
 2544SOL     OW19090   3.304   2.822   4.796  1.1492  0.3129 -0.4020
 2544SOL    HW119091   3.252   2.869   4.861  0.3563  1.2466 -1.7210
 2544SOL    HW219092   3.376   2.793   4.852  1.5829  0.4943 -0.8637
 2545SOL     OW19093   3.924   1.288   3.316  0.2498  0.7179 -0.2353
 2545SOL    HW119094   3.947   1.197   3.336 -0.7457  1.0010  2.1075
 2545SOL    HW219095   4.011   1.329   3.317 -0.7350  2.7611 -0.2429
 2546SOL     OW19096   3.888   4.620   1.715  0.0747 -0.1915 -0.8690
 2546SOL    HW119097   3.961   4.585   1.766  0.6789  2.2962 -0.0706
 2546SOL    HW219098   3.843   4.540   1.687  3.1854 -2.1383 -0.3117
 2547SOL     OW19099   0.976   3.412   4.087 -0.0241 -0.2071  0.2443
 2547SOL    HW119100   0.923   3.341   4.123 -1.2608  0.1377 -0.8738
 2547SOL    HW219101   0.909   3.479   4.101 -1.6045 -1.5635 -0.9053
 2548SOL     OW19102   0.307   1.783   9.441  0.2374 -0.2193 -0.0891
 2548SOL    HW119103   0.260   1.843   9.498 -0.7759  0.4834 -1.6974
 2548SOL    HW219104   0.388   1.805   9.488  0.5351  0.9170 -1.1499
 2549SOL     OW19105   3.363   0.700   6.242  0.3275 -0.0219 -0.6202
 2549SOL    HW119106   3.439   0.708   6.185  0.9413 -1.0203  0.0496
 2549SOL    HW219107   3.388   0.626   6.298  0.5828  1.1209  0.7663
 2550SOL     OW19108   3.860   3.763  13.507 -0.1198  0.7812  0.2124
 2550SOL    HW119109   3.846   3.690  13.447 -0.8854  0.4322  0.8311
 2550SOL    HW219110   3.900   3.824  13.445 -1.1088  0.9227 -0.2718
 2551SOL     OW19111   0.043   1.126   6.578  0.2475 -0.2535 -0.1515
 2551SOL    HW119112   4.692   1.179   6.597 -1.4721 -3.0506  0.4778
 2551SOL    HW219113   0.009   1.038   6.594 -1.6285  0.8815  2.2428
 2552SOL     OW19114   4.396   3.165   6.826 -0.2963  0.3225 -0.0165
 2552SOL    HW119115   4.326   3.227   6.804  0.7031  0.9428 -1.4442
 2552SOL    HW219116   4.359   3.096   6.881  2.8714 -0.7730  0.7383
 2553SOL     OW19117   3.977   3.773  13.943  0.0675 -0.2776  0.3387
 2553SOL    HW119118   3.917   3.731  14.004 -1.2638 -0.7506 -1.3087
 2553SOL    HW219119   4.057   3.778  13.995  0.1216 -1.0328  0.3365
 2554SOL     OW19120   1.613   1.528   2.632 -0.0813 -0.3081 -0.1670
 2554SOL    HW119121   1.565   1.490   2.706 -0.4371 -0.7367 -0.6198
 2554SOL    HW219122   1.636   1.451   2.580 -1.8242 -1.6751  1.0879
 2555SOL     OW19123   1.167   3.751   4.683  0.0335  0.1209  0.4411
 2555SOL    HW119124   1.145   3.661   4.656 -1.4667  1.3844 -2.5368
 2555SOL    HW219125   1.165   3.747   4.779 -3.6086 -0.5702  0.3254
 2556SOL     OW19126   0.057   0.167  12.862  0.1902  0.3870 -0.7952
 2556SOL    HW119127   0.136   0.175  12.808 -0.1943 -0.3276 -1.4716
 2556SOL    HW219128   0.009   0.103  12.809 -1.3840  0.6376  0.3372
 2557SOL     OW19129   0.995   3.320   7.505 -0.1803  0.5787 -1.0116
 2557SOL    HW119130   0.970   3.251   7.567  2.4892  1.3441  0.9336
 2557SOL    HW219131   1.074   3.285   7.464  1.0124  1.2329  0.7086
 2558SOL     OW19132   4.055   2.737   2.854 -0.1491  0.1683 -0.1425
 2558SOL    HW119133   4.120   2.693   2.909  1.1874  1.7301 -0.4978
 2558SOL    HW219134   4.112   2.804   2.818 -1.4313  0.7485 -1.1047
 2559SOL     OW19135   0.499   0.397   1.658  0.1022 -0.5262 -0.4092
 2559SOL    HW119136   0.536   0.485   1.651 -0.3761 -0.1614  1.6277
 2559SOL    HW219137   0.405   0.417   1.653  0.0501 -0.5328  0.5699
 2560SOL     OW19138   2.374   3.821   5.057 -0.3889 -0.1106 -0.0057
 2560SOL    HW119139   2.347   3.912   5.066  0.4949 -0.0256  1.6919
 2560SOL    HW219140   2.288   3.780   5.066  0.1142 -1.6938 -2.2380
 2561SOL     OW19141   1.171   3.193   4.060  0.3596 -0.4134  0.6560
 2561SOL    HW119142   1.096   3.164   4.009  2.5438  0.8448 -3.2426
 2561SOL    HW219143   1.156   3.287   4.068  0.1201 -0.4836  1.0140
 2562SOL     OW19144   1.313   1.392  11.372 -0.0520  1.3446 -0.6121
 2562SOL    HW119145   1.332   1.482  11.348  0.1260  0.9735 -1.8780
 2562SOL    HW219146   1.235   1.379  11.319  0.6756 -0.0001 -1.3724
 2563SOL     OW19147   0.783   0.747   8.476  0.5033  0.2972 -0.0267
 2563SOL    HW119148   0.728   0.722   8.550 -0.4633  0.8515 -0.5415
 2563SOL    HW219149   0.712   0.742   8.411 -0.6283 -0.3264  1.2631
 2564SOL     OW19150   4.672   4.166   2.728 -0.1513  0.1630 -0.0788
 2564SOL    HW119151   4.710   4.159   2.815  1.4404  0.2370 -0.7429
 2564SOL    HW219152   4.704   4.253   2.702 -1.8848  0.6779 -0.4972
 2565SOL     OW19153   2.945   0.489  16.165 -0.1303 -0.8251  0.2723
 2565SOL    HW119154   2.866   0.535  16.192  0.7241 -0.4863  2.2257
 2565SOL    HW219155   2.912   0.467  16.078 -2.0147 -1.8005  1.2397
 2566SOL     OW19156   3.780   2.375   6.462  0.1191 -0.3685 -0.1052
 2566SOL    HW119157   3.784   2.333   6.376 -1.2723  0.4235 -0.5549
 2566SOL    HW219158   3.862   2.347   6.503 -0.0103 -0.3313  0.1765
 2567SOL     OW19159   0.311   0.523   4.736 -0.0461  0.2303  0.4755
 2567SOL    HW119160   0.333   0.496   4.647 -0.0088  0.7470  0.3325
 2567SOL    HW219161   0.319   0.618   4.735 -3.1060  0.4572 -1.3834
 2568SOL     OW19162   0.803   2.794  12.659  0.1321 -0.0095  0.4407
 2568SOL    HW119163   0.826   2.770  12.749 -1.5686  0.2034  0.9277
 2568SOL    HW219164   0.744   2.722  12.637  0.8357 -0.0137 -1.3687
 2569SOL     OW19165   0.350   0.775   7.542  0.4193 -0.1857  0.5447
 2569SOL    HW119166   0.297   0.834   7.594  2.3735 -0.2706  2.6224
 2569SOL    HW219167   0.327   0.693   7.587 -0.3687 -0.7691 -0.8987
 2570SOL     OW19168   3.641   4.215   7.260 -0.1874  0.0193 -0.1111
 2570SOL    HW119169   3.692   4.274   7.316 -3.0109  0.2994  2.1922
 2570SOL    HW219170   3.580   4.184   7.327  0.9539 -2.4648 -0.2267
 2571SOL     OW19171   3.208   3.127   7.112 -0.1961  1.0682 -0.3961
 2571SOL    HW119172   3.270   3.191   7.149  0.5361 -0.9950  1.9190
 2571SOL    HW219173   3.268   3.061   7.077 -2.9892 -0.6157 -2.0087
 2572SOL     OW19174   4.665   2.985  14.426  0.5727  0.0043 -0.1071
 2572SOL    HW119175   4.681   3.062  14.371  2.4945  1.0415  1.9396
 2572SOL    HW219176   4.569   2.985  14.428  0.5638 -1.1578 -0.6476
 2573SOL     OW19177   2.846   2.919   4.097 -0.1357  0.5529  0.1846
 2573SOL    HW119178   2.918   2.866   4.132  0.1998  1.0711  0.2847
 2573SOL    HW219179   2.797   2.933   4.178 -2.5078 -2.1454 -0.8111
 2574SOL     OW19180   3.110   0.513   9.069  0.0620 -0.1208 -0.1115
 2574SOL    HW119181   3.191   0.486   9.025 -0.3127  0.1579 -0.9778
 2574SOL    HW219182   3.061   0.532   8.989  0.1192  2.8144  0.5482
 2575SOL     OW19183   2.778   3.610  13.471 -0.3424 -0.0739  0.1216
 2575SOL    HW119184   2.752   3.581  13.558  1.4311  1.8422  1.2875
 2575SOL    HW219185   2.705   3.664  13.440  0.4279  0.4308 -0.8274
 2576SOL     OW19186   4.126   2.836  13.399 -0.3458  0.4150 -0.1781
 2576SOL    HW119187   4.179   2.873  13.329 -2.0216  0.0697 -1.6226
 2576SOL    HW219188   4.098   2.757  13.353  1.4776 -0.0645 -0.4621
 2577SOL     OW19189   2.321   2.384  16.133 -0.2047 -0.5349 -0.2378
 2577SOL    HW119190   2.397   2.355  16.183  0.6906  1.3360 -0.5184
 2577SOL    HW219191   2.247   2.352  16.184  0.7278 -0.8577  0.9052
 2578SOL     OW19192   3.671   3.415   5.722  0.7732 -0.4270  0.2038
 2578SOL    HW119193   3.653   3.432   5.815 -1.4879 -0.4322 -0.2463
 2578SOL    HW219194   3.596   3.356   5.714  0.8473 -0.6257  0.9830
 2579SOL     OW19195   1.143   1.006  17.641 -0.2373 -0.1878 -0.3471
 2579SOL    HW119196   1.078   1.076  17.645 -0.8806 -0.5304 -4.6932
 2579SOL    HW219197   1.105   0.941  17.581 -2.1001 -0.2589  0.9018
 2580SOL     OW19198   3.262   3.037   0.111 -0.5719  0.6845 -0.1964
 2580SOL    HW119199   3.266   3.051   0.205  2.5164  0.4052 -0.2854
 2580SOL    HW219200   3.352   3.006   0.097 -0.8807 -0.6260  0.7727
 2581SOL     OW19201   2.840   0.535   9.512  0.2522  0.2974  0.8042
 2581SOL    HW119202   2.776   0.585   9.461 -1.8721  0.1652  3.3662
 2581SOL    HW219203   2.890   0.506   9.436  0.0956  0.7877  0.5111
 2582SOL     OW19204   2.376   0.147   3.645 -0.4475  0.0815 -0.9074
 2582SOL    HW119205   2.457   0.175   3.602  0.3088 -2.5754 -1.2052
 2582SOL    HW219206   2.312   0.207   3.607 -0.5103  0.9236  0.5182
 2583SOL     OW19207   0.020   0.578   2.398  0.8437  0.6703  0.3540
 2583SOL    HW119208   0.086   0.557   2.332  0.2008 -0.4501  0.0572
 2583SOL    HW219209   4.668   0.580   2.345  0.1834 -0.0160  1.3002
 2584SOL     OW19210   2.769   4.239   1.047  0.1795 -0.6854 -0.0834
 2584SOL    HW119211   2.753   4.179   0.974  2.6637 -2.2391  0.6643
 2584SOL    HW219212   2.796   4.316   0.995  1.2744 -0.7269  0.4426
 2585SOL     OW19213   1.889   4.480   3.592  0.1507  0.6132 -0.4320
 2585SOL    HW119214   1.899   4.573   3.609  1.0700  0.3878  0.2886
 2585SOL    HW219215   1.933   4.458   3.509  0.3622 -0.1912 -0.1088
 2586SOL     OW19216   1.925   2.846   1.532  0.6306  0.0734 -0.2163
 2586SOL    HW119217   1.928   2.941   1.541  1.9352  0.1378 -1.3261
 2586SOL    HW219218   1.944   2.828   1.624 -1.0539 -0.6881 -0.0242
 2587SOL     OW19219   1.328   0.323   4.448 -0.7000  0.0157 -0.4581
 2587SOL    HW119220   1.271   0.326   4.524  0.2147  1.1862  0.1750
 2587SOL    HW219221   1.351   0.416   4.452  1.4586 -0.6419  2.1724
 2588SOL     OW19222   2.796   3.144   2.106 -0.0402 -0.2415 -0.1339
 2588SOL    HW119223   2.825   3.082   2.173 -0.6519 -1.6559 -1.1775
 2588SOL    HW219224   2.719   3.104   2.065  0.1847 -1.3433  0.4939
 2589SOL     OW19225   3.030   0.274   4.050  0.3201  0.0235 -0.7272
 2589SOL    HW119226   3.014   0.364   4.022 -2.0014 -0.6918 -1.7373
 2589SOL    HW219227   3.084   0.238   3.979 -1.0053 -0.7797 -1.3376
 2590SOL     OW19228   4.216   4.700   5.526 -0.2017 -0.0191 -0.5494
 2590SOL    HW119229   4.247   4.685   5.437 -1.8695 -0.8754 -0.9802
 2590SOL    HW219230   4.143   0.026   5.493  0.1523  0.6576 -0.2396
 2591SOL     OW19231   4.151   4.055   4.276  0.0767 -0.5881 -0.1038
 2591SOL    HW119232   4.121   4.092   4.359 -1.2798 -0.7790 -0.5194
 2591SOL    HW219233   4.074   4.009   4.243 -0.4320  0.9681 -1.0844
 2592SOL     OW19234   0.421   0.909   4.141  0.2589 -0.2196  0.4286
 2592SOL    HW119235   0.334   0.949   4.137  1.1398  1.5875 -0.3848
 2592SOL    HW219236   0.413   0.853   4.064  1.7599  0.4099 -0.1897
 2593SOL     OW19237   3.922   0.125   4.016 -0.3728  0.1419  0.0072
 2593SOL    HW119238   3.919   0.212   3.978 -1.6233 -0.4544 -1.2591
 2593SOL    HW219239   3.958   0.086   3.936  2.0759  0.3514  1.0079
 2594SOL     OW19240   4.419   2.765   9.429 -0.2605  0.4589  0.6940
 2594SOL    HW119241   4.471   2.844   9.416  2.6868 -1.7622 -0.8842
 2594SOL    HW219242   4.453   2.744   9.516 -0.9424  1.8290  1.2959
 2595SOL     OW19243   0.388   3.372   7.609  0.4062  0.6038  0.4403
 2595SOL    HW119244   0.412   3.456   7.648 -0.6032  0.4442  1.4259
 2595SOL    HW219245   0.346   3.397   7.527  0.3827  0.1565  0.3175
 2596SOL     OW19246   2.724   3.547  15.248  0.5620 -0.0981  0.5379
 2596SOL    HW119247   2.650   3.607  15.257 -0.2342 -0.5091 -3.1633
 2596SOL    HW219248   2.766   3.592  15.174 -0.8530 -0.9136 -0.7698
 2597SOL     OW19249   2.433   2.627   2.476  0.1976 -0.6955 -0.3670
 2597SOL    HW119250   2.377   2.686   2.427  2.7645  1.1884 -1.0320
 2597SOL    HW219251   2.443   2.557   2.411 -1.0522 -0.2238 -1.0539
 2598SOL     OW19252   0.277   2.177   1.493  0.5319 -0.0695 -0.0701
 2598SOL    HW119253   0.360   2.221   1.507  0.1250 -0.0913  2.3603
 2598SOL    HW219254   0.285   2.101   1.551  0.0182  0.2078  0.3626
 2599SOL     OW19255   1.919   3.031  15.456 -0.2518 -0.4251 -0.7797
 2599SOL    HW119256   1.932   2.962  15.391  1.0808  0.1922 -1.1589
 2599SOL    HW219257   1.834   3.066  15.429 -0.7042  1.6872  3.4844
 2600SOL     OW19258   3.952   3.539  12.276 -0.1302  0.0301  0.0705
 2600SOL    HW119259   3.880   3.555  12.215 -1.9015 -3.5698  1.2235
 2600SOL    HW219260   3.931   3.447  12.289  0.6719 -0.0078  1.1096
 2601SOL     OW19261   2.830   1.607   2.231  0.4177  0.2434 -0.8039
 2601SOL    HW119262   2.885   1.671   2.186  1.0000 -0.1401 -0.6401
 2601SOL    HW219263   2.890   1.532   2.234 -0.2745 -0.2526  0.2576
 2602SOL     OW19264   3.460   2.553   7.516  0.0041  0.5338 -0.5667
 2602SOL    HW119265   3.493   2.643   7.513  2.4759 -0.4597 -2.1702
 2602SOL    HW219266   3.410   2.556   7.598  0.6286  1.4355 -0.2190
 2603SOL     OW19267   2.017   0.642  17.138 -0.1361  0.1332  0.6383
 2603SOL    HW119268   1.933   0.635  17.094  1.2648 -1.1078 -1.8320
 2603SOL    HW219269   2.046   0.551  17.148  0.1319  0.4489  2.8442
 2604SOL     OW19270   3.197   1.250   8.286 -0.1460  0.1360  0.3369
 2604SOL    HW119271   3.118   1.294   8.317  0.0368 -0.6872  1.9822
 2604SOL    HW219272   3.172   1.200   8.208  3.5580 -1.8546  0.4110
 2605SOL     OW19273   2.294   1.329   6.410  0.0282 -0.2321 -0.2268
 2605SOL    HW119274   2.307   1.301   6.319  0.4432  3.6178 -1.3946
 2605SOL    HW219275   2.328   1.419   6.410  1.9258 -0.9406  1.5751
 2606SOL     OW19276   4.246   4.460   2.301 -0.2943 -0.5369  0.0194
 2606SOL    HW119277   4.180   4.466   2.370 -1.8667 -1.8932 -1.3717
 2606SOL    HW219278   4.280   4.549   2.296 -0.2478 -0.3861  3.1129
 2607SOL     OW19279   0.339   0.799   8.230 -0.7342 -0.1420 -0.3126
 2607SOL    HW119280   0.402   0.838   8.170  0.0067 -1.7215 -0.5613
 2607SOL    HW219281   0.260   0.826   8.183 -0.3583 -0.5948 -1.1987
 2608SOL     OW19282   1.014   0.736   7.547 -0.4312  0.0976  0.0544
 2608SOL    HW119283   1.055   0.734   7.634  0.6375 -0.4338 -0.4630
 2608SOL    HW219284   0.987   0.646   7.526  2.6609 -0.7621 -0.2399
 2609SOL     OW19285   3.306   1.860   0.145 -0.4151 -0.4879 -1.0437
 2609SOL    HW119286   3.257   1.939   0.168 -0.2955 -0.3908 -1.1272
 2609SOL    HW219287   3.304   1.809   0.226 -1.7188  0.1055 -0.6973
 2610SOL     OW19288   1.588   4.034   7.941  0.0395  0.0295 -0.0491
 2610SOL    HW119289   1.562   4.125   7.926  3.0322  0.5986 -1.6928
 2610SOL    HW219290   1.677   4.051   7.972 -0.4253 -0.6585  1.6767
 2611SOL     OW19291   0.829   4.216  13.767 -0.4057  0.3194 -0.3712
 2611SOL    HW119292   0.735   4.204  13.783 -0.4987  0.9120 -0.4571
 2611SOL    HW219293   0.849   4.285  13.830  2.2092  1.3573 -2.3498
 2612SOL     OW19294   2.211   4.158   7.188 -0.0286  0.2983  0.1795
 2612SOL    HW119295   2.168   4.238   7.159 -1.6049 -0.0858  1.4714
 2612SOL    HW219296   2.257   4.192   7.265  0.0458  1.9100 -0.5788
 2613SOL     OW19297   0.569   2.612   3.691  0.3782 -0.5774 -0.4435
 2613SOL    HW119298   0.585   2.518   3.685 -2.8641 -1.1824  0.2898
 2613SOL    HW219299   0.477   2.621   3.667  0.1533 -0.6673  0.3761
 2614SOL     OW19300   2.026   3.265   4.486  0.1626 -0.5346 -0.8364
 2614SOL    HW119301   2.017   3.330   4.416 -0.1163 -2.3502 -2.4573
 2614SOL    HW219302   1.935   3.236   4.489 -0.4813  1.3036 -2.4849
 2615SOL     OW19303   1.038   1.828   1.303 -0.3934  0.2805 -0.4394
 2615SOL    HW119304   1.010   1.746   1.264 -1.5351  0.9968 -1.1342
 2615SOL    HW219305   0.981   1.835   1.379 -1.2034  3.2364 -1.3049
 2616SOL     OW19306   4.297   4.031   5.251  0.3409  0.4663 -0.1766
 2616SOL    HW119307   4.288   3.961   5.187 -0.9556  0.1377  0.3657
 2616SOL    HW219308   4.357   3.996   5.317  0.7887  0.8204 -0.3931
 2617SOL     OW19309   1.595   4.575  16.836  0.5659  0.1129  0.2308
 2617SOL    HW119310   1.567   4.585  16.927  0.9047 -0.7254  0.4209
 2617SOL    HW219311   1.528   4.515  16.802  1.2553 -1.5181  1.7622
 2618SOL     OW19312   0.976   4.544   9.123  0.9089 -0.0114  0.0329
 2618SOL    HW119313   1.071   4.547   9.117  0.9326 -0.1056  0.4097
 2618SOL    HW219314   0.962   4.520   9.031  0.5555  1.0781 -0.2006
 2619SOL     OW19315   1.353   2.831  14.757  0.1805 -0.0133  0.1616
 2619SOL    HW119316   1.378   2.918  14.726 -0.3486  0.2222  0.4101
 2619SOL    HW219317   1.365   2.847  14.850 -2.1039 -2.1110  0.8032
 2620SOL     OW19318   0.105   2.704   7.640 -0.3652 -0.5359 -0.4097
 2620SOL    HW119319   0.047   2.776   7.665  0.3982 -0.6146  1.6308
 2620SOL    HW219320   0.182   2.755   7.616 -0.5935  0.0382  0.0918
 2621SOL     OW19321   4.052   0.896  12.241 -0.0611 -0.2148 -0.2990
 2621SOL    HW119322   4.083   0.881  12.151 -1.3462 -2.8055 -0.3302
 2621SOL    HW219323   3.967   0.935  12.220 -0.2901 -0.9848 -0.8172
 2622SOL     OW19324   2.415   1.994   5.676 -0.2371 -0.0909  0.2155
 2622SOL    HW119325   2.366   2.015   5.755  0.9286  1.7008  0.4498
 2622SOL    HW219326   2.435   1.908   5.712 -2.8675  1.0209  4.3753
 2623SOL     OW19327   4.495   1.639   2.785  0.0752 -0.3305 -0.2227
 2623SOL    HW119328   4.552   1.710   2.756 -0.0461 -0.5995 -1.1007
 2623SOL    HW219329   4.430   1.698   2.822  0.8563  0.4886 -0.1608
 2624SOL     OW19330   2.854   3.698   2.832 -0.1378  0.1612 -0.1352
 2624SOL    HW119331   2.895   3.719   2.748 -0.3854 -1.6058 -0.7011
 2624SOL    HW219332   2.923   3.711   2.897 -1.8155 -0.2171  1.7051
 2625SOL     OW19333   0.201   1.931  11.955  0.1991  0.3747  0.0171
 2625SOL    HW119334   0.185   1.850  11.906  1.1348 -0.6530  1.4041
 2625SOL    HW219335   0.120   1.941  12.005 -0.1913  3.2487 -1.1937
 2626SOL     OW19336   0.059   3.278   0.442 -0.2993 -0.1446 -0.1351
 2626SOL    HW119337   0.042   3.372   0.444 -1.2969 -0.3174 -0.6383
 2626SOL    HW219338   0.110   3.279   0.523 -0.6567 -1.3286  0.0979
 2627SOL     OW19339   3.370   0.691   2.385 -0.0521 -0.3929 -0.6746
 2627SOL    HW119340   3.444   0.632   2.369 -0.5091 -1.6154  1.6189
 2627SOL    HW219341   3.416   0.773   2.366 -1.2213  0.4776  0.2859
 2628SOL     OW19342   3.550   1.548   8.284  0.0241  0.2479 -0.5559
 2628SOL    HW119343   3.556   1.453   8.287  3.1113  0.5177  1.3078
 2628SOL    HW219344   3.545   1.567   8.190 -1.9964 -1.9230 -0.8832
 2629SOL     OW19345   4.312   1.831   4.750 -0.9391  0.8039  0.2220
 2629SOL    HW119346   4.352   1.794   4.671 -1.1715  0.6318  0.1833
 2629SOL    HW219347   4.257   1.896   4.706 -0.3817  0.5325 -0.8678
 2630SOL     OW19348   1.923   3.409   0.815 -0.0463 -0.1292  0.2865
 2630SOL    HW119349   1.969   3.492   0.820 -2.9185  1.2691  3.2182
 2630SOL    HW219350   1.845   3.440   0.768  0.4939 -0.3094 -0.7406
 2631SOL     OW19351   4.207   1.346   8.163 -0.3060 -0.3646 -0.0122
 2631SOL    HW119352   4.246   1.288   8.097 -0.3908  2.0360 -2.1918
 2631SOL    HW219353   4.233   1.433   8.132  2.6677 -1.2665 -0.0900
 2632SOL     OW19354   1.446   0.108   6.563 -0.2850 -0.4485 -0.5340
 2632SOL    HW119355   1.445   0.161   6.483  0.3005  1.2792  0.5983
 2632SOL    HW219356   1.497   0.030   6.541  1.5016  0.5900 -0.0294
 2633SOL     OW19357   1.177   4.230   2.238 -0.3480  0.2744  0.2927
 2633SOL    HW119358   1.269   4.206   2.231 -0.3195  0.2597  0.7042
 2633SOL    HW219359   1.166   4.303   2.176  1.1974  1.4198  1.3802
 2634SOL     OW19360   4.018   3.794  17.494 -0.0634  0.5330 -0.3678
 2634SOL    HW119361   3.996   3.722  17.553 -1.3652 -0.2219 -1.8078
 2634SOL    HW219362   4.035   3.743  17.415 -1.9498  0.6341 -0.8372
 2635SOL     OW19363   2.219   0.903   4.182  0.0966  0.1338  0.5536
 2635SOL    HW119364   2.267   0.937   4.107  1.4820  2.0236  2.2899
 2635SOL    HW219365   2.296   0.888   4.237  0.9527  0.7734 -0.4712
 2636SOL     OW19366   3.989   3.864   3.902 -0.3677  0.6737 -0.0648
 2636SOL    HW119367   3.954   3.900   3.984  1.2895  0.5652  0.6938
 2636SOL    HW219368   4.006   3.773   3.926 -0.3671 -0.0485 -2.8155
 2637SOL     OW19369   3.558   1.642   5.977 -0.6368  0.0486 -0.0902
 2637SOL    HW119370   3.575   1.629   5.884  1.4967  2.9058 -0.0901
 2637SOL    HW219371   3.598   1.566   6.020  0.3022  0.5974 -0.0039
 2638SOL     OW19372   1.663   3.698   5.671  0.1724 -0.3253  0.2253
 2638SOL    HW119373   1.679   3.765   5.604  3.0810 -1.8418 -0.6002
 2638SOL    HW219374   1.572   3.682   5.646  0.1331  1.6727 -0.9207
 2639SOL     OW19375   3.825   1.634  13.845  0.1074 -0.5438  0.2083
 2639SOL    HW119376   3.827   1.710  13.787 -0.0993 -0.3843  0.4152
 2639SOL    HW219377   3.830   1.673  13.932 -0.9667  1.3103 -0.5586
 2640SOL     OW19378   2.879   0.698   9.250  0.0494  0.4198 -0.1213
 2640SOL    HW119379   2.883   0.603   9.266 -0.3732  0.6590  1.4157
 2640SOL    HW219380   2.962   0.717   9.208  0.6610 -1.4414  0.2381
 2641SOL     OW19381   3.601   0.281   4.413 -0.3843 -0.0567  1.0036
 2641SOL    HW119382   3.523   0.323   4.379  0.4023 -1.0552 -2.0831
 2641SOL    HW219383   3.581   0.197   4.454 -1.7084 -0.2050  0.0375
 2642SOL     OW19384   2.418   3.953   9.444  0.3026  0.0274  0.5443
 2642SOL    HW119385   2.420   4.037   9.399  1.2260 -0.8014 -0.9686
 2642SOL    HW219386   2.507   3.956   9.480  0.9619 -0.5652 -1.0440
 2643SOL     OW19387   3.413   4.140   3.609  0.1118 -0.1580 -0.3251
 2643SOL    HW119388   3.486   4.083   3.634 -0.3525 -0.7260 -0.2420
 2643SOL    HW219389   3.380   4.170   3.694  3.4221 -0.4927  1.0561
 2644SOL     OW19390   2.400   0.927   6.840 -0.1344 -0.5918 -0.1138
 2644SOL    HW119391   2.454   0.978   6.780  0.7940 -0.3814  0.9001
 2644SOL    HW219392   2.361   0.856   6.789 -1.7877  0.8218 -0.8121
 2645SOL     OW19393   1.911   0.334   4.998 -0.1363 -0.3470 -0.0564
 2645SOL    HW119394   1.996   0.328   5.043 -0.1879 -0.8557 -0.0245
 2645SOL    HW219395   1.889   0.426   5.007  0.8204 -0.1305  0.1383
 2646SOL     OW19396   3.682   0.605   1.161  0.2146  0.2856  0.4120
 2646SOL    HW119397   3.654   0.625   1.251  1.3340  0.2173  0.7788
 2646SOL    HW219398   3.732   0.524   1.175 -0.4977 -0.1020  0.7325
 2647SOL     OW19399   1.034   2.233   4.766 -0.0085 -0.4014  0.1334
 2647SOL    HW119400   0.961   2.283   4.803 -0.0406 -1.6086  1.7068
 2647SOL    HW219401   1.071   2.300   4.709 -0.1072 -0.3686  0.1079
 2648SOL     OW19402   2.630   3.992   5.368  0.2675 -0.0394  0.0306
 2648SOL    HW119403   2.653   3.906   5.333  0.8983  0.2986 -0.3925
 2648SOL    HW219404   2.544   3.984   5.410  0.7236 -1.7179  0.6427
 2649SOL     OW19405   4.546   1.497  12.247 -0.1302 -0.1405  0.3877
 2649SOL    HW119406   4.619   1.484  12.186 -1.3137  2.0973 -1.4991
 2649SOL    HW219407   4.594   1.543  12.316  0.4671  0.6363 -0.5373
 2650SOL     OW19408   3.561   2.878  12.980  0.0775 -0.2985  0.2197
 2650SOL    HW119409   3.648   2.851  12.952  0.5567  2.0145 -0.5019
 2650SOL    HW219410   3.547   2.815  13.051  0.0598 -0.2863  0.2271
 2651SOL     OW19411   3.913   1.866   4.633  0.1027  0.0065  0.0990
 2651SOL    HW119412   3.874   1.801   4.574  0.6846 -1.3751  1.2299
 2651SOL    HW219413   3.918   1.950   4.587 -0.2005  0.2648  0.5442
 2652SOL     OW19414   4.554   0.905   2.218 -0.0934 -0.0163  0.6893
 2652SOL    HW119415   4.624   0.905   2.154 -1.4276 -0.2151 -0.7689
 2652SOL    HW219416   4.545   0.812   2.239 -0.4331 -0.1776 -0.1557
 2653SOL     OW19417   3.719   3.380   7.128  0.0251 -0.6399 -0.3576
 2653SOL    HW119418   3.812   3.386   7.148  0.0356  2.4546 -1.2273
 2653SOL    HW219419   3.670   3.379   7.210  1.4097 -1.0333  0.4576
 2654SOL     OW19420   4.219   0.239   2.356 -0.7549  0.5558  0.7953
 2654SOL    HW119421   4.218   0.241   2.260 -0.5644 -0.7869  0.7739
 2654SOL    HW219422   4.133   0.280   2.361 -0.3388  1.8794 -2.5646
 2655SOL     OW19423   1.568   1.104  16.373 -1.2140  0.4360 -0.2343
 2655SOL    HW119424   1.574   1.193  16.408 -1.9188  0.4875 -0.2402
 2655SOL    HW219425   1.623   1.054  16.433 -2.1183  0.8178  0.9156
 2656SOL     OW19426   3.165   2.650   6.580 -0.2670 -0.4597 -0.0400
 2656SOL    HW119427   3.235   2.632   6.518  1.1945 -0.7947  1.6881
 2656SOL    HW219428   3.088   2.617   6.536 -1.0825  0.5092  0.6468
 2657SOL     OW19429   1.147   1.086   4.522  0.1237 -0.3058 -0.3735
 2657SOL    HW119430   1.070   1.143   4.516 -0.1639 -0.3998  2.3769
 2657SOL    HW219431   1.183   1.126   4.601 -1.7048 -0.1576  0.3870
 2658SOL     OW19432   0.184   0.563   5.203  0.0205  0.7449  0.0585
 2658SOL    HW119433   0.090   0.551   5.209 -0.0609  0.8140 -1.0544
 2658SOL    HW219434   0.196   0.649   5.162 -0.7172  1.7724  2.0064
 2659SOL     OW19435   0.384   0.153   8.667 -0.0652 -0.1077 -0.5073
 2659SOL    HW119436   0.476   0.165   8.645  0.0641 -0.1881 -0.0304
 2659SOL    HW219437   0.355   0.243   8.677 -1.6967 -0.6814 -0.1165
 2660SOL     OW19438   0.367   2.149   9.384 -0.1063  0.0513  0.0066
 2660SOL    HW119439   0.428   2.101   9.440 -1.2610 -2.0379 -0.4894
 2660SOL    HW219440   0.280   2.143   9.425 -0.6586  3.2443 -0.7304
 2661SOL     OW19441   2.121   4.108   7.548 -0.2959 -0.3645 -0.0167
 2661SOL    HW119442   2.167   4.089   7.629 -0.4529  0.2113  0.2045
 2661SOL    HW219443   2.168   4.055   7.483 -0.3945 -0.2137 -0.2091
 2662SOL     OW19444   3.064   4.115   3.646  0.0318 -0.1696  0.1277
 2662SOL    HW119445   3.098   4.064   3.720  1.1208  1.5729  0.8286
 2662SOL    HW219446   3.039   4.056   3.575  1.2575 -1.5380  0.8448
 2663SOL     OW19447   3.994   2.778   7.805 -0.6465 -0.4522 -0.2718
 2663SOL    HW119448   4.059   2.803   7.740 -0.5805  3.6444  1.3507
 2663SOL    HW219449   3.928   2.746   7.744  0.6688  0.4912 -2.1852
 2664SOL     OW19450   1.878   1.754  12.264 -0.0726  0.1933  0.3594
 2664SOL    HW119451   1.960   1.719  12.229 -1.4878 -2.3638 -0.4256
 2664SOL    HW219452   1.902   1.786  12.351  0.9372 -2.3908  1.0312
 2665SOL     OW19453   0.935   1.322  10.286 -0.2872 -0.9797  0.2821
 2665SOL    HW119454   0.937   1.228  10.268 -0.2122 -0.5785 -1.8077
 2665SOL    HW219455   0.902   1.358  10.203 -1.0397  1.0569  1.4492
 2666SOL     OW19456   2.427   1.204   3.300  0.1693  0.1757 -0.1639
 2666SOL    HW119457   2.391   1.159   3.224  0.8866  2.5178 -1.8767
 2666SOL    HW219458   2.430   1.133   3.365 -0.0983  0.6901  0.4155
 2667SOL     OW19459   4.685   2.208  14.607 -0.9147  0.7029 -0.1629
 2667SOL    HW119460   4.629   2.154  14.663  1.3386  0.2791  1.6710
 2667SOL    HW219461   4.675   2.170  14.520  3.9331  1.8802 -1.2388
 2668SOL     OW19462   0.321   4.541  15.812  0.0447  0.3184 -0.0899
 2668SOL    HW119463   0.346   4.510  15.725 -0.4799  1.3625 -0.6112
 2668SOL    HW219464   0.348   4.469  15.868 -2.0226  0.5107  1.1683
 2669SOL     OW19465   4.058   4.621  12.721 -0.4267  0.0178  0.0648
 2669SOL    HW119466   3.985   4.674  12.691  0.4466  1.3376  0.2690
 2669SOL    HW219467   4.097   4.673  12.792 -2.6760 -0.1153  1.4077
 2670SOL     OW19468   2.355   3.615   2.500  0.3902  0.3598  0.0705
 2670SOL    HW119469   2.421   3.608   2.431  2.4828  3.9358  1.7103
 2670SOL    HW219470   2.360   3.704   2.534 -1.8575  0.2396  0.7271
 2671SOL     OW19471   3.345   2.210  13.705 -0.6439  0.5014 -0.0790
 2671SOL    HW119472   3.293   2.290  13.714  0.6120  1.2787  0.1381
 2671SOL    HW219473   3.351   2.200  13.610  1.2504  0.7079  0.0201
 2672SOL     OW19474   1.658   4.298  12.073  0.5334 -0.3689 -0.0151
 2672SOL    HW119475   1.686   4.296  11.982 -0.5641 -2.2189 -0.3219
 2672SOL    HW219476   1.684   4.387  12.096  2.8368 -1.0201 -0.0984
 2673SOL     OW19477   2.574   3.288   4.492  0.3306 -0.1410 -0.2770
 2673SOL    HW119478   2.567   3.230   4.567  1.3853 -1.9346 -1.5686
 2673SOL    HW219479   2.484   3.319   4.487  0.3343 -0.0481  0.2927
 2674SOL     OW19480   3.171   2.636   5.218  0.4456 -0.2809 -0.0043
 2674SOL    HW119481   3.165   2.682   5.302 -0.9882 -1.7156  0.6805
 2674SOL    HW219482   3.119   2.556   5.222 -0.5871  0.3627 -0.6023
 2675SOL     OW19483   0.002   3.364   3.720 -0.2750  0.1345 -0.2002
 2675SOL    HW119484   4.726   3.403   3.633  0.1438  0.8952  0.1158
 2675SOL    HW219485   0.086   3.401   3.749 -1.3481  3.0137 -0.7308
 2676SOL     OW19486   3.724   0.113   7.473  0.7397  0.0383 -0.5908
 2676SOL    HW119487   3.667   0.181   7.439 -0.0519  0.4524  1.5277
 2676SOL    HW219488   3.697   0.044   7.413  1.0771 -1.0124  0.4618
 2677SOL     OW19489   3.306   2.971   5.671  0.1289 -0.5122  0.3138
 2677SOL    HW119490   3.235   2.927   5.717 -1.5797  1.7182 -0.2209
 2677SOL    HW219491   3.383   2.932   5.713  1.0847 -0.2176 -1.1885
 2678SOL     OW19492   3.768   0.015  10.741  0.5017 -0.3490  0.4886
 2678SOL    HW119493   3.728   0.009  10.828 -0.7640  1.3599  0.0313
 2678SOL    HW219494   3.852   4.698  10.751  0.0494 -0.9100  1.7653
 2679SOL     OW19495   3.859   2.379  17.056  0.1500 -0.0904 -0.5219
 2679SOL    HW119496   3.889   2.361  16.967  0.2574 -1.3024 -0.2412
 2679SOL    HW219497   3.911   2.459  17.067 -0.8268  0.6247 -1.1300
 2680SOL     OW19498   3.422   3.425  11.572  0.0345  0.1169 -0.0842
 2680SOL    HW119499   3.443   3.480  11.648  2.6971  1.5944 -1.8939
 2680SOL    HW219500   3.411   3.337  11.608  0.4133 -0.0529 -0.3857
 2681SOL     OW19501   1.671   2.444   4.692  0.1082  0.0038 -0.1021
 2681SOL    HW119502   1.709   2.488   4.768  0.8970  0.4307 -0.7456
 2681SOL    HW219503   1.748   2.434   4.637  1.0093 -0.5069  1.2570
 2682SOL     OW19504   1.532   2.599   2.973  0.5550 -0.6684 -0.2271
 2682SOL    HW119505   1.556   2.532   2.910  1.6106  0.5028 -1.0658
 2682SOL    HW219506   1.465   2.558   3.028  0.7365 -0.6553  0.0081
 2683SOL     OW19507   3.505   2.776  14.982  0.0272  0.5286  0.0050
 2683SOL    HW119508   3.462   2.768  15.068 -0.7702  0.8624 -0.3636
 2683SOL    HW219509   3.429   2.771  14.925  0.3457  0.5239 -0.4164
 2684SOL     OW19510   1.373   1.278  12.106 -0.2350 -0.2842  0.3627
 2684SOL    HW119511   1.431   1.292  12.032  0.1610 -0.0220  0.7211
 2684SOL    HW219512   1.380   1.358  12.159  0.0344 -0.4512  0.5835
 2685SOL     OW19513   4.258   1.636   0.087 -0.4090  0.0579 -0.4854
 2685SOL    HW119514   4.241   1.574   0.016 -0.9916 -0.7385  0.3453
 2685SOL    HW219515   4.219   1.716   0.052  1.7569  0.6788 -1.4724
 2686SOL     OW19516   0.621   3.853   2.775 -0.5390  0.3438  0.2133
 2686SOL    HW119517   0.563   3.838   2.701  0.2928 -0.9955 -0.1800
 2686SOL    HW219518   0.603   3.774   2.827  2.1778 -0.8884 -0.7267
 2687SOL     OW19519   2.290   3.579   8.988  0.5930 -0.4717  0.0759
 2687SOL    HW119520   2.325   3.490   8.986 -1.8508 -1.4129  0.4204
 2687SOL    HW219521   2.197   3.560   8.983  0.7589 -1.0839 -0.7912
 2688SOL     OW19522   2.584   4.481   5.729 -0.0976 -0.3047 -0.1935
 2688SOL    HW119523   2.518   4.453   5.792  0.3768 -0.7725  0.0846
 2688SOL    HW219524   2.537   4.543   5.672 -0.4683 -1.4114 -1.1123
 2689SOL     OW19525   1.774   3.677  11.063 -0.5235 -0.2741  0.3943
 2689SOL    HW119526   1.758   3.650  11.154  0.1239 -1.7722  0.0625
 2689SOL    HW219527   1.785   3.594  11.017 -0.7998  0.2314 -0.5861
 2690SOL     OW19528   3.640   2.201   5.119  0.3550  0.1049  0.1272
 2690SOL    HW119529   3.674   2.115   5.146  1.1851  0.4267  0.1182
 2690SOL    HW219530   3.682   2.214   5.033 -1.8391 -2.2841 -1.3092
 2691SOL     OW19531   2.548   3.245   4.199 -0.0667  0.0735 -0.0689
 2691SOL    HW119532   2.452   3.245   4.190  0.0041  0.5194 -0.7626
 2691SOL    HW219533   2.551   3.236   4.295  2.3712  1.4202 -0.0222
 2692SOL     OW19534   0.787   4.675   7.264 -0.0300  0.1654  0.0213
 2692SOL    HW119535   0.823   4.603   7.315 -0.5658 -0.6381 -0.7210
 2692SOL    HW219536   0.837   0.017   7.308 -0.3349  1.7374 -2.0837
 2693SOL     OW19537   1.622   1.893   2.161 -0.0054  0.6703  0.2166
 2693SOL    HW119538   1.672   1.958   2.112  0.3283 -0.4932 -0.9960
 2693SOL    HW219539   1.607   1.820   2.101 -0.8490  0.0347  1.2070
 2694SOL     OW19540   0.684   0.402   1.104  0.1181  0.1106 -0.6982
 2694SOL    HW119541   0.730   0.320   1.087 -0.0780 -0.0772 -0.3232
 2694SOL    HW219542   0.740   0.440   1.173  0.6460 -2.4665  0.2757
 2695SOL     OW19543   0.399   1.068   6.460  0.3133 -0.1127 -0.3795
 2695SOL    HW119544   0.367   1.002   6.399 -2.2547  0.0910  0.7701
 2695SOL    HW219545   0.337   1.140   6.463 -2.5808 -2.5520 -1.7801
 2696SOL     OW19546   3.445   3.460   3.024  0.0339 -0.2891  0.1940
 2696SOL    HW119547   3.378   3.407   2.980  1.1861 -0.7967 -0.9623
 2696SOL    HW219548   3.388   3.485   3.097  1.0302 -0.3298  0.9735
 2697SOL     OW19549   4.223   1.008  14.899  0.2023  0.1867  0.4212
 2697SOL    HW119550   4.128   1.001  14.887 -0.1460 -0.0391  3.3789
 2697SOL    HW219551   4.245   1.095  14.866  0.0655  0.7458  1.8233
 2698SOL     OW19552   1.907   1.712   2.240 -0.4965  0.4056 -0.1638
 2698SOL    HW119553   1.841   1.762   2.192 -0.3383 -0.5068 -1.3503
 2698SOL    HW219554   1.859   1.658   2.303 -1.7116  0.2767 -1.1885
 2699SOL     OW19555   2.764   2.813   7.854 -0.4816 -0.1800 -0.4276
 2699SOL    HW119556   2.803   2.726   7.842  2.5346  1.0879  0.1656
 2699SOL    HW219557   2.680   2.818   7.807 -1.4925  1.2537  1.5226
 2700SOL     OW19558   2.735   0.859   3.943 -0.3805 -0.3835  0.4551
 2700SOL    HW119559   2.776   0.852   4.029  1.1607 -2.3470 -0.4544
 2700SOL    HW219560   2.642   0.838   3.948  0.0023 -2.2418 -0.2599
 2701SOL     OW19561   0.905   0.502   1.274  0.5875 -1.0232  0.1164
 2701SOL    HW119562   0.997   0.518   1.253  0.7929  0.4250  2.1770
 2701SOL    HW219563   0.858   0.584   1.259  0.6764 -0.4224  3.1141
 2702SOL     OW19564   3.309   0.474  10.423 -0.5193 -0.0804  0.3389
 2702SOL    HW119565   3.346   0.551  10.380  1.1912 -0.9854  0.1819
 2702SOL    HW219566   3.382   0.429  10.466  0.4256  0.8223 -0.3195
 2703SOL     OW19567   2.175   4.390   1.368  0.2670  0.3176 -0.3389
 2703SOL    HW119568   2.146   4.299   1.361  0.3209  0.3952 -1.5235
 2703SOL    HW219569   2.265   4.372   1.341 -1.1143 -2.3078 -3.1057
 2704SOL     OW19570   1.569   2.744   8.657  0.0210 -0.2210  0.1589
 2704SOL    HW119571   1.587   2.652   8.640  0.1446  0.1611 -1.7793
 2704SOL    HW219572   1.601   2.786   8.577  0.9925 -0.4531  0.4240
 2705SOL     OW19573   2.353   4.370  12.788  0.5526 -0.2827 -0.1514
 2705SOL    HW119574   2.304   4.416  12.856  0.7950 -0.1843 -0.0458
 2705SOL    HW219575   2.288   4.301  12.770  0.3489  0.3558 -1.8895
 2706SOL     OW19576   3.466   4.565   4.925 -0.1228  0.2881 -0.1295
 2706SOL    HW119577   3.439   4.598   5.011  0.1930 -1.1495  0.5277
 2706SOL    HW219578   3.511   4.487   4.959 -0.9201 -0.2105 -0.2186
 2707SOL     OW19579   1.686   1.590  12.189  0.3800 -0.2498  0.1587
 2707SOL    HW119580   1.765   1.535  12.196  1.3574  1.1188 -0.1464
 2707SOL    HW219581   1.722   1.675  12.214 -0.3211 -0.4795  1.9434
 2708SOL     OW19582   1.749   0.080   2.487 -0.6168  0.0034 -1.0854
 2708SOL    HW119583   1.820   0.058   2.427  1.1359 -1.4135  1.4923
 2708SOL    HW219584   1.713   4.723   2.515  0.5549 -0.1296  0.0565
 2709SOL     OW19585   2.130   0.169   4.628  0.2434 -1.1099  0.3471
 2709SOL    HW119586   2.125   0.134   4.539 -0.0083  1.6565 -0.7312
 2709SOL    HW219587   2.073   0.246   4.631  0.7091 -0.7540  0.1668
 2710SOL     OW19588   0.415   1.071   8.936 -0.1160  0.1195 -0.6152
 2710SOL    HW119589   0.468   1.130   8.989 -1.5871  0.2666  0.6649
 2710SOL    HW219590   0.388   1.127   8.863 -0.2567 -0.7645 -1.2461
 2711SOL     OW19591   1.972   1.257   5.249  0.1838  0.1189 -0.0664
 2711SOL    HW119592   1.915   1.317   5.201  0.0388  0.7485  0.8945
 2711SOL    HW219593   1.911   1.200   5.296  0.2283 -1.5028 -1.9387
 2712SOL     OW19594   2.978   1.794   3.787  0.3218 -0.0819 -0.0269
 2712SOL    HW119595   3.040   1.839   3.844  0.2503  0.7851 -0.6429
 2712SOL    HW219596   2.999   1.822   3.698 -0.1235  2.3650  0.6303
 2713SOL     OW19597   0.967   2.013   1.002  0.1444  0.3692 -0.0238
 2713SOL    HW119598   1.060   2.032   0.994  0.4013 -1.6463 -1.6784
 2713SOL    HW219599   0.960   1.953   1.077  0.8769  0.9649  0.5138
 2714SOL     OW19600   2.380   1.951   5.088  0.2707 -0.4096  0.5232
 2714SOL    HW119601   2.446   1.915   5.147  0.2134 -0.3738  0.6095
 2714SOL    HW219602   2.401   2.045   5.091 -0.0548 -0.2800 -0.8871
 2715SOL     OW19603   1.435   4.400   9.414 -0.2134  0.1581  0.1783
 2715SOL    HW119604   1.501   4.407   9.483  2.7723  0.2069 -2.6744
 2715SOL    HW219605   1.448   4.482   9.367 -0.6448 -0.8801 -1.7375
 2716SOL     OW19606   4.713   3.960   1.831  0.0922 -0.3853 -0.0334
 2716SOL    HW119607   4.641   3.940   1.891 -1.3992  1.9507 -1.0214
 2716SOL    HW219608   4.685   4.045   1.796 -1.8224 -0.8393  0.3854
 2717SOL     OW19609   3.612   3.354   0.918  0.5758  0.5841  0.3553
 2717SOL    HW119610   3.593   3.265   0.948  2.2364  0.3047  0.6193
 2717SOL    HW219611   3.705   3.333   0.906  0.1332 -1.4576  0.4654
 2718SOL     OW19612   3.319   4.058   9.199 -0.6958  0.0873 -0.5561
 2718SOL    HW119613   3.381   4.069   9.271 -1.2504 -0.9886  0.0964
 2718SOL    HW219614   3.303   4.147   9.170  0.5387  1.2695  2.4300
 2719SOL     OW19615   3.067   4.246   5.084 -0.7158  0.3837 -0.2973
 2719SOL    HW119616   3.111   4.179   5.031 -1.6391  0.0565 -0.6510
 2719SOL    HW219617   3.038   4.313   5.023  0.5566  0.8362 -0.4116
 2720SOL     OW19618   1.518   3.683   8.434  0.4245 -0.2276  0.0795
 2720SOL    HW119619   1.454   3.753   8.420  1.2855  0.8060  1.3710
 2720SOL    HW219620   1.594   3.739   8.451  1.5179 -1.3937 -1.0098
 2721SOL     OW19621   1.732   3.816   8.234 -0.5504  0.1355 -0.0125
 2721SOL    HW119622   1.824   3.824   8.206 -0.4304  3.4571  1.3075
 2721SOL    HW219623   1.719   3.903   8.272  2.2070 -0.0071  1.2663
 2722SOL     OW19624   0.225   3.478   4.790  0.6941 -0.1407  0.6481
 2722SOL    HW119625   0.146   3.425   4.777 -0.3565  1.8628 -1.0491
 2722SOL    HW219626   0.287   3.405   4.783  1.6077  0.5887  1.0284
 2723SOL     OW19627   3.132   2.345   8.536  0.5092  0.7595 -0.0070
 2723SOL    HW119628   3.077   2.406   8.489  1.7441 -0.2319 -2.7250
 2723SOL    HW219629   3.218   2.361   8.496  0.7698 -2.7060 -0.8331
 2724SOL     OW19630   4.665   3.029   2.752 -0.2422  0.3414  0.8562
 2724SOL    HW119631   4.685   2.941   2.721 -1.6800  1.1441 -2.4316
 2724SOL    HW219632   0.014   3.073   2.715  0.0605 -0.2465  0.7825
 2725SOL     OW19633   2.099   2.267  15.500 -0.5325  0.2206 -0.0018
 2725SOL    HW119634   2.089   2.362  15.509  0.8160  0.3904 -0.3350
 2725SOL    HW219635   2.063   2.229  15.580 -1.1058 -0.5235 -0.6104
 2726SOL     OW19636   1.721   4.017   7.339 -0.0939  0.0893  0.6526
 2726SOL    HW119637   1.630   4.016   7.310  0.0356  1.5683  0.2256
 2726SOL    HW219638   1.718   4.005   7.434  0.1924  1.5634  0.8418
 2727SOL     OW19639   4.323   4.552   5.265 -0.3992 -0.1902  0.4538
 2727SOL    HW119640   4.269   4.542   5.187 -0.2182 -1.2067  0.4547
 2727SOL    HW219641   4.368   4.468   5.279  1.1974  0.5964  0.0922
 2728SOL     OW19642   2.226   1.587   4.685  0.5230  0.0873 -0.1507
 2728SOL    HW119643   2.306   1.640   4.682 -0.0028  0.8324 -1.2702
 2728SOL    HW219644   2.270   1.506   4.660 -0.1577 -0.8728  1.7114
 2729SOL     OW19645   0.898   0.926   1.181 -0.1090  0.6987 -0.1888
 2729SOL    HW119646   0.979   0.887   1.147 -0.9212 -1.8654  0.8421
 2729SOL    HW219647   0.836   0.877   1.127  0.4136  1.2506 -1.2918
 2730SOL     OW19648   3.246   3.494   8.299 -0.4510  0.3395  0.1291
 2730SOL    HW119649   3.214   3.574   8.340  0.2558  0.6455  0.0774
 2730SOL    HW219650   3.162   3.450   8.282  1.1849 -2.3448 -0.9631
 2731SOL     OW19651   1.161   3.214  10.953 -0.0971  0.0473  0.2334
 2731SOL    HW119652   1.227   3.275  10.920  0.6173  0.1571  1.8577
 2731SOL    HW219653   1.156   3.139  10.893  0.5798 -0.1356  0.4011
 2732SOL     OW19654   2.454   1.504   1.908 -0.6079  0.3250  0.0138
 2732SOL    HW119655   2.364   1.531   1.891 -0.1736  1.8189  0.1158
 2732SOL    HW219656   2.482   1.582   1.956  2.0081 -1.0650  0.7941
 2733SOL     OW19657   0.408   2.755   5.387 -0.7802  0.1193 -0.0201
 2733SOL    HW119658   0.496   2.752   5.349 -0.1934  2.6140  1.1206
 2733SOL    HW219659   0.396   2.831   5.444 -1.1750  0.3192 -0.3662
 2734SOL     OW19660   4.312   2.695  12.972 -0.0337  0.7040 -0.5033
 2734SOL    HW119661   4.282   2.781  12.942  0.2449  1.5640  1.6982
 2734SOL    HW219662   4.369   2.671  12.899  3.8083  2.1117  2.0109
 2735SOL     OW19663   0.085   4.348  15.181  0.2329 -0.2845  0.2527
 2735SOL    HW119664   0.048   4.437  15.174  0.7032 -0.2485 -2.0289
 2735SOL    HW219665   0.014   4.284  15.185 -0.9324  1.1172  2.1354
 2736SOL     OW19666   4.520   3.387   3.203  0.1504 -0.2094  0.3385
 2736SOL    HW119667   4.427   3.403   3.188  0.1136  0.3524  1.1117
 2736SOL    HW219668   4.521   3.359   3.295  3.3584 -2.2557 -0.3203
 2737SOL     OW19669   2.634   2.430  17.697  0.6036  0.0046 -0.4042
 2737SOL    HW119670   2.594   2.345   0.004  0.4394  0.0550 -0.5360
 2737SOL    HW219671   2.558   2.485   0.001 -0.4363 -1.5578  0.1362
 2738SOL     OW19672   4.141   3.342  10.729 -0.0048  0.1119 -0.3253
 2738SOL    HW119673   4.186   3.412  10.777 -0.1169 -0.4591  0.6057
 2738SOL    HW219674   4.212   3.282  10.707  0.9409  1.0474  0.1471
 2739SOL     OW19675   1.374   4.450   8.443 -0.6756  0.5384  0.3102
 2739SOL    HW119676   1.298   4.403   8.477 -0.7351  0.1236 -0.3943
 2739SOL    HW219677   1.337   4.479   8.359  3.1387  1.1043 -1.1732
 2740SOL     OW19678   0.989   1.036   1.573 -0.2607  0.4511  0.3938
 2740SOL    HW119679   1.058   1.069   1.631  0.7506 -0.8756 -0.0381
 2740SOL    HW219680   1.037   0.966   1.527 -0.0373  0.7485  0.1762
 2741SOL     OW19681   3.979   0.147   0.107  0.2065  0.4814  0.2981
 2741SOL    HW119682   3.984   0.198   0.188  0.5586  0.2361  0.4355
 2741SOL    HW219683   3.898   0.097   0.108  0.5387 -0.0530  2.2129
 2742SOL     OW19684   2.507   0.111  17.684 -0.2921  0.1659  0.3951
 2742SOL    HW119685   2.590   0.153  17.707  0.5938 -1.6096  0.3822
 2742SOL    HW219686   2.495   0.128  17.590  1.9332  0.0693  0.1151
 2743SOL     OW19687   4.405   3.996   4.793  0.3864 -0.3077 -0.3661
 2743SOL    HW119688   4.312   3.979   4.781  0.7281 -1.4717 -1.4094
 2743SOL    HW219689   4.422   4.081   4.752  2.0436  0.9906  3.0388
 2744SOL     OW19690   1.031   1.171   1.204  0.1204 -0.1973  0.3861
 2744SOL    HW119691   0.988   1.086   1.193  1.1597 -0.8085  0.9770
 2744SOL    HW219692   1.039   1.190   1.111 -0.4549 -1.4933  0.0703
 2745SOL     OW19693   0.188   1.390  17.632  0.4141  0.6455  0.0788
 2745SOL    HW119694   0.134   1.324  17.588  0.1406 -0.4186  1.9707
 2745SOL    HW219695   0.193   1.350   0.009  1.5732 -1.9717 -1.1829
 2746SOL     OW19696   0.510   4.410   3.803 -0.2050 -0.3398  0.4684
 2746SOL    HW119697   0.503   4.505   3.798  2.0681 -0.2415 -0.9876
 2746SOL    HW219698   0.573   4.391   3.873  1.9180  3.2116 -0.4912
 2747SOL     OW19699   2.490   3.429  10.142 -0.1116 -0.7419 -0.1672
 2747SOL    HW119700   2.536   3.484  10.206  0.3732 -2.9782  1.3883
 2747SOL    HW219701   2.516   3.338  10.155  1.9726 -0.5048 -2.7554
 2748SOL     OW19702   4.279   2.728   3.496  0.1907 -0.3071  0.2084
 2748SOL    HW119703   4.208   2.695   3.440  1.1963 -3.0602  0.5565
 2748SOL    HW219704   4.334   2.772   3.430 -1.1224 -0.7970 -1.2213
 2749SOL     OW19705   3.444   0.242   3.625  0.4997  0.3277  0.0625
 2749SOL    HW119706   3.522   0.191   3.602 -0.3871 -0.5610 -1.0162
 2749SOL    HW219707   3.396   0.168   3.662 -0.7826  0.8560 -0.5653
 2750SOL     OW19708   2.162   1.732   5.713 -0.0442  0.0683  0.0199
 2750SOL    HW119709   2.095   1.702   5.651  0.5571 -0.0685 -0.5712
 2750SOL    HW219710   2.219   1.657   5.698  0.6560  1.0670 -2.3148
 2751SOL     OW19711   1.274   2.036   4.936  0.3034 -0.2925 -0.4051
 2751SOL    HW119712   1.218   2.094   4.988  0.5014 -1.0063  0.5984
 2751SOL    HW219713   1.221   2.020   4.858  2.9045 -0.0407 -2.2273
 2752SOL     OW19714   2.339   2.076   3.286  0.1551  0.5270  0.3965
 2752SOL    HW119715   2.293   2.064   3.369 -0.2325 -0.9824 -0.0200
 2752SOL    HW219716   2.419   2.113   3.324  0.5033  1.0481 -0.8635
 2753SOL     OW19717   2.296   0.507   6.431  0.0353 -0.1970 -0.5311
 2753SOL    HW119718   2.259   0.595   6.425 -1.0811 -0.5119  1.8333
 2753SOL    HW219719   2.211   0.463   6.441  0.8886 -1.1353  2.4702
 2754SOL     OW19720   2.334   1.763   9.704  0.7238  0.1561 -0.1342
 2754SOL    HW119721   2.256   1.743   9.756 -0.6969  2.7361 -1.2445
 2754SOL    HW219722   2.304   1.829   9.641 -0.9134  1.3686  1.9095
 2755SOL     OW19723   0.899   4.086   7.442  0.2656  0.0391  0.2538
 2755SOL    HW119724   0.888   4.157   7.379 -2.0798  0.4574  1.1161
 2755SOL    HW219725   0.815   4.064   7.481  0.9054  0.6313  1.9517
 2756SOL     OW19726   3.400   4.517  10.035 -0.1848 -0.0058 -0.6023
 2756SOL    HW119727   3.430   4.575  10.106 -2.4761 -1.8420  1.8613
 2756SOL    HW219728   3.472   4.457  10.018 -0.2384 -0.3699  0.4469
 2757SOL     OW19729   2.179   3.270   9.218 -0.4932  0.2445  0.0602
 2757SOL    HW119730   2.114   3.255   9.149 -1.5468  0.6670  0.9538
 2757SOL    HW219731   2.257   3.279   9.164 -0.3618 -0.3288  0.1587
 2758SOL     OW19732   3.978   3.031  15.605 -0.7108 -0.6083 -0.1177
 2758SOL    HW119733   4.049   2.969  15.619  0.8266  1.3483  0.7046
 2758SOL    HW219734   3.904   2.993  15.652 -2.0567  0.7126 -1.1700
 2759SOL     OW19735   4.464   3.916   1.160 -0.6295 -0.4262  0.1904
 2759SOL    HW119736   4.417   3.837   1.188  0.4502 -1.2068 -0.1963
 2759SOL    HW219737   4.549   3.913   1.205 -0.3995  0.5761 -0.1831
 2760SOL     OW19738   0.734   4.476   8.904  0.0310  0.2749  0.1516
 2760SOL    HW119739   0.708   4.535   8.832 -0.9764  0.5338  0.7286
 2760SOL    HW219740   0.664   4.485   8.968  1.6859 -1.3747  2.1828
 2761SOL     OW19741   4.311   3.510   1.628 -0.2985 -0.1673 -0.4580
 2761SOL    HW119742   4.225   3.489   1.665  1.0541 -0.4889  2.5218
 2761SOL    HW219743   4.291   3.498   1.535  0.1973  1.6841 -0.8028
 2762SOL     OW19744   2.332   3.767   7.797  0.0227  0.2438 -0.0696
 2762SOL    HW119745   2.308   3.687   7.843  1.0699 -1.2859 -2.1709
 2762SOL    HW219746   2.425   3.756   7.775 -0.1930  2.3600 -2.0112
 2763SOL     OW19747   2.976   1.311   6.685 -0.0129 -0.2729 -0.2589
 2763SOL    HW119748   2.985   1.273   6.598 -0.9648  1.7975 -1.2445
 2763SOL    HW219749   2.989   1.404   6.666 -3.2413  0.2159 -0.0974
 2764SOL     OW19750   2.368   1.016   4.512  0.0615  0.6602 -0.2673
 2764SOL    HW119751   2.450   1.065   4.521  0.8609 -0.7998  0.4866
 2764SOL    HW219752   2.370   1.048   4.422 -2.1506  0.2007 -0.4704
 2765SOL     OW19753   0.980   3.382   5.738  0.4572 -0.3605 -0.4378
 2765SOL    HW119754   0.926   3.376   5.659 -0.5307  0.4099  0.1832
 2765SOL    HW219755   1.042   3.310   5.733  4.3647  2.9787 -0.3996
 2766SOL     OW19756   2.417   2.291   2.697  0.0104  0.1450  0.4530
 2766SOL    HW119757   2.342   2.248   2.738  0.7346 -1.2318  0.3452
 2766SOL    HW219758   2.469   2.320   2.772  0.3515 -0.1153  0.3178
 2767SOL     OW19759   2.715   1.048  17.221  0.1680 -0.4948 -0.0242
 2767SOL    HW119760   2.641   0.987  17.219  2.4053 -3.1950 -0.1614
 2767SOL    HW219761   2.690   1.116  17.159  1.0711  0.9652  1.2284
 2768SOL     OW19762   4.281   1.834   4.192 -0.2833  0.2005  0.2659
 2768SOL    HW119763   4.344   1.828   4.120 -0.1568  4.0871  0.0573
 2768SOL    HW219764   4.223   1.906   4.166 -0.7754  0.9181  3.4184
 2769SOL     OW19765   4.455   0.607   2.797  0.1661 -0.7293 -0.3102
 2769SOL    HW119766   4.529   0.642   2.748 -0.6168  1.5453  0.1309
 2769SOL    HW219767   4.406   0.559   2.731 -0.7991  2.2213 -1.7623
 2770SOL     OW19768   4.686   4.508  13.203  0.1262  0.4266  0.2498
 2770SOL    HW119769   4.706   4.422  13.165 -3.2781 -0.7928  1.2006
 2770SOL    HW219770   0.043   4.525  13.246  2.1698  1.8651 -4.3184
 2771SOL     OW19771   0.859   0.425  13.451  0.7215 -0.0024  0.2567
 2771SOL    HW119772   0.844   0.449  13.543  1.8588 -0.2869  0.5226
 2771SOL    HW219773   0.953   0.403  13.454  0.4639 -1.0424  0.8635
 2772SOL     OW19774   1.997   0.041   1.136  0.1593  0.3101 -0.3482
 2772SOL    HW119775   1.945   0.071   1.060 -1.7226 -0.9033  0.4599
 2772SOL    HW219776   1.954   4.687   1.162 -0.9529  0.5751 -1.3458
 2773SOL     OW19777   3.896   3.878   4.948  0.1278 -0.0334 -0.1727
 2773SOL    HW119778   3.840   3.804   4.926 -1.6433  0.9784  1.0227
 2773SOL    HW219779   3.898   3.859   5.041  1.4411  0.9283 -0.0041
 2774SOL     OW19780   3.604   3.952  15.307  0.1834  0.1566 -0.1408
 2774SOL    HW119781   3.553   4.033  15.310  2.5133  1.6495 -1.5004
 2774SOL    HW219782   3.690   3.985  15.333  0.4989 -0.0862 -0.8799
 2775SOL     OW19783   2.904   2.952  11.341  0.3785 -0.0149 -0.3526
 2775SOL    HW119784   2.822   2.993  11.315  1.1210  1.5593 -0.2036
 2775SOL    HW219785   2.952   3.000  11.273  1.1086 -1.1178 -0.6263
 2776SOL     OW19786   3.060   1.443   5.945 -0.1981  0.1415  0.2976
 2776SOL    HW119787   3.059   1.453   5.850  0.9591 -2.2773  0.0263
 2776SOL    HW219788   3.116   1.517   5.971 -0.6580  1.2038 -1.7613
 2777SOL     OW19789   1.239   3.284   5.727  0.7026  0.7380  0.0825
 2777SOL    HW119790   1.251   3.278   5.632  1.4828 -0.8761  0.2849
 2777SOL    HW219791   1.270   3.371   5.752  0.2272  0.4396  1.6868
 2778SOL     OW19792   2.511   1.592  16.261  0.9126  0.3014 -0.0526
 2778SOL    HW119793   2.527   1.525  16.194  1.7093  1.1292 -0.6883
 2778SOL    HW219794   2.600   1.626  16.272  1.1095  0.0012 -0.6795
 2779SOL     OW19795   1.633   3.190   8.135 -0.0751  0.1689 -0.0434
 2779SOL    HW119796   1.718   3.177   8.177  0.2500  1.7193 -0.2366
 2779SOL    HW219797   1.659   3.259   8.074 -1.3524  0.4618 -0.2639
 2780SOL     OW19798   0.364   0.609   5.390 -0.0849  0.1957 -0.1891
 2780SOL    HW119799   0.366   0.520   5.425  2.3109  0.7732  1.1102
 2780SOL    HW219800   0.292   0.609   5.327  1.1563 -0.2128 -1.6093
 2781SOL     OW19801   0.239   3.309   3.496 -0.4957 -0.5972 -0.5527
 2781SOL    HW119802   0.275   3.331   3.582 -1.2707  1.4735 -0.7582
 2781SOL    HW219803   0.287   3.236   3.456  2.2441 -0.1820  1.9793
 2782SOL     OW19804   3.152   3.734   4.262 -0.7066  0.1430  0.3008
 2782SOL    HW119805   3.106   3.817   4.275 -0.7490 -0.0786  1.5824
 2782SOL    HW219806   3.154   3.711   4.355 -1.1917 -0.1635  0.2364
 2783SOL     OW19807   3.216   3.225   6.242 -0.0738 -0.3206  0.1830
 2783SOL    HW119808   3.213   3.258   6.152  1.0149 -2.4465 -0.6242
 2783SOL    HW219809   3.189   3.298   6.297  1.4215  0.2920  0.0860
 2784SOL     OW19810   2.231   3.513  11.187  0.1204 -0.1980 -0.5744
 2784SOL    HW119811   2.316   3.556  11.193  0.7680 -2.0936  3.5935
 2784SOL    HW219812   2.183   3.568  11.125  0.9329  0.8805 -0.2527
 2785SOL     OW19813   4.650   3.849  14.366 -0.0048 -0.5014 -0.2894
 2785SOL    HW119814   4.565   3.822  14.399  0.3464 -1.1320  0.1092
 2785SOL    HW219815   4.710   3.844  14.441  0.3112  1.5777 -0.3897
 2786SOL     OW19816   2.929   1.995   6.456 -0.3140 -0.0975  0.2199
 2786SOL    HW119817   2.970   1.978   6.372  1.7091 -0.9012  1.3800
 2786SOL    HW219818   3.006   2.030   6.502 -0.3770 -0.0871  0.3173
 2787SOL     OW19819   2.687   3.892   8.217  0.4429  0.5497 -0.3468
 2787SOL    HW119820   2.741   3.970   8.227  0.7808  0.1893  0.6239
 2787SOL    HW219821   2.604   3.926   8.251 -0.0276 -0.3060 -0.6395
 2788SOL     OW19822   3.059   2.741   7.704  0.3349  0.1120 -0.2883
 2788SOL    HW119823   3.101   2.658   7.726 -1.0669 -0.0534  1.6708
 2788SOL    HW219824   2.999   2.760   7.776  0.8393  1.2579 -0.1601
 2789SOL     OW19825   0.888   0.704   3.645 -0.1556  0.0968  0.0101
 2789SOL    HW119826   0.835   0.766   3.696  2.4621  2.8148 -0.5867
 2789SOL    HW219827   0.828   0.630   3.652  0.2863 -0.0428  2.1869
 2790SOL     OW19828   3.640   3.943  12.203 -0.7799  0.6880 -0.0028
 2790SOL    HW119829   3.647   4.009  12.271  0.2294  1.5732 -0.9644
 2790SOL    HW219830   3.723   3.898  12.218 -0.9732  0.5849  0.7515
 2791SOL     OW19831   1.646   3.553   6.837 -0.1424 -0.1618  0.6557
 2791SOL    HW119832   1.717   3.512   6.788  0.4472 -0.7278  1.9858
 2791SOL    HW219833   1.580   3.486   6.815  0.1545  0.2993 -1.6863
 2792SOL     OW19834   2.261   0.870   7.267  0.3843 -0.3842  0.2386
 2792SOL    HW119835   2.246   0.781   7.235 -1.1819 -0.5043  1.3003
 2792SOL    HW219836   2.177   0.885   7.310  1.0179 -2.9631  2.3900
 2793SOL     OW19837   1.696   4.210   0.084  0.6555  0.2324 -0.0035
 2793SOL    HW119838   1.662   4.280   0.139 -2.2777 -0.3347 -1.1081
 2793SOL    HW219839   1.702   4.252  17.709 -1.9810 -0.7856 -0.6877
 2794SOL     OW19840   2.693   2.152   6.773 -0.4169  0.1295  0.5766
 2794SOL    HW119841   2.631   2.198   6.829  0.9121  0.5082  1.7262
 2794SOL    HW219842   2.724   2.085   6.834  1.2573 -0.3002 -0.7552
 2795SOL     OW19843   2.638   3.082   6.649  0.0465  0.1871  0.6707
 2795SOL    HW119844   2.658   3.000   6.604 -1.0205  0.1591  0.2598
 2795SOL    HW219845   2.716   3.100   6.701 -0.5699  1.6313  1.0864
 2796SOL     OW19846   1.403   0.359   2.580  0.2047 -0.5077 -0.0896
 2796SOL    HW119847   1.492   0.394   2.578  0.5891 -1.5763 -1.6986
 2796SOL    HW219848   1.423   0.292   2.515 -2.6103 -1.8399  0.3903
 2797SOL     OW19849   0.077   4.101   7.238  0.4555 -0.7253  0.1193
 2797SOL    HW119850   4.717   4.063   7.252  0.2211 -0.6593 -1.1649
 2797SOL    HW219851   0.064   4.177   7.296 -2.9097 -1.9076  0.9203
 2798SOL     OW19852   4.499   3.323   4.092  0.1571  0.0631 -0.3010
 2798SOL    HW119853   4.407   3.296   4.090  0.5936 -1.3929 -0.6302
 2798SOL    HW219854   4.504   3.411   4.130  0.4631 -0.1574  0.1685
 2799SOL     OW19855   3.727   1.859   3.351 -0.2214  0.4622 -0.0364
 2799SOL    HW119856   3.648   1.887   3.396 -0.9426 -1.7027  0.0168
 2799SOL    HW219857   3.695   1.842   3.262  0.8225 -0.6826 -0.1971
 2800SOL     OW19858   3.698   0.704   2.353  0.0147  0.5111  0.1526
 2800SOL    HW119859   3.683   0.694   2.447  0.5802  1.5689  0.3654
 2800SOL    HW219860   3.735   0.793   2.352 -2.0083  1.3520  0.1242
 2801SOL     OW19861   2.221   0.527  15.224 -0.0402 -0.0159 -0.0815
 2801SOL    HW119862   2.270   0.528  15.307  1.9821 -1.1960 -1.2521
 2801SOL    HW219863   2.296   0.509  15.168 -0.5528 -1.5309 -0.2664
 2802SOL     OW19864   2.816   2.211   7.740 -0.0552 -0.5342 -0.2394
 2802SOL    HW119865   2.754   2.283   7.750  0.9301  0.4288 -1.0680
 2802SOL    HW219866   2.887   2.263   7.700 -0.9002  0.6867 -0.1302
 2803SOL     OW19867   1.098   0.476  15.928 -0.7549  0.0920 -0.3841
 2803SOL    HW119868   1.131   0.504  16.013  1.7425  0.5459 -1.4929
 2803SOL    HW219869   1.005   0.498  15.940 -0.5188  0.7926  0.1785
 2804SOL     OW19870   1.893   3.057  10.332  0.7425  0.1493  0.2274
 2804SOL    HW119871   1.867   2.967  10.355  0.1440  0.3506  0.3227
 2804SOL    HW219872   1.921   3.053  10.241  0.6854  2.9919  0.0868
 2805SOL     OW19873   3.054   1.990   3.988 -0.3465 -0.1822  0.1672
 2805SOL    HW119874   3.029   2.069   4.034  1.7141 -0.6676  2.0929
 2805SOL    HW219875   3.149   1.990   4.000 -0.2106  1.4816 -0.9633
 2806SOL     OW19876   0.774   2.406   0.954 -0.1915  0.1102  0.7978
 2806SOL    HW119877   0.729   2.345   1.013 -1.2950  1.8890  1.7813
 2806SOL    HW219878   0.832   2.348   0.906  0.2739  1.5562 -0.3693
 2807SOL     OW19879   3.172   0.435   0.059 -0.2647 -0.1333 -0.1422
 2807SOL    HW119880   3.258   0.460   0.093  0.3957  1.6781 -3.0594
 2807SOL    HW219881   3.167   0.345   0.090  0.5284  0.1565  0.8313
 2808SOL     OW19882   1.205   4.597   7.598  0.1828 -0.1862  0.6060
 2808SOL    HW119883   1.264   4.533   7.557  0.8427  0.0222  1.2183
 2808SOL    HW219884   1.274   4.651   7.638 -0.6716 -0.2198  2.1286
 2809SOL     OW19885   0.628   0.495   0.826  0.9264  0.1478  0.2073
 2809SOL    HW119886   0.643   0.457   0.912 -1.1119 -2.0312 -0.4061
 2809SOL    HW219887   0.533   0.483   0.824  1.2274 -2.6011  2.7315
 2810SOL     OW19888   0.275   3.608   2.747  0.7577 -0.0008 -0.5262
 2810SOL    HW119889   0.212   3.539   2.725 -1.8602  2.5097 -0.8701
 2810SOL    HW219890   0.309   3.566   2.826  0.8129 -0.1188 -0.6129
 2811SOL     OW19891   2.846   2.183  16.496 -0.0054 -0.2917 -0.2096
 2811SOL    HW119892   2.908   2.219  16.559 -1.1302 -2.6345  2.2516
 2811SOL    HW219893   2.905   2.165  16.422  0.0555  0.6803 -0.3945
 2812SOL     OW19894   0.010   0.098   2.932 -0.1642 -0.0995 -1.0239
 2812SOL    HW119895   4.670   0.129   2.992 -1.5278 -0.1349 -2.5284
 2812SOL    HW219896   0.016   0.015   2.980 -0.9032 -0.6822 -1.9547
 2813SOL     OW19897   0.918   1.032   5.205  0.0342  0.1586 -0.0645
 2813SOL    HW119898   0.952   0.958   5.154 -0.7791  0.0314 -0.4211
 2813SOL    HW219899   0.962   1.104   5.161  0.5933 -0.5437 -0.6648
 2814SOL     OW19900   1.177   0.782   3.837 -0.0435 -0.3739 -0.7013
 2814SOL    HW119901   1.106   0.832   3.876  1.9825  1.2701  0.8758
 2814SOL    HW219902   1.146   0.693   3.855 -2.2358  0.1805 -1.7727
 2815SOL     OW19903   2.399   0.372   4.846  0.0679  0.1208 -0.9357
 2815SOL    HW119904   2.471   0.434   4.860  1.4041 -0.4755 -5.0316
 2815SOL    HW219905   2.380   0.384   4.753 -1.6528 -0.7016 -0.6867
 2816SOL     OW19906   2.127   0.434   5.780 -0.4927 -0.5758 -0.1743
 2816SOL    HW119907   2.119   0.404   5.870  3.5871 -1.4278 -0.1226
 2816SOL    HW219908   2.046   0.481   5.758  1.0784  2.4266  0.4812
 2817SOL     OW19909   0.623   3.262   2.492  0.2522  0.5638  0.0084
 2817SOL    HW119910   0.655   3.348   2.520 -1.0199  1.4332 -1.2377
 2817SOL    HW219911   0.695   3.209   2.528 -0.1933 -0.6182 -0.8646
 2818SOL     OW19912   3.295   3.460   5.630 -0.1551  0.2132 -0.6637
 2818SOL    HW119913   3.258   3.391   5.685 -0.3946  1.3524  0.6223
 2818SOL    HW219914   3.321   3.414   5.550 -1.9560  0.8508 -1.6315
 2819SOL     OW19915   3.184   1.178   5.853 -0.2701 -0.6112  0.5991
 2819SOL    HW119916   3.096   1.212   5.868 -0.4253 -1.2250  1.0800
 2819SOL    HW219917   3.157   1.101   5.803  1.1992 -1.2863  0.8697
 2820SOL     OW19918   2.587   2.273  16.515  0.6057  0.1727 -0.4117
 2820SOL    HW119919   2.676   2.246  16.538 -0.0705 -1.1274  0.7606
 2820SOL    HW219920   2.602   2.342  16.451 -1.2412 -0.0597 -1.1052
 2821SOL     OW19921   1.867   3.338  13.173 -0.5380  0.2549 -0.2594
 2821SOL    HW119922   1.911   3.309  13.253  0.0973  0.3208 -0.5824
 2821SOL    HW219923   1.919   3.290  13.108 -2.0339 -0.0948 -1.1889
 2822SOL     OW19924   3.270   2.746   3.994 -0.4268  0.4774 -0.2167
 2822SOL    HW119925   3.329   2.684   3.952 -0.6376  1.0043 -1.2943
 2822SOL    HW219926   3.192   2.690   3.995 -1.3321  1.7222 -2.1785
 2823SOL     OW19927   3.186   1.019  12.230  0.5970  0.5758  0.1354
 2823SOL    HW119928   3.222   0.995  12.315  0.7445 -0.7752 -0.3160
 2823SOL    HW219929   3.255   0.998  12.167  0.4422 -1.6223  0.6938
 2824SOL     OW19930   2.030   2.715   2.008 -0.6832 -0.4472  0.1344
 2824SOL    HW119931   2.024   2.781   1.939  1.1836  0.0956  0.5113
 2824SOL    HW219932   1.966   2.751   2.070 -0.3073 -1.6542  1.2205
 2825SOL     OW19933   3.598   3.009   4.986  0.4387 -0.1215  0.4739
 2825SOL    HW119934   3.598   3.015   4.890  1.3760 -0.0982  0.4812
 2825SOL    HW219935   3.671   3.065   5.013  0.2374  0.8013 -0.9066
 2826SOL     OW19936   4.242   0.185  17.557 -0.0381  0.1903 -0.0750
 2826SOL    HW119937   4.208   0.237  17.630  0.1229 -0.6911  0.6359
 2826SOL    HW219938   4.208   0.236  17.484  0.9581  1.0382  0.0524
 2827SOL     OW19939   0.957   2.836   2.385 -0.0864  0.0530  0.5574
 2827SOL    HW119940   1.000   2.786   2.455  0.8504  1.1526  0.7682
 2827SOL    HW219941   1.003   2.919   2.369 -2.5564  1.1958 -0.5012
 2828SOL     OW19942   2.047   0.149  11.185 -0.2938  0.2798  0.0836
 2828SOL    HW119943   1.971   0.099  11.215 -0.2867  1.1942  1.6801
 2828SOL    HW219944   2.026   0.140  11.092 -0.3513  0.2936  0.0950
 2829SOL     OW19945   1.348   2.212   1.072 -0.1264  0.5041 -0.1478
 2829SOL    HW119946   1.296   2.228   1.151  1.7825  1.3096  0.9462
 2829SOL    HW219947   1.359   2.302   1.041 -1.0952 -0.0001 -1.9871
 2830SOL     OW19948   4.363   2.614  10.693  0.1468  0.0799  0.3325
 2830SOL    HW119949   4.333   2.523  10.701  2.3209 -0.8011 -1.4762
 2830SOL    HW219950   4.324   2.652  10.615 -2.5756 -0.4664  1.4436
 2831SOL     OW19951   1.749   3.571  13.185  0.6818 -0.3152  0.5334
 2831SOL    HW119952   1.813   3.500  13.189  0.1723 -0.9376 -2.3872
 2831SOL    HW219953   1.681   3.538  13.244 -1.9516  3.9802 -0.0996
 2832SOL     OW19954   2.363   0.436  13.453  0.1055  0.3569  0.6555
 2832SOL    HW119955   2.335   0.373  13.519 -1.6002 -0.9265 -1.2816
 2832SOL    HW219956   2.309   0.511  13.480 -4.6273 -2.4768 -0.9582
 2833SOL     OW19957   3.483   4.705  15.646  0.0278  0.1716  0.2161
 2833SOL    HW119958   3.488   4.726  15.552  1.4752  1.5422  0.5830
 2833SOL    HW219959   3.553   0.033  15.680 -0.6882 -0.1227  2.1501
 2834SOL     OW19960   2.441   0.236  12.094  0.3842  0.2416  0.0445
 2834SOL    HW119961   2.516   0.199  12.140  0.9552  1.1129 -0.1822
 2834SOL    HW219962   2.449   0.190  12.010 -0.6209 -1.5991  0.9732
 2835SOL     OW19963   0.762   1.917   6.981  0.5557 -0.6359 -0.2248
 2835SOL    HW119964   0.796   1.856   6.915 -2.9285 -3.5111  0.6536
 2835SOL    HW219965   0.669   1.898   6.970  0.3509  0.0167  0.4139
 2836SOL     OW19966   2.921   4.167  15.061 -0.0869 -0.4175  0.4462
 2836SOL    HW119967   2.960   4.116  14.990 -1.9650  1.2820 -1.7814
 2836SOL    HW219968   2.954   4.253  15.036 -1.1407 -0.3825 -0.7842
 2837SOL     OW19969   4.076   0.941   7.634  0.3873 -0.3466 -0.0453
 2837SOL    HW119970   4.067   1.033   7.610 -2.2597 -0.9451 -1.3514
 2837SOL    HW219971   3.990   0.934   7.676  1.5870 -0.3193  2.4231
 2838SOL     OW19972   1.195   3.864  11.767  0.1882 -0.2889  0.6389
 2838SOL    HW119973   1.232   3.912  11.841  0.8528 -0.7362  0.5922
 2838SOL    HW219974   1.255   3.878  11.694  1.5809 -2.5566  1.3572
 2839SOL     OW19975   4.580   2.994  13.821 -0.4778  0.5273 -0.2401
 2839SOL    HW119976   4.645   2.930  13.850 -0.6807  0.5366  0.2408
 2839SOL    HW219977   4.578   2.957  13.733 -1.2955  1.0091 -0.4270
 2840SOL     OW19978   1.921   0.258   8.157  0.0854 -0.0794 -0.0307
 2840SOL    HW119979   1.971   0.210   8.223 -0.7612 -0.4031  0.3768
 2840SOL    HW219980   1.989   0.323   8.137 -1.2924  1.0290 -1.1092
 2841SOL     OW19981   1.917   3.223   0.455  0.0616  0.0455 -0.7469
 2841SOL    HW119982   1.987   3.286   0.438 -1.6928  2.5857  1.4407
 2841SOL    HW219983   1.839   3.278   0.458 -0.7454 -0.9964 -2.2165
 2842SOL     OW19984   0.989   2.631  17.435 -0.2291  0.4229 -0.1647
 2842SOL    HW119985   0.996   2.536  17.422 -1.2988  0.4195 -0.6865
 2842SOL    HW219986   0.912   2.643  17.380 -0.6517 -0.4574  0.2321
 2843SOL     OW19987   0.970   1.158   8.117 -0.7183  0.3082  1.0452
 2843SOL    HW119988   0.987   1.131   8.027 -0.2739  1.6803  0.7174
 2843SOL    HW219989   0.935   1.079   8.159 -2.0597  0.8239  0.9038
 2844SOL     OW19990   1.165   0.692   3.174 -0.0576  0.3582  0.5124
 2844SOL    HW119991   1.147   0.784   3.155  0.8049  0.3619 -0.2902
 2844SOL    HW219992   1.178   0.659   3.085 -1.2563 -0.4885  0.6406
 2845SOL     OW19993   1.787   2.153   5.954  0.3383  0.0158 -0.1031
 2845SOL    HW119994   1.692   2.155   5.949  0.4881  1.7730 -2.0222
 2845SOL    HW219995   1.801   2.058   5.961  1.0486  0.1122 -0.2108
 2846SOL     OW19996   4.434   1.089   2.015 -0.1577 -0.1181 -0.2946
 2846SOL    HW119997   4.487   1.167   2.032 -0.6725 -0.3868  2.5648
 2846SOL    HW219998   4.464   1.031   2.085  0.6960  0.0736 -0.5088
 2847SOL     OW19999   2.222   1.880   4.395  0.0871  0.1644 -0.5167
 2847SOL    HW120000   2.189   1.968   4.373  2.1552  0.8357 -0.8858
 2847SOL    HW220001   2.314   1.898   4.415 -0.6062  1.4647  1.5510
 2848SOL     OW20002   0.666   3.606   6.176  0.2850 -0.5240 -0.2897
 2848SOL    HW120003   0.754   3.628   6.206  0.7581 -0.0731 -1.9884
 2848SOL    HW220004   0.698   3.529   6.130 -2.2475 -2.3545  1.0442
 2849SOL     OW20005   4.098   3.092   2.952  0.2271 -0.9378  0.6553
 2849SOL    HW120006   4.162   3.091   2.881 -2.0531  1.4435 -1.4089
 2849SOL    HW220007   4.136   3.022   3.005  1.4300 -0.3825  0.5138
 2850SOL     OW20008   1.202   1.826   7.471 -0.0248  0.0260  0.0801
 2850SOL    HW120009   1.248   1.909   7.458 -1.7179  0.7415 -1.2778
 2850SOL    HW220010   1.252   1.777   7.405  1.1719 -0.1717  1.1339
 2851SOL     OW20011   3.057   3.537   7.868  0.0124 -0.0199  0.0531
 2851SOL    HW120012   3.104   3.474   7.922  0.2022 -0.1482 -0.2659
 2851SOL    HW220013   3.017   3.590   7.937  0.9336 -0.2320  0.7347
 2852SOL     OW20014   1.389   1.685   2.353  0.0155  0.1895 -0.1157
 2852SOL    HW120015   1.317   1.642   2.400  0.0388 -0.6277 -0.8198
 2852SOL    HW220016   1.450   1.714   2.420 -0.1735 -2.5643  1.2684
 2853SOL     OW20017   4.121   3.655   2.255 -0.0877 -0.2935 -0.3766
 2853SOL    HW120018   4.201   3.705   2.242 -0.6476  0.8560  0.5426
 2853SOL    HW220019   4.142   3.590   2.322 -0.0481 -0.4190 -0.5113
 2854SOL     OW20020   1.776   3.053   3.893 -0.5943  0.0074 -0.3931
 2854SOL    HW120021   1.796   3.011   3.977 -0.8640  0.5424 -0.0605
 2854SOL    HW220022   1.846   3.117   3.882  0.0716 -0.7795 -0.7152
 2855SOL     OW20023   3.837   2.489   5.072  0.1488 -1.1370  0.0367
 2855SOL    HW120024   3.856   2.433   5.148 -2.7130 -1.8422  0.2575
 2855SOL    HW220025   3.804   2.430   5.004 -1.8622  0.3276 -0.2777
 2856SOL     OW20026   1.633   4.438   5.086 -0.1304 -0.1278  0.2636
 2856SOL    HW120027   1.587   4.355   5.097  1.2852 -0.5664  2.9812
 2856SOL    HW220028   1.696   4.429   5.158  0.5445  0.9349 -0.1914
 2857SOL     OW20029   0.291   0.321   0.471 -0.1367  0.0893  0.4470
 2857SOL    HW120030   0.239   0.390   0.429 -1.4275  0.0339  1.9779
 2857SOL    HW220031   0.367   0.377   0.488 -1.2079  1.2376  1.4426
 2858SOL     OW20032   2.071   3.063   7.847 -0.2853 -0.2460  0.1862
 2858SOL    HW120033   2.067   3.158   7.851  2.5712 -0.2594  2.9641
 2858SOL    HW220034   2.032   3.040   7.762  0.0940 -0.4468  0.0670
 2859SOL     OW20035   3.922   2.315  16.759 -0.3620  0.2172 -0.4359
 2859SOL    HW120036   3.881   2.328  16.674  0.8770  0.7628 -0.9559
 2859SOL    HW220037   4.013   2.345  16.752  0.2482 -1.3629  0.7516
 2860SOL     OW20038   2.185   2.414   7.232 -0.0282  0.0173 -0.0631
 2860SOL    HW120039   2.148   2.364   7.305  0.4921 -3.1302 -1.9652
 2860SOL    HW220040   2.277   2.389   7.239 -0.4614 -0.9871  2.2046
 2861SOL     OW20041   1.107   1.613   0.552  0.5690 -0.1675  0.2875
 2861SOL    HW120042   1.078   1.685   0.608  3.3520  1.2046 -0.0201
 2861SOL    HW220043   1.096   1.655   0.466 -0.5871  1.0540  1.0322
 2862SOL     OW20044   1.974   3.550   8.087 -0.4549  0.3937  0.5088
 2862SOL    HW120045   1.878   3.547   8.092 -0.5338 -0.4028 -1.8684
 2862SOL    HW220046   1.983   3.640   8.056  2.6240 -0.2729 -0.4817
 2863SOL     OW20047   4.473   3.074  12.806  0.7255 -0.1068  0.8216
 2863SOL    HW120048   4.546   3.012  12.812  1.3299  0.6962  1.8991
 2863SOL    HW220049   4.529   3.148  12.831  1.6076 -0.3845 -0.2956
 2864SOL     OW20050   0.519   3.011   5.709 -0.0865  0.0635 -0.0224
 2864SOL    HW120051   0.568   2.967   5.779 -1.1052  2.1262  1.9785
 2864SOL    HW220052   0.447   3.053   5.755 -0.9689 -0.4955 -0.8977
 2865SOL     OW20053   1.406   4.317   7.158 -0.2141  0.5205 -0.1861
 2865SOL    HW120054   1.458   4.330   7.237  0.1610 -0.2700 -0.3061
 2865SOL    HW220055   1.388   4.408   7.136 -1.1500  0.4784  0.3995
 2866SOL     OW20056   0.828   1.073   3.560  0.0558 -0.6027  0.0671
 2866SOL    HW120057   0.819   1.158   3.518  1.1842  0.3302  1.7331
 2866SOL    HW220058   0.823   1.023   3.478 -0.2972  1.6789 -1.2948
 2867SOL     OW20059   4.018   1.990   4.303 -0.0299 -0.0714 -0.2700
 2867SOL    HW120060   4.046   2.006   4.213 -1.0346 -1.1594 -0.7880
 2867SOL    HW220061   4.093   2.027   4.349 -0.8008  0.3891  0.6307
 2868SOL     OW20062   2.149   3.786  12.681  0.0294  0.3111  0.1192
 2868SOL    HW120063   2.080   3.790  12.747  1.0910 -2.6739  1.3811
 2868SOL    HW220064   2.229   3.793  12.733  0.5493 -2.4856 -0.3076
 2869SOL     OW20065   0.544   1.530   3.051  0.4146  0.1803 -1.0607
 2869SOL    HW120066   0.545   1.594   3.122  0.9962 -2.2276  1.0854
 2869SOL    HW220067   0.450   1.512   3.052 -0.2420  3.5598  0.1417
 2870SOL     OW20068   2.396   1.478   7.996  0.0834 -0.0828 -0.4440
 2870SOL    HW120069   2.438   1.455   8.079  1.3419 -1.2127 -1.3906
 2870SOL    HW220070   2.424   1.396   7.954  0.4276 -1.0622  1.7056
 2871SOL     OW20071   1.610   1.139   6.196 -0.1965  0.3425  0.0844
 2871SOL    HW120072   1.548   1.202   6.161  1.7368  1.1677 -1.7656
 2871SOL    HW220073   1.673   1.196   6.240 -3.1382  1.6727  2.6227
 2872SOL     OW20074   3.750   4.140  16.444  0.0964  0.3806 -0.2916
 2872SOL    HW120075   3.662   4.176  16.459 -0.3925 -0.9258 -0.0212
 2872SOL    HW220076   3.817   4.208  16.455  0.8563 -0.7086  1.9463
 2873SOL     OW20077   3.994   3.829  10.128  0.3656  0.4057  0.6062
 2873SOL    HW120078   3.952   3.796  10.208 -1.5476 -1.9686 -1.3796
 2873SOL    HW220079   3.940   3.907  10.116 -0.0442  0.3125  1.8640
 2874SOL     OW20080   3.094   1.689   6.645 -0.1569 -0.1024  0.7052
 2874SOL    HW120081   3.064   1.634   6.718 -1.7768  0.4984  0.5050
 2874SOL    HW220082   3.012   1.673   6.597  0.2618  0.6961 -0.2615
 2875SOL     OW20083   1.880   4.488  13.570  0.3518 -0.4099 -0.4716
 2875SOL    HW120084   1.902   4.401  13.537  0.9661 -0.6369  0.5415
 2875SOL    HW220085   1.904   4.539  13.493  0.8331 -1.3923 -0.9742
 2876SOL     OW20086   1.281   3.521   7.580  0.3456  0.4927 -0.3187
 2876SOL    HW120087   1.253   3.438   7.541 -1.4299  0.2588  1.4379
 2876SOL    HW220088   1.223   3.513   7.656  0.3676  0.7051 -0.2796
 2877SOL     OW20089   2.766   3.358   6.936 -0.5300 -0.2843  0.3014
 2877SOL    HW120090   2.716   3.319   6.864 -0.6972 -0.5935  0.5847
 2877SOL    HW220091   2.845   3.306   6.931  1.2832  2.6450 -1.4434
 2878SOL     OW20092   1.812   2.533   4.938  0.3653  0.3576  0.6636
 2878SOL    HW120093   1.810   2.610   4.995  0.4331  1.8308 -1.3172
 2878SOL    HW220094   1.779   2.466   4.998  1.3408 -0.3936  0.3572
 2879SOL     OW20095   4.588   0.941  10.843 -0.2290 -0.3440 -0.0621
 2879SOL    HW120096   4.670   0.902  10.810 -0.1211 -0.4673  0.3489
 2879SOL    HW220097   4.526   0.888  10.794 -0.3637  0.5790 -0.8955
 2880SOL     OW20098   4.169   3.242   0.980 -0.2325 -0.6054  0.1313
 2880SOL    HW120099   4.230   3.203   0.918 -0.1135 -0.2248  0.0033
 2880SOL    HW220100   4.154   3.167   1.037  0.5350  0.8853  2.3412
 2881SOL     OW20101   4.493   2.101   6.091 -0.4452 -0.8225  0.2355
 2881SOL    HW120102   4.467   2.092   6.183 -0.7583 -0.3702  0.1907
 2881SOL    HW220103   4.444   2.029   6.051  0.1858 -0.7580 -0.6398
 2882SOL     OW20104   2.452   3.380  15.738  0.0629  0.1679  0.7605
 2882SOL    HW120105   2.442   3.474  15.753 -2.7287 -0.2336  1.4691
 2882SOL    HW220106   2.361   3.353  15.722 -0.1129  0.5469  1.1078
 2883SOL     OW20107   0.106   4.215   1.589 -0.6170 -0.7237 -0.1570
 2883SOL    HW120108   0.168   4.224   1.661 -1.0114 -1.3957  0.2590
 2883SOL    HW220109   0.127   4.128   1.555  0.3417 -0.4544 -0.2502
 2884SOL     OW20110   0.477   3.859   2.539  0.3538  0.1710 -0.0103
 2884SOL    HW120111   0.516   3.887   2.457  1.1673 -0.0094  0.3137
 2884SOL    HW220112   0.385   3.863   2.514  0.8230  0.6724 -1.6131
 2885SOL     OW20113   1.227   2.166   2.390  0.2448  0.1882 -0.0367
 2885SOL    HW120114   1.227   2.117   2.472  0.2866  1.0748  0.4846
 2885SOL    HW220115   1.241   2.099   2.323  1.8339 -0.4625  0.9530
 2886SOL     OW20116   3.704   0.757   4.702  0.0383  0.2999  0.2402
 2886SOL    HW120117   3.658   0.677   4.676  1.4556 -0.4982  0.1875
 2886SOL    HW220118   3.759   0.768   4.624  1.0146  0.9791  1.0328
 2887SOL     OW20119   3.107   2.419  11.614  0.3062 -0.1545  0.7970
 2887SOL    HW120120   3.013   2.401  11.623  0.7095 -0.9060  3.5869
 2887SOL    HW220121   3.131   2.423  11.707  1.2304 -0.2995  0.5637
 2888SOL     OW20122   0.031   3.143   2.460  0.4178  0.2102  0.4294
 2888SOL    HW120123   0.116   3.104   2.482  0.3006  0.1034  0.6849
 2888SOL    HW220124   0.020   3.106   2.372  0.3418 -1.0387  0.9748
 2889SOL     OW20125   1.067   4.232   3.683  0.1045 -0.0544  0.2935
 2889SOL    HW120126   1.038   4.212   3.594  1.3722  1.5721 -0.4763
 2889SOL    HW220127   0.992   4.202   3.735  1.2696 -1.5023  1.1523
 2890SOL     OW20128   4.217   4.240   6.868  0.1812 -0.6533  0.4215
 2890SOL    HW120129   4.130   4.278   6.857 -0.1077 -1.2119  0.7827
 2890SOL    HW220130   4.204   4.152   6.833 -1.1474 -0.0722 -0.5236
 2891SOL     OW20131   4.586   1.478   5.412  0.4463 -0.0665  0.5147
 2891SOL    HW120132   4.664   1.524   5.380  0.5641  0.0166  0.9303
 2891SOL    HW220133   4.570   1.426   5.333  0.4105  0.4553  0.1773
 2892SOL     OW20134   0.321   4.421   7.388 -0.2603 -0.3867 -0.0550
 2892SOL    HW120135   0.254   4.436   7.322 -0.1336  1.6775  0.2714
 2892SOL    HW220136   0.393   4.462   7.341 -0.9576  1.3887  0.4127
 2893SOL     OW20137   4.194   0.370   7.151 -0.2246  0.0224  0.6634
 2893SOL    HW120138   4.106   0.376   7.114  0.3311 -1.1649 -0.8688
 2893SOL    HW220139   4.189   0.422   7.231 -1.8665  0.5563  0.2000
 2894SOL     OW20140   1.043   2.671  13.925 -0.5883 -0.6838  0.4918
 2894SOL    HW120141   0.963   2.678  13.873 -0.4910  0.4071  0.4754
 2894SOL    HW220142   1.101   2.615  13.874  0.0115 -0.2707  0.7156
 2895SOL     OW20143   2.940   4.260   9.170 -0.4090 -0.2593 -0.5245
 2895SOL    HW120144   2.910   4.215   9.249 -0.8986  2.3369  0.7617
 2895SOL    HW220145   2.895   4.198   9.112 -1.0651 -0.5576  0.2936
 2896SOL     OW20146   1.420   2.857   6.456  0.4564  0.2229  0.3838
 2896SOL    HW120147   1.404   2.766   6.482  0.1302 -0.0392 -0.7085
 2896SOL    HW220148   1.441   2.899   6.539 -0.6743  0.8284  0.3619
 2897SOL     OW20149   4.035   4.689   7.519 -0.6954 -0.1655 -0.5617
 2897SOL    HW120150   4.092   4.615   7.498 -2.5792 -1.3966 -1.3107
 2897SOL    HW220151   4.012   4.714   7.430 -0.9474 -1.2043 -0.7823
 2898SOL     OW20152   0.640   1.697   2.663 -0.4015 -0.0919 -0.2381
 2898SOL    HW120153   0.687   1.631   2.713 -1.2418 -1.4374 -1.2265
 2898SOL    HW220154   0.559   1.684   2.712  0.5248 -0.1801  1.2846
 2899SOL     OW20155   1.202   4.053   4.664  0.1721  0.1366 -0.2024
 2899SOL    HW120156   1.188   3.958   4.667  0.8304  0.0999  1.7022
 2899SOL    HW220157   1.185   4.091   4.750 -1.0663  2.5122 -1.4692
 2900SOL     OW20158   3.071   1.968   7.134 -0.6229 -0.1669  0.3387
 2900SOL    HW120159   3.134   2.029   7.096 -0.6734  0.6230  1.5384
 2900SOL    HW220160   3.127   1.891   7.148 -1.1127 -0.2884  1.6401
 2901SOL     OW20161   4.703   4.279   8.960 -0.6702 -0.2993  0.2447
 2901SOL    HW120162   0.052   4.335   8.975 -0.9502  0.5322 -1.5040
 2901SOL    HW220163   4.628   4.338   8.958  1.0289  1.8619  0.3946
 2902SOL     OW20164   1.761   2.211   9.618  0.2398  0.5222  0.3211
 2902SOL    HW120165   1.811   2.269   9.676 -0.7401 -0.8798  2.5571
 2902SOL    HW220166   1.823   2.183   9.551 -1.6684 -0.7844 -0.9106
 2903SOL     OW20167   2.517   2.547  16.299 -0.7169  0.3844 -0.2012
 2903SOL    HW120168   2.523   2.620  16.238  1.9726 -0.0978 -0.5318
 2903SOL    HW220169   2.588   2.493  16.264 -2.1451 -0.0835 -2.3358
 2904SOL     OW20170   3.544   1.585  15.620  0.5459 -0.1433  0.1893
 2904SOL    HW120171   3.527   1.594  15.526  1.6317 -0.7998 -0.0622
 2904SOL    HW220172   3.516   1.497  15.645  1.9918 -1.2376 -2.0460
 2905SOL     OW20173   4.014   4.461  12.501  0.1435  0.5232  0.0254
 2905SOL    HW120174   4.008   4.367  12.518  0.1646 -0.0611 -3.0477
 2905SOL    HW220175   4.023   4.501  12.587  2.8690 -0.9959  0.4602
 2906SOL     OW20176   2.183   1.869   9.498  1.4163  0.0124 -0.0398
 2906SOL    HW120177   2.137   1.908   9.423 -0.4716 -0.6533  0.7769
 2906SOL    HW220178   2.173   1.777   9.473  1.4286 -0.1985  0.7418
 2907SOL     OW20179   4.212   4.575   1.649 -0.9231  0.4379 -0.2430
 2907SOL    HW120180   4.250   4.642   1.593  0.4124 -0.0668  0.0523
 2907SOL    HW220181   4.191   4.509   1.583 -0.4778 -0.2771  0.3259
 2908SOL     OW20182   3.317   0.809  13.647  0.6433  0.4458 -0.3604
 2908SOL    HW120183   3.326   0.891  13.599  0.8468  0.3243 -0.5309
 2908SOL    HW220184   3.406   0.777  13.662  0.7789  0.3940 -1.3071
 2909SOL     OW20185   3.393   2.900   6.477  0.0556  0.0641  0.2225
 2909SOL    HW120186   3.320   2.913   6.416 -1.1452 -0.9682  1.4304
 2909SOL    HW220187   3.471   2.914   6.423 -0.9077  1.5025 -0.7880
 2910SOL     OW20188   4.365   1.141  12.066 -0.5125  0.5401  0.0376
 2910SOL    HW120189   4.332   1.055  12.039  0.6292  0.3428 -0.7429
 2910SOL    HW220190   4.458   1.126  12.053 -0.2729  1.3618  0.8580
 2911SOL     OW20191   0.312   3.167  17.199 -0.0251  0.3395 -0.2615
 2911SOL    HW120192   0.285   3.223  17.126  0.2789  0.9191  0.0690
 2911SOL    HW220193   0.355   3.100  17.146 -1.6089  0.0038 -1.1169
 2912SOL     OW20194   1.548   0.242   2.401  0.5910 -0.0743 -0.0434
 2912SOL    HW120195   1.614   0.196   2.453  0.2499  0.2627  0.6883
 2912SOL    HW220196   1.594   0.259   2.319 -0.1531 -0.3545 -0.5104
 2913SOL     OW20197   0.251   2.710   6.757  0.2125  0.0015 -0.2892
 2913SOL    HW120198   0.249   2.731   6.850 -1.7728  0.6309 -0.4777
 2913SOL    HW220199   0.298   2.626   6.751 -0.1234 -0.3076  1.3481
 2914SOL     OW20200   1.179   0.276   0.062  0.2377 -0.2560 -0.4320
 2914SOL    HW120201   1.178   0.311   0.151  2.3250  0.2455 -0.5962
 2914SOL    HW220202   1.088   0.263   0.037 -0.0238 -0.5081  0.6655
 2915SOL     OW20203   4.225   2.932   5.195  0.0395  0.2221 -0.2855
 2915SOL    HW120204   4.210   2.878   5.118 -0.1265  0.1640 -0.2125
 2915SOL    HW220205   4.320   2.927   5.200 -0.0047 -2.3963 -1.8841
 2916SOL     OW20206   1.222   1.258  15.955 -0.0891  0.3425  0.3781
 2916SOL    HW120207   1.304   1.264  16.004  0.4088 -1.5967 -0.2087
 2916SOL    HW220208   1.231   1.310  15.876  1.3074 -1.1697 -0.4569
 2917SOL     OW20209   1.527   1.921   4.711  0.2504  0.0905 -0.1585
 2917SOL    HW120210   1.453   1.869   4.679  0.2730  0.6919 -1.1795
 2917SOL    HW220211   1.476   2.001   4.727  2.0755  1.2934 -0.4247
 2918SOL     OW20212   0.351   1.984   1.716  0.7002  0.2402  0.2161
 2918SOL    HW120213   0.424   2.030   1.759  0.3847  0.8398  0.0964
 2918SOL    HW220214   0.370   1.890   1.717 -1.3172 -0.1398  1.6364
 2919SOL     OW20215   4.662   2.342  17.514  0.0773 -0.2622  0.3341
 2919SOL    HW120216   4.580   2.311  17.551 -1.2431 -1.2393 -3.4779
 2919SOL    HW220217   4.634   2.397  17.441  0.6515 -0.4510 -0.0242
 2920SOL     OW20218   0.978   0.733   8.957 -0.4517 -0.0928  0.6989
 2920SOL    HW120219   1.055   0.788   8.945  1.5204 -2.7684  1.0575
 2920SOL    HW220220   0.917   0.803   8.978 -0.3909 -0.6394  2.6623
 2921SOL     OW20221   4.708   1.799  17.677 -0.1796 -0.4828 -0.1108
 2921SOL    HW120222   4.638   1.754   0.014 -0.1784 -0.3611  0.0067
 2921SOL    HW220223   4.657   1.836  17.605 -0.1664  2.9828  1.6251
 2922SOL     OW20224   4.140   0.663   6.035 -0.6191  0.2578  0.3941
 2922SOL    HW120225   4.115   0.576   6.066  1.9911 -0.2688  1.0418
 2922SOL    HW220226   4.222   0.678   6.084 -0.1049  1.3784 -0.8114
 2923SOL     OW20227   3.962   0.628   8.511  0.6238  0.1310 -0.0183
 2923SOL    HW120228   4.046   0.646   8.553  1.1847 -1.6110 -0.3850
 2923SOL    HW220229   3.915   0.708   8.534 -0.7288 -0.6477 -0.0785
 2924SOL     OW20230   2.342   3.735   3.557 -0.0328 -0.2895 -0.3784
 2924SOL    HW120231   2.317   3.770   3.471  1.5146 -0.5252 -0.9148
 2924SOL    HW220232   2.436   3.719   3.548  0.2487  0.9572  0.2649
 2925SOL     OW20233   4.660   2.205   8.690 -0.5182  0.2182  0.4501
 2925SOL    HW120234   4.627   2.116   8.705  3.6366 -1.9080 -3.0505
 2925SOL    HW220235   0.009   2.200   8.746  0.3630  0.2165 -0.7626
 2926SOL     OW20236   2.139   3.951   7.042  0.7757 -0.2975 -0.6201
 2926SOL    HW120237   2.156   4.031   7.091  2.1526 -1.2898  0.5078
 2926SOL    HW220238   2.053   3.922   7.075  1.4484 -2.1011 -0.4191
 2927SOL     OW20239   1.860   0.488   5.696 -0.0160  0.4124 -0.0455
 2927SOL    HW120240   1.770   0.519   5.706 -0.0483  0.0511  0.8304
 2927SOL    HW220241   1.848   0.403   5.740  1.7010  0.4549  0.5021
 2928SOL     OW20242   0.712   0.264   1.584  0.5136 -0.0661 -0.2441
 2928SOL    HW120243   0.685   0.247   1.494  0.2455 -1.4433  0.0962
 2928SOL    HW220244   0.624   0.274   1.619  0.6447  0.1966  0.0148
 2929SOL     OW20245   1.540   2.386   9.629 -0.2698  0.3520 -0.3683
 2929SOL    HW120246   1.613   2.327   9.611 -0.0843  0.9918 -1.6859
 2929SOL    HW220247   1.520   2.364   9.720  0.6967 -0.3219 -0.3202
 2930SOL     OW20248   1.075   1.799  15.395  0.5464  0.4040  0.2054
 2930SOL    HW120249   1.046   1.890  15.405  1.0231  0.3391  2.3013
 2930SOL    HW220250   1.066   1.772  15.487  1.8977  3.5102  1.2523
 2931SOL     OW20251   4.600   3.441   7.504  0.0178 -0.2949  0.5974
 2931SOL    HW120252   4.631   3.528   7.528 -1.1065  0.2505  0.0453
 2931SOL    HW220253   4.581   3.454   7.412 -0.7351 -1.1124  0.6377
 2932SOL     OW20254   4.102   2.766  15.677  0.5956 -0.3538 -0.1263
 2932SOL    HW120255   4.062   2.724  15.753 -1.3703  0.1529 -0.8816
 2932SOL    HW220256   4.154   2.704  15.625  1.3236  0.1631 -0.0180
 2933SOL     OW20257   4.459   2.927  13.328  0.0133 -0.4923  0.2025
 2933SOL    HW120258   4.378   2.970  13.299  1.0497  2.1417  1.2313
 2933SOL    HW220259   4.451   2.923  13.424  0.0120  2.2261  0.3326
 2934SOL     OW20260   3.190   1.244  11.572 -0.4485 -0.3962 -0.2936
 2934SOL    HW120261   3.215   1.173  11.513  1.3106 -0.3294  0.3604
 2934SOL    HW220262   3.224   1.208  11.655 -0.7547 -1.4666 -0.6435
 2935SOL     OW20263   0.831   4.375   5.607 -0.2808  0.1414  0.0006
 2935SOL    HW120264   0.859   4.343   5.693  3.3765  3.9632  0.2700
 2935SOL    HW220265   0.822   4.290   5.565 -0.0669  0.8069 -1.4179
 2936SOL     OW20266   4.621   2.060  12.889  0.0275  0.4751 -0.2611
 2936SOL    HW120267   4.645   2.147  12.920 -0.1677  0.8212 -1.0783
 2936SOL    HW220268   4.636   2.068  12.795  0.3096  0.4033 -0.2207
 2937SOL     OW20269   1.041   2.410   5.245  0.3112  0.2185  0.3303
 2937SOL    HW120270   1.126   2.439   5.211 -0.6331  0.1156 -2.1256
 2937SOL    HW220271   1.059   2.326   5.287 -1.3221  0.2643  1.1000
 2938SOL     OW20272   0.541   3.671  17.086 -0.1172 -0.9735 -0.2466
 2938SOL    HW120273   0.524   3.576  17.086 -2.9067 -0.4578  1.6734
 2938SOL    HW220274   0.623   3.668  17.135  0.3865  0.4221 -1.0077
 2939SOL     OW20275   0.804   3.109  12.150 -0.4784  0.2288  0.6072
 2939SOL    HW120276   0.797   3.149  12.064 -0.4343 -1.7826 -0.3283
 2939SOL    HW220277   0.894   3.135  12.165  0.3364 -0.5489 -2.9329
 2940SOL     OW20278   1.702   2.039   7.898 -0.1274 -0.3970  0.2776
 2940SOL    HW120279   1.796   2.053   7.899  0.0086 -1.2088 -0.2854
 2940SOL    HW220280   1.708   1.964   7.837  1.8740 -0.2556  0.2987
 2941SOL     OW20281   0.163   4.030   5.635  0.4964 -0.4912  0.1872
 2941SOL    HW120282   0.199   4.113   5.664  1.0108 -1.3889  2.1069
 2941SOL    HW220283   0.213   3.968   5.688  2.9256  0.3635 -1.1195
 2942SOL     OW20284   4.655   2.546   2.363  0.4767  0.0356  0.7604
 2942SOL    HW120285   4.642   2.626   2.312 -3.4863 -0.4996  0.9811
 2942SOL    HW220286   4.563   2.523   2.351  0.6082 -0.5320  0.8360
 2943SOL     OW20287   3.642   3.522   5.196  0.1042 -0.4930  0.7264
 2943SOL    HW120288   3.547   3.531   5.202  0.1096  0.9262 -1.2097
 2943SOL    HW220289   3.659   3.564   5.281 -1.0956  3.0724 -0.7858
 2944SOL     OW20290   3.262   1.701  16.680  0.1710  0.1023 -0.2234
 2944SOL    HW120291   3.210   1.668  16.753  0.9420  1.5659  0.9755
 2944SOL    HW220292   3.352   1.688  16.710  0.0185 -1.8599 -0.6067
 2945SOL     OW20293   4.522   2.498  16.921  0.6701 -0.3871  0.0524
 2945SOL    HW120294   4.433   2.464  16.930  0.0032  0.9885 -1.3710
 2945SOL    HW220295   4.549   2.433  16.856  0.6503 -1.3231  0.9774
 2946SOL     OW20296   3.134   1.181   3.200  0.3462  0.4674  0.0120
 2946SOL    HW120297   3.171   1.093   3.207  1.0750  0.5990 -2.1823
 2946SOL    HW220298   3.056   1.184   3.145  2.0177 -1.2959 -2.4825
 2947SOL     OW20299   1.971   0.604   2.798 -0.2221 -0.0385 -0.1129
 2947SOL    HW120300   1.898   0.595   2.860 -1.5157 -1.4653 -1.8635
 2947SOL    HW220301   1.996   0.512   2.796  2.9992  0.8662 -0.8687
 2948SOL     OW20302   3.286   3.357   1.698  0.5780 -0.2282 -0.3336
 2948SOL    HW120303   3.315   3.443   1.666  0.8349 -0.0013  0.4955
 2948SOL    HW220304   3.262   3.313   1.617  1.2645  0.5457 -0.9559
 2949SOL     OW20305   3.476   4.605   2.529 -0.8895  0.0438  0.4462
 2949SOL    HW120306   3.432   4.614   2.444  0.2084  0.4941 -0.0671
 2949SOL    HW220307   3.396   4.611   2.583 -1.1564 -1.1057  0.1710
 2950SOL     OW20308   3.962   2.431   8.131  0.5547 -0.6479  0.0981
 2950SOL    HW120309   3.946   2.350   8.082 -1.3037 -1.0129  1.3137
 2950SOL    HW220310   4.033   2.478   8.087 -1.6146  1.8073 -0.7881
 2951SOL     OW20311   1.129   0.391  13.179  0.1877 -0.1077 -0.2050
 2951SOL    HW120312   1.081   0.311  13.199 -1.4746  0.9337  0.0507
 2951SOL    HW220313   1.062   0.442  13.133  1.0477 -0.6118 -2.0200
 2952SOL     OW20314   2.081   0.067   6.938 -0.1645 -0.0759  0.6654
 2952SOL    HW120315   2.023   0.129   6.983 -1.3355  0.4630 -1.6071
 2952SOL    HW220316   2.123   0.129   6.879  0.6081 -0.7908  0.4673
 2953SOL     OW20317   3.397   3.973   1.301 -0.8531  0.3033  0.2448
 2953SOL    HW120318   3.322   4.031   1.308  0.4961  1.9582  1.1875
 2953SOL    HW220319   3.442   4.013   1.226  1.2854 -1.4194  0.5926
 2954SOL     OW20320   3.355   3.046   2.822  0.4561  0.0857 -0.5236
 2954SOL    HW120321   3.410   3.100   2.879 -0.4981 -0.6784  1.1124
 2954SOL    HW220322   3.394   3.071   2.738 -1.5119  1.2598 -1.0861
 2955SOL     OW20323   0.993   0.860   7.302  0.0587 -0.1264  1.0019
 2955SOL    HW120324   1.044   0.941   7.301 -0.3232  0.0891 -1.0161
 2955SOL    HW220325   0.986   0.836   7.395 -3.2735 -0.9208  0.5265
 2956SOL     OW20326   3.811   3.464  17.260  0.4032  0.2366 -0.1619
 2956SOL    HW120327   3.783   3.373  17.254  0.5244  0.1933 -0.0729
 2956SOL    HW220328   3.803   3.486  17.167 -0.6390 -2.3457 -0.6730
 2957SOL     OW20329   1.106   2.373   1.170  0.1141 -0.0061  0.0562
 2957SOL    HW120330   1.167   2.362   1.243  2.4687  1.5636 -1.6848
 2957SOL    HW220331   1.027   2.348   1.217  0.3320 -0.6256  0.0889
 2958SOL     OW20332   0.604   3.694   6.438 -0.1087 -0.6489 -0.1112
 2958SOL    HW120333   0.572   3.607   6.461 -0.1906  0.1284  2.6879
 2958SOL    HW220334   0.582   3.696   6.345  1.2437 -0.7140 -0.4216
 2959SOL     OW20335   3.875   3.727  10.746  0.1768  0.0510  0.0672
 2959SOL    HW120336   3.914   3.675  10.676  0.2388 -2.0538  1.6824
 2959SOL    HW220337   3.838   3.653  10.794 -0.5023  0.7037  0.5655
 2960SOL     OW20338   3.270   1.278  14.920 -0.4473  0.6442  0.0744
 2960SOL    HW120339   3.332   1.319  14.859  0.9595 -0.7445  0.5514
 2960SOL    HW220340   3.248   1.348  14.981  0.9828  1.2125 -0.0559
 2961SOL     OW20341   0.132   0.018   1.973 -0.0601  0.1369  0.0828
 2961SOL    HW120342   0.179   0.097   1.948 -0.0589 -0.6193 -2.3120
 2961SOL    HW220343   0.120   4.723   1.880  0.8826 -1.6051  0.3916
 2962SOL     OW20344   1.541   0.977   2.127 -0.2751 -0.6728 -0.1694
 2962SOL    HW120345   1.538   0.948   2.036 -0.0023  2.7678 -1.2889
 2962SOL    HW220346   1.559   1.071   2.129 -0.4703 -0.6264 -0.6216
 2963SOL     OW20347   0.668   1.306   0.035 -0.1565 -0.1292  0.9691
 2963SOL    HW120348   0.593   1.347  17.701  0.9788  0.7906 -0.0870
 2963SOL    HW220349   0.734   1.368   0.004  0.3832 -1.0305  0.3483
 2964SOL     OW20350   4.603   4.155  15.177 -0.5451  0.1653 -0.1589
 2964SOL    HW120351   4.604   4.095  15.252  1.0403  1.3773  0.8103
 2964SOL    HW220352   4.509   4.173  15.172 -0.7435 -0.6363  0.6617
 2965SOL     OW20353   2.273   3.285  17.430 -0.4730 -0.1557  0.0229
 2965SOL    HW120354   2.213   3.348  17.390  1.2694  0.8104 -1.0521
 2965SOL    HW220355   2.336   3.281  17.359 -2.1465  1.1324 -1.5380
 2966SOL     OW20356   2.932   3.766   8.606 -0.1721 -0.0639 -0.8183
 2966SOL    HW120357   3.010   3.783   8.659 -1.3959 -1.9266  1.5970
 2966SOL    HW220358   2.910   3.846   8.558 -1.6339 -0.2653 -0.4740
 2967SOL     OW20359   3.129   1.217   4.806  0.0959 -0.0562  0.4398
 2967SOL    HW120360   3.040   1.242   4.781  0.1023 -0.8477 -0.3669
 2967SOL    HW220361   3.154   1.309   4.817 -0.5310  0.0473  1.0074
 2968SOL     OW20362   3.542   4.468   9.718 -0.1995 -0.3087  0.0498
 2968SOL    HW120363   3.549   4.449   9.811  1.7439  0.4972  0.0513
 2968SOL    HW220364   3.492   4.387   9.702  0.1941 -0.6151  0.3665
 2969SOL     OW20365   3.305   3.898   4.697  0.1215  0.0537  0.6892
 2969SOL    HW120366   3.384   3.868   4.743 -0.0010 -0.6527  0.4383
 2969SOL    HW220367   3.256   3.816   4.689 -0.0271 -0.0347  2.3340
 2970SOL     OW20368   1.990   4.520   0.909  0.6020 -0.5042  0.4743
 2970SOL    HW120369   2.034   4.605   0.910 -0.4183  0.0230 -0.8249
 2970SOL    HW220370   1.925   4.537   0.977 -0.9771 -0.6291 -1.0372
 2971SOL     OW20371   2.307   1.809  15.211  0.3444  0.4558 -0.2863
 2971SOL    HW120372   2.264   1.821  15.126 -0.4886 -1.4135 -0.1327
 2971SOL    HW220373   2.252   1.736  15.239  1.1697  0.2379  0.7855
 2972SOL     OW20374   1.799   2.418  15.414  0.2866  0.3094 -0.5253
 2972SOL    HW120375   1.872   2.465  15.453  0.9749  0.4946 -2.0208
 2972SOL    HW220376   1.797   2.459  15.327  1.9111 -0.6258 -0.9920
 2973SOL     OW20377   4.334   2.009   5.554 -0.5901  0.4436 -0.2139
 2973SOL    HW120378   4.401   1.966   5.501 -0.9354 -0.7284  0.3067
 2973SOL    HW220379   4.389   1.999   5.632  0.5891  1.4399 -0.9170
 2974SOL     OW20380   0.130   1.058   2.779  0.3333 -0.5280 -0.3775
 2974SOL    HW120381   0.110   1.113   2.855  1.9861 -2.1278  1.1987
 2974SOL    HW220382   0.054   0.999   2.778  0.4565 -0.7156  1.5221
 2975SOL     OW20383   1.623   3.879   1.118 -0.6412  0.3562 -0.0058
 2975SOL    HW120384   1.639   3.939   1.045 -1.2874 -0.1114 -0.5324
 2975SOL    HW220385   1.603   3.803   1.062 -0.5234  1.6186 -1.7668
 2976SOL     OW20386   1.599   2.084   8.141  0.3434 -0.2625 -0.2462
 2976SOL    HW120387   1.625   2.066   8.051 -1.9083 -0.1649 -0.9366
 2976SOL    HW220388   1.674   2.138   8.163 -1.6683  1.6928  1.7837
 2977SOL     OW20389   1.382   2.753   9.061  0.0783 -0.0860 -0.2282
 2977SOL    HW120390   1.453   2.800   9.105  0.1139  0.7266 -1.1576
 2977SOL    HW220391   1.355   2.807   8.987  0.8787  0.0678 -0.4090
 2978SOL     OW20392   1.208   1.051   6.389  0.5246 -0.3997 -0.9397
 2978SOL    HW120393   1.179   1.031   6.479 -0.6709 -2.8662 -1.8720
 2978SOL    HW220394   1.238   1.138   6.415 -1.4249  0.4067 -1.4671
 2979SOL     OW20395   1.480   2.463   7.996  0.0666  0.2800  0.0122
 2979SOL    HW120396   1.557   2.473   8.052 -0.9351  0.5995  1.3291
 2979SOL    HW220397   1.502   2.378   7.958 -2.7167  0.1371 -1.2701
 2980SOL     OW20398   4.026   3.585   3.939 -0.2849  0.5879  0.0221
 2980SOL    HW120399   3.973   3.537   4.003 -1.6583  1.1427 -0.6963
 2980SOL    HW220400   3.978   3.554   3.862  2.6150 -0.1823 -1.5019
 2981SOL     OW20401   3.306   0.881   8.841  0.5588 -0.2277  0.3242
 2981SOL    HW120402   3.361   0.936   8.897 -1.4856  0.3037  1.8239
 2981SOL    HW220403   3.221   0.889   8.884  1.0437  1.7803  0.9240
 2982SOL     OW20404   2.294   0.246   3.410 -0.3866  0.1676  0.2613
 2982SOL    HW120405   2.209   0.224   3.371 -0.1046 -2.2435  1.0443
 2982SOL    HW220406   2.315   0.333   3.375 -0.0507  0.1607  0.4457
 2983SOL     OW20407   1.715   3.479   3.398 -0.6257 -0.9196  0.5742
 2983SOL    HW120408   1.798   3.463   3.352 -0.7215 -0.4917  0.2449
 2983SOL    HW220409   1.660   3.404   3.375 -0.9244  0.0972 -2.0348
 2984SOL     OW20410   4.468   1.790   8.169 -0.3257 -0.1575 -0.2559
 2984SOL    HW120411   4.561   1.787   8.189 -0.2751  1.1528 -0.2737
 2984SOL    HW220412   4.466   1.812   8.076  2.2308  0.1317 -0.2223
 2985SOL     OW20413   0.466   1.684   2.114 -0.0178  0.3292 -0.2605
 2985SOL    HW120414   0.560   1.665   2.111 -0.2542 -0.7994 -0.4678
 2985SOL    HW220415   0.433   1.652   2.030 -2.2043 -0.4583  0.9049
 2986SOL     OW20416   4.144   1.556   7.580  0.2651  0.0003  0.1989
 2986SOL    HW120417   4.148   1.641   7.538  0.8839  0.7267  1.7288
 2986SOL    HW220418   4.229   1.516   7.561  0.8818  2.5696 -2.2688
 2987SOL     OW20419   2.247   3.187  14.650  0.3747  0.0617  0.4317
 2987SOL    HW120420   2.211   3.162  14.565  0.2933 -0.9563  0.7678
 2987SOL    HW220421   2.341   3.170  14.644  0.9327  2.2970  2.7818
 2988SOL     OW20422   1.028   3.462  15.125 -0.0706  0.1252  0.0826
 2988SOL    HW120423   1.054   3.528  15.189 -1.1235 -0.7976  1.4560
 2988SOL    HW220424   0.937   3.488  15.116  0.4076  1.6426 -0.4868
 2989SOL     OW20425   3.657   1.783  12.017  0.4765  0.6781 -0.4897
 2989SOL    HW120426   3.588   1.743  12.070  1.9911 -0.4912  0.6065
 2989SOL    HW220427   3.649   1.725  11.941 -0.5264  1.0305 -0.6508
 2990SOL     OW20428   4.115   0.397   5.061 -0.4173 -0.2396  0.2804
 2990SOL    HW120429   4.132   0.464   5.127 -4.7614  0.6842  0.4575
 2990SOL    HW220430   4.133   0.314   5.106  2.3182  0.2292  0.0783
 2991SOL     OW20431   2.649   0.354   3.156 -0.4648  0.3548 -0.2431
 2991SOL    HW120432   2.713   0.408   3.203  1.9255 -0.5925 -2.3990
 2991SOL    HW220433   2.693   0.271   3.173  1.3131  1.0626 -1.3489
 2992SOL     OW20434   2.323   3.200  11.052 -0.5882  0.0068 -0.3171
 2992SOL    HW120435   2.411   3.176  11.082 -0.8759  0.3100  0.7613
 2992SOL    HW220436   2.283   3.204  11.139 -0.1108 -1.4541 -0.0340
 2993SOL     OW20437   1.243   0.594   5.489  0.0211  0.0955 -0.3360
 2993SOL    HW120438   1.213   0.670   5.539 -1.5603 -0.9699  0.3629
 2993SOL    HW220439   1.277   0.550   5.567  1.5146  0.4783 -0.7718
 2994SOL     OW20440   4.638   4.046   6.551  0.0686 -0.4314  0.2527
 2994SOL    HW120441   4.604   4.085   6.632  0.6994  1.3746 -0.3489
 2994SOL    HW220442   4.634   3.954   6.575  2.5334 -0.8077 -0.7481
 2995SOL     OW20443   0.500   2.698   2.654  0.2618 -0.4101 -0.3024
 2995SOL    HW120444   0.459   2.649   2.582 -2.6539  1.5372  0.0463
 2995SOL    HW220445   0.588   2.688   2.615  0.2634  1.7552 -0.8380
 2996SOL     OW20446   3.037   4.454   7.874  0.8482 -0.1610 -0.1645
 2996SOL    HW120447   3.000   4.377   7.832  1.4606 -0.5650  0.0183
 2996SOL    HW220448   3.073   4.408   7.951 -1.5018  0.9217  1.5680
 2997SOL     OW20449   3.021   3.285   6.913 -0.1848 -0.5552 -0.0442
 2997SOL    HW120450   3.110   3.306   6.885  0.1398 -1.0393  0.5901
 2997SOL    HW220451   3.044   3.251   7.000 -0.4327 -1.4093 -0.3124
 2998SOL     OW20452   4.654   3.159  14.662  0.0333 -0.7261 -0.1868
 2998SOL    HW120453   4.582   3.095  14.665  1.4303 -2.3607 -1.2012
 2998SOL    HW220454   0.004   3.104  14.648 -0.5843 -2.2426  2.1754
 2999SOL     OW20455   1.648   2.275   7.447 -0.3807 -0.0716  0.3202
 2999SOL    HW120456   1.742   2.296   7.447 -0.3368 -0.2898 -2.0186
 2999SOL    HW220457   1.619   2.341   7.384  0.4170 -0.1690 -0.1480
 3000SOL     OW20458   4.608   3.175   9.341  0.0521  0.1767  0.2748
 3000SOL    HW120459   4.638   3.190   9.252 -0.7548 -1.8475 -0.3278
 3000SOL    HW220460   4.618   3.263   9.378  1.7801  0.2105 -0.2745
 3001SOL     OW20461   1.935   2.384   2.309  0.0126 -0.6136  0.3649
 3001SOL    HW120462   1.960   2.466   2.353  0.9679 -0.7861  0.1549
 3001SOL    HW220463   1.946   2.407   2.217 -1.1942 -0.3035  0.3035
 3002SOL     OW20464   4.155   1.785   7.419  0.0357  0.0094  0.1080
 3002SOL    HW120465   4.114   1.732   7.351  0.7501 -0.6783  0.2154
 3002SOL    HW220466   4.168   1.873   7.385 -1.7798 -0.0784 -0.7752
 3003SOL     OW20467   1.322   3.821   4.381 -0.1819 -0.3526 -0.1243
 3003SOL    HW120468   1.247   3.767   4.358  1.1326 -2.4073  0.3996
 3003SOL    HW220469   1.307   3.896   4.323  2.0130  0.2880  0.1091
 3004SOL     OW20470   0.653   1.984   5.632 -0.1528 -0.4744 -0.4232
 3004SOL    HW120471   0.629   2.042   5.705  0.6883 -0.1535 -0.4054
 3004SOL    HW220472   0.643   1.893   5.659  0.9329  0.2743  2.4833
 3005SOL     OW20473   1.620   0.262   5.046  0.1727 -0.2764  0.7926
 3005SOL    HW120474   1.689   0.272   4.981 -1.6974  0.7545 -1.0127
 3005SOL    HW220475   1.586   0.173   5.036  0.3292  0.0528 -2.4497
 3006SOL     OW20476   3.858   3.174   6.401 -0.9506  0.0543  0.0775
 3006SOL    HW120477   3.781   3.230   6.396  0.4110  1.8777 -0.2021
 3006SOL    HW220478   3.860   3.158   6.307 -0.3840 -0.6721  0.2061
 3007SOL     OW20479   2.952   2.603   2.854  0.0618 -0.1996  0.5266
 3007SOL    HW120480   3.014   2.666   2.816 -0.4807  0.7362  1.1851
 3007SOL    HW220481   2.989   2.518   2.829  3.8658  1.7340 -0.4953
 3008SOL     OW20482   1.981   2.371   9.836 -0.0455 -0.1508  0.4558
 3008SOL    HW120483   2.053   2.391   9.777 -0.9004  0.0180 -0.5376
 3008SOL    HW220484   1.960   2.464   9.844  2.7432  0.3898  1.4168
 3009SOL     OW20485   2.761   3.094   4.926 -0.3083  0.2794 -0.6260
 3009SOL    HW120486   2.750   3.068   5.017  0.2380 -1.0517 -0.9461
 3009SOL    HW220487   2.799   3.182   4.935 -0.8993  0.5358 -0.5981
 3010SOL     OW20488   4.540   1.619   5.931 -0.6007  0.1958  0.1215
 3010SOL    HW120489   4.448   1.592   5.927 -0.9746  1.3664  0.8878
 3010SOL    HW220490   4.556   1.652   5.842  0.5579 -0.0451  0.2417
 3011SOL     OW20491   4.495   1.267   3.275  0.3892  0.2795 -0.0119
 3011SOL    HW120492   4.524   1.211   3.203  1.6222 -1.0799  1.5511
 3011SOL    HW220493   4.452   1.340   3.231  0.7266  0.7573  0.4481
 3012SOL     OW20494   2.842   0.040   3.427 -0.1139 -0.1531 -0.0648
 3012SOL    HW120495   2.849   0.091   3.346  1.5997 -1.6956 -0.8814
 3012SOL    HW220496   2.760   4.719   3.422 -1.1660  1.5064  1.0604
 3013SOL     OW20497   2.399   2.027   0.968 -0.1172  0.8523  0.7024
 3013SOL    HW120498   2.482   1.980   0.964  0.2546  1.3659  2.1495
 3013SOL    HW220499   2.424   2.116   0.992 -3.6861  2.3767 -1.2029
 3014SOL     OW20500   0.429   4.663   6.990 -0.4625 -0.1429 -0.0442
 3014SOL    HW120501   0.492   4.695   6.925 -0.6085 -0.3782 -0.3015
 3014SOL    HW220502   0.358   4.676   6.927 -3.5551 -2.2262  3.0361
 3015SOL     OW20503   4.446   3.965  13.505 -0.2903 -0.3962 -0.3177
 3015SOL    HW120504   4.443   4.051  13.464 -0.3175 -0.9813 -1.5599
 3015SOL    HW220505   4.356   3.950  13.533 -0.1869 -2.3803 -1.0329
 3016SOL     OW20506   3.215   3.783  13.840  0.1659 -0.2421  0.7284
 3016SOL    HW120507   3.286   3.840  13.810  0.8675 -0.9185  1.0910
 3016SOL    HW220508   3.139   3.837  13.862 -0.3359 -0.1684 -1.1781
 3017SOL     OW20509   2.464   1.966   4.466  0.4572  0.3668 -0.1662
 3017SOL    HW120510   2.533   1.995   4.407  0.0441 -0.6080 -1.1281
 3017SOL    HW220511   2.434   2.048   4.505 -0.6207 -0.0816 -0.0354
 3018SOL     OW20512   0.016   3.517   9.674 -0.3262  0.3630  0.0355
 3018SOL    HW120513   4.689   3.587   9.640 -1.3950 -0.5800 -0.1931
 3018SOL    HW220514   0.057   3.483   9.594 -0.2736  1.6419 -0.4875
 3019SOL     OW20515   2.045   2.738   3.145 -0.3520  0.7492  0.3203
 3019SOL    HW120516   1.959   2.765   3.177 -0.7412  0.4980 -0.5274
 3019SOL    HW220517   2.046   2.650   3.182 -3.0188  0.5254 -0.1260
 3020SOL     OW20518   3.182   2.575   5.531 -0.7136  0.2144  0.1039
 3020SOL    HW120519   3.135   2.650   5.495  1.0991  0.4840 -1.7112
 3020SOL    HW220520   3.129   2.555   5.608  1.0313 -0.4275  1.1470
 3021SOL     OW20521   3.807   1.102  17.067  0.2186 -0.0358  0.2253
 3021SOL    HW120522   3.722   1.125  17.102  0.1645 -1.2469  0.9026
 3021SOL    HW220523   3.830   1.177  17.012  0.2790 -0.5105 -0.4104
 3022SOL     OW20524   0.189   0.149  11.035  0.5641 -0.5104  0.0509
 3022SOL    HW120525   0.131   0.125  11.107 -0.6475 -0.3744 -0.8897
 3022SOL    HW220526   0.266   0.171  11.087  0.0007  2.1484 -0.2602
 3023SOL     OW20527   1.069   2.138  13.486 -0.1579  0.2345  0.2491
 3023SOL    HW120528   1.000   2.151  13.551 -2.6130 -1.4210 -2.0038
 3023SOL    HW220529   1.144   2.171  13.536  0.3895 -0.9359  0.2071
 3024SOL     OW20530   4.689   4.458   1.770 -0.0556 -0.0799 -0.2119
 3024SOL    HW120531   4.630   4.478   1.843 -1.1209  0.1728 -1.1389
 3024SOL    HW220532   4.670   4.370   1.739 -2.1254  0.2858  0.0230
 3025SOL     OW20533   4.410   2.594   5.029  0.1175  0.7997 -0.5689
 3025SOL    HW120534   4.365   2.641   5.100  0.4574 -0.2828  0.3583
 3025SOL    HW220535   4.393   2.509   5.069 -0.2372  0.5788 -1.1808
 3026SOL     OW20536   0.641   2.554   5.536 -0.2101  0.1621  0.0476
 3026SOL    HW120537   0.654   2.637   5.490 -2.6306 -1.2360 -3.1014
 3026SOL    HW220538   0.601   2.500   5.469  1.5927  0.2120 -1.0774
 3027SOL     OW20539   0.293   0.300   5.316 -0.3850  0.4333 -0.1844
 3027SOL    HW120540   0.286   0.210   5.283 -1.5913  0.2528  0.5657
 3027SOL    HW220541   0.226   0.345   5.264 -1.3210 -0.2585  0.4242
 3028SOL     OW20542   3.953   0.166   6.065 -0.0370  0.3538 -0.0239
 3028SOL    HW120543   3.909   0.100   6.118  1.9999 -1.0005 -0.0198
 3028SOL    HW220544   4.006   0.106   6.013  0.7468  0.2286  0.9420
 3029SOL     OW20545   1.841   0.286  10.632 -0.3656 -0.6189  0.2097
 3029SOL    HW120546   1.918   0.251  10.676 -0.9072 -0.1373  1.5382
 3029SOL    HW220547   1.880   0.325  10.554  1.5258 -0.2005  1.3718
 3030SOL     OW20548   2.812   2.990   3.810  0.1248  0.2324 -0.2885
 3030SOL    HW120549   2.883   2.950   3.760 -1.8721 -1.9389 -1.3975
 3030SOL    HW220550   2.821   2.947   3.895  1.8729  1.1277 -0.0306
 3031SOL     OW20551   1.736   3.252   4.501  0.4316 -0.1087  0.1892
 3031SOL    HW120552   1.691   3.168   4.502  0.9021 -0.3410  1.6824
 3031SOL    HW220553   1.707   3.286   4.416  3.2842  1.5253 -0.1327
 3032SOL     OW20554   1.337   1.404   4.059  0.5682  0.5214 -0.6697
 3032SOL    HW120555   1.408   1.377   4.118 -0.3283  0.6585  0.4746
 3032SOL    HW220556   1.388   1.468   4.009 -0.0644  0.1301 -1.8104
 3033SOL     OW20557   1.761   0.427   6.766  0.4627  0.3892  0.3849
 3033SOL    HW120558   1.833   0.433   6.829  1.8229 -1.2799 -0.9911
 3033SOL    HW220559   1.802   0.393   6.687 -0.1403 -2.6961  1.3966
 3034SOL     OW20560   4.313   0.503   2.575 -0.0697 -0.6832 -0.2099
 3034SOL    HW120561   4.240   0.445   2.597 -0.3362 -0.1131  0.4032
 3034SOL    HW220562   4.294   0.520   2.483  1.3102  1.0285 -0.1912
 3035SOL     OW20563   1.676   0.078  11.080  0.1989 -0.6378 -0.4590
 3035SOL    HW120564   1.615   0.018  11.036  0.7942  0.3993 -2.7253
 3035SOL    HW220565   1.628   0.161  11.076  3.9227  1.5186 -0.6875
 3036SOL     OW20566   2.193   2.211   8.138  0.4219  0.0800 -0.0728
 3036SOL    HW120567   2.203   2.128   8.091  0.0508  0.1875 -0.3374
 3036SOL    HW220568   2.284   2.234   8.156  0.3600 -1.1462  1.8290
 3037SOL     OW20569   4.172   1.867  13.885  0.5282 -0.3236  0.3990
 3037SOL    HW120570   4.110   1.919  13.935  0.2949 -0.9292  0.7428
 3037SOL    HW220571   4.253   1.919  13.881  1.9323 -2.4331  1.0668
 3038SOL     OW20572   2.350   4.001  15.339 -0.7256 -0.5106  0.3974
 3038SOL    HW120573   2.338   3.967  15.427  0.3745  1.0540  1.1431
 3038SOL    HW220574   2.417   3.937  15.316 -1.4603 -0.1715 -2.6970
 3039SOL     OW20575   1.971   1.814   4.772  0.2743 -0.0909  0.3286
 3039SOL    HW120576   1.898   1.816   4.710  0.4968 -0.9653  0.0439
 3039SOL    HW220577   2.035   1.858   4.717 -1.1272 -0.8273 -1.8878
 3040SOL     OW20578   3.469   2.552   2.938 -0.1645 -0.5535  0.2483
 3040SOL    HW120579   3.469   2.458   2.920 -0.1177 -0.5225  0.0863
 3040SOL    HW220580   3.418   2.577   2.861  0.9409 -1.4326 -0.7731
 3041SOL     OW20581   2.659   3.699   3.606 -0.0761  0.1397 -0.4306
 3041SOL    HW120582   2.618   3.767   3.660 -0.0681  1.8652 -2.6158
 3041SOL    HW220583   2.752   3.719   3.621 -0.1172  0.2398 -0.3058
 3042SOL     OW20584   2.738   2.689   4.421  0.4228 -0.1260 -0.5131
 3042SOL    HW120585   2.670   2.751   4.446  3.3941  2.9322 -0.0778
 3042SOL    HW220586   2.799   2.750   4.380 -0.1212  1.6251  1.2763
 3043SOL     OW20587   1.429   2.094  12.777  0.0905 -0.5650  0.5281
 3043SOL    HW120588   1.424   2.158  12.848 -2.4457 -0.8221  0.5805
 3043SOL    HW220589   1.496   2.127  12.716 -1.5280 -0.3848 -1.1476
 3044SOL     OW20590   1.134   2.427   0.880  0.1161 -0.0618  0.1079
 3044SOL    HW120591   1.145   2.395   0.970 -0.3719  0.0787  0.2201
 3044SOL    HW220592   1.075   2.363   0.841  0.0257  0.2667 -0.2944
 3045SOL     OW20593   3.563   1.529   3.882 -0.3561  0.2985 -0.6558
 3045SOL    HW120594   3.624   1.557   3.951  1.4782  0.3562 -2.2926
 3045SOL    HW220595   3.593   1.438   3.876  2.1468  1.0299  0.4794
 3046SOL     OW20596   3.868   3.392   8.969  0.1791 -0.3592 -0.0420
 3046SOL    HW120597   3.949   3.400   8.918 -0.0921  3.0016  0.0815
 3046SOL    HW220598   3.827   3.478   8.967  3.5346  1.1670 -2.9853
 3047SOL     OW20599   1.628   1.723   6.406 -0.0626  0.8875 -0.0706
 3047SOL    HW120600   1.718   1.741   6.381  0.0287 -0.5642 -0.7614
 3047SOL    HW220601   1.639   1.736   6.500 -0.7142 -0.0560  0.1309
 3048SOL     OW20602   0.935   4.098   6.121  0.1825  0.1301 -0.2049
 3048SOL    HW120603   0.985   4.022   6.091 -0.0833 -0.9901  2.1522
 3048SOL    HW220604   0.894   4.070   6.203  0.0877 -0.2900 -0.3971
 3049SOL     OW20605   3.297   0.193   2.482  0.1254  0.5981  0.1792
 3049SOL    HW120606   3.357   0.252   2.527 -1.1991  1.5319  0.7111
 3049SOL    HW220607   3.303   0.118   2.541  2.4946 -0.1622 -1.0649
 3050SOL     OW20608   3.675   2.866  12.627 -0.3776  0.0051  0.2294
 3050SOL    HW120609   3.712   2.838  12.711  0.7557 -0.3174 -0.3799
 3050SOL    HW220610   3.735   2.817  12.570 -1.7969  0.0248 -1.2749
 3051SOL     OW20611   1.007   1.295   0.225 -0.4773 -0.1859  0.4258
 3051SOL    HW120612   0.942   1.364   0.242  0.2905  0.7159 -0.2958
 3051SOL    HW220613   1.089   1.329   0.260 -0.3696 -1.7605  1.7167
 3052SOL     OW20614   2.702   0.298  10.406  0.5787 -0.0136 -0.5759
 3052SOL    HW120615   2.781   0.244  10.405  0.0706 -0.8148  1.2900
 3052SOL    HW220616   2.637   0.254  10.461 -0.7490  0.7487 -1.5406
 3053SOL     OW20617   0.891   1.343   2.661 -0.1531 -0.0091  0.7905
 3053SOL    HW120618   0.832   1.367   2.733 -0.9048 -0.8206  0.4416
 3053SOL    HW220619   0.843   1.377   2.586 -0.2212 -0.9358  0.4139
 3054SOL     OW20620   1.477   1.230   3.734  0.4566  0.0999  0.4580
 3054SOL    HW120621   1.527   1.218   3.815 -0.5924 -3.5120  0.5498
 3054SOL    HW220622   1.480   1.147   3.687 -0.7054 -0.5990  1.6231
 3055SOL     OW20623   0.129   3.971  14.213 -0.1669 -0.1373  0.0973
 3055SOL    HW120624   0.156   4.047  14.264  0.8663 -0.0403 -0.6012
 3055SOL    HW220625   0.046   3.940  14.249  0.1176 -0.8842  0.1114
 3056SOL     OW20626   3.174   3.979   3.850 -0.2534  0.1733 -0.0480
 3056SOL    HW120627   3.240   3.974   3.919 -1.4762 -0.2331  1.1000
 3056SOL    HW220628   3.207   3.911   3.792 -2.1427  1.0968 -2.2215
 3057SOL     OW20629   0.224   3.391  11.131  0.1349 -0.3858  0.4655
 3057SOL    HW120630   0.233   3.296  11.122  1.1052 -0.2878  0.3421
 3057SOL    HW220631   0.274   3.420  11.054  0.0536  0.3283  0.6847
 3058SOL     OW20632   1.920   0.401   1.921  0.0162  0.5750 -0.3269
 3058SOL    HW120633   1.971   0.389   2.001  0.4384 -0.3785 -0.7412
 3058SOL    HW220634   1.832   0.404   1.959 -0.8461 -0.5801 -2.2560
 3059SOL     OW20635   2.979   1.969   5.107 -0.2475 -0.0714  0.2315
 3059SOL    HW120636   2.932   1.887   5.097  1.2868 -1.1596  1.8940
 3059SOL    HW220637   3.056   1.942   5.158 -1.3857 -2.6167  0.5522
 3060SOL     OW20638   1.555   3.318   6.486 -0.0911 -0.0089  0.3985
 3060SOL    HW120639   1.553   3.304   6.391 -2.6618 -0.1051  0.4737
 3060SOL    HW220640   1.470   3.282   6.514 -0.5536 -0.5700 -1.7398
 3061SOL     OW20641   0.291   3.821   1.226  0.1551 -0.2905 -0.4177
 3061SOL    HW120642   0.330   3.907   1.245 -3.1093  1.0941  0.1609
 3061SOL    HW220643   0.268   3.786   1.312 -1.0672  0.4733 -0.4226
 3062SOL     OW20644   1.379   0.986   6.133 -0.0429 -0.3600  0.0022
 3062SOL    HW120645   1.450   1.042   6.166  0.6010 -1.2152  0.0569
 3062SOL    HW220646   1.306   1.015   6.188 -0.7281 -0.1484 -1.0058
 3063SOL     OW20647   0.594   2.706   8.399 -0.6232 -0.2597  0.2008
 3063SOL    HW120648   0.507   2.673   8.378 -1.4226  1.9314  0.0964
 3063SOL    HW220649   0.593   2.680   8.491 -1.1151 -1.2531 -0.0842
 3064SOL     OW20650   3.125   1.371   1.311 -0.3855 -0.5810 -0.0564
 3064SOL    HW120651   3.079   1.293   1.342  0.4288 -0.5381  1.2361
 3064SOL    HW220652   3.060   1.433   1.343 -0.5823 -0.3204 -0.9532
 3065SOL     OW20653   2.703   2.041   5.441 -0.2560  0.0359  0.5797
 3065SOL    HW120654   2.618   2.040   5.483 -1.0337 -0.9226 -1.0177
 3065SOL    HW220655   2.733   1.961   5.486 -2.2798 -1.8175 -1.3709
 3066SOL     OW20656   0.384   3.101   3.377  0.7194  0.0467 -0.1289
 3066SOL    HW120657   0.327   3.035   3.339 -0.1374  0.9441 -0.3990
 3066SOL    HW220658   0.468   3.057   3.386  0.4848  0.0364  2.0790
 3067SOL     OW20659   4.204   1.341   7.148  0.5063 -0.5484 -0.2400
 3067SOL    HW120660   4.153   1.353   7.228 -0.4869  0.4011 -1.0122
 3067SOL    HW220661   4.279   1.391   7.182 -0.5815  1.3663 -0.6471
 3068SOL     OW20662   3.836   0.097   4.265 -0.3470  0.0577  0.2680
 3068SOL    HW120663   3.857   0.095   4.171  2.2807 -1.1918  0.8794
 3068SOL    HW220664   3.744   0.123   4.270 -0.2391  0.8409 -1.7302
 3069SOL     OW20665   4.478   4.039  17.448  0.5240  0.3908  0.3504
 3069SOL    HW120666   4.435   4.101  17.507 -2.2099 -1.2655  0.1078
 3069SOL    HW220667   4.465   4.084  17.364 -1.2970  2.6707  1.8388
 3070SOL     OW20668   1.525   2.127   2.443  0.6478 -0.1666  0.9305
 3070SOL    HW120669   1.583   2.157   2.373 -2.2013 -1.8933 -2.2191
 3070SOL    HW220670   1.441   2.173   2.431  0.4597 -0.6881  0.2162
 3071SOL     OW20671   2.636   0.033   6.123  0.3861  0.2686  0.2454
 3071SOL    HW120672   2.718   0.064   6.160 -0.6541  2.1231  1.0150
 3071SOL    HW220673   2.588   0.114   6.105 -0.6384 -0.2854  0.4371
 3072SOL     OW20674   2.039   3.926   3.703  0.1741 -0.2719  0.0992
 3072SOL    HW120675   2.059   3.895   3.614 -0.9750  1.4268 -0.7606
 3072SOL    HW220676   2.002   4.011   3.679 -1.2886 -0.8748  0.2128
 3073SOL     OW20677   3.331   1.947   1.769 -0.4334 -0.4985 -0.0442
 3073SOL    HW120678   3.317   1.859   1.804 -1.4468 -0.1281  0.4702
 3073SOL    HW220679   3.253   1.995   1.794  0.3871  0.2837  1.0179
 3074SOL     OW20680   3.952   2.098  10.620 -0.7525 -0.2769 -0.4508
 3074SOL    HW120681   3.964   2.015  10.666 -0.4318  0.4637  0.7981
 3074SOL    HW220682   4.016   2.152  10.665 -1.5213  0.6898 -0.5079
 3075SOL     OW20683   1.451   1.505   5.304 -0.5066  0.2085 -0.0529
 3075SOL    HW120684   1.462   1.411   5.292  1.1716  0.3580  0.4098
 3075SOL    HW220685   1.368   1.527   5.261 -1.1946 -4.0619 -0.9457
 3076SOL     OW20686   0.654   1.394   2.225  0.6698  0.5172  0.3982
 3076SOL    HW120687   0.670   1.310   2.184 -0.2955  0.6892 -0.3300
 3076SOL    HW220688   0.662   1.444   2.144  1.0475 -0.7715 -0.3425
 3077SOL     OW20689   2.196   1.227  10.653  0.0056  0.4082 -0.3719
 3077SOL    HW120690   2.149   1.143  10.653  1.9699 -0.7103 -0.0064
 3077SOL    HW220691   2.268   1.202  10.712  1.3435  1.6372 -1.5008
 3078SOL     OW20692   2.843   4.509   0.927 -0.1241  0.9969 -0.1346
 3078SOL    HW120693   2.831   4.562   0.848  0.5453  0.4479 -0.6069
 3078SOL    HW220694   2.892   4.571   0.982 -0.2127  0.4530  0.5518
 3079SOL     OW20695   2.107   0.754   7.597  0.2033 -0.1244  0.2300
 3079SOL    HW120696   2.125   0.848   7.591 -1.4003  0.2324  1.0823
 3079SOL    HW220697   2.013   0.753   7.614  0.2714  0.4364  0.6635
 3080SOL     OW20698   2.364   4.575   1.968 -0.2096  0.1925  0.2527
 3080SOL    HW120699   2.365   4.479   1.973 -0.5658  0.2099  0.6364
 3080SOL    HW220700   2.455   4.604   1.959 -0.1885  0.2493  0.6489
 3081SOL     OW20701   3.162   2.741   6.297  0.1137  0.1616  0.7450
 3081SOL    HW120702   3.134   2.829   6.324 -1.4340 -0.2061  0.3497
 3081SOL    HW220703   3.078   2.696   6.291  1.4579 -1.8541 -2.5094
 3082SOL     OW20704   1.785   1.631   3.831 -0.1049 -0.1360 -0.2337
 3082SOL    HW120705   1.878   1.645   3.812  0.1816 -1.5673  0.1307
 3082SOL    HW220706   1.759   1.722   3.821 -0.1426  0.0679  1.7939
 3083SOL     OW20707   1.615   2.292   3.575 -0.5592 -0.7722  0.4495
 3083SOL    HW120708   1.694   2.280   3.522  0.6995 -1.1837  2.4006
 3083SOL    HW220709   1.649   2.310   3.663 -3.1999  0.4454  1.2332
 3084SOL     OW20710   2.934   2.841   5.197 -0.3116 -0.3555  0.3752
 3084SOL    HW120711   2.870   2.770   5.202 -0.2555 -0.3643  0.9682
 3084SOL    HW220712   2.872   2.914   5.198 -1.0659 -0.9923 -0.0553
 3085SOL     OW20713   3.961   2.522   3.246  0.2399  0.1594  0.7549
 3085SOL    HW120714   3.879   2.512   3.198  0.9241 -0.2267 -0.3186
 3085SOL    HW220715   4.018   2.516   3.170 -3.4329 -3.3282 -1.7314
 3086SOL     OW20716   4.541   3.192  15.621  0.0281  0.0998 -0.4808
 3086SOL    HW120717   4.582   3.189  15.534 -0.7547 -1.4025 -0.7892
 3086SOL    HW220718   4.613   3.159  15.674 -1.5222 -2.7979 -0.1598
 3087SOL     OW20719   0.112   2.165  15.188 -0.3166 -0.0863  0.1119
 3087SOL    HW120720   0.037   2.220  15.211  0.6146  0.9255  0.7638
 3087SOL    HW220721   0.167   2.235  15.153 -0.4277  0.9320  1.9795
 3088SOL     OW20722   3.985   3.686   1.060  0.0069  0.3498  0.1910
 3088SOL    HW120723   3.943   3.649   0.983 -0.3286  0.2321  0.4337
 3088SOL    HW220724   4.059   3.625   1.063 -0.9536 -0.7853  0.3679
 3089SOL     OW20725   0.085   4.456   4.166  0.2217  0.0809 -0.1825
 3089SOL    HW120726   0.093   4.445   4.261 -0.8828  1.2595  0.0541
 3089SOL    HW220727   4.727   4.420   4.142 -0.5410  1.1126  0.9504
 3090SOL     OW20728   4.511   1.672   5.664  0.1949  0.3488 -0.3462
 3090SOL    HW120729   4.478   1.698   5.578  2.2953 -1.0870 -1.5944
 3090SOL    HW220730   4.602   1.647   5.648  0.0632 -1.1788  1.2809
 3091SOL     OW20731   2.666   4.134   8.386  0.7143 -0.0940 -0.0422
 3091SOL    HW120732   2.638   4.209   8.438 -0.5498 -1.3085  1.0479
 3091SOL    HW220733   2.587   4.080   8.381  0.5844  0.1401 -0.4893
 3092SOL     OW20734   2.181   2.624   7.686 -0.2415 -0.3093 -0.0566
 3092SOL    HW120735   2.265   2.623   7.639 -0.2680 -1.3796 -0.0855
 3092SOL    HW220736   2.165   2.533   7.710 -0.1308 -0.0670  0.9203
 3093SOL     OW20737   3.937   0.479  14.168  0.6166 -0.4190  0.2604
 3093SOL    HW120738   3.969   0.541  14.103 -0.4885  0.4285  0.5305
 3093SOL    HW220739   3.876   0.440  14.105  0.1811  0.0194  0.4154
 3094SOL     OW20740   2.550   2.186   6.215 -0.6988 -0.0600 -0.1725
 3094SOL    HW120741   2.476   2.174   6.274 -0.2695  1.8261  0.7312
 3094SOL    HW220742   2.621   2.194   6.279 -1.6928 -0.1929  0.9475
 3095SOL     OW20743   3.475   2.815   4.172  0.2415  0.6489  0.0567
 3095SOL    HW120744   3.398   2.808   4.116 -0.2895 -1.5910  1.0804
 3095SOL    HW220745   3.464   2.732   4.217 -1.3062  0.6709 -0.3007
 3096SOL     OW20746   0.207   3.881   4.405  0.4355 -0.4259  0.0167
 3096SOL    HW120747   0.211   3.802   4.460 -1.8499  0.4893  1.4716
 3096SOL    HW220748   0.113   3.883   4.388  0.6126 -1.5149 -1.0628
 3097SOL     OW20749   2.495   0.321   3.836  0.7172 -0.1014 -0.4030
 3097SOL    HW120750   2.468   0.245   3.784 -2.2840  0.4018  0.4082
 3097SOL    HW220751   2.571   0.273   3.868  0.6523 -0.4905 -0.8308
 3098SOL     OW20752   1.493   1.103   1.354 -0.5571 -0.0106 -0.6155
 3098SOL    HW120753   1.426   1.115   1.287 -2.3037 -0.7735  0.9863
 3098SOL    HW220754   1.513   1.194   1.373  1.4554 -0.6870  0.6101
 3099SOL     OW20755   4.216   1.815   2.034 -0.4535 -0.1111  0.1387
 3099SOL    HW120756   4.155   1.824   2.107 -1.4608  2.1569 -1.0041
 3099SOL    HW220757   4.245   1.903   2.010 -2.9079  0.4705 -0.6006
 3100SOL     OW20758   3.407   4.719  14.026  0.2086  1.1061 -0.5654
 3100SOL    HW120759   3.400   4.700  14.119 -1.8604  1.9516 -0.5500
 3100SOL    HW220760   3.380   4.634  13.991  0.9418  0.4942  0.3659
 3101SOL     OW20761   1.041   2.051  12.221  0.0115  0.5102  0.2425
 3101SOL    HW120762   0.979   1.998  12.171  0.9411  0.8849 -1.3063
 3101SOL    HW220763   1.116   1.992  12.223 -0.6685 -0.3240  0.8572
 3102SOL     OW20764   4.685   4.643  14.783  0.3676  0.6230 -0.0073
 3102SOL    HW120765   4.638   4.561  14.770  0.7915 -0.0204  2.4259
 3102SOL    HW220766   4.630   4.702  14.731  0.3596  1.0236  0.4455
 3103SOL     OW20767   4.472   0.679  12.822 -0.3073  0.3264 -0.0857
 3103SOL    HW120768   4.460   0.608  12.759  0.9588 -1.8809  2.1693
 3103SOL    HW220769   4.429   0.749  12.773 -1.2210 -0.4913 -0.4515
 3104SOL     OW20770   1.810   4.417   3.209 -0.1524  0.0035  0.0198
 3104SOL    HW120771   1.817   4.510   3.234 -3.4301  0.3800 -0.5098
 3104SOL    HW220772   1.884   4.410   3.149 -0.4816  1.5215 -0.5630
 3105SOL     OW20773   4.082   3.658   3.366  1.0554 -0.1043 -0.1721
 3105SOL    HW120774   4.101   3.622   3.279 -2.0182 -0.6278 -0.6327
 3105SOL    HW220775   4.032   3.737   3.344  1.6139 -0.0400 -1.2540
 3106SOL     OW20776   1.402   3.477   3.877  0.2888  0.2216  0.1357
 3106SOL    HW120777   1.328   3.516   3.924  0.3747 -0.4759  0.8576
 3106SOL    HW220778   1.393   3.386   3.907  0.8358 -0.0600 -0.5528
 3107SOL     OW20779   3.563   3.678   2.881  0.7665 -0.0286  0.4276
 3107SOL    HW120780   3.537   3.587   2.895  2.1548 -0.6304 -1.0081
 3107SOL    HW220781   3.487   3.716   2.925  0.8582 -0.7970  1.2535
 3108SOL     OW20782   1.546   0.570   0.505  0.7527 -0.3019 -0.2984
 3108SOL    HW120783   1.582   0.486   0.534  0.2784 -0.5958 -0.5376
 3108SOL    HW220784   1.614   0.612   0.453 -1.8686  3.5477 -0.5797
 3109SOL     OW20785   0.928   2.094   2.324  0.1770 -0.1781 -0.2013
 3109SOL    HW120786   0.952   2.133   2.239 -2.6249  2.1480  0.0911
 3109SOL    HW220787   0.963   2.159   2.385  0.5351  0.5545 -1.1774
 3110SOL     OW20788   3.480   1.304   4.937 -0.7675 -0.7805  0.6468
 3110SOL    HW120789   3.515   1.383   4.978 -0.7899  0.5989 -2.0393
 3110SOL    HW220790   3.453   1.329   4.849  0.5559  0.2230  0.5349
 3111SOL     OW20791   0.302   2.600   9.064 -0.2523 -0.0262  0.0893
 3111SOL    HW120792   0.221   2.550   9.057  0.3501 -1.1966  1.5169
 3111SOL    HW220793   0.333   2.576   9.151  0.2221  1.2322  0.2594
 3112SOL     OW20794   3.454   2.721   3.653 -0.2764 -0.3244  0.0707
 3112SOL    HW120795   3.491   2.687   3.734  0.8461  0.5581 -0.0758
 3112SOL    HW220796   3.493   2.809   3.651 -0.3519 -0.3404 -1.9134
 3113SOL     OW20797   0.477   2.608   3.968 -0.0067 -0.2009  0.0892
 3113SOL    HW120798   0.497   2.613   3.875 -2.3499  0.4489 -0.3785
 3113SOL    HW220799   0.538   2.675   3.998 -0.2517  1.1437 -2.4024
 3114SOL     OW20800   0.906   3.859   7.925 -0.4739  0.5244 -0.1605
 3114SOL    HW120801   0.969   3.931   7.927 -0.3608  0.3947  1.0032
 3114SOL    HW220802   0.855   3.862   8.006  0.0081  0.0441  0.1597
 3115SOL     OW20803   3.071   4.192   8.868  0.4072  0.2002  0.3487
 3115SOL    HW120804   3.145   4.216   8.924  0.6113 -2.1001  1.0744
 3115SOL    HW220805   2.997   4.208   8.926  0.9919  2.0538  0.5899
 3116SOL     OW20806   1.149   2.278   8.205  0.3812 -0.1928  0.1161
 3116SOL    HW120807   1.232   2.247   8.239  2.1535  4.9557  0.5726
 3116SOL    HW220808   1.113   2.295   8.293  0.7762  1.9525 -0.1316
 3117SOL     OW20809   3.481   1.794  11.318 -0.2965 -0.1653 -0.4159
 3117SOL    HW120810   3.406   1.741  11.344 -1.5416  1.9355  0.1902
 3117SOL    HW220811   3.508   1.827  11.403 -2.9117 -2.8951  1.4529
 3118SOL     OW20812   2.272   3.172   4.226 -0.0160 -0.5922 -0.3109
 3118SOL    HW120813   2.305   3.110   4.291 -0.3361  0.2816  0.6856
 3118SOL    HW220814   2.177   3.165   4.236 -0.0468  1.7348  0.9956
 3119SOL     OW20815   0.381   0.798   4.804 -0.5039  0.0302 -0.0597
 3119SOL    HW120816   0.466   0.791   4.761  2.0837  1.1375  4.8169
 3119SOL    HW220817   0.335   0.855   4.743 -0.9693  1.0875  1.2674
 3120SOL     OW20818   2.093   4.461   3.105  0.2874  0.2051  0.1118
 3120SOL    HW120819   2.153   4.393   3.073  0.5247 -0.3097  1.6358
 3120SOL    HW220820   2.079   4.513   3.026  0.8781 -0.9688 -0.7619
 3121SOL     OW20821   3.142   3.632  14.823  0.5120 -0.1408  0.0235
 3121SOL    HW120822   3.086   3.701  14.859  0.3936 -1.3019  2.0537
 3121SOL    HW220823   3.223   3.649  14.871  0.9305 -0.7404 -0.4735
 3122SOL     OW20824   3.769   2.793  11.843 -0.1442 -0.2448 -0.1014
 3122SOL    HW120825   3.716   2.852  11.896 -0.5223 -0.8155  0.1584
 3122SOL    HW220826   3.728   2.715  11.881 -2.2437  1.0010  0.1607
 3123SOL     OW20827   0.852   2.990   7.327 -0.3277 -0.3533 -0.0421
 3123SOL    HW120828   0.838   3.014   7.419 -0.2773  0.3397 -0.2086
 3123SOL    HW220829   0.839   2.897   7.340 -0.2876 -0.3208  0.2390
 3124SOL     OW20830   1.287   0.492  10.308 -0.0108  0.0132 -0.1912
 3124SOL    HW120831   1.269   0.420  10.368  2.8449 -0.9175 -0.4412
 3124SOL    HW220832   1.363   0.522  10.359  0.6750  1.3213 -1.9919
 3125SOL     OW20833   0.477   2.487   7.729  0.5288 -0.0503  0.3010
 3125SOL    HW120834   0.418   2.442   7.669  1.4173 -1.1306  0.2359
 3125SOL    HW220835   0.418   2.551   7.769  0.7760  0.2259  0.2295
 3126SOL     OW20836   3.065   0.013  12.511 -0.0481  0.2282 -0.0922
 3126SOL    HW120837   3.002   0.033  12.442 -0.2536 -1.0328 -0.2674
 3126SOL    HW220838   3.139   4.696  12.470 -0.0239  2.3204 -2.2655
 3127SOL     OW20839   2.357   2.809   3.288  0.2290  0.8084 -0.0937
 3127SOL    HW120840   2.394   2.824   3.375 -1.7837 -0.6728  1.0118
 3127SOL    HW220841   2.278   2.862   3.297 -0.4209 -0.2244  0.1963
 3128SOL     OW20842   0.892   2.178  15.606  0.3449  0.6881  0.6012
 3128SOL    HW120843   0.904   2.106  15.543  0.0513 -0.5377  1.9441
 3128SOL    HW220844   0.798   2.179  15.625  0.6261  2.4219  1.8397
 3129SOL     OW20845   2.434   1.407   4.773 -0.0954  0.2577  0.0591
 3129SOL    HW120846   2.514   1.370   4.812  0.0738 -1.2875 -1.7667
 3129SOL    HW220847   2.446   1.502   4.772 -2.7874  0.5876 -0.9954
 3130SOL     OW20848   1.736   4.685   9.632  0.7309 -0.2387  0.4392
 3130SOL    HW120849   1.826   4.693   9.663  0.2208  0.2102  1.7902
 3130SOL    HW220850   1.688   4.673   9.714 -1.3377  0.5325 -0.6607
 3131SOL     OW20851   1.234   0.131   6.041 -0.1486  0.0650  0.2159
 3131SOL    HW120852   1.178   0.066   5.999  1.7940 -0.5740 -1.3217
 3131SOL    HW220853   1.218   0.131   6.136 -2.6854 -0.1432 -0.2012
 3132SOL     OW20854   4.367   3.806   2.208  0.2348  0.1093 -0.0634
 3132SOL    HW120855   4.442   3.764   2.164 -0.4114 -0.2371 -0.8349
 3132SOL    HW220856   4.413   3.844   2.283  2.7586  0.6273 -1.8457
 3133SOL     OW20857   0.688   4.171   1.545  0.1276 -0.0117  0.8069
 3133SOL    HW120858   0.723   4.260   1.544  1.9754 -0.7292  0.8949
 3133SOL    HW220859   0.595   4.191   1.555 -0.0667  0.8132 -2.7113
 3134SOL     OW20860   3.954   4.216  13.360 -0.0420  0.3486 -0.5262
 3134SOL    HW120861   3.960   4.262  13.444  1.3375 -0.6760 -0.0779
 3134SOL    HW220862   3.956   4.288  13.297 -1.0597 -0.6157 -1.6574
 3135SOL     OW20863   0.478   1.182   3.156 -0.2577 -0.2281  0.2738
 3135SOL    HW120864   0.439   1.239   3.090  3.9966  2.8915  0.4592
 3135SOL    HW220865   0.451   1.100   3.114 -1.2196  0.2382 -0.0336
 3136SOL     OW20866   0.451   1.962   4.790  0.1877  0.2092 -0.5927
 3136SOL    HW120867   0.494   1.937   4.709 -0.3417  0.0057 -0.8134
 3136SOL    HW220868   0.518   2.022   4.822  0.2545  1.3500 -2.9002
 3137SOL     OW20869   4.064   0.244   2.072  0.1069  0.0481  0.0258
 3137SOL    HW120870   4.036   0.304   2.003  2.8258 -0.3041 -1.3675
 3137SOL    HW220871   4.155   0.218   2.057  0.5437  1.1781  0.6479
 3138SOL     OW20872   3.120   0.352   3.450 -0.3501  0.3094  0.2785
 3138SOL    HW120873   3.094   0.280   3.509  1.9056 -0.5528  0.2030
 3138SOL    HW220874   3.151   0.418   3.511 -0.0469  1.5849 -1.2773
 3139SOL     OW20875   0.391   2.490  12.947 -0.7338 -0.6170 -0.5248
 3139SOL    HW120876   0.462   2.541  12.908 -2.3470 -0.4558 -3.2389
 3139SOL    HW220877   0.423   2.486  13.037 -1.2790  0.9091 -0.2601
 3140SOL     OW20878   3.315   3.569   6.115  0.0680 -0.2501 -1.1617
 3140SOL    HW120879   3.311   3.531   6.202 -0.9662  1.8359 -0.2924
 3140SOL    HW220880   3.278   3.494   6.068 -1.7298  0.8877 -1.5835
 3141SOL     OW20881   3.778   4.690   5.324  0.1181  0.0214  0.1504
 3141SOL    HW120882   3.750   4.633   5.396  0.6138  3.2666  2.9033
 3141SOL    HW220883   3.772   4.626   5.254 -2.2273 -0.8527  1.1469
 3142SOL     OW20884   1.592   3.559  12.454  0.0711 -0.0047  0.2638
 3142SOL    HW120885   1.600   3.504  12.532 -0.9060  0.7581  0.8990
 3142SOL    HW220886   1.515   3.608  12.484 -0.8562 -0.5914 -1.1748
 3143SOL     OW20887   1.445   3.101   7.721 -0.4485 -0.6029 -0.4564
 3143SOL    HW120888   1.353   3.119   7.739  0.1470  1.2864  0.7911
 3143SOL    HW220889   1.478   3.095   7.811 -1.1002  1.5296 -0.0766
 3144SOL     OW20890   2.210   0.359  17.669 -0.1742  0.6108  0.1476
 3144SOL    HW120891   2.172   0.281  17.710 -0.5064 -0.3816 -2.0822
 3144SOL    HW220892   2.137   0.419  17.682  0.4394  1.2901  0.4512
 3145SOL     OW20893   3.656   2.025   0.021 -0.5190 -0.3206 -0.5334
 3145SOL    HW120894   3.653   2.009   0.115  1.0754 -1.8206 -0.7398
 3145SOL    HW220895   3.602   1.950  17.709 -0.0293 -1.4315  2.0324
 3146SOL     OW20896   2.409   3.067   3.750 -0.7113  0.9635 -0.0795
 3146SOL    HW120897   2.394   3.050   3.843 -0.2739 -0.6315 -0.3046
 3146SOL    HW220898   2.376   3.156   3.736 -2.8388  0.2884  0.6400
 3147SOL     OW20899   0.700   0.499   3.000 -0.0607  0.2557 -0.2027
 3147SOL    HW120900   0.652   0.490   3.083  0.8323 -1.3289  0.1561
 3147SOL    HW220901   0.788   0.463   3.013 -0.1732  0.3628  0.8564
 3148SOL     OW20902   1.477   4.507   6.104  0.1888  0.2921 -0.4109
 3148SOL    HW120903   1.423   4.540   6.032 -0.3899 -0.6767 -0.4257
 3148SOL    HW220904   1.425   4.525   6.183  0.4263 -0.6270 -0.0483
 3149SOL     OW20905   4.249   1.026  12.406  0.2276  0.2481 -0.6668
 3149SOL    HW120906   4.159   1.025  12.441  0.1832  1.9610 -0.7335
 3149SOL    HW220907   4.228   0.958  12.343  0.6112 -0.9999  0.5489
 3150SOL     OW20908   1.344   2.341   2.013  0.1600 -0.3605  0.1033
 3150SOL    HW120909   1.398   2.314   1.939 -1.6286 -1.6925 -0.7065
 3150SOL    HW220910   1.265   2.291   1.993  0.8625 -0.7433 -1.6670
 3151SOL     OW20911   1.973   0.153  13.421  0.6336 -0.1205 -0.4029
 3151SOL    HW120912   1.954   0.179  13.511  1.8571  0.7749 -0.4003
 3151SOL    HW220913   2.005   0.232  13.378  1.4988  0.1731  0.7882
 3152SOL     OW20914   0.021   1.155  15.384  0.3665  0.1895 -0.0921
 3152SOL    HW120915   4.675   1.167  15.323  1.0616 -0.9518 -1.1617
 3152SOL    HW220916   0.022   1.060  15.386 -2.4061  0.2064  1.8663
 3153SOL     OW20917   3.304   3.829   6.096  0.5122  0.4382  0.5300
 3153SOL    HW120918   3.291   3.734   6.088  2.3455  0.1943  0.2432
 3153SOL    HW220919   3.350   3.850   6.014  1.0244 -0.2629  0.6266
 3154SOL     OW20920   3.692   1.579   7.225  0.3424  0.7107 -0.2981
 3154SOL    HW120921   3.645   1.563   7.144 -1.4086  0.5559  0.7547
 3154SOL    HW220922   3.749   1.652   7.199 -2.6765  2.5449 -1.7123
 3155SOL     OW20923   3.934   3.154   6.088  0.3957 -0.2384 -0.7623
 3155SOL    HW120924   4.024   3.188   6.091 -0.3184  1.5615  0.3104
 3155SOL    HW220925   3.954   3.064   6.065  0.3350 -1.0891  2.5928
 3156SOL     OW20926   2.668   3.454   7.856  0.0898 -0.1865 -0.8733
 3156SOL    HW120927   2.689   3.513   7.929  2.5207 -1.5677 -0.4861
 3156SOL    HW220928   2.588   3.414   7.891  1.2494 -1.8192 -0.0939
 3157SOL     OW20929   4.086   3.643  11.946  0.8362  0.3555 -0.2115
 3157SOL    HW120930   4.170   3.632  11.991 -0.8070 -2.2514  2.2013
 3157SOL    HW220931   4.105   3.622  11.854 -2.0291 -1.2417 -0.4582
 3158SOL     OW20932   1.274   2.877   3.789  0.1280 -0.2237 -0.0121
 3158SOL    HW120933   1.241   2.964   3.813 -0.3090 -0.2992 -0.3512
 3158SOL    HW220934   1.365   2.892   3.816  0.0930 -1.5024  0.7838
 3159SOL     OW20935   2.735   3.553   4.959 -0.1808 -0.1414 -0.3870
 3159SOL    HW120936   2.802   3.488   4.940  0.5775  0.0636  1.5268
 3159SOL    HW220937   2.787   3.612   5.014  1.1442 -0.9509 -0.7705
 3160SOL     OW20938   4.570   2.835  16.791  0.1193 -0.7141  0.2224
 3160SOL    HW120939   4.661   2.837  16.762  0.1747  2.0137  0.5659
 3160SOL    HW220940   4.580   2.778  16.867 -0.1595  2.2979  2.5306
 3161SOL     OW20941   4.529   0.376  14.790  0.2099 -0.4614 -0.4065
 3161SOL    HW120942   4.514   0.432  14.866 -0.5787 -1.8427  0.4471
 3161SOL    HW220943   4.601   0.415  14.740  0.7522 -0.7331  0.1627
 3162SOL     OW20944   3.120   0.333   6.137 -0.4011 -0.3026  0.2225
 3162SOL    HW120945   3.139   0.251   6.091  1.5061 -0.2571  0.9285
 3162SOL    HW220946   3.207   0.370   6.151 -1.2415  1.3832  1.0064
 3163SOL     OW20947   4.445   2.017   1.860 -0.0812  0.0736 -0.2395
 3163SOL    HW120948   4.385   2.033   1.787  0.1562  0.0627 -0.4374
 3163SOL    HW220949   4.508   1.960   1.816  2.2961  1.8718  0.8300
 3164SOL     OW20950   4.455   2.147   1.218 -0.6163 -0.6063 -0.1882
 3164SOL    HW120951   4.526   2.162   1.157  1.5412 -0.9397  2.2555
 3164SOL    HW220952   4.493   2.116   1.300  0.7080  0.0106 -0.5716
 3165SOL     OW20953   1.886   1.046  15.651  0.2500  0.1516 -0.1051
 3165SOL    HW120954   1.893   1.028  15.558 -4.2730  0.3838 -0.4727
 3165SOL    HW220955   1.894   1.142  15.656  1.5077 -0.0635  2.0240
 3166SOL     OW20956   2.240   2.146  10.345 -0.2707 -0.1702 -0.3363
 3166SOL    HW120957   2.294   2.223  10.358 -0.0582 -0.3817  0.0334
 3166SOL    HW220958   2.233   2.121  10.437 -0.9918 -3.9712 -1.4068
 3167SOL     OW20959   1.722   3.675   9.012  0.6920  0.1847 -0.3269
 3167SOL    HW120960   1.741   3.606   9.076 -0.5570  1.9517  1.9927
 3167SOL    HW220961   1.632   3.649   8.993  0.5974  1.3714 -1.4767
 3168SOL     OW20962   3.004   3.621   2.594 -0.3226 -0.0875  0.5525
 3168SOL    HW120963   3.021   3.560   2.522  1.6465  1.5189 -0.3554
 3168SOL    HW220964   3.033   3.705   2.559 -0.4773  0.1933  1.0995
 3169SOL     OW20965   3.224   4.389  16.299  0.0622  0.7870 -0.1104
 3169SOL    HW120966   3.310   4.346  16.300 -0.9235 -1.1641  0.0458
 3169SOL    HW220967   3.235   4.444  16.376 -0.4864 -0.2183  0.6770
 3170SOL     OW20968   4.039   4.303  14.017 -0.1782 -0.3497 -0.1356
 3170SOL    HW120969   4.042   4.379  13.959 -3.8688 -0.9207 -1.0722
 3170SOL    HW220970   4.100   4.247  13.969 -2.3066 -0.6121 -2.5440
 3171SOL     OW20971   3.668   0.756   0.648 -0.4584 -0.2170  0.2708
 3171SOL    HW120972   3.749   0.806   0.641  0.3924 -1.7637 -0.8868
 3171SOL    HW220973   3.654   0.768   0.742  1.8174  2.0217  0.3355
 3172SOL     OW20974   3.191   0.244   1.501  0.5551  0.4019 -0.4434
 3172SOL    HW120975   3.278   0.276   1.476 -0.0732 -0.1961 -3.3646
 3172SOL    HW220976   3.191   0.170   1.441 -0.2401  0.3326 -0.3626
 3173SOL     OW20977   2.424   1.732  14.514 -0.0978 -0.3052 -0.3148
 3173SOL    HW120978   2.467   1.657  14.472  0.1927 -0.6890  0.6652
 3173SOL    HW220979   2.387   1.761  14.431 -0.7382 -1.7815 -0.5555
 3174SOL     OW20980   3.652   1.986  12.595 -0.2247 -0.0293 -0.1637
 3174SOL    HW120981   3.688   2.073  12.608 -0.2032  0.0327 -0.6420
 3174SOL    HW220982   3.611   1.990  12.509  2.1198  0.8367 -1.2220
 3175SOL     OW20983   4.496   4.302   3.457 -0.3832  0.2757 -0.7919
 3175SOL    HW120984   4.462   4.267   3.375 -0.2608 -1.9499  0.1090
 3175SOL    HW220985   4.577   4.340   3.422  1.1270 -1.0267  1.2534
 3176SOL     OW20986   2.282   2.264   3.867 -0.0284  0.5135 -0.2674
 3176SOL    HW120987   2.336   2.333   3.829  2.0456 -1.0190 -0.1250
 3176SOL    HW220988   2.343   2.251   3.939  2.6217 -0.0660 -2.6314
 3177SOL     OW20989   2.683   3.359  17.535 -0.0171 -1.0390  0.6947
 3177SOL    HW120990   2.734   3.329  17.610 -0.9354  1.7725  2.4514
 3177SOL    HW220991   2.706   3.452  17.539 -0.8414 -0.7675 -0.7750
 3178SOL     OW20992   0.279   3.920   1.809 -0.2416 -0.1906  0.2157
 3178SOL    HW120993   0.256   3.895   1.719 -0.8650  2.0689 -0.2608
 3178SOL    HW220994   0.195   3.956   1.838  0.4200  1.1251  0.5001
 3179SOL     OW20995   0.622   0.230   8.876 -0.0721 -0.2718  0.5719
 3179SOL    HW120996   0.696   0.170   8.884  0.1239 -0.1317 -0.2217
 3179SOL    HW220997   0.552   0.175   8.911 -0.3054 -0.6014 -0.4344
 3180SOL     OW20998   3.902   0.039   3.183 -0.1053  0.3901 -0.2027
 3180SOL    HW120999   3.924   0.132   3.178  1.4518 -0.0021 -0.6790
 3180SOL    HW221000   3.888   0.012   3.093  0.3972 -0.1037 -0.1316
 3181SOL     OW21001   3.956   3.469   8.669  0.3093  0.0152  0.4011
 3181SOL    HW121002   3.969   3.381   8.705  0.9930  0.3928  1.0947
 3181SOL    HW221003   3.919   3.456   8.582  0.1185  1.7765  0.2241
 3182SOL     OW21004   0.818   4.463   0.636  0.1442 -0.1027 -0.1066
 3182SOL    HW121005   0.736   4.415   0.631 -0.8821  1.5330  1.0708
 3182SOL    HW221006   0.859   4.381   0.664  0.7284 -0.1405 -1.0700
 3183SOL     OW21007   3.905   1.948  11.033 -0.2094  0.1506 -0.2479
 3183SOL    HW121008   3.869   2.036  11.022  1.1012  0.7154 -0.0596
 3183SOL    HW221009   3.826   1.905  11.065  0.2931  0.2968  1.1771
 3184SOL     OW21010   2.042   0.547   1.489 -0.1352 -0.6385 -0.4815
 3184SOL    HW121011   2.131   0.515   1.504  0.3917  0.6288 -0.9099
 3184SOL    HW221012   2.017   0.579   1.576  0.7203 -0.2804 -0.3698
 3185SOL     OW21013   1.007   2.360   2.572  0.0585  0.2621  0.1822
 3185SOL    HW121014   1.102   2.350   2.579 -0.1781 -1.9311  0.3798
 3185SOL    HW221015   0.979   2.369   2.663 -0.2805  1.9033 -0.0807
 3186SOL     OW21016   3.821   0.403  13.216 -0.1904  0.2553 -0.6105
 3186SOL    HW121017   3.912   0.430  13.205 -1.1320  2.5427 -2.4797
 3186SOL    HW221018   3.826   0.309  13.235 -0.4122  0.8230  2.3006
 3187SOL     OW21019   2.446   0.876   5.798  0.2241 -0.5455 -0.2331
 3187SOL    HW121020   2.437   0.970   5.812  0.2761 -0.3685 -1.3479
 3187SOL    HW221021   2.362   0.844   5.765 -0.3619  1.3297 -0.5447
 3188SOL     OW21022   3.898   1.916   3.073 -0.1865 -0.2829 -0.4788
 3188SOL    HW121023   3.822   1.858   3.070 -1.3934  1.3178 -0.6715
 3188SOL    HW221024   3.854   1.998   3.095  2.2253  1.6935 -3.0685
 3189SOL     OW21025   4.246   0.904   4.102  0.6178 -0.1259 -0.0975
 3189SOL    HW121026   4.166   0.872   4.062  0.3330  0.7403 -0.2133
 3189SOL    HW221027   4.223   0.937   4.189  0.9333 -1.0758  0.3488
 3190SOL     OW21028   2.513   2.322  12.947 -0.0425  0.0356  0.5211
 3190SOL    HW121029   2.601   2.291  12.972 -0.0721 -1.0822 -0.7317
 3190SOL    HW221030   2.464   2.301  13.026  0.1739 -2.5409 -0.0199
 3191SOL     OW21031   3.984   0.383   6.987 -0.4635 -0.0211 -0.0517
 3191SOL    HW121032   3.931   0.328   7.044 -1.2602  1.6653  0.8114
 3191SOL    HW221033   3.958   0.470   7.018  2.8478  0.6282  0.9459
 3192SOL     OW21034   0.998   4.391   7.605  0.1553 -0.2297 -0.0716
 3192SOL    HW121035   0.934   4.397   7.534 -2.2380  0.0577  2.1389
 3192SOL    HW221036   1.051   4.467   7.581 -1.3725  0.9518  0.3693
 3193SOL     OW21037   3.517   0.377   6.666 -0.3726 -0.4276  0.2737
 3193SOL    HW121038   3.521   0.282   6.675  4.1132 -0.2673 -0.4254
 3193SOL    HW221039   3.432   0.386   6.711 -0.1576 -4.0071  1.3538
 3194SOL     OW21040   2.280   0.672   3.346 -0.2226  0.1634 -0.9519
 3194SOL    HW121041   2.197   0.672   3.299 -0.4961 -1.1314 -0.4715
 3194SOL    HW221042   2.315   0.591   3.308 -1.1227 -1.0835  0.8261
 3195SOL     OW21043   4.344   1.440   3.106 -0.4024 -0.0591 -0.3417
 3195SOL    HW121044   4.274   1.497   3.138 -0.8797 -2.2908  2.6680
 3195SOL    HW221045   4.324   1.443   3.013 -0.1846  1.7203 -0.3281
 3196SOL     OW21046   4.198   2.954  13.986 -0.2371  0.4029  0.0886
 3196SOL    HW121047   4.102   2.948  13.983 -0.1135 -1.4837  0.0768
 3196SOL    HW221048   4.219   2.998  13.904  1.6544 -0.5645  0.0512
 3197SOL     OW21049   2.570   3.455   3.554  0.2511 -0.2152  0.1943
 3197SOL    HW121050   2.603   3.543   3.570 -2.3025  0.5813  1.1797
 3197SOL    HW221051   2.578   3.455   3.459  3.1703 -1.2892  0.4382
 3198SOL     OW21052   4.416   1.132  11.225  0.6679  0.2940 -0.3351
 3198SOL    HW121053   4.364   1.212  11.234  0.4522  0.2333 -1.0410
 3198SOL    HW221054   4.411   1.104  11.317  1.4163  0.0192 -0.3859
 3199SOL     OW21055   2.900   2.965   2.948 -0.4967  0.4701 -0.4172
 3199SOL    HW121056   2.937   3.016   2.876 -0.0970  0.0510 -0.5051
 3199SOL    HW221057   2.982   2.921   2.971  1.0430  2.3025 -2.3403
 3200SOL     OW21058   3.009   3.500   3.729  0.0880  0.0040 -0.1856
 3200SOL    HW121059   3.050   3.551   3.798  1.4789  2.1807 -2.5962
 3200SOL    HW221060   2.962   3.435   3.781  0.7655  0.7501  1.3539
 3201SOL     OW21061   1.519   2.965   3.873  0.2242 -0.1990  0.4264
 3201SOL    HW121062   1.546   2.882   3.912 -1.2415 -1.1857 -0.6560
 3201SOL    HW221063   1.605   3.004   3.862  0.3025 -0.1170  1.3309
 3202SOL     OW21064   0.434   2.291  16.629  0.6384 -0.0668  0.0193
 3202SOL    HW121065   0.474   2.337  16.704 -0.2179  1.2655 -0.3448
 3202SOL    HW221066   0.358   2.251  16.671  0.5122 -2.3226 -2.3946
 3203SOL     OW21067   3.792   3.531  11.320  0.2029 -0.5445  0.1540
 3203SOL    HW121068   3.828   3.453  11.363  0.1204 -0.9484 -0.5030
 3203SOL    HW221069   3.866   3.591  11.327  0.0196  0.0803 -3.1251
 3204SOL     OW21070   0.500   1.467   0.560 -0.5038  0.0495  0.6842
 3204SOL    HW121071   0.585   1.504   0.582  0.3756  0.2219 -2.9552
 3204SOL    HW221072   0.463   1.533   0.501 -1.5311  0.8784  2.2707
 3205SOL     OW21073   2.333   3.311   8.988 -0.0098 -0.2472 -0.5927
 3205SOL    HW121074   2.417   3.275   9.015  1.3116  0.9663 -3.0277
 3205SOL    HW221075   2.297   3.248   8.925 -1.5007 -0.5744  0.6205
 3206SOL     OW21076   0.511   4.676   1.846  0.2268  1.1484  0.1026
 3206SOL    HW121077   0.552   0.012   1.905 -1.6327  0.1972  2.4321
 3206SOL    HW221078   0.479   0.010   1.780 -1.8019 -0.5332 -0.5008
 3207SOL     OW21079   0.483   0.283   5.648 -0.3215  0.7606  0.7057
 3207SOL    HW121080   0.465   0.375   5.666  2.0521  1.2005  0.8858
 3207SOL    HW221081   0.498   0.270   5.555 -1.1517 -1.3674  0.8629
 3208SOL     OW21082   2.257   2.833   6.715  0.1364  0.1336  0.0580
 3208SOL    HW121083   2.170   2.871   6.707  0.5164  0.8765 -0.5681
 3208SOL    HW221084   2.252   2.745   6.751 -0.1427  0.0637 -0.1513
 3209SOL     OW21085   0.350   0.728   3.183 -0.3831 -0.0314  0.1052
 3209SOL    HW121086   0.334   0.739   3.089  0.5933  2.7240  0.2612
 3209SOL    HW221087   0.293   0.802   3.206 -1.3685 -0.9733  0.7121
 3210SOL     OW21088   2.142   2.279   1.433 -0.4267 -0.2345  0.2171
 3210SOL    HW121089   2.079   2.218   1.470  0.6041 -0.3431  1.7741
 3210SOL    HW221090   2.082   2.350   1.411 -0.6165 -0.2974  0.5394
 3211SOL     OW21091   4.683   3.944   3.449 -0.1523  0.0928 -0.2083
 3211SOL    HW121092   4.593   3.958   3.478 -0.2877  0.4882 -0.8250
 3211SOL    HW221093   4.669   3.880   3.380  4.7311 -1.5350  0.3196
 3212SOL     OW21094   2.317   1.864  14.278 -0.3291 -0.1865  0.3348
 3212SOL    HW121095   2.354   1.883  14.192 -1.9872  1.1821 -0.0848
 3212SOL    HW221096   2.224   1.883  14.266 -0.2334  1.2845  1.8307
 3213SOL     OW21097   4.598   0.280   1.845  0.4370 -0.0142 -0.1650
 3213SOL    HW121098   4.615   0.264   1.752  1.4698  0.6212 -0.0850
 3213SOL    HW221099   4.553   0.199   1.869 -0.3162  0.2373 -0.7454
 3214SOL     OW21100   4.161   3.814  15.013 -0.1001  0.1961 -0.0792
 3214SOL    HW121101   4.236   3.861  14.975  1.6905 -2.4500  0.1496
 3214SOL    HW221102   4.150   3.757  14.937  1.7501  0.5156 -0.5885
 3215SOL     OW21103   2.627   2.204   3.087  0.1829 -0.1554 -0.4494
 3215SOL    HW121104   2.628   2.144   3.013  0.6512 -2.4281  1.3917
 3215SOL    HW221105   2.720   2.219   3.102  0.3216  0.5537 -1.9753
 3216SOL     OW21106   3.746   1.688  10.334 -0.0455 -0.0391 -0.4168
 3216SOL    HW121107   3.809   1.754  10.364  0.9116 -1.0417 -0.2093
 3216SOL    HW221108   3.737   1.635  10.413  0.6532  0.7922  0.2233
 3217SOL     OW21109   2.256   2.943   5.096  0.0851  0.5631 -0.3867
 3217SOL    HW121110   2.240   3.035   5.075  0.4835  1.0745  1.5788
 3217SOL    HW221111   2.228   2.943   5.187  0.2711  2.6260 -0.3311
 3218SOL     OW21112   1.409   1.487  14.035  0.0358  0.0464  0.3470
 3218SOL    HW121113   1.324   1.522  14.010 -0.7091 -0.3115  2.3384
 3218SOL    HW221114   1.451   1.566  14.001  1.6208 -0.1352  1.8659
 3219SOL     OW21115   4.211   0.452  15.218  0.0158 -0.2149  0.1225
 3219SOL    HW121116   4.240   0.395  15.290 -3.4572 -2.7024 -0.4698
 3219SOL    HW221117   4.192   0.386  15.151  1.2653  0.5161 -0.9522
 3220SOL     OW21118   4.082   3.898  10.711  0.3261  0.9129 -0.3565
 3220SOL    HW121119   3.998   3.861  10.740  0.0521  0.8563 -1.2368
 3220SOL    HW221120   4.109   3.829  10.651 -3.5482 -1.4960  0.6360
 3221SOL     OW21121   0.176   1.233   0.139  0.4980 -0.0522 -0.2867
 3221SOL    HW121122   0.236   1.225   0.213  1.0884  1.9430 -0.5512
 3221SOL    HW221123   0.162   1.142   0.113  1.8252 -0.1840 -0.5484
 3222SOL     OW21124   4.113   4.085   8.764  0.0644 -0.1574  0.3230
 3222SOL    HW121125   4.123   4.119   8.854 -0.2938  1.0507 -0.0961
 3222SOL    HW221126   4.184   4.134   8.721 -1.2205 -0.5242 -2.1412
 3223SOL     OW21127   4.607   4.074   5.631 -0.0136 -0.4638 -0.0949
 3223SOL    HW121128   4.684   4.058   5.686 -0.8728  1.9209  1.8255
 3223SOL    HW221129   4.636   4.157   5.594  0.2301 -1.1655 -1.4720
 3224SOL     OW21130   0.872   0.594  15.153 -0.5628  0.6324  0.0990
 3224SOL    HW121131   0.802   0.528  15.160  1.4596 -1.7190 -1.5608
 3224SOL    HW221132   0.937   0.542  15.105  0.4794  2.0352  0.0203
 3225SOL     OW21133   1.693   2.229   2.272 -0.4198  0.2088 -0.6877
 3225SOL    HW121134   1.728   2.167   2.208  1.0164  0.4618 -0.1416
 3225SOL    HW221135   1.772   2.270   2.307  0.3120 -1.9930  0.2326
 3226SOL     OW21136   2.372   3.490   5.503 -0.7172 -0.3085 -0.1656
 3226SOL    HW121137   2.338   3.415   5.550  0.5763 -0.7834  0.0222
 3226SOL    HW221138   2.349   3.560   5.564  0.7410 -1.1457  1.3624
 3227SOL     OW21139   2.236   1.673   5.158 -0.0132 -0.2451  0.3992
 3227SOL    HW121140   2.315   1.621   5.148  0.6283  1.0709 -1.4229
 3227SOL    HW221141   2.202   1.652   5.071  1.6831  1.4929 -0.6815
 3228SOL     OW21142   2.001   0.566   7.354  0.0473  0.3343 -0.2992
 3228SOL    HW121143   2.080   0.523   7.389  0.1751  0.9852  0.2093
 3228SOL    HW221144   1.952   0.592   7.432  0.1465 -0.9495  0.2019
 3229SOL     OW21145   1.091   2.278   8.722  0.3132 -0.2300  0.0605
 3229SOL    HW121146   1.169   2.256   8.771 -0.0346 -2.6619 -0.4919
 3229SOL    HW221147   1.060   2.353   8.772  0.3292  0.5474 -1.0849
 3230SOL     OW21148   2.062   1.111   4.801 -0.4352  0.2338  0.2340
 3230SOL    HW121149   2.045   1.099   4.708 -5.7224 -1.0489  1.4088
 3230SOL    HW221150   1.998   1.179   4.824 -1.1547 -0.0854 -0.8089
 3231SOL     OW21151   4.601   3.162   3.846  0.6197 -0.6972  0.6076
 3231SOL    HW121152   4.660   3.228   3.810 -0.3022 -0.2994 -0.1615
 3231SOL    HW221153   4.568   3.210   3.922 -1.1611  1.2250 -1.4133
 3232SOL     OW21154   3.808   3.809   5.295  0.1211  0.2629  0.2087
 3232SOL    HW121155   3.900   3.824   5.316  0.4846  0.7224 -1.7130
 3232SOL    HW221156   3.806   3.726   5.344 -0.4050 -1.0163 -1.9556
 3233SOL     OW21157   4.417   1.738  12.156 -0.0765 -0.0491  0.0953
 3233SOL    HW121158   4.503   1.780  12.152 -0.3967  0.7080  1.1435
 3233SOL    HW221159   4.447   1.666  12.211 -0.5507  2.4652  3.6618
 3234SOL     OW21160   0.887   4.170   3.869 -0.5401 -0.4650  0.1681
 3234SOL    HW121161   0.966   4.152   3.920 -1.1133 -2.0194  0.4920
 3234SOL    HW221162   0.830   4.094   3.879 -0.6463 -0.4914 -0.6534
 3235SOL     OW21163   0.843   1.949  17.243 -0.0909 -0.8213  0.9745
 3235SOL    HW121164   0.829   2.028  17.191 -2.8607 -1.1174  1.2610
 3235SOL    HW221165   0.751   1.922  17.251 -0.4045  0.1461  0.6494
 3236SOL     OW21166   1.568   1.315   8.448  0.4212 -0.3621  0.1626
 3236SOL    HW121167   1.565   1.221   8.430 -0.2921  0.0301 -1.7871
 3236SOL    HW221168   1.509   1.308   8.523 -1.6981 -3.6380 -1.7952
 3237SOL     OW21169   4.602   4.172   8.682 -0.1682  0.1618 -0.2842
 3237SOL    HW121170   4.545   4.246   8.660  0.6017  1.3237  1.5818
 3237SOL    HW221171   4.671   4.200   8.742  0.4791  0.1100 -1.0119
 3238SOL     OW21172   4.508   1.868   5.413 -0.1798 -0.4125  0.2860
 3238SOL    HW121173   4.596   1.900   5.433 -1.0211 -0.3982  3.9109
 3238SOL    HW221174   4.498   1.873   5.318  0.6451 -1.2797  0.1546
 3239SOL     OW21175   2.261   3.662   5.703  0.6855  0.2271  0.0338
 3239SOL    HW121176   2.219   3.747   5.686 -2.5027 -0.9997  1.8218
 3239SOL    HW221177   2.330   3.680   5.767  0.8401  1.1181 -0.3739
 3240SOL     OW21178   0.946   2.213   0.821  0.0320  0.3843  0.0442
 3240SOL    HW121179   0.960   2.157   0.745 -2.1263  0.1074 -0.1354
 3240SOL    HW221180   0.983   2.155   0.888  0.8775  1.0091  0.1216
 3241SOL     OW21181   4.135   0.906   6.222  0.0020  0.0614  0.5764
 3241SOL    HW121182   4.074   0.852   6.172 -1.4225  0.7385  1.5693
 3241SOL    HW221183   4.105   0.903   6.313 -2.5082  0.2997 -0.2191
 3242SOL     OW21184   3.693   1.694  16.321 -0.8648 -0.1375 -0.0312
 3242SOL    HW121185   3.665   1.624  16.380 -0.8404  0.7715  1.0799
 3242SOL    HW221186   3.664   1.778  16.358 -2.6186  0.1418 -2.0774
 3243SOL     OW21187   0.597   0.406  15.803  0.3108  0.5027  0.3344
 3243SOL    HW121188   0.598   0.378  15.712 -2.4682 -0.6708  0.6313
 3243SOL    HW221189   0.532   0.341  15.833 -0.4050  2.3046  2.6739
 3244SOL     OW21190   0.616   0.548   7.484 -0.2124 -0.1625  0.1705
 3244SOL    HW121191   0.676   0.605   7.436  1.1080 -0.8164  1.0221
 3244SOL    HW221192   0.541   0.607   7.496 -1.1525 -1.0527 -1.4052
 3245SOL     OW21193   0.521   0.527   5.744 -0.3730  0.0279 -0.1076
 3245SOL    HW121194   0.576   0.601   5.770 -0.1112  0.0164 -0.6219
 3245SOL    HW221195   0.441   0.562   5.782  0.4969  0.2596  1.4977
 3246SOL     OW21196   0.631   2.380   4.142 -0.0785  1.0146  0.5195
 3246SOL    HW121197   0.557   2.326   4.116  0.0541  0.1761  1.8824
 3246SOL    HW221198   0.698   2.359   4.076 -0.0322  0.6220  0.6924
 3247SOL     OW21199   2.636   1.391   3.293 -0.0458 -0.5164 -0.0516
 3247SOL    HW121200   2.574   1.319   3.301  2.1737 -2.1539  2.3124
 3247SOL    HW221201   2.607   1.432   3.212 -0.5763  0.1716  0.4889
 3248SOL     OW21202   3.586   0.024   4.497  0.4390 -0.2285  0.2407
 3248SOL    HW121203   3.641   4.675   4.513  4.3608  2.1709 -2.0583
 3248SOL    HW221204   3.509   0.003   4.551  0.7705 -0.1269  0.7473
 3249SOL     OW21205   0.223   0.753  15.825 -0.1697  0.1286 -0.1392
 3249SOL    HW121206   0.131   0.768  15.804  0.4042 -0.0683 -2.6998
 3249SOL    HW221207   0.262   0.827  15.778  0.0077  0.3709  0.3821
 3250SOL     OW21208   1.951   3.382   3.303  0.0223 -0.5139 -0.5094
 3250SOL    HW121209   2.026   3.382   3.244 -0.4796  1.4663 -1.1401
 3250SOL    HW221210   1.936   3.288   3.318 -0.5734 -0.5152 -1.1249
 3251SOL     OW21211   0.589   1.959   2.632  0.4713  0.0100 -0.2762
 3251SOL    HW121212   0.497   1.983   2.640  0.5352  0.0226  0.4129
 3251SOL    HW221213   0.592   1.865   2.652  2.3621 -0.0157 -0.7186
 3252SOL     OW21214   2.211   3.125   8.813  0.1283 -0.3030 -0.1357
 3252SOL    HW121215   2.183   3.049   8.762  3.3247 -1.4462 -0.1917
 3252SOL    HW221216   2.269   3.169   8.751  0.4478 -1.5855 -0.7382
 3253SOL     OW21217   0.759   0.113   6.448  0.2616 -0.0358  0.3425
 3253SOL    HW121218   0.695   0.048   6.477 -0.7959  0.8562  0.0229
 3253SOL    HW221219   0.753   0.185   6.510  0.4072 -0.8525  1.2993
 3254SOL     OW21220   4.570   1.790   3.732 -0.1342 -0.3462 -0.3914
 3254SOL    HW121221   4.594   1.883   3.726 -2.7927  0.4134  0.6005
 3254SOL    HW221222   4.523   1.782   3.649 -2.9706  0.4998  1.1612
 3255SOL     OW21223   4.352   2.646  15.688 -0.2299 -0.4767 -0.0531
 3255SOL    HW121224   4.398   2.728  15.704  0.3539 -1.1287  1.5823
 3255SOL    HW221225   4.313   2.630  15.774 -0.8911  2.5697  0.2186
 3256SOL     OW21226   1.888   4.375   9.178 -0.4644  0.5616 -0.2458
 3256SOL    HW121227   1.932   4.305   9.129  0.0746  0.4718  0.3680
 3256SOL    HW221228   1.807   4.384   9.127 -1.7205 -0.9130  1.4978
 3257SOL     OW21229   2.595   0.542   7.858 -0.2949 -0.0943 -0.3674
 3257SOL    HW121230   2.500   0.551   7.861 -0.0856  1.7937  0.7926
 3257SOL    HW221231   2.596   0.447   7.873 -1.7255 -0.0569 -0.0586
 3258SOL     OW21232   2.639   3.040   8.345  0.4029 -0.0778  0.4969
 3258SOL    HW121233   2.701   3.074   8.408  0.8846 -0.5444  0.2715
 3258SOL    HW221234   2.576   3.112   8.351 -0.4264 -0.6402 -1.2560
 3259SOL     OW21235   0.091   1.029  11.364  0.1621 -1.0986 -0.0829
 3259SOL    HW121236   0.087   0.941  11.401 -1.0608 -1.6541 -1.5640
 3259SOL    HW221237   0.030   1.078  11.420 -0.2473 -1.5398 -0.1514
 3260SOL     OW21238   0.895   0.531   2.701 -0.4878  0.1257  0.1016
 3260SOL    HW121239   0.956   0.504   2.769  1.0518 -0.2935 -1.4329
 3260SOL    HW221240   0.870   0.614   2.741 -0.3312 -0.1750  0.8103
 3261SOL     OW21241   0.698   2.814   3.874  0.6373 -0.2548 -0.3289
 3261SOL    HW121242   0.648   2.894   3.862 -1.7527 -1.8810 -1.1876
 3261SOL    HW221243   0.667   2.752   3.808  2.2238 -0.2324 -1.1122
 3262SOL     OW21244   0.236   1.581  10.074 -0.1619 -0.3451 -0.4086
 3262SOL    HW121245   0.268   1.548  10.159  1.3781 -1.4705 -1.4104
 3262SOL    HW221246   0.182   1.507  10.047  0.0392  0.0613 -1.9049
 3263SOL     OW21247   1.791   4.669   9.348 -0.2466 -0.3988 -0.7147
 3263SOL    HW121248   1.767   4.651   9.438 -0.5319 -1.9526 -1.1097
 3263SOL    HW221249   1.881   4.635   9.345  0.1931  0.7829 -0.8577
 3264SOL     OW21250   3.123   0.140   4.788 -0.2595  0.4523 -0.3188
 3264SOL    HW121251   3.130   0.047   4.810  4.7695  0.8806  0.0183
 3264SOL    HW221252   3.132   0.141   4.693 -1.4407  0.8699 -0.4211
 3265SOL     OW21253   3.062   1.267   1.985 -0.2417 -0.7760  0.2997
 3265SOL    HW121254   3.139   1.211   1.983 -0.5490 -1.2370  1.8009
 3265SOL    HW221255   3.051   1.264   1.890 -2.3954 -0.8265  0.5481
 3266SOL     OW21256   3.053   3.564   7.235  0.4016 -0.2336  0.3572
 3266SOL    HW121257   2.993   3.611   7.177 -1.4352 -1.4602  1.2752
 3266SOL    HW221258   3.133   3.606   7.205 -0.0908 -0.0856 -0.7512
 3267SOL     OW21259   2.495   2.107   7.284 -0.4894 -0.1245 -0.0420
 3267SOL    HW121260   2.501   2.116   7.379  0.5180 -0.6088 -0.0616
 3267SOL    HW221261   2.402   2.088   7.269 -0.4985  0.1442 -0.3341
 3268SOL     OW21262   2.992   2.320   9.261  0.1983  0.3792 -0.0668
 3268SOL    HW121263   3.088   2.322   9.268  0.3079 -0.5266 -1.3782
 3268SOL    HW221264   2.978   2.236   9.303  0.2434  0.3965 -0.0164
 3269SOL     OW21265   0.952   3.042   8.009  0.3859 -0.5698 -0.3547
 3269SOL    HW121266   0.961   3.047   8.104 -1.6298  0.9820 -0.2326
 3269SOL    HW221267   0.992   2.956   7.996 -0.2929 -0.5292 -2.7004
 3270SOL     OW21268   4.575   3.156   5.326  0.0678 -0.0379  0.1305
 3270SOL    HW121269   4.626   3.100   5.384  1.6303 -1.1580 -2.3327
 3270SOL    HW221270   4.495   3.117   5.361  1.0992 -1.1536  1.2532
 3271SOL     OW21271   0.958   1.786   7.900 -0.3838  0.5009  0.1855
 3271SOL    HW121272   0.864   1.800   7.911 -1.1136 -3.5039 -1.0816
 3271SOL    HW221273   0.986   1.752   7.984 -1.0038 -1.8473 -0.5618
 3272SOL     OW21274   0.250   2.944   7.680  0.7987 -0.2092 -0.4169
 3272SOL    HW121275   0.291   3.025   7.711  0.6223 -0.0989 -0.4741
 3272SOL    HW221276   0.326   2.886   7.683  0.2010 -1.0829 -2.4818
 3273SOL     OW21277   2.043   4.699   5.674 -0.4171  0.1948  0.7459
 3273SOL    HW121278   2.073   0.060   5.652  0.4688 -0.3982 -0.4203
 3273SOL    HW221279   2.118   4.669   5.724  1.5071 -1.2526 -3.0257
 3274SOL     OW21280   0.140   3.422   3.978 -0.0537 -0.5570 -0.1143
 3274SOL    HW121281   0.045   3.415   3.970 -0.1494 -0.0358  0.5155
 3274SOL    HW221282   0.129   3.498   4.035 -0.6412  0.9475 -2.2152
 3275SOL     OW21283   4.599   1.916   3.160  0.5302 -0.0917  0.4812
 3275SOL    HW121284   4.519   1.906   3.108  1.2731 -2.3215 -0.2403
 3275SOL    HW221285   4.666   1.943   3.097 -1.0426 -0.5203 -1.3810
 3276SOL     OW21286   4.393   0.727   4.257 -0.0337  0.0973  0.3441
 3276SOL    HW121287   4.399   0.638   4.224 -0.5726 -0.1304  0.8454
 3276SOL    HW221288   4.406   0.782   4.180 -1.9292  0.4480  0.2701
 3277SOL     OW21289   2.039   3.645   2.564  0.1350 -0.2151  0.3956
 3277SOL    HW121290   2.088   3.727   2.566 -3.3686  1.9634 -3.8662
 3277SOL    HW221291   2.065   3.603   2.646 -1.1887  1.0247  1.4384
 3278SOL     OW21292   2.434   4.242  10.836  0.1974 -0.1242  0.8885
 3278SOL    HW121293   2.384   4.208  10.910 -1.7764  0.6156 -0.0810
 3278SOL    HW221294   2.390   4.202  10.760 -0.9266  0.9429  0.9651
 3279SOL     OW21295   0.983   3.973  15.111 -0.0182 -0.0365  0.2024
 3279SOL    HW121296   1.076   3.957  15.095  0.6645  3.1396  0.9842
 3279SOL    HW221297   0.983   4.068  15.116  0.4067  0.0468 -1.4885
 3280SOL     OW21298   1.019   2.954  12.590 -0.5859 -0.2113 -0.5432
 3280SOL    HW121299   1.006   2.922  12.501  0.8137  0.4203 -0.9800
 3280SOL    HW221300   0.931   2.934  12.622  0.3825 -0.7663  1.8135
 3281SOL     OW21301   3.336   1.844  13.678 -0.1024  1.0939 -0.4612
 3281SOL    HW121302   3.343   1.752  13.702 -0.7677  0.4420 -2.7689
 3281SOL    HW221303   3.302   1.887  13.757  1.5566  0.3748  0.6333
 3282SOL     OW21304   2.372   2.146   6.774 -0.0340 -0.4222 -0.0419
 3282SOL    HW121305   2.376   2.223   6.831 -0.2245  1.3288 -2.4372
 3282SOL    HW221306   2.285   2.167   6.741  0.2854 -0.6086 -0.9849
 3283SOL     OW21307   1.143   0.132   4.328 -0.2217  0.1605  0.1751
 3283SOL    HW121308   1.146   0.132   4.233 -0.4542 -0.7674  0.1660
 3283SOL    HW221309   1.215   0.187   4.359  1.3281  0.1202 -3.4229
 3284SOL     OW21310   1.202   2.273   9.494 -0.8445 -0.5637 -0.0368
 3284SOL    HW121311   1.267   2.337   9.467 -2.7834  0.5291 -2.1080
 3284SOL    HW221312   1.253   2.198   9.524 -0.1165 -0.2048 -0.3808
 3285SOL     OW21313   2.340   4.418   9.272  0.6276 -0.3580 -0.1148
 3285SOL    HW121314   2.286   4.437   9.349  1.9958 -0.6683  0.9437
 3285SOL    HW221315   2.314   4.494   9.221 -1.8464 -0.2450  1.3168
 3286SOL     OW21316   2.071   1.490  12.471  0.0109  0.5422 -0.5278
 3286SOL    HW121317   2.045   1.582  12.460 -1.0504  0.2890 -0.1757
 3286SOL    HW221318   2.158   1.492  12.510  0.1804 -2.4566 -0.7790
 3287SOL     OW21319   3.273   2.536  11.445 -0.4450 -0.0852  0.1411
 3287SOL    HW121320   3.225   2.484  11.509  1.1266 -1.4025  0.2600
 3287SOL    HW221321   3.211   2.599  11.409  1.1423  0.8268 -1.0252
 3288SOL     OW21322   1.156   1.133   1.769  0.1239  0.1288 -0.4809
 3288SOL    HW121323   1.241   1.174   1.786  0.1261  0.3948 -1.1567
 3288SOL    HW221324   1.096   1.198   1.804  0.7544  1.2589 -1.4900
 3289SOL     OW21325   3.269   4.258   3.237 -0.3061 -0.0071  0.0177
 3289SOL    HW121326   3.265   4.301   3.152 -0.5941  1.6061  0.8595
 3289SOL    HW221327   3.259   4.166   3.211 -1.9828  0.5135 -1.1853
 3290SOL     OW21328   0.676   0.702   1.236 -0.5265  0.4023 -0.2617
 3290SOL    HW121329   0.662   0.749   1.155  0.5393  0.3860 -0.4532
 3290SOL    HW221330   0.585   0.688   1.265  0.0055 -0.1673  1.1642
 3291SOL     OW21331   0.117   3.653   4.536  0.4726 -0.7295 -0.0707
 3291SOL    HW121332   0.176   3.646   4.611  0.5847  3.0685  0.1734
 3291SOL    HW221333   0.050   3.592   4.564  0.1868 -0.8005 -0.8996
 3292SOL     OW21334   2.639   3.687   6.570 -0.1774  0.0656  0.0104
 3292SOL    HW121335   2.729   3.717   6.579  0.3865 -1.3430 -0.8685
 3292SOL    HW221336   2.600   3.767   6.604  0.1130  0.9554 -1.7241
 3293SOL     OW21337   2.373   1.811   1.603  0.6487  0.1259  0.3430
 3293SOL    HW121338   2.327   1.832   1.521 -1.8630 -1.7617  1.2688
 3293SOL    HW221339   2.315   1.849   1.669  0.0668  0.4039 -0.3261
 3294SOL     OW21340   4.097   1.924   5.292  0.0569  0.2203 -0.2684
 3294SOL    HW121341   4.047   1.982   5.350  0.2166  0.9099 -0.8062
 3294SOL    HW221342   4.051   1.925   5.208  0.9222 -0.4042 -0.7392
 3295SOL     OW21343   2.101   3.908   1.925  0.2042 -0.4193  0.3630
 3295SOL    HW121344   2.195   3.913   1.940  0.3129  0.3164 -0.5738
 3295SOL    HW221345   2.083   3.861   2.006 -1.4708  0.2385  0.3700
 3296SOL     OW21346   2.358   4.209   3.443 -0.3706 -0.0162  0.3489
 3296SOL    HW121347   2.280   4.176   3.399  0.2156  0.2924 -0.9330
 3296SOL    HW221348   2.423   4.147   3.409 -0.4232 -1.4053  2.7843
 3297SOL     OW21349   2.007   2.760  13.184 -0.1627 -0.2048 -0.0384
 3297SOL    HW121350   2.026   2.784  13.094  0.5748 -1.8815 -0.3359
 3297SOL    HW221351   2.022   2.842  13.231  2.9772 -1.2504  0.7800
 3298SOL     OW21352   4.216   2.946   2.100  0.0104 -0.0506 -0.6826
 3298SOL    HW121353   4.178   3.030   2.072  0.3168  0.6634  1.0329
 3298SOL    HW221354   4.140   2.890   2.087  0.9719 -1.2452 -1.1974
 3299SOL     OW21355   2.886   4.658   0.417  0.4079  0.6927  0.0064
 3299SOL    HW121356   2.872   0.000   0.353  0.4004  1.6191  1.0094
 3299SOL    HW221357   2.937   4.587   0.378 -2.2512  0.3530 -2.8398
 3300SOL     OW21358   0.946   2.276   9.590 -0.0519 -0.6552 -0.5316
 3300SOL    HW121359   0.903   2.235   9.515 -2.0280 -0.6009  0.5768
 3300SOL    HW221360   1.030   2.288   9.546  0.1285  2.5681  0.6576
 3301SOL     OW21361   4.163   4.020   6.713  0.5908  0.3028  0.1357
 3301SOL    HW121362   4.109   3.986   6.642 -0.1149  2.8647 -0.5377
 3301SOL    HW221363   4.202   3.941   6.751 -0.8658 -1.5421 -2.1831
 3302SOL     OW21364   4.668   0.626   7.475  0.1980  0.8723  0.4967
 3302SOL    HW121365   4.587   0.642   7.425 -0.1136  1.2495  1.1142
 3302SOL    HW221366   4.640   0.589   7.558  0.6431  0.7435  0.5878
 3303SOL     OW21367   3.573   4.721  13.820 -0.0481 -0.5707  0.3274
 3303SOL    HW121368   3.535   4.718  13.907  0.3680  1.1881  0.5845
 3303SOL    HW221369   3.493   4.713  13.768 -0.4433  2.8385  0.3779
 3304SOL     OW21370   0.536   0.182  10.930 -0.0962  0.4685  0.0367
 3304SOL    HW121371   0.479   0.258  10.920 -1.3518 -0.6603 -1.3677
 3304SOL    HW221372   0.497   0.154  11.013  1.4963 -0.6138  0.4128
 3305SOL     OW21373   4.015   3.185   8.775  0.4400  0.5745 -0.2129
 3305SOL    HW121374   4.033   3.093   8.759  1.3424  0.6829  0.2200
 3305SOL    HW221375   4.080   3.205   8.843  0.1240 -0.5658  0.4259
 3306SOL     OW21376   4.574   2.824  13.614 -0.0787 -0.0009 -0.0807
 3306SOL    HW121377   4.641   2.779  13.561 -0.8751  1.3630 -2.2413
 3306SOL    HW221378   4.591   2.772  13.693  0.0691  2.5290  1.5291
 3307SOL     OW21379   4.443   3.876   7.891  0.6170 -0.0042 -0.2105
 3307SOL    HW121380   4.454   3.940   7.820 -1.7145 -0.6905 -1.1741
 3307SOL    HW221381   4.449   3.929   7.971 -0.3373  0.3770 -0.3960
 3308SOL     OW21382   2.961   2.094   2.366 -0.1830  0.1092  0.2767
 3308SOL    HW121383   2.894   2.078   2.432  0.7023  0.6855  1.3195
 3308SOL    HW221384   3.040   2.061   2.409 -0.8304 -3.1456 -1.0249
 3309SOL     OW21385   1.312   0.588   7.632  0.4406  0.3156 -0.0502
 3309SOL    HW121386   1.361   0.575   7.713 -0.6223  1.1857  0.7388
 3309SOL    HW221387   1.235   0.622   7.678 -0.5081  1.2310 -2.3370
 3310SOL     OW21388   0.758   2.977  13.746  0.0801 -0.0807 -0.7204
 3310SOL    HW121389   0.809   3.003  13.823 -0.4014  0.0757 -0.4597
 3310SOL    HW221390   0.719   3.063  13.728  2.7071  1.0168 -1.3460
 3311SOL     OW21391   1.744   1.543  11.321  0.3844 -0.0654 -0.3256
 3311SOL    HW121392   1.673   1.551  11.385 -0.4903  0.1070 -1.3141
 3311SOL    HW221393   1.814   1.547  11.385 -0.1681  0.1901  0.2642
 3312SOL     OW21394   1.235   3.886   7.974 -0.1024  0.1190 -0.4937
 3312SOL    HW121395   1.231   3.949   8.046 -0.3431  0.1280 -0.5157
 3312SOL    HW221396   1.271   3.812   8.024  2.1851  1.1231 -0.6259
 3313SOL     OW21397   2.269   2.128  15.710  0.0904  0.0870  0.1440
 3313SOL    HW121398   2.316   2.085  15.781 -0.7735  1.8968  1.8425
 3313SOL    HW221399   2.252   2.213  15.750  0.0579  0.2998 -0.3159
 3314SOL     OW21400   3.653   2.344   6.741 -0.0970  0.5099  0.3925
 3314SOL    HW121401   3.651   2.248   6.736  0.5481  0.5769 -1.3402
 3314SOL    HW221402   3.655   2.360   6.646 -2.1141 -0.7147  0.1281
 3315SOL     OW21403   4.068   2.868   7.359 -0.6479  0.3085 -0.3189
 3315SOL    HW121404   4.157   2.885   7.389 -0.4139  0.4071 -1.0961
 3315SOL    HW221405   4.077   2.773   7.356  0.1800  0.4192 -1.2028
 3316SOL     OW21406   4.427   1.880   6.780  0.0681  0.2366  0.1591
 3316SOL    HW121407   4.453   1.795   6.745 -0.8197  0.9242 -2.2328
 3316SOL    HW221408   4.471   1.874   6.864  0.5939 -1.5523 -0.2492
 3317SOL     OW21409   0.658   0.583   4.951  0.1151 -0.0782 -0.7555
 3317SOL    HW121410   0.656   0.499   4.997  1.2622 -1.0004 -2.4003
 3317SOL    HW221411   0.567   0.606   4.966 -0.5022 -2.3314 -1.1008
 3318SOL     OW21412   1.470   0.135   1.194  0.1577  0.2846 -0.0507
 3318SOL    HW121413   1.393   0.188   1.217  1.7412  2.1101  1.0496
 3318SOL    HW221414   1.547   0.184   1.223 -0.9796  0.3489  2.7853
 3319SOL     OW21415   1.815   4.107   8.057 -0.1397  0.3435 -0.1855
 3319SOL    HW121416   1.855   4.138   7.975 -3.0803  0.3034 -1.6448
 3319SOL    HW221417   1.845   4.177   8.114  1.0152 -1.8299  1.8561
 3320SOL     OW21418   0.124   3.624   2.263 -0.4415 -0.1298  0.2560
 3320SOL    HW121419   0.217   3.603   2.274 -0.8498 -0.7482  2.4759
 3320SOL    HW221420   0.092   3.536   2.284  0.3661 -0.3874  0.3911
 3321SOL     OW21421   3.460   3.134   4.226 -0.1095 -0.1218  0.2727
 3321SOL    HW121422   3.399   3.113   4.296 -2.5628  2.1177 -1.1773
 3321SOL    HW221423   3.407   3.108   4.150  0.6719  5.6538 -2.2138
 3322SOL     OW21424   0.549   0.375   5.345 -0.3340  0.5428  0.1933
 3322SOL    HW121425   0.546   0.396   5.251  1.8075  1.4952  0.3389
 3322SOL    HW221426   0.459   0.349   5.363 -0.0032 -0.5354  0.2514
 3323SOL     OW21427   3.211   4.621   3.433  0.8124  0.3521  0.1309
 3323SOL    HW121428   3.250   4.616   3.520 -0.4836  0.2966  0.7183
 3323SOL    HW221429   3.118   4.601   3.447  1.1584 -0.8633  0.6922
 3324SOL     OW21430   4.425   4.221   2.531 -0.0078 -0.3780  0.2156
 3324SOL    HW121431   4.511   4.252   2.559  0.0718 -2.1673  1.9802
 3324SOL    HW221432   4.434   4.218   2.436 -1.4549  1.9390  0.0125
 3325SOL     OW21433   1.157   0.802  11.544  0.5956  0.5157 -0.0339
 3325SOL    HW121434   1.119   0.820  11.458  0.8022 -1.3309 -0.5175
 3325SOL    HW221435   1.078   0.810  11.598 -0.7580 -3.7808 -1.3643
 3326SOL     OW21436   2.191   3.072   7.187  0.3122 -0.0973 -0.7717
 3326SOL    HW121437   2.245   3.118   7.252  1.0232 -0.3939 -1.1530
 3326SOL    HW221438   2.191   2.983   7.222  1.4278 -1.1998 -3.5872
 3327SOL     OW21439   3.203   0.101   3.000 -0.1900 -0.1040 -0.4639
 3327SOL    HW121440   3.111   0.114   2.976  0.5035  2.9721 -1.3474
 3327SOL    HW221441   3.212   0.165   3.071 -1.0159 -0.7449  0.2334
 3328SOL     OW21442   3.472   3.648  13.142 -0.1816 -0.3369 -0.3824
 3328SOL    HW121443   3.392   3.596  13.145  1.5393 -2.9333  0.2359
 3328SOL    HW221444   3.424   3.730  13.156 -1.6916 -1.4453  0.8813
 3329SOL     OW21445   0.401   1.423   2.315  0.6286 -0.0774 -0.0940
 3329SOL    HW121446   0.488   1.422   2.275  0.3314 -0.2660 -0.7301
 3329SOL    HW221447   0.342   1.386   2.250  1.5542 -1.5793 -0.0765
 3330SOL     OW21448   3.865   0.970   3.005 -0.4563  0.5375 -0.0255
 3330SOL    HW121449   3.938   1.016   3.048 -1.3090  0.7700  1.1736
 3330SOL    HW221450   3.897   0.957   2.916  0.4576  1.1001  0.2116
 3331SOL     OW21451   0.061   0.675   4.112 -0.1154 -0.2744  1.0713
 3331SOL    HW121452   0.023   0.589   4.091  0.3394  0.3030 -2.0985
 3331SOL    HW221453   0.092   0.710   4.029 -2.0487 -0.0569  0.4370
 3332SOL     OW21454   4.181   4.109  14.458 -0.7604 -0.0415 -0.5644
 3332SOL    HW121455   4.212   4.179  14.517  2.0798 -1.8063  0.0501
 3332SOL    HW221456   4.145   4.167  14.391  2.2442 -0.2938 -2.3788
 3333SOL     OW21457   0.560   3.131   7.517  0.0518  0.4488  0.0335
 3333SOL    HW121458   0.622   3.152   7.447 -0.4985 -0.2173 -0.6479
 3333SOL    HW221459   0.549   3.222   7.547 -1.6911 -0.1134  1.0520
 3334SOL     OW21460   1.655   2.535   6.834  0.1599 -0.3313 -0.2625
 3334SOL    HW121461   1.638   2.450   6.793  1.2034  0.5796 -2.6106
 3334SOL    HW221462   1.644   2.514   6.927  3.8404 -0.4434  0.1342
 3335SOL     OW21463   2.820   0.861  10.847  0.3146  0.1401  0.5875
 3335SOL    HW121464   2.748   0.811  10.808 -2.8041  2.6045  3.1343
 3335SOL    HW221465   2.779   0.874  10.933 -0.4200  2.2364 -0.0836
 3336SOL     OW21466   4.064   0.701   7.521  0.4328 -0.3942 -0.3023
 3336SOL    HW121467   4.103   0.773   7.572 -1.8330 -0.6517  1.8537
 3336SOL    HW221468   4.144   0.669   7.481  2.1837  2.3397  1.0170
 3337SOL     OW21469   0.258   1.244   4.720 -1.0285 -0.2382  0.0742
 3337SOL    HW121470   0.165   1.255   4.736 -1.5590 -1.6782 -2.0042
 3337SOL    HW221471   0.295   1.278   4.802 -1.3013 -1.1323  0.5630
 3338SOL     OW21472   1.938   2.417   6.049  0.5254  0.1016 -0.5635
 3338SOL    HW121473   1.936   2.353   5.978 -0.9142 -3.1804  2.4415
 3338SOL    HW221474   1.866   2.477   6.029 -0.7750 -2.4149 -3.3814
 3339SOL     OW21475   3.982   2.898   6.099  0.5313 -0.4017 -0.5348
 3339SOL    HW121476   4.029   2.883   6.181  1.1692  0.5451 -0.7359
 3339SOL    HW221477   4.007   2.819   6.050 -2.0595 -1.1342 -0.6513
 3340SOL     OW21478   4.597   1.875   6.469 -0.6338 -0.1117  0.5598
 3340SOL    HW121479   4.553   1.805   6.421 -1.6395 -0.0971  1.4665
 3340SOL    HW221480   4.641   1.816   6.531  1.8064  0.8165 -0.2980
 3341SOL     OW21481   1.714   3.944  11.130  0.3587  0.2782  0.0859
 3341SOL    HW121482   1.710   3.866  11.074 -2.1781  0.0953  0.4959
 3341SOL    HW221483   1.808   3.943  11.148  0.1124 -0.2490  1.3131
 3342SOL     OW21484   3.016   1.232   3.989  0.3278  0.2719  0.2075
 3342SOL    HW121485   2.933   1.239   4.036 -0.7133 -1.2850 -1.3919
 3342SOL    HW221486   2.981   1.215   3.901 -1.8770  1.7605  0.7721
 3343SOL     OW21487   2.905   4.013   8.483  0.2518  0.6657  0.2418
 3343SOL    HW121488   2.827   4.066   8.468  0.6857  1.3430  0.3777
 3343SOL    HW221489   2.942   4.014   8.395  1.2921 -0.9246  0.6509
 3344SOL     OW21490   4.705   1.951   2.361  0.7305  0.0498  0.0626
 3344SOL    HW121491   4.645   2.023   2.339 -0.9659 -1.4845 -0.3584
 3344SOL    HW221492   0.026   1.920   2.284  1.6590 -3.3725  2.0590
 3345SOL     OW21493   2.339   2.968   3.991  0.1155 -0.0026  0.2326
 3345SOL    HW121494   2.321   2.887   4.039 -1.7482  0.8108  0.8987
 3345SOL    HW221495   2.317   3.030   4.061 -1.5795  0.6168 -0.8615
 3346SOL     OW21496   3.662   4.452   5.448 -0.2348  0.1633 -0.4155
 3346SOL    HW121497   3.638   4.371   5.403  0.8571  0.2827 -1.2145
 3346SOL    HW221498   3.579   4.480   5.486 -1.5143  0.5558 -3.4935
 3347SOL     OW21499   1.155   1.681   3.248  0.3866 -0.0021  0.4150
 3347SOL    HW121500   1.188   1.699   3.160 -0.6708 -0.3571 -0.0564
 3347SOL    HW221501   1.147   1.585   3.251  0.5715 -0.0666 -1.0333
 3348SOL     OW21502   3.840   0.336   4.493 -0.0329 -0.2188 -0.2636
 3348SOL    HW121503   3.757   0.301   4.459 -0.9583 -0.0672  1.8699
 3348SOL    HW221504   3.857   0.266   4.556 -1.8527 -0.7143 -0.3138
 3349SOL     OW21505   1.168   0.609   5.048  0.0043  0.4579  0.1900
 3349SOL    HW121506   1.191   0.541   5.111 -0.6855  0.7234  0.7353
 3349SOL    HW221507   1.251   0.615   5.001  0.0369 -1.6409 -0.0258
 3350SOL     OW21508   2.637   1.749   1.833  0.8819 -0.2232 -0.5821
 3350SOL    HW121509   2.668   1.839   1.840 -0.8857  0.1851  2.0066
 3350SOL    HW221510   2.578   1.742   1.908  0.6550 -1.0294 -0.8344
 3351SOL     OW21511   1.514   1.945  14.132 -0.0269  0.0780  0.6055
 3351SOL    HW121512   1.516   1.975  14.041  0.0825  2.1148  1.2741
 3351SOL    HW221513   1.419   1.935  14.133  0.1024 -1.0900  0.4365
 3352SOL     OW21514   1.592   3.555   2.350 -0.4334  0.1500 -0.4002
 3352SOL    HW121515   1.621   3.640   2.316 -2.3342  1.0439  0.1816
 3352SOL    HW221516   1.580   3.492   2.280  1.3650 -0.3277 -0.2658
 3353SOL     OW21517   3.208   3.182  16.969 -0.3938 -0.0934  0.2908
 3353SOL    HW121518   3.243   3.109  16.917 -1.0970 -0.3429  0.1673
 3353SOL    HW221519   3.176   3.141  17.049 -1.0321  1.2332  0.7164
 3354SOL     OW21520   2.422   0.799  12.768 -0.0492 -0.6463 -0.0411
 3354SOL    HW121521   2.421   0.849  12.686  2.2193 -0.4492  0.0484
 3354SOL    HW221522   2.331   0.796  12.799 -0.1888  0.8873 -0.2605
 3355SOL     OW21523   4.033   4.167   4.489  0.8503  0.2903 -0.1276
 3355SOL    HW121524   3.971   4.236   4.467  0.6650 -0.5499 -2.2713
 3355SOL    HW221525   4.085   4.219   4.549  2.5741  0.5842 -1.8845
 3356SOL     OW21526   4.364   3.917  14.879 -0.7508 -0.0558  0.2223
 3356SOL    HW121527   4.393   4.000  14.842  3.1851 -0.9319  1.3105
 3356SOL    HW221528   4.406   3.912  14.965 -0.0604 -0.7802 -0.1660
 3357SOL     OW21529   3.997   0.069   2.871  0.5459 -0.1281 -0.1142
 3357SOL    HW121530   3.998   4.715   2.822  1.4267  1.2792 -2.4026
 3357SOL    HW221531   3.903   0.087   2.871  0.9070  1.7841  1.7772
 3358SOL     OW21532   1.865   2.106   3.881  0.6279  0.2088  0.2080
 3358SOL    HW121533   1.916   2.096   3.962 -0.3900 -1.8148  0.5926
 3358SOL    HW221534   1.910   2.050   3.818 -0.0178 -0.3049  0.2122
 3359SOL     OW21535   0.074   2.608  14.083  0.3988  0.3574 -0.1370
 3359SOL    HW121536   0.018   2.665  14.136 -1.9170 -0.4889 -1.6716
 3359SOL    HW221537   0.036   2.526  14.114  0.5664 -0.3379 -1.7397
 3360SOL     OW21538   3.913   3.853   3.266 -0.3130 -0.0632 -0.3399
 3360SOL    HW121539   3.907   3.868   3.172  1.2081 -1.2459 -0.6330
 3360SOL    HW221540   3.829   3.813   3.288  1.1297 -2.0770  1.5960
 3361SOL     OW21541   3.119   4.196   7.439  0.0383 -0.1702 -0.2369
 3361SOL    HW121542   3.113   4.123   7.377 -0.9933  1.1776 -1.7552
 3361SOL    HW221543   3.152   4.146   7.513 -1.5479 -0.0130  0.5812
 3362SOL     OW21544   3.170   0.304  14.978 -0.4167 -0.1526 -0.1868
 3362SOL    HW121545   3.158   0.326  15.070 -0.0511  0.6761 -0.3410
 3362SOL    HW221546   3.188   0.211  14.993  4.1051  1.1713  2.4029
 3363SOL     OW21547   1.816   1.922  10.222 -0.4682 -0.4864 -0.1581
 3363SOL    HW121548   1.749   1.973  10.177  0.9280 -0.2556 -2.0168
 3363SOL    HW221549   1.880   1.987  10.251 -1.0273 -1.0613  2.2871
 3364SOL     OW21550   0.490   1.975  13.687  0.3760  0.0142  0.0919
 3364SOL    HW121551   0.443   2.031  13.750  0.7048  0.0829  0.2775
 3364SOL    HW221552   0.438   1.895  13.701 -0.0377  0.2140 -0.2973
 3365SOL     OW21553   2.590   0.005   2.494  0.6501 -0.2661  0.0207
 3365SOL    HW121554   2.652   0.039   2.428  0.4541 -1.9036 -1.0146
 3365SOL    HW221555   2.515   4.704   2.443  0.5216 -0.2932  0.2272
 3366SOL     OW21556   0.860   2.361   5.579 -0.3221  0.1799 -0.6028
 3366SOL    HW121557   0.790   2.422   5.555 -0.2706  0.3597 -0.2904
 3366SOL    HW221558   0.833   2.307   5.653  0.4408 -0.1971 -0.5993
 3367SOL     OW21559   2.965   3.298  16.698  0.0012 -0.0355  0.1504
 3367SOL    HW121560   2.981   3.277  16.606 -2.4844  1.3285 -0.5838
 3367SOL    HW221561   2.906   3.373  16.692 -1.8878 -1.3917  1.5139
 3368SOL     OW21562   1.128   2.652   4.517 -0.1999 -0.4559 -0.1220
 3368SOL    HW121563   1.137   2.671   4.424  1.1806 -3.9875 -0.7168
 3368SOL    HW221564   1.128   2.743   4.548 -2.0528 -0.0419 -1.3542
 3369SOL     OW21565   1.601   1.384   0.450  0.0157  0.0803  0.0759
 3369SOL    HW121566   1.582   1.302   0.404 -0.7632 -0.2331  0.9382
 3369SOL    HW221567   1.511   1.405   0.476 -0.3680 -0.6590 -0.6467
 3370SOL     OW21568   4.285   2.985   4.811 -0.2868 -0.1807  0.2092
 3370SOL    HW121569   4.353   3.024   4.866  1.1587 -0.0341 -1.6665
 3370SOL    HW221570   4.274   2.900   4.852 -0.8071 -0.5675 -0.7281
 3371SOL     OW21571   1.891   2.037   4.545  0.4594 -0.2445  0.3222
 3371SOL    HW121572   1.847   1.958   4.577  2.1405 -2.3971 -2.7445
 3371SOL    HW221573   1.828   2.106   4.570  1.0240  0.0775  0.8394
 3372SOL     OW21574   0.429   3.908   5.665  0.5954 -0.5629 -0.0639
 3372SOL    HW121575   0.448   3.986   5.614 -0.6202  0.6775  1.3781
 3372SOL    HW221576   0.504   3.905   5.725 -0.2791  2.1159  1.1881
 3373SOL     OW21577   3.416   0.571   1.118  0.3712  0.0918 -0.3408
 3373SOL    HW121578   3.392   0.575   1.210 -1.9046  1.9537 -1.0291
 3373SOL    HW221579   3.510   0.586   1.123  0.4068  0.3883 -1.9485
 3374SOL     OW21580   4.715   1.523   8.672 -0.0437  0.4063 -0.1925
 3374SOL    HW121581   4.714   1.619   8.679  0.6834  0.2484  2.1479
 3374SOL    HW221582   4.635   1.500   8.721  0.1455  0.7055  0.2594
 3375SOL     OW21583   1.956   4.077   5.494  0.4358 -0.5454 -0.0960
 3375SOL    HW121584   1.976   3.983   5.497 -0.3321 -0.7249 -0.6583
 3375SOL    HW221585   2.022   4.116   5.437 -1.7187  2.0635 -0.7960
 3376SOL     OW21586   2.169   4.376   6.674 -0.0577  0.0063  0.0572
 3376SOL    HW121587   2.089   4.393   6.623 -1.8642 -0.7371  2.6251
 3376SOL    HW221588   2.200   4.303   6.621  1.3116  0.1240  0.7005
 3377SOL     OW21589   0.346   2.816   2.884 -0.2320  0.6594  0.1021
 3377SOL    HW121590   0.401   2.831   2.806  1.8349 -1.0129  1.2567
 3377SOL    HW221591   0.403   2.845   2.954  2.9635 -3.7446 -0.7067
 3378SOL     OW21592   2.043   1.742  10.141  0.0158 -0.4231  0.1336
 3378SOL    HW121593   2.022   1.669  10.201 -0.7141 -0.8460 -0.6373
 3378SOL    HW221594   1.964   1.790  10.166  1.1349  0.6712  1.6001
 3379SOL     OW21595   0.253   0.442   1.672  0.2582  0.0093  0.3818
 3379SOL    HW121596   0.179   0.500   1.655  0.6128  0.3496  0.0293
 3379SOL    HW221597   0.230   0.365   1.619 -0.7156 -0.4697  1.4858
 3380SOL     OW21598   2.678   4.129   5.801 -0.4505  0.1520 -0.2809
 3380SOL    HW121599   2.607   4.080   5.842  0.1815 -1.0961 -0.6999
 3380SOL    HW221600   2.747   4.073   5.836  0.0740  1.3666  0.6405
 3381SOL     OW21601   3.068   3.966   7.315  0.6528 -0.2040  0.5027
 3381SOL    HW121602   3.081   3.978   7.221  1.1197 -1.0555  0.4602
 3381SOL    HW221603   3.098   3.879   7.341 -0.3526 -0.2471  1.5073
 3382SOL     OW21604   0.694   3.218   2.197  0.2791 -0.5982 -0.7480
 3382SOL    HW121605   0.752   3.144   2.177 -1.5849 -2.2370 -0.1046
 3382SOL    HW221606   0.670   3.197   2.287 -3.0045  1.3526 -1.1699
 3383SOL     OW21607   1.398   4.095   1.051 -0.7094 -0.1957 -0.3058
 3383SOL    HW121608   1.478   4.082   1.103 -1.6802 -0.9561  0.9957
 3383SOL    HW221609   1.329   4.071   1.113 -0.1894 -0.5433  0.1374
 3384SOL     OW21610   4.650   1.982  14.410 -0.0964  0.1248 -0.5302
 3384SOL    HW121611   4.607   1.918  14.467 -1.3739 -0.7203 -2.4369
 3384SOL    HW221612   4.579   2.005  14.350 -1.3809 -0.2138  0.8974
 3385SOL     OW21613   4.621   2.580   6.068  0.0640 -0.0552 -0.1719
 3385SOL    HW121614   4.562   2.520   6.114 -0.5645 -0.0396 -0.9588
 3385SOL    HW221615   4.668   2.514   6.018 -1.9621 -1.3763 -0.3500
 3386SOL     OW21616   1.739   0.270   6.456 -0.3043  0.1068 -0.3212
 3386SOL    HW121617   1.672   0.263   6.388 -1.9345  0.6285  1.2311
 3386SOL    HW221618   1.788   0.347   6.428  0.8517 -0.6152 -0.2909
 3387SOL     OW21619   1.046   1.335   4.172  0.0492 -0.4177 -0.2703
 3387SOL    HW121620   1.079   1.246   4.158 -0.2878 -0.3978 -1.1831
 3387SOL    HW221621   1.125   1.377   4.138 -1.4882  0.6869 -2.4640
 3388SOL     OW21622   4.298   4.458   4.890  0.3961  0.2065  0.2121
 3388SOL    HW121623   4.315   4.531   4.830  3.1205 -2.0209 -1.6537
 3388SOL    HW221624   4.381   4.411   4.890  0.0677 -0.3596  2.4910
 3389SOL     OW21625   0.607   4.221   4.304 -0.0887 -0.2276 -0.1931
 3389SOL    HW121626   0.544   4.166   4.350  1.2256 -0.2443  1.6171
 3389SOL    HW221627   0.664   4.248   4.376 -1.1857  2.3488 -0.2888
 3390SOL     OW21628   0.484   0.488   2.820  0.1685  0.3589 -0.0107
 3390SOL    HW121629   0.565   0.487   2.870  0.4203  0.3784 -0.4208
 3390SOL    HW221630   0.425   0.450   2.886  2.4170  0.3034  1.9611
 3391SOL     OW21631   3.426   0.898   5.125  0.3429  0.3137  0.2022
 3391SOL    HW121632   3.420   0.882   5.031  1.7401 -1.3707  0.3982
 3391SOL    HW221633   3.364   0.969   5.144  0.2469  0.6531 -1.3389
 3392SOL     OW21634   4.312   2.151  10.512  0.4400 -0.6095 -0.0475
 3392SOL    HW121635   4.326   2.181  10.422  3.1858  1.2268  0.9737
 3392SOL    HW221636   4.337   2.060  10.497  1.3767 -0.5546  1.1379
 3393SOL     OW21637   2.958   0.106   2.882  0.0340  0.4917 -0.3227
 3393SOL    HW121638   2.941   0.199   2.866 -0.7172  0.3604 -0.3075
 3393SOL    HW221639   2.956   0.075   2.791 -0.2338 -1.3665  0.3271
 3394SOL     OW21640   2.034   1.668   7.454 -0.1054  0.5585  0.6021
 3394SOL    HW121641   2.099   1.597   7.453  1.1523  1.6934  2.3868
 3394SOL    HW221642   2.030   1.666   7.358 -0.0322 -1.3262  0.6481
 3395SOL     OW21643   2.292   1.955  10.103  0.6651 -0.2453  0.2331
 3395SOL    HW121644   2.244   1.963  10.186 -1.6295  1.1815 -1.2509
 3395SOL    HW221645   2.297   1.860  10.090 -2.2794  0.1738 -3.8106
 3396SOL     OW21646   0.902   0.014   4.958  0.2225 -0.3073 -0.2379
 3396SOL    HW121647   0.901   0.094   4.905  1.1346 -0.5129 -0.5654
 3396SOL    HW221648   0.835   4.686   4.918  0.4965  0.2578 -1.4860
 3397SOL     OW21649   0.096   2.469   6.542  0.4221  0.1006  0.5501
 3397SOL    HW121650   0.030   2.410   6.580  0.3852 -0.9285 -1.1164
 3397SOL    HW221651   0.167   2.410   6.566  0.3829  0.6275  1.9616
 3398SOL     OW21652   4.129   0.117   6.341  0.4020 -0.0894  0.1535
 3398SOL    HW121653   4.090   0.186   6.395  0.8339 -2.0169  2.9916
 3398SOL    HW221654   4.054   0.086   6.290  0.6671 -1.4727  0.6144
 3399SOL     OW21655   1.026   2.109  13.214  0.3874 -0.3909  0.3052
 3399SOL    HW121656   1.031   2.117  13.310  0.0290  0.9659  0.2164
 3399SOL    HW221657   1.122   2.102  13.205  0.7445  0.7695  3.1398
 3400SOL     OW21658   3.573   3.237   8.734  0.2699 -0.0378  0.6277
 3400SOL    HW121659   3.575   3.144   8.758 -0.9066  0.0343  0.9953
 3400SOL    HW221660   3.520   3.268   8.807 -1.8737 -1.1052 -0.4592
 3401SOL     OW21661   1.101   1.409   8.499  0.2015  0.4246  0.3882
 3401SOL    HW121662   1.097   1.413   8.404 -0.2567 -0.2940  0.3789
 3401SOL    HW221663   1.037   1.347   8.533  1.2520 -1.1595 -0.5084
 3402SOL     OW21664   3.171   1.578  17.341  0.1269  0.2097  0.0169
 3402SOL    HW121665   3.183   1.484  17.335 -0.4085  0.0537  1.4421
 3402SOL    HW221666   3.088   1.583  17.389  0.4459  2.0590  0.3899
 3403SOL     OW21667   4.278   4.159  10.912  0.6261 -0.1267 -0.8523
 3403SOL    HW121668   4.371   4.142  10.896  0.8777 -1.2352  1.9088
 3403SOL    HW221669   4.245   4.134  10.825  0.9489 -0.6723 -0.8202
 3404SOL     OW21670   3.863   2.826   9.916  0.5734  0.0046 -0.7268
 3404SOL    HW121671   3.815   2.848   9.836 -0.3133 -1.8360 -0.7119
 3404SOL    HW221672   3.954   2.826   9.887  1.2668  1.6404  1.4378
 3405SOL     OW21673   2.019   1.913   3.644 -0.0850  0.3387 -0.4300
 3405SOL    HW121674   1.977   1.855   3.582 -0.8488 -0.8317  1.1773
 3405SOL    HW221675   2.028   1.848   3.714  2.8535  1.9019  0.6881
 3406SOL     OW21676   1.152   1.080   4.161 -0.1455  0.1521 -0.7267
 3406SOL    HW121677   1.120   1.010   4.218  3.7419 -1.0014  0.0049
 3406SOL    HW221678   1.099   1.061   4.083 -0.5466  1.3383 -0.7423
 3407SOL     OW21679   1.345   1.221   8.589  0.0794 -0.3111 -0.9577
 3407SOL    HW121680   1.316   1.232   8.680  0.6162 -1.6644 -0.6202
 3407SOL    HW221681   1.280   1.270   8.541 -0.3636  1.2029  1.1754
 3408SOL     OW21682   3.249   2.677   8.103 -0.2244 -0.1430 -0.0043
 3408SOL    HW121683   3.155   2.661   8.092 -0.1815  0.6251 -1.5847
 3408SOL    HW221684   3.240   2.744   8.170  1.0417  0.5783 -0.5345
 3409SOL     OW21685   4.415   2.580   4.735 -0.1979  0.1925 -0.1205
 3409SOL    HW121686   4.466   2.658   4.714  0.2331 -0.5697 -1.8941
 3409SOL    HW221687   4.411   2.585   4.831 -2.7522 -1.2897 -0.1377
 3410SOL     OW21688   2.756   1.699  16.335 -0.1948  0.0929  0.2554
 3410SOL    HW121689   2.794   1.780  16.368 -1.0462 -0.3399  2.3052
 3410SOL    HW221690   2.826   1.682  16.271 -0.1206 -0.3727  0.4588
 3411SOL     OW21691   1.316   3.804   6.344  0.4060  0.3199  0.3988
 3411SOL    HW121692   1.353   3.857   6.414  0.6945 -0.4580  0.8419
 3411SOL    HW221693   1.387   3.805   6.279  1.1408  0.6863  1.1952
 3412SOL     OW21694   3.213   3.010   7.518  0.2873  0.0673 -0.4825
 3412SOL    HW121695   3.219   2.950   7.592 -0.4833  0.3031 -0.2278
 3412SOL    HW221696   3.244   2.949   7.450  1.6235 -1.3209  1.3710
 3413SOL     OW21697   0.857   3.059   8.507  0.5948  0.0705 -0.1625
 3413SOL    HW121698   0.941   3.086   8.544  0.4840  1.2171 -0.7242
 3413SOL    HW221699   0.879   3.013   8.426  0.8387 -2.1782  1.1968
 3414SOL     OW21700   0.219   2.686   2.342 -0.5734 -0.0801  0.1389
 3414SOL    HW121701   0.239   2.769   2.299  0.1215  0.4638  1.5360
 3414SOL    HW221702   0.134   2.668   2.301  1.2536  0.1711 -3.7152
 3415SOL     OW21703   2.694   3.790  10.605 -0.3692  0.6655 -0.7609
 3415SOL    HW121704   2.632   3.768  10.535 -1.7235 -2.5066  1.4371
 3415SOL    HW221705   2.777   3.752  10.577 -0.7495 -0.1066 -0.8454
 3416SOL     OW21706   2.084   1.918   5.041  0.0977 -0.4531  0.1515
 3416SOL    HW121707   2.158   1.941   4.986 -2.5175  2.1472 -2.2481
 3416SOL    HW221708   2.036   1.867   4.976  0.1822 -1.2043  0.6711
 3417SOL     OW21709   1.961   1.743   3.215  0.0771 -0.0836 -0.2670
 3417SOL    HW121710   1.883   1.734   3.161 -0.5898  0.6856  0.5597
 3417SOL    HW221711   1.995   1.827   3.185 -1.1952  0.6618  0.3935
 3418SOL     OW21712   1.313   1.608   3.660  0.1877  0.0209  0.8261
 3418SOL    HW121713   1.220   1.590   3.661  0.7379 -2.7810 -0.5555
 3418SOL    HW221714   1.320   1.665   3.583  1.1257 -0.1099  0.8130
 3419SOL     OW21715   1.523   1.360  14.249  0.3305  0.2677 -0.0110
 3419SOL    HW121716   1.471   1.408  14.185  0.4198  1.4361  0.7983
 3419SOL    HW221717   1.605   1.344  14.203  0.5079  0.2893  0.2958
 3420SOL     OW21718   1.517   1.224  15.403 -0.0617  0.1120  0.2310
 3420SOL    HW121719   1.429   1.232  15.366 -0.5007 -1.5285  0.9242
 3420SOL    HW221720   1.499   1.202  15.494 -0.5793 -0.4730 -0.0120
 3421SOL     OW21721   3.451   3.482   4.915 -0.1828  0.0684 -0.3008
 3421SOL    HW121722   3.372   3.431   4.900 -0.1754  1.0653 -3.6693
 3421SOL    HW221723   3.520   3.417   4.904  0.0509  0.0720  1.1402
 3422SOL     OW21724   3.537   4.213  15.193 -0.0564  0.5070 -0.6022
 3422SOL    HW121725   3.556   4.304  15.213  1.0491  0.1469 -0.0354
 3422SOL    HW221726   3.595   4.203  15.118 -0.2918  1.4018 -0.8943
 3423SOL     OW21727   0.210   1.781  16.612  0.0071 -0.6182 -0.1530
 3423SOL    HW121728   0.204   1.699  16.563 -0.5594  0.8140 -2.4339
 3423SOL    HW221729   0.262   1.754  16.688  2.5144  1.1416 -1.2688
 3424SOL     OW21730   1.897   3.580   3.824 -0.7187  0.1743 -0.2326
 3424SOL    HW121731   1.804   3.557   3.813 -0.5299 -1.9300  2.6788
 3424SOL    HW221732   1.932   3.568   3.736 -0.9032 -0.1264 -0.2643
 3425SOL     OW21733   0.163   1.497   4.136 -0.0146 -0.0268  0.0432
 3425SOL    HW121734   0.230   1.486   4.204  0.9439 -0.6789 -0.9846
 3425SOL    HW221735   0.226   1.486   4.064 -0.6862 -1.0043 -0.3981
 3426SOL     OW21736   0.842   3.883  13.731 -0.5604 -0.3340  0.0932
 3426SOL    HW121737   0.876   3.968  13.702 -2.5096  0.9448  1.5406
 3426SOL    HW221738   0.896   3.814  13.692 -0.0123  0.3391 -0.3494
 3427SOL     OW21739   0.857   4.372  12.381  0.0192  0.4888  0.4527
 3427SOL    HW121740   0.784   4.372  12.318 -0.1221  0.1208  0.6148
 3427SOL    HW221741   0.899   4.455  12.361  1.7696 -0.6647 -0.6536
 3428SOL     OW21742   1.409   0.475   5.666 -0.5237  0.1971 -0.3939
 3428SOL    HW121743   1.332   0.423   5.691  0.7269 -1.2250  0.4841
 3428SOL    HW221744   1.462   0.462   5.745  0.4979 -0.5247 -1.2046
 3429SOL     OW21745   2.271   0.245  13.624 -0.1833  0.0742 -0.3414
 3429SOL    HW121746   2.176   0.244  13.627 -0.1748  0.3283  0.0608
 3429SOL    HW221747   2.291   0.153  13.642  1.2624  0.1618 -1.5266
 3430SOL     OW21748   4.339   0.484  16.931  0.0582  0.7717  0.4366
 3430SOL    HW121749   4.274   0.536  16.978  0.1928 -0.8392  2.4258
 3430SOL    HW221750   4.286   0.437  16.866  3.1216 -0.6627 -1.0129
 3431SOL     OW21751   4.399   3.818   5.851 -0.4593  0.0994 -0.3448
 3431SOL    HW121752   4.309   3.788   5.861 -0.5234 -0.4513 -2.5069
 3431SOL    HW221753   4.431   3.780   5.769  0.2152  1.3753 -0.6683
 3432SOL     OW21754   4.287   1.710  11.923 -0.0445  0.3200  0.8190
 3432SOL    HW121755   4.241   1.791  11.899 -0.3887 -0.1459 -0.0701
 3432SOL    HW221756   4.330   1.724  12.007 -0.3984  0.8679  0.9090
 3433SOL     OW21757   3.657   0.767   5.192 -0.0936 -0.3390  0.8895
 3433SOL    HW121758   3.660   0.720   5.109 -0.3837  2.0081 -0.4696
 3433SOL    HW221759   3.577   0.818   5.175  0.5536 -0.0179 -1.1495
 3434SOL     OW21760   3.054   4.298   6.179 -0.5123  0.5014  0.6341
 3434SOL    HW121761   2.961   4.280   6.165 -0.3291 -0.8294  1.0910
 3434SOL    HW221762   3.094   4.258   6.102  1.4879 -0.3968  2.1648
 3435SOL     OW21763   1.628   3.373  11.241  0.5773 -0.1081  0.2528
 3435SOL    HW121764   1.689   3.300  11.240  0.1532 -0.4990  1.7525
 3435SOL    HW221765   1.690   3.441  11.267  0.0100 -0.2129  1.9258
 3436SOL     OW21766   3.871   0.407   2.859  0.4481 -0.1027  0.2727
 3436SOL    HW121767   3.785   0.364   2.857  0.4827 -0.0388 -2.7249
 3436SOL    HW221768   3.871   0.443   2.947  2.3727 -1.7530  0.9467
 3437SOL     OW21769   3.730   3.010   5.764 -0.1690 -0.0139 -0.8300
 3437SOL    HW121770   3.642   2.983   5.737 -1.8328  3.3727  1.1882
 3437SOL    HW221771   3.778   3.006   5.682  1.3874  0.8563  0.0491
 3438SOL     OW21772   3.699   4.147   3.987  0.4065  0.1902 -0.1674
 3438SOL    HW121773   3.777   4.121   4.035  0.0468 -0.3732  0.1218
 3438SOL    HW221774   3.683   4.233   4.025 -0.9119 -0.4056  0.6304
 3439SOL     OW21775   1.567   4.437   0.182 -0.3042 -0.3695  0.2686
 3439SOL    HW121776   1.571   4.423   0.277 -0.0964  1.4443  0.5250
 3439SOL    HW221777   1.617   4.518   0.177  1.0909 -1.0835  2.3680
 3440SOL     OW21778   3.866   3.593   6.339 -0.2937  0.0832  0.5883
 3440SOL    HW121779   3.924   3.584   6.415 -1.4661 -0.6308  1.4025
 3440SOL    HW221780   3.781   3.557   6.364 -0.3906 -0.1140 -0.0230
 3441SOL     OW21781   2.246   0.122   7.271  0.1482 -0.2770 -0.5211
 3441SOL    HW121782   2.258   0.081   7.357  2.0291 -0.1359 -0.7095
 3441SOL    HW221783   2.165   0.084   7.238 -1.0377  0.0470  1.9756
 3442SOL     OW21784   1.586   4.030  11.348 -0.5149  0.9180 -0.4931
 3442SOL    HW121785   1.629   4.010  11.265  0.9637  1.1305  0.2038
 3442SOL    HW221786   1.612   3.946  11.387  0.6961  0.7402 -1.6602
 3443SOL     OW21787   2.668   1.226   8.070 -0.0061 -0.9597  0.0333
 3443SOL    HW121788   2.607   1.274   8.127  0.2630  0.4231 -0.8551
 3443SOL    HW221789   2.638   1.136   8.082  1.4703 -1.4068  0.3851
 3444SOL     OW21790   1.211   2.450   2.354 -0.3534  0.3489 -0.0107
 3444SOL    HW121791   1.193   2.358   2.369 -2.0715  0.6443 -0.2755
 3444SOL    HW221792   1.277   2.458   2.423 -1.4056  2.6516  0.7439
 3445SOL     OW21793   3.536   2.797   7.630 -0.2532 -0.1707  0.1068
 3445SOL    HW121794   3.563   2.759   7.713 -3.1416 -2.0826  0.1908
 3445SOL    HW221795   3.533   2.890   7.652  1.8439 -0.0727 -0.0628
 3446SOL     OW21796   4.264   4.233   1.713 -0.5615  0.0598  0.3506
 3446SOL    HW121797   4.215   4.287   1.776  1.1637  3.7839 -1.5088
 3446SOL    HW221798   4.198   4.248   1.645  0.3764  2.1219 -0.0957
 3447SOL     OW21799   1.577   1.613  11.512  0.9405  0.7681  0.0442
 3447SOL    HW121800   1.617   1.694  11.545 -0.6319  2.3534 -2.0211
 3447SOL    HW221801   1.554   1.569  11.594  0.7296  2.6806  1.0158
 3448SOL     OW21802   0.587   0.694   5.211  0.3158  0.1882  0.0172
 3448SOL    HW121803   0.543   0.691   5.296  1.5303  0.8068  0.6740
 3448SOL    HW221804   0.549   0.624   5.157  0.5186 -0.9928  1.4098
 3449SOL     OW21805   3.070   4.281   2.536  0.4297  0.6704  0.3696
 3449SOL    HW121806   3.092   4.200   2.490  0.6012 -0.1361  1.8726
 3449SOL    HW221807   2.989   4.302   2.490  0.7160 -0.3383 -0.5847
 3450SOL     OW21808   1.911   0.051   6.263 -0.4040 -0.2460  0.1268
 3450SOL    HW121809   1.923   0.141   6.291 -1.1431 -0.3128  0.6473
 3450SOL    HW221810   1.826   0.059   6.219  0.3212 -0.4468 -1.3308
 3451SOL     OW21811   3.637   3.419   8.217 -0.6554  0.1002  0.1622
 3451SOL    HW121812   3.545   3.438   8.201 -0.5681 -0.1286 -0.6109
 3451SOL    HW221813   3.681   3.468   8.148 -3.3779  1.1311 -0.8129
 3452SOL     OW21814   4.411   0.521   4.066 -0.6073 -0.1856  0.0137
 3452SOL    HW121815   4.349   0.449   4.062 -1.0893  0.2097  0.3231
 3452SOL    HW221816   4.411   0.542   3.973  1.8368 -0.2073 -0.0057
 3453SOL     OW21817   4.163   2.062   6.949 -0.4029  0.2317  0.2000
 3453SOL    HW121818   4.118   2.094   7.028 -2.6019 -2.9629  0.2087
 3453SOL    HW221819   4.251   2.040   6.980 -0.3937  1.0339  0.7692
 3454SOL     OW21820   2.033   2.520  15.530  0.0757 -0.0177 -0.3944
 3454SOL    HW121821   2.111   2.537  15.584  0.3181 -1.6204 -0.2280
 3454SOL    HW221822   1.972   2.583  15.567  0.4525 -0.2638  0.6406
 3455SOL     OW21823   1.941   3.073   5.380  0.3926 -0.1979  0.1694
 3455SOL    HW121824   1.987   3.128   5.317  1.6354 -2.3535 -0.8126
 3455SOL    HW221825   1.891   3.017   5.320  0.9560  1.0030 -1.4098
 3456SOL     OW21826   3.297   2.605   7.810  0.4773  0.1737  0.7843
 3456SOL    HW121827   3.342   2.556   7.879 -3.0178 -0.8387  2.3368
 3456SOL    HW221828   3.313   2.694   7.842  1.4512 -0.0340  0.8639
 3457SOL     OW21829   2.708   2.972   7.208 -0.2362  0.4732  0.3212
 3457SOL    HW121830   2.675   3.034   7.273  1.9764  1.4443  0.5108
 3457SOL    HW221831   2.797   2.997   7.182 -0.1458 -1.2902 -1.0903
 3458SOL     OW21832   2.550   4.162  16.159  0.2172  0.2582 -0.3440
 3458SOL    HW121833   2.589   4.112  16.087  1.0005 -0.3794  0.5287
 3458SOL    HW221834   2.498   4.224  16.106 -1.0070  0.7268  1.4038
 3459SOL     OW21835   0.773   0.657   5.837 -0.6260 -0.1351  0.3973
 3459SOL    HW121836   0.764   0.642   5.743  0.4124  3.0766 -0.2476
 3459SOL    HW221837   0.777   0.569   5.874  0.1554 -1.0428 -1.8552
 3460SOL     OW21838   3.903   3.262   4.747 -0.2297 -0.2837  0.2716
 3460SOL    HW121839   3.954   3.293   4.672 -1.3319  1.4662  0.2472
 3460SOL    HW221840   3.961   3.205   4.798  1.1665 -0.1391 -1.1389
 3461SOL     OW21841   4.138   3.902   4.776  0.5982  0.6239  0.4488
 3461SOL    HW121842   4.068   3.916   4.839 -0.3056 -0.4990 -0.3087
 3461SOL    HW221843   4.160   3.812   4.801  0.3122  0.6972  0.9716
 3462SOL     OW21844   2.268   3.791   3.805  0.6929  0.0333  0.0297
 3462SOL    HW121845   2.210   3.861   3.775 -0.6408 -1.6424 -1.2475
 3462SOL    HW221846   2.309   3.759   3.724 -0.7795 -0.2350 -0.6030
 3463SOL     OW21847   4.317   3.446   9.248  0.4349  0.5039 -0.5755
 3463SOL    HW121848   4.276   3.365   9.277 -0.4503  1.7680  1.7262
 3463SOL    HW221849   4.332   3.491   9.331  0.1353  1.0974 -0.8399
 3464SOL     OW21850   3.973   4.158   1.338  0.1454  0.2934  0.1559
 3464SOL    HW121851   3.885   4.124   1.320  1.4546 -3.2958  0.5904
 3464SOL    HW221852   4.011   4.095   1.276  0.5225  0.2849  0.3993
 3465SOL     OW21853   3.140   2.084   8.428 -0.4694  0.4430 -0.2901
 3465SOL    HW121854   3.124   2.087   8.522 -2.2178  1.5632 -0.6293
 3465SOL    HW221855   3.234   2.102   8.427 -0.6380  1.1754 -3.2689
 3466SOL     OW21856   1.435   0.961   5.476 -0.3176 -0.3663  0.5100
 3466SOL    HW121857   1.492   0.886   5.490 -0.9768 -0.8901  0.3624
 3466SOL    HW221858   1.380   0.917   5.411 -0.9299 -0.6128  1.1955
 3467SOL     OW21859   3.540   1.189   6.107 -0.4472  0.0322  0.1319
 3467SOL    HW121860   3.543   1.172   6.013  4.4053  1.4125  0.0114
 3467SOL    HW221861   3.486   1.117   6.138  0.2882 -0.5208  0.1366
 3468SOL     OW21862   2.536   3.903   5.863  0.2991  0.2701 -0.9521
 3468SOL    HW121863   2.600   3.897   5.933 -0.7936 -1.7651 -0.1378
 3468SOL    HW221864   2.458   3.880   5.913  0.0870  0.3713 -1.2381
 3469SOL     OW21865   1.408   0.829  17.075  0.9749 -0.6569 -0.0605
 3469SOL    HW121866   1.458   0.762  17.121 -0.8959 -1.7444  0.3704
 3469SOL    HW221867   1.355   0.847  17.153  0.3874  0.9711 -0.8377
 3470SOL     OW21868   3.279   0.391  14.504 -0.6441  0.4232 -0.1612
 3470SOL    HW121869   3.333   0.319  14.472  0.3984  1.7628 -1.4214
 3470SOL    HW221870   3.272   0.369  14.597  1.3400 -0.3269 -0.1959
 3471SOL     OW21871   4.064   3.689   7.616  0.3089 -0.0185 -0.2296
 3471SOL    HW121872   4.047   3.741   7.694  3.0385  0.2321  0.2198
 3471SOL    HW221873   4.160   3.690   7.610  0.4176 -0.6797  1.4337
 3472SOL     OW21874   1.944   1.053   4.478  0.4979 -0.0840  0.7320
 3472SOL    HW121875   1.872   1.109   4.507 -0.5187 -1.0338  0.0621
 3472SOL    HW221876   1.999   1.112   4.426 -1.5624  0.3807 -0.9544
 3473SOL     OW21877   4.584   4.528   8.940  0.0857 -0.0227  0.1413
 3473SOL    HW121878   4.513   4.581   8.977 -0.8073 -2.2473  1.5836
 3473SOL    HW221879   4.597   4.560   8.851 -0.7983  1.1265  0.4236
 3474SOL     OW21880   4.188   0.659  10.759 -0.2327 -0.2562  0.4125
 3474SOL    HW121881   4.206   0.701  10.844  1.6848  0.1061 -0.1778
 3474SOL    HW221882   4.134   0.724  10.715  0.1519 -0.0641  0.2238
 3475SOL     OW21883   3.120   0.390   6.534  0.2198  0.0106 -0.2542
 3475SOL    HW121884   3.073   0.343   6.603  0.1236  1.6086  0.7891
 3475SOL    HW221885   3.044   0.420   6.485 -1.3573  0.3692  2.4364
 3476SOL     OW21886   2.692   0.522   3.967 -0.1955 -0.7995 -0.0396
 3476SOL    HW121887   2.636   0.592   4.000  2.3979  0.4202  1.7864
 3476SOL    HW221888   2.653   0.483   3.888 -0.1479 -2.2293  0.6462
 3477SOL     OW21889   2.109   4.566   9.150  0.0816 -0.4677 -0.2462
 3477SOL    HW121890   2.034   4.508   9.139  0.1370 -1.1896  3.0575
 3477SOL    HW221891   2.073   4.649   9.180 -0.9517 -1.0474  0.0991
 3478SOL     OW21892   0.817   4.157   5.434  0.4762  0.2788 -0.2194
 3478SOL    HW121893   0.902   4.118   5.414 -0.3217  0.3859 -3.8545
 3478SOL    HW221894   0.765   4.079   5.452 -1.8131  1.7003 -0.6411
 3479SOL     OW21895   4.665   3.877   4.398  0.2736 -0.2417 -0.3539
 3479SOL    HW121896   4.645   3.844   4.486  0.9362  0.6019  0.1181
 3479SOL    HW221897   4.576   3.864   4.364  0.4422 -0.7421 -0.5961
 3480SOL     OW21898   2.632   4.627   9.746 -0.2522 -0.2894  0.3035
 3480SOL    HW121899   2.640   4.534   9.728  0.6116  0.3125 -2.4385
 3480SOL    HW221900   2.559   4.625   9.809  0.5932 -1.6314  1.2379
 3481SOL     OW21901   0.516   2.421   5.748 -0.1261 -0.2432 -0.5318
 3481SOL    HW121902   0.556   2.482   5.685 -1.9589  1.4322 -0.0725
 3481SOL    HW221903   0.594   2.400   5.801  0.8718  1.5112 -1.2953
 3482SOL     OW21904   2.301   3.842   4.085 -0.4178 -0.1050  0.0972
 3482SOL    HW121905   2.324   3.934   4.094 -0.9246  0.1744 -1.5734
 3482SOL    HW221906   2.273   3.834   3.994  1.0167  1.0625 -0.4410
 3483SOL     OW21907   4.562   1.326   2.825  0.0882 -0.1980 -0.1306
 3483SOL    HW121908   4.597   1.392   2.765  2.4859 -2.6287 -1.4215
 3483SOL    HW221909   4.468   1.330   2.809  0.4475  1.3102 -1.9082
 3484SOL     OW21910   2.816   1.507  16.752  0.5941  0.4711 -0.1471
 3484SOL    HW121911   2.782   1.525  16.665 -0.9806  1.8441  0.7580
 3484SOL    HW221912   2.810   1.592  16.796 -1.1762  1.0304 -1.4597
 3485SOL     OW21913   4.079   4.379   9.154  0.0142  0.0858  0.1826
 3485SOL    HW121914   4.015   4.381   9.225  1.5174  2.2437  1.4603
 3485SOL    HW221915   4.158   4.402   9.202  0.3922  3.8141 -2.2427
 3486SOL     OW21916   3.041   4.690   7.131 -0.6499  0.2582 -0.2128
 3486SOL    HW121917   2.959   4.649   7.157  0.8509 -1.5341  1.7315
 3486SOL    HW221918   3.032   4.694   7.036  0.3410 -1.0198 -0.3582
 3487SOL     OW21919   1.664   4.611  12.086 -0.1981  0.0967 -0.4221
 3487SOL    HW121920   1.743   4.665  12.088 -1.4684  1.9836 -0.8443
 3487SOL    HW221921   1.682   4.570  12.001  0.0807 -0.5898 -0.0270
 3488SOL     OW21922   3.723   1.101   4.710  0.5099  0.5392  0.2297
 3488SOL    HW121923   3.632   1.123   4.689  0.2086 -2.0777 -1.2207
 3488SOL    HW221924   3.733   1.008   4.729  2.3523  0.7331  0.2242
 3489SOL     OW21925   1.007   3.186   2.244  0.0503 -0.5228 -0.0137
 3489SOL    HW121926   1.032   3.139   2.324  3.3363  1.2012 -0.0230
 3489SOL    HW221927   0.962   3.125   2.185  0.6279  1.4335 -2.4624
 3490SOL     OW21928   4.047   2.901  11.965  0.2805  0.1951 -0.3770
 3490SOL    HW121929   4.094   2.818  11.957  0.2281  0.2946 -1.8135
 3490SOL    HW221930   3.967   2.877  12.011  1.5240  0.1596  1.7651
 3491SOL     OW21931   0.979   3.341   9.253  0.1174 -0.4358 -0.6585
 3491SOL    HW121932   0.973   3.352   9.348  0.3461  0.5487 -0.7617
 3491SOL    HW221933   0.962   3.247   9.246 -0.2181 -0.5223  1.1820
 3492SOL     OW21934   3.382   0.364   5.185 -0.0394  0.0887 -0.5319
 3492SOL    HW121935   3.477   0.367   5.197  0.0678  0.6512 -1.4244
 3492SOL    HW221936   3.379   0.300   5.113 -0.0373  0.7212 -1.0964
 3493SOL     OW21937   1.137   3.059  13.792  0.1076 -0.2603 -0.1564
 3493SOL    HW121938   1.161   3.111  13.715  1.3813  0.6081  0.8248
 3493SOL    HW221939   1.050   3.091  13.816 -0.1272 -0.4356 -0.7892
 3494SOL     OW21940   3.434   4.605   6.345 -0.1402 -0.8994  0.1141
 3494SOL    HW121941   3.380   4.588   6.268 -0.1185 -0.0152 -0.0960
 3494SOL    HW221942   3.439   4.523   6.393 -0.0310 -0.5072  0.7691
 3495SOL     OW21943   2.870   2.950  12.257 -0.8596  0.0924 -0.0083
 3495SOL    HW121944   2.921   2.972  12.179 -0.1384 -0.3734  0.3314
 3495SOL    HW221945   2.924   2.978  12.330  0.2346 -0.9162 -0.4409
 3496SOL     OW21946   4.482   4.277   6.465 -0.2186  0.3041 -0.2961
 3496SOL    HW121947   4.494   4.236   6.551 -1.2145  0.7059  0.0350
 3496SOL    HW221948   4.483   4.200   6.409  0.3640  1.2974 -1.6412
 3497SOL     OW21949   2.691   3.496   2.013 -0.0164 -0.3659 -0.5909
 3497SOL    HW121950   2.703   3.447   2.094 -1.0375  2.9992  1.5669
 3497SOL    HW221951   2.623   3.442   1.972 -1.1549 -1.6748  3.0556
 3498SOL     OW21952   1.413   0.944   8.590  0.0441 -0.2326 -0.5555
 3498SOL    HW121953   1.333   0.890   8.595 -0.3369  0.3975  0.1053
 3498SOL    HW221954   1.365   1.027   8.588 -0.3081 -0.4371 -0.6192
 3499SOL     OW21955   1.090   2.657   6.119 -0.0616  0.0864 -0.4103
 3499SOL    HW121956   1.103   2.664   6.214 -0.8850 -1.2431 -0.1976
 3499SOL    HW221957   1.158   2.716   6.087  0.8429  0.3167  1.8872
 3500SOL     OW21958   1.338   3.979   6.536 -0.0713 -0.2703 -0.4447
 3500SOL    HW121959   1.269   4.004   6.599  0.8864 -0.7095  0.7839
 3500SOL    HW221960   1.419   4.026   6.556 -1.1320  1.3995 -0.0236
 3501SOL     OW21961   0.095   2.972   3.008 -0.7059  0.9038 -0.2118
 3501SOL    HW121962   0.058   2.989   2.921 -1.3664  0.3163 -0.0499
 3501SOL    HW221963   0.188   2.984   2.990 -0.2912  1.0002  1.9818
 3502SOL     OW21964   1.675   4.028  17.334  0.2384  0.2119 -0.0747
 3502SOL    HW121965   1.688   3.934  17.340 -1.0799  0.1998  2.5649
 3502SOL    HW221966   1.617   4.026  17.258  0.3629  0.0894 -0.1648
 3503SOL     OW21967   2.149   2.385   6.238  0.4368  0.4003  0.2517
 3503SOL    HW121968   2.124   2.446   6.308  1.9938  0.0833  1.0883
 3503SOL    HW221969   2.086   2.410   6.170  2.0412  1.1037 -0.9651
 3504SOL     OW21970   3.923   0.637   6.537 -0.8568  0.4228  0.4471
 3504SOL    HW121971   3.979   0.576   6.490  0.4010  1.9319  0.0250
 3504SOL    HW221972   3.879   0.579   6.600  0.3957 -1.9948 -0.9312
 3505SOL     OW21973   2.224   2.340   1.863  0.3265 -0.0065  0.0001
 3505SOL    HW121974   2.264   2.297   1.939  0.0090  0.2331  0.3022
 3505SOL    HW221975   2.298   2.336   1.801 -1.2588  2.8346 -2.0977
 3506SOL     OW21976   3.237   3.475   6.372 -0.3872 -0.5288  0.0113
 3506SOL    HW121977   3.289   3.515   6.441  0.9025 -3.6735  0.8344
 3506SOL    HW221978   3.153   3.467   6.418 -0.0180  0.0962  0.7890
 3507SOL     OW21979   2.543   0.009   4.372  1.1002  0.5534 -0.3537
 3507SOL    HW121980   2.585   0.020   4.458  0.9583 -0.8157 -0.1120
 3507SOL    HW221981   2.617   0.013   4.311 -0.7683 -0.4012 -2.6630
 3508SOL     OW21982   3.232   1.058   6.988 -0.0544 -0.2502 -0.2616
 3508SOL    HW121983   3.323   1.058   6.958 -0.0779 -1.7507 -0.3454
 3508SOL    HW221984   3.194   1.028   6.905 -1.5970  1.0100 -0.0075
 3509SOL     OW21985   1.416   0.671   3.512  0.7268 -0.0146  0.9215
 3509SOL    HW121986   1.390   0.592   3.561  1.2660 -1.3444 -0.9465
 3509SOL    HW221987   1.398   0.631   3.427 -1.9275  0.5768  1.2088
 3510SOL     OW21988   3.425   3.847   4.203 -0.2141  0.2838 -0.2238
 3510SOL    HW121989   3.472   3.769   4.233  1.7547  2.4612  2.3003
 3510SOL    HW221990   3.335   3.813   4.204 -0.1038 -0.0282 -0.8876
 3511SOL     OW21991   3.759   0.623   4.952 -0.4328  0.7173  0.5303
 3511SOL    HW121992   3.806   0.547   4.918 -1.3639  0.9981 -1.3991
 3511SOL    HW221993   3.736   0.671   4.872  0.9600 -2.1767 -1.5980
 3512SOL     OW21994   3.889   0.278   7.246  0.2133 -0.1610 -0.1799
 3512SOL    HW121995   3.919   0.192   7.275 -1.6132 -1.0815 -1.0733
 3512SOL    HW221996   3.926   0.330   7.318  1.9724 -0.0192 -1.1794
 3513SOL     OW21997   2.652   1.367   4.398 -0.0589  0.1256  0.4677
 3513SOL    HW121998   2.563   1.377   4.433 -0.4962  0.4769 -0.7473
 3513SOL    HW221999   2.638   1.400   4.309 -0.0484 -1.9455 -0.3023
 3514SOL     OW22000   3.863   2.315   5.283  0.3509 -0.0375 -0.1383
 3514SOL    HW122001   3.951   2.285   5.307  0.2699 -0.8351 -0.8240
 3514SOL    HW222002   3.805   2.282   5.352 -0.3178 -0.7670 -1.0456
 3515SOL     OW22003   3.530   4.511   1.966  0.0147 -0.4961  0.2070
 3515SOL    HW122004   3.504   4.434   2.015 -2.2022  0.3887  0.4223
 3515SOL    HW222005   3.593   4.474   1.904  0.9295  0.9926  0.2453
 3516SOL     OW22006   3.643   3.338   3.754  0.6245 -0.3164 -0.4507
 3516SOL    HW122007   3.690   3.316   3.674  2.8248  0.4462  0.6324
 3516SOL    HW222008   3.713   3.365   3.813  0.1820  0.3722 -0.2289
 3517SOL     OW22009   4.384   4.234   2.263  0.1791 -0.5124 -0.2734
 3517SOL    HW122010   4.437   4.249   2.185 -1.1364  2.6051 -0.5423
 3517SOL    HW222011   4.321   4.306   2.268 -0.5349 -1.1996  1.0348
 3518SOL     OW22012   4.637   1.753  16.580  0.1744 -0.3851 -0.3783
 3518SOL    HW122013   4.667   1.664  16.560  0.7281 -0.7129  1.9199
 3518SOL    HW222014   4.718   1.803  16.588 -0.4194  0.4770  0.2649
 3519SOL     OW22015   0.423   2.491   6.776 -0.4439 -0.1350  0.0455
 3519SOL    HW122016   0.457   2.439   6.849  1.1391 -0.3700 -0.8634
 3519SOL    HW222017   0.351   2.436   6.744 -0.1522  0.3491 -1.4248
 3520SOL     OW22018   3.370   1.253   6.391  0.4188  0.2519  0.0933
 3520SOL    HW122019   3.398   1.290   6.307 -0.0195  0.5042  0.0582
 3520SOL    HW222020   3.424   1.174   6.394  3.5073  2.3146 -0.4699
 3521SOL     OW22021   3.039   4.557  11.444 -0.4239  0.1685 -0.0073
 3521SOL    HW122022   3.097   4.633  11.451  2.0691 -1.6058 -1.5080
 3521SOL    HW222023   2.953   4.599  11.453 -0.2225  0.4472  0.6170
 3522SOL     OW22024   3.715   4.622  10.409 -0.1808  0.6161  0.1934
 3522SOL    HW122025   3.800   4.660  10.391  0.9318 -3.2464 -2.8458
 3522SOL    HW222026   3.737   4.529  10.417 -2.2853  0.0882  0.0056
 3523SOL     OW22027   1.459   4.667   9.292  0.2877 -0.0726  0.1896
 3523SOL    HW122028   1.450   0.008   9.358 -0.3127 -1.5935  1.6892
 3523SOL    HW222029   1.547   4.689   9.261  1.6436  0.2146  4.2027
 3524SOL     OW22030   3.164   4.582   9.057  0.1791  0.2238 -0.1160
 3524SOL    HW122031   3.234   4.582   8.992  0.4339 -1.8759  0.1724
 3524SOL    HW222032   3.225   4.603   9.128  1.4368 -0.6069 -0.9546
 3525SOL     OW22033   3.212   1.988   2.460 -0.5082 -0.0923  0.3005
 3525SOL    HW122034   3.300   2.020   2.479 -0.8789  1.0950  0.0614
 3525SOL    HW222035   3.230   1.898   2.433  1.2693  1.0705 -2.4818
 3526SOL     OW22036   2.214   1.419   8.349  0.1188 -0.5387 -0.2281
 3526SOL    HW122037   2.158   1.454   8.418  0.2684 -3.4902  1.4049
 3526SOL    HW222038   2.159   1.342   8.330  0.2729 -0.6422 -0.2594
 3527SOL     OW22039   1.284   1.638   8.516  0.0420  0.2467 -0.3306
 3527SOL    HW122040   1.225   1.567   8.493 -2.1631  1.4589  1.6965
 3527SOL    HW222041   1.234   1.666   8.593  0.3282 -0.9023  0.2699
 3528SOL     OW22042   2.267   3.029   0.874 -0.4871  0.1578 -0.2669
 3528SOL    HW122043   2.185   3.064   0.910 -0.6835 -0.6699  0.0981
 3528SOL    HW222044   2.319   3.109   0.871 -0.6986  0.3758  1.9008
 3529SOL     OW22045   3.392   3.563  14.670  0.8129  0.3622 -0.1293
 3529SOL    HW122046   3.435   3.598  14.592  1.1395 -0.3951 -0.2891
 3529SOL    HW222047   3.334   3.633  14.701 -0.2516 -0.7871  0.4696
 3530SOL     OW22048   4.614   2.404   2.661  0.6600  0.3964 -0.4411
 3530SOL    HW122049   4.674   2.423   2.589  1.3607 -0.0432  0.0240
 3530SOL    HW222050   4.536   2.419   2.607  0.5088 -0.4446 -0.4630
 3531SOL     OW22051   2.217   0.596   2.082 -0.4510  0.3733  0.4603
 3531SOL    HW122052   2.297   0.634   2.118 -0.4368 -1.0365  1.9343
 3531SOL    HW222053   2.149   0.618   2.146 -1.4036 -0.8845 -0.1137
 3532SOL     OW22054   4.210   3.938  11.403  0.1739 -0.1051 -0.0837
 3532SOL    HW122055   4.153   3.896  11.339 -1.0509 -1.0580  1.6408
 3532SOL    HW222056   4.157   4.008  11.443  0.8733  2.9816 -4.6156
 3533SOL     OW22057   0.712   1.722   3.805  0.2316  0.2377 -0.1443
 3533SOL    HW122058   0.700   1.801   3.753 -0.7297 -1.1137 -1.9465
 3533SOL    HW222059   0.713   1.645   3.748  0.4476  0.3112 -0.2369
 3534SOL     OW22060   0.906   2.787   5.035  0.2088 -0.3238 -0.0996
 3534SOL    HW122061   0.968   2.794   4.962  1.1189  0.3798  0.7378
 3534SOL    HW222062   0.821   2.808   4.996  1.4331  1.5703 -1.7870
 3535SOL     OW22063   3.604   1.197  16.897 -0.2721  0.3961  0.2366
 3535SOL    HW122064   3.581   1.192  16.990 -2.3496  0.6114 -0.2474
 3535SOL    HW222065   3.668   1.267  16.894  0.0713  0.0266 -1.0480
 3536SOL     OW22066   3.034   0.128   2.420 -0.5380 -0.1594  0.2735
 3536SOL    HW122067   3.107   0.165   2.471 -1.4960  0.3601  1.2737
 3536SOL    HW222068   3.010   0.202   2.365 -1.1468  0.5324  1.4734
 3537SOL     OW22069   3.540   0.329   2.756  0.0857 -0.0379  0.0973
 3537SOL    HW122070   3.469   0.269   2.775 -0.4205  0.1142 -1.3221
 3537SOL    HW222071   3.495   0.398   2.707 -0.6036 -1.5872 -1.4690
 3538SOL     OW22072   3.174   1.635   3.512 -0.4694 -0.2592 -0.1766
 3538SOL    HW122073   3.257   1.612   3.555 -0.8921  0.3008  0.9461
 3538SOL    HW222074   3.163   1.723   3.548 -1.4020  0.7234 -2.9128
 3539SOL     OW22075   3.040   3.134  13.432  0.4235 -0.5416  0.1918
 3539SOL    HW122076   3.036   3.066  13.364 -0.7285 -1.2495  0.9635
 3539SOL    HW222077   2.991   3.201  13.385  2.8399 -1.0834 -3.0854
 3540SOL     OW22078   1.952   3.198   7.185  0.1073 -0.0183  0.2381
 3540SOL    HW122079   2.032   3.147   7.198  2.0759  3.3052  1.1727
 3540SOL    HW222080   1.900   3.145   7.124  0.7689  0.4726 -0.7595
 3541SOL     OW22081   2.863   2.837   8.373  0.4138  0.6777  0.3044
 3541SOL    HW122082   2.913   2.894   8.431  1.3655 -1.5514  1.6456
 3541SOL    HW222083   2.795   2.897   8.340  0.0066  0.1265  0.1478
 3542SOL     OW22084   1.504   2.483   8.624  0.2208  0.0586  1.0282
 3542SOL    HW122085   1.462   2.460   8.542 -2.1894  1.2367  1.9239
 3542SOL    HW222086   1.428   2.485   8.682 -0.2659  1.2220  0.3567
 3543SOL     OW22087   2.755   4.511  11.096 -0.1626 -0.3603 -1.1563
 3543SOL    HW122088   2.723   4.485  11.182  0.6422  0.2148 -0.6909
 3543SOL    HW222089   2.768   4.423  11.062 -0.2520 -1.0859  0.6884
 3544SOL     OW22090   2.364   2.900  12.645 -0.6996  0.4266 -0.1248
 3544SOL    HW122091   2.458   2.914  12.632 -0.3780  0.2192  2.1347
 3544SOL    HW222092   2.354   2.808  12.622  0.3733  0.6654 -1.5730
 3545SOL     OW22093   2.694   2.284  11.278  0.1392 -0.0130 -0.2328
 3545SOL    HW122094   2.627   2.322  11.222  0.9593  1.9895  0.1664
 3545SOL    HW222095   2.743   2.363  11.303  0.9303 -0.7068  0.4309
 3546SOL     OW22096   1.465   2.985  12.087  0.6027  0.4361 -0.1683
 3546SOL    HW122097   1.473   3.010  12.179  1.3377 -1.4168  0.2803
 3546SOL    HW222098   1.409   2.907  12.095  0.1077  0.6703 -1.3532
 3547SOL     OW22099   4.650   3.109   4.165  0.6763 -0.1684 -0.4054
 3547SOL    HW122100   4.574   3.163   4.144 -0.5285 -1.1686  1.4034
 3547SOL    HW222101   4.633   3.023   4.125  0.2916 -0.4851  0.4471
 3548SOL     OW22102   2.376   1.005  10.428  0.3071 -0.3836 -0.2512
 3548SOL    HW122103   2.416   0.950  10.495  0.8728 -1.5595 -1.5284
 3548SOL    HW222104   2.445   1.070  10.414  1.6638 -2.0285 -1.2918
 3549SOL     OW22105   1.299   4.559   5.596  0.3391 -0.4042  0.4854
 3549SOL    HW122106   1.340   4.604   5.522 -0.2560  0.1347  0.4775
 3549SOL    HW222107   1.214   4.604   5.600  2.1115  2.9719  0.5663
 3550SOL     OW22108   0.655   1.874   5.120  0.5400 -0.3137  0.0687
 3550SOL    HW122109   0.721   1.848   5.056 -0.1421 -2.0392  0.0942
 3550SOL    HW222110   0.704   1.868   5.202 -0.3953 -1.6703  0.5183
 3551SOL     OW22111   1.002   0.550   2.073  0.1404 -0.5347 -0.4186
 3551SOL    HW122112   0.910   0.573   2.056  0.4864  0.4739 -0.9968
 3551SOL    HW222113   1.035   0.614   2.009  1.7175 -1.8111 -0.8761
 3552SOL     OW22114   4.042   0.640   9.553 -0.1154 -0.3882 -0.5335
 3552SOL    HW122115   4.067   0.732   9.566 -3.4479  0.5192 -0.7119
 3552SOL    HW222116   4.028   0.637   9.458  1.1590  0.2328 -0.7441
 3553SOL     OW22117   3.516   2.745   4.967  0.2670 -0.2741 -0.0123
 3553SOL    HW122118   3.594   2.708   4.926  1.1111  1.3354  0.1098
 3553SOL    HW222119   3.545   2.837   4.971  0.5174 -0.3843  0.7139
 3554SOL     OW22120   0.579   1.182   8.019  0.3802 -0.1341 -0.1114
 3554SOL    HW122121   0.579   1.262   7.966 -1.1443 -1.2729 -1.7946
 3554SOL    HW222122   0.550   1.209   8.106  2.1150 -1.0546  0.7479
 3555SOL     OW22123   3.609   0.369   4.836  0.3947  0.6113 -0.2229
 3555SOL    HW122124   3.640   0.279   4.841 -0.1214  0.5336  1.6521
 3555SOL    HW222125   3.530   0.357   4.784  0.8236  0.5043 -0.8534
 3556SOL     OW22126   1.481   0.778   2.944  0.2084 -0.1903 -0.0988
 3556SOL    HW122127   1.554   0.785   2.882 -0.5449 -1.5148 -1.1305
 3556SOL    HW222128   1.412   0.761   2.880 -0.1463  1.0262 -0.0296
 3557SOL     OW22129   3.127   3.707   2.309  0.4837  0.9523  0.2105
 3557SOL    HW122130   3.170   3.684   2.391  0.4031  0.3637  0.0911
 3557SOL    HW222131   3.096   3.621   2.280  1.2447  0.6930  0.1548
 3558SOL     OW22132   4.608   3.778   6.623 -0.0059 -0.5574  0.2039
 3558SOL    HW122133   4.513   3.767   6.625 -0.4323  2.9377 -0.4398
 3558SOL    HW222134   4.645   3.768   6.710  0.6537 -1.9162 -0.2292
 3559SOL     OW22135   2.007   2.245   5.434 -0.7040  0.2665 -0.0608
 3559SOL    HW122136   1.966   2.329   5.416  0.6939  0.8806 -0.3665
 3559SOL    HW222137   1.932   2.200   5.474 -0.6009  0.3962  0.2752
 3560SOL     OW22138   3.385   1.273   2.783  0.3142 -0.6845 -1.0332
 3560SOL    HW122139   3.320   1.313   2.726 -2.1925  0.5608  2.7082
 3560SOL    HW222140   3.461   1.331   2.775  0.6796 -1.3888 -2.6091
 3561SOL     OW22141   2.429   0.359   6.830  0.2366 -0.1693  0.0762
 3561SOL    HW122142   2.408   0.267   6.847 -1.1608  0.5669  2.2723
 3561SOL    HW222143   2.390   0.396   6.908  2.2190  1.6608  0.1969
 3562SOL     OW22144   2.583   1.565  16.996  0.3676  1.2780 -0.4802
 3562SOL    HW122145   2.582   1.531  17.086  0.7060  1.8095 -0.2737
 3562SOL    HW222146   2.632   1.647  17.002  3.8053 -0.8996  1.0014
 3563SOL     OW22147   3.223   2.331  14.568 -0.4417 -0.1877 -0.7742
 3563SOL    HW122148   3.313   2.305  14.551 -0.3182  0.4288 -1.0932
 3563SOL    HW222149   3.225   2.424  14.542 -2.0964  0.0588 -0.0106
 3564SOL     OW22150   1.413   4.396   8.021 -0.5033 -0.2551 -0.0790
 3564SOL    HW122151   1.480   4.415   7.956  0.0317 -1.9075 -0.0205
 3564SOL    HW222152   1.415   4.473   8.078  1.1234 -1.2769  1.2317
 3565SOL     OW22153   4.141   4.284   6.404 -0.2654 -0.1104 -0.5286
 3565SOL    HW122154   4.157   4.191   6.421  0.1360 -0.2463 -1.6164
 3565SOL    HW222155   4.209   4.308   6.341 -1.9646  1.9118 -1.5641
 3566SOL     OW22156   0.318   1.023   9.330 -0.6268  0.1486  0.2141
 3566SOL    HW122157   0.342   1.109   9.293  1.1090 -0.2737  0.3317
 3566SOL    HW222158   0.226   1.042   9.342 -0.5498  0.1914  0.7227
 3567SOL     OW22159   0.045   1.625   6.111  0.4580 -0.2783 -0.3807
 3567SOL    HW122160   4.696   1.643   6.057  0.9512  1.0465 -0.6488
 3567SOL    HW222161   0.077   1.714   6.128 -0.7843  0.8103 -3.7154
 3568SOL     OW22162   2.458   4.258   3.142  0.2870  0.1083  0.6214
 3568SOL    HW122163   2.426   4.343   3.172  1.3132  0.6838  0.0832
 3568SOL    HW222164   2.548   4.282   3.163 -0.0558 -2.1922  4.6326
 3569SOL     OW22165   1.527   4.416   0.673 -0.7782  0.3622  0.4300
 3569SOL    HW122166   1.592   4.463   0.726  2.4723 -2.6401 -0.8555
 3569SOL    HW222167   1.553   4.324   0.684 -1.0461  0.4073  1.3978
 3570SOL     OW22168   3.281   0.362  10.146 -0.4740  0.0989 -0.5837
 3570SOL    HW122169   3.292   0.342  10.238 -0.3521 -1.6868 -0.9916
 3570SOL    HW222170   3.366   0.401  10.127  0.0158 -1.2725 -1.2095
 3571SOL     OW22171   3.500   3.719   4.813  0.5540 -0.2996  0.1776
 3571SOL    HW122172   3.504   3.690   4.722 -0.0748 -1.1357  0.4178
 3571SOL    HW222173   3.456   3.644   4.853  0.6733 -0.5427 -0.1526
 3572SOL     OW22174   1.059   4.223  15.106 -0.5394  0.7374 -0.3177
 3572SOL    HW122175   1.146   4.202  15.070  0.4264  2.1352  1.1929
 3572SOL    HW222176   1.050   4.316  15.085 -0.9185  0.9193  0.6208
 3573SOL     OW22177   3.010   0.606   7.663  0.2978 -0.0640  0.7399
 3573SOL    HW122178   3.027   0.691   7.623 -0.4983  0.4019  1.3953
 3573SOL    HW222179   3.095   0.561   7.658 -0.3712 -1.3484  0.7732
 3574SOL     OW22180   1.712   0.065  16.760  0.6311  0.4885  0.0874
 3574SOL    HW122181   1.644   4.727  16.779  1.2991 -0.0503  0.5965
 3574SOL    HW222182   1.779   0.004  16.730 -1.3449 -1.3116 -0.7033
 3575SOL     OW22183   3.876   4.356   6.295 -0.6297 -0.2421  0.2486
 3575SOL    HW122184   3.827   4.294   6.240  0.0239  0.1671 -0.7908
 3575SOL    HW222185   3.946   4.300   6.328  0.5356  0.0927 -1.6362
 3576SOL     OW22186   2.060   0.172   3.291  0.4287 -0.4523  0.0418
 3576SOL    HW122187   2.023   0.085   3.279 -1.0344  0.2264 -0.3267
 3576SOL    HW222188   1.987   0.218   3.334 -0.2653 -0.5068 -1.0850
 3577SOL     OW22189   2.057   2.223   7.422 -0.0487  0.0417  0.0981
 3577SOL    HW122190   2.072   2.154   7.486 -3.1070 -1.4442 -0.8011
 3577SOL    HW222191   1.988   2.278   7.459  0.1684  1.7153 -2.0059
 3578SOL     OW22192   0.102   1.612   3.448  0.2858  0.0854  0.2329
 3578SOL    HW122193   0.043   1.686   3.431 -0.6834 -1.3282 -2.5296
 3578SOL    HW222194   0.174   1.631   3.389  0.2775  1.5064  0.6787
 3579SOL     OW22195   3.721   2.651   2.609 -0.0728  0.1968  0.4323
 3579SOL    HW122196   3.787   2.611   2.666 -1.3919 -2.1230  0.3695
 3579SOL    HW222197   3.722   2.606   2.524 -2.5719 -2.9603  2.0453
 3580SOL     OW22198   0.888   2.357   3.515  0.6809  0.0636  0.1283
 3580SOL    HW122199   0.909   2.449   3.503  0.2952  0.0984 -0.2653
 3580SOL    HW222200   0.895   2.362   3.610  1.1277 -2.1143  0.2253
 3581SOL     OW22201   3.505   3.217   9.179  0.0385 -0.0987 -0.0071
 3581SOL    HW122202   3.429   3.169   9.210 -0.6846  1.3279  0.4159
 3581SOL    HW222203   3.487   3.304   9.213  1.0856  0.9202 -2.0100
 3582SOL     OW22204   3.792   0.487   6.734 -0.5062  0.8014  0.1498
 3582SOL    HW122205   3.707   0.446   6.719 -0.2125  1.2112 -2.6288
 3582SOL    HW222206   3.767   0.527   6.817 -1.3759  1.0085 -0.2178
 3583SOL     OW22207   4.589   3.483   8.118  0.1126  0.1030  0.2109
 3583SOL    HW122208   4.595   3.388   8.109  1.0825 -0.0171  2.3160
 3583SOL    HW222209   4.613   3.512   8.030  1.3199  0.7390  0.7506
 3584SOL     OW22210   3.597   2.161   3.641 -0.4271 -0.2704 -0.2853
 3584SOL    HW122211   3.657   2.230   3.669 -1.2962  0.9508 -1.4642
 3584SOL    HW222212   3.571   2.140   3.731 -0.4537 -1.7108 -0.6261
 3585SOL     OW22213   4.373   3.958   3.486 -0.4825  0.3765  0.3926
 3585SOL    HW122214   4.319   4.011   3.427 -0.4602 -1.1808 -1.0541
 3585SOL    HW222215   4.351   3.996   3.571  0.3738 -0.3265  0.9238
 3586SOL     OW22216   2.327   4.664   5.227  0.2662 -0.0539  0.3498
 3586SOL    HW122217   2.410   4.672   5.180  0.3924 -1.6574  0.3033
 3586SOL    HW222218   2.317   0.028   5.256  0.7730  1.1462 -3.2180
 3587SOL     OW22219   3.473   0.958   2.307  1.1990  0.6312  0.2221
 3587SOL    HW122220   3.544   0.964   2.371  0.5790  2.5739  0.7558
 3587SOL    HW222221   3.518   0.981   2.226  0.1038 -0.9902 -0.8254
 3588SOL     OW22222   4.062   1.594  11.375 -0.5668  0.5404 -0.0343
 3588SOL    HW122223   4.076   1.547  11.293  1.8251 -0.1257  0.7578
 3588SOL    HW222224   4.043   1.680  11.338 -2.4472 -0.0716 -0.4960
 3589SOL     OW22225   4.310   4.516   6.477 -0.0930  0.1908 -0.2776
 3589SOL    HW122226   4.320   4.421   6.468 -1.2536  0.1225 -0.9040
 3589SOL    HW222227   4.224   4.521   6.518  0.6084 -1.9839  1.4992
 3590SOL     OW22228   3.452   0.258   0.711 -0.1486 -0.4679 -0.3293
 3590SOL    HW122229   3.418   0.173   0.682 -0.4957 -0.5240  0.2305
 3590SOL    HW222230   3.392   0.279   0.783  1.3213  1.0949  0.4279
 3591SOL     OW22231   4.227   4.033   2.110 -0.2487  0.7296  0.1907
 3591SOL    HW122232   4.269   3.969   2.167 -2.4725 -1.2452 -0.3696
 3591SOL    HW222233   4.273   4.111   2.141 -1.4004  1.6990 -0.4996
 3592SOL     OW22234   1.428   3.022   3.484 -0.0851 -0.1851  0.4400
 3592SOL    HW122235   1.354   3.028   3.423  1.1246  0.4890 -0.9772
 3592SOL    HW222236   1.384   3.050   3.564  0.0923  0.5511  0.2742
 3593SOL     OW22237   2.275   3.503   9.633  0.1587  0.2002  0.8745
 3593SOL    HW122238   2.222   3.577   9.664  1.0816  1.7297 -1.1467
 3593SOL    HW222239   2.280   3.456   9.717 -2.1144  0.7707  1.3304
 3594SOL     OW22240   3.941   1.971  13.266  0.4071  0.2020 -0.0233
 3594SOL    HW122241   3.943   1.986  13.361  0.2033 -0.7732  0.1354
 3594SOL    HW222242   3.952   2.056  13.224  0.2294  1.1398  1.8272
 3595SOL     OW22243   0.279   2.378   0.991 -0.1903  0.1671  0.1274
 3595SOL    HW122244   0.308   2.332   1.069 -0.4839  2.8772  1.8341
 3595SOL    HW222245   0.198   2.426   1.010  0.3292  1.5164 -1.0636
 3596SOL     OW22246   2.392   0.892  11.361  0.1996 -0.1162 -0.0565
 3596SOL    HW122247   2.398   0.865  11.453 -0.3819 -2.8386 -0.8263
 3596SOL    HW222248   2.474   0.864  11.320 -0.1017  0.9520 -1.3598
 3597SOL     OW22249   4.228   2.972  13.193  1.0782 -0.2400  0.2770
 3597SOL    HW122250   4.187   3.058  13.189  0.8183 -0.4342 -1.2736
 3597SOL    HW222251   4.234   2.945  13.101  0.2560  0.9172 -0.1181
 3598SOL     OW22252   1.086   0.923   0.596 -0.1942  0.1706  0.2234
 3598SOL    HW122253   1.071   0.860   0.525 -0.2494 -0.8788  1.1661
 3598SOL    HW222254   1.177   0.946   0.580 -0.5416  0.4536 -1.3633
 3599SOL     OW22255   1.249   2.312  10.932  0.2060 -0.8873 -0.0647
 3599SOL    HW122256   1.252   2.313  10.836  0.7907  0.8488 -0.0242
 3599SOL    HW222257   1.231   2.403  10.953  2.3402 -0.6127  0.4638
 3600SOL     OW22258   1.646   2.906  14.834 -0.0256  0.3896  0.0259
 3600SOL    HW122259   1.594   2.966  14.780  0.1214  1.1347  0.7043
 3600SOL    HW222260   1.649   2.831  14.774  0.0859  0.6865 -0.3381
 3601SOL     OW22261   1.872   3.123   2.423 -0.4401 -0.5601  0.6554
 3601SOL    HW122262   1.826   3.130   2.507  0.4104 -1.7537  1.2115
 3601SOL    HW222263   1.953   3.074   2.430 -0.4988 -0.9547 -1.5746
 3602SOL     OW22264   0.917   0.373   4.156  0.2698 -0.1727  0.3201
 3602SOL    HW122265   0.963   0.337   4.080  0.1531 -0.9310  0.6014
 3602SOL    HW222266   0.969   0.445   4.193  1.1916  0.5382 -2.4045
 3603SOL     OW22267   2.378   1.807   3.239 -0.1392 -0.3344  0.1814
 3603SOL    HW122268   2.371   1.902   3.250  0.2457 -0.4689  1.5656
 3603SOL    HW222269   2.473   1.809   3.247 -0.1365 -0.0134  0.0818
 3604SOL     OW22270   3.852   0.806   7.862 -0.5949  0.2686 -0.1499
 3604SOL    HW122271   3.843   0.719   7.823 -1.4418  0.7465 -1.0083
 3604SOL    HW222272   3.771   0.848   7.836  0.4122  1.3997 -1.4781
 3605SOL     OW22273   0.441   4.382   4.860 -0.1551  0.0173 -0.0455
 3605SOL    HW122274   0.387   4.402   4.936 -0.1446 -2.6771  0.6976
 3605SOL    HW222275   0.509   4.325   4.897  0.5863 -1.3113 -3.4191
 3606SOL     OW22276   4.138   1.071   8.458  0.6839  0.6022  0.0063
 3606SOL    HW122277   4.147   1.055   8.364  1.0806 -0.9006  0.2941
 3606SOL    HW222278   4.216   1.022   8.485 -0.4082 -1.8348 -1.2869
 3607SOL     OW22279   2.705   2.862   6.498 -0.4668  0.2224 -0.0887
 3607SOL    HW122280   2.619   2.822   6.481  0.6751 -2.1238 -0.3417
 3607SOL    HW222281   2.763   2.795   6.534  0.7596  1.0563 -0.5159
 3608SOL     OW22282   1.561   4.065   1.312  0.1080  0.0653 -0.4406
 3608SOL    HW122283   1.585   4.016   1.233  1.7453 -0.3428  0.3064
 3608SOL    HW222284   1.649   4.073   1.347  0.5076 -0.7885 -1.2186
 3609SOL     OW22285   2.199   2.794  13.707 -0.1233  0.0054  0.5014
 3609SOL    HW122286   2.232   2.819  13.621 -0.8198  0.7567  0.4519
 3609SOL    HW222287   2.145   2.717  13.686  0.4561  0.1299 -1.4058
 3610SOL     OW22288   3.234   3.318   2.948 -1.1663 -0.5154  0.1708
 3610SOL    HW122289   3.149   3.360   2.936 -0.3265  1.3394  0.6908
 3610SOL    HW222290   3.220   3.232   2.909 -1.4856 -0.5166  0.2903
 3611SOL     OW22291   3.311   3.290  12.602  0.5558  0.5610  0.0190
 3611SOL    HW122292   3.288   3.199  12.623  0.7579 -0.1616 -2.8995
 3611SOL    HW222293   3.251   3.301  12.529  1.4931  0.5853 -0.7440
 3612SOL     OW22294   1.119   2.714   4.260 -0.0998 -0.0792  0.2677
 3612SOL    HW122295   1.078   2.795   4.227 -3.2997 -2.3149 -1.3038
 3612SOL    HW222296   1.062   2.649   4.219 -0.6643  1.3091 -1.1813
 3613SOL     OW22297   3.458   4.280   9.332  0.4414  0.3906  0.4742
 3613SOL    HW122298   3.436   4.336   9.407 -1.3243 -0.4977  0.6320
 3613SOL    HW222299   3.409   4.316   9.258 -1.0519  0.5065  1.5124
 3614SOL     OW22300   0.684   0.896  12.397  0.0080  0.1050 -0.1025
 3614SOL    HW122301   0.594   0.926  12.391 -0.2097 -0.1538  1.9309
 3614SOL    HW222302   0.685   0.831  12.468  0.6636  0.4464  0.1943
 3615SOL     OW22303   2.805   3.763   7.558  0.2242 -0.8874 -0.4684
 3615SOL    HW122304   2.773   3.775   7.469 -3.0193 -1.0603  0.7016
 3615SOL    HW222305   2.781   3.672   7.577 -0.3534 -0.5783  0.2837
 3616SOL     OW22306   3.649   3.298   4.871 -0.7170 -0.0567 -0.0621
 3616SOL    HW122307   3.721   3.268   4.817 -2.5277  0.5437 -2.8415
 3616SOL    HW222308   3.690   3.300   4.957  1.2232 -0.2686 -0.9853
 3617SOL     OW22309   0.555   4.542   2.889  0.1418  0.5851  0.5055
 3617SOL    HW122310   0.586   4.619   2.841 -0.3524  1.3482  1.4071
 3617SOL    HW222311   0.601   4.477   2.836  0.3158  1.6319 -0.6273
 3618SOL     OW22312   1.072   1.583   4.638  0.1104  0.5203 -0.1023
 3618SOL    HW122313   1.056   1.615   4.549 -0.0331 -2.4703 -1.1690
 3618SOL    HW222314   1.112   1.498   4.621 -0.8137  0.7646 -3.5809
 3619SOL     OW22315   1.656   4.262   2.551  0.1592  0.2388 -0.0776
 3619SOL    HW122316   1.615   4.280   2.466 -1.5864 -2.9491  0.0897
 3619SOL    HW222317   1.585   4.255   2.615  0.0627  1.8283 -0.0141
 3620SOL     OW22318   1.578   4.563   1.036 -0.6560  0.4144  0.2530
 3620SOL    HW122319   1.495   4.515   1.040 -1.2042  1.3774  0.3336
 3620SOL    HW222320   1.554   4.650   1.004 -2.6672 -0.2436 -0.0495
 3621SOL     OW22321   3.834   2.107   2.095  0.3730  0.0555 -0.0239
 3621SOL    HW122322   3.823   2.059   2.013 -0.0714 -1.5045  0.9651
 3621SOL    HW222323   3.869   2.046   2.159 -0.5731 -1.3037 -0.8077
 3622SOL     OW22324   3.984   3.712   8.871  0.0110  0.2937 -0.1939
 3622SOL    HW122325   4.057   3.701   8.932  0.3955 -2.5933 -1.1716
 3622SOL    HW222326   3.906   3.713   8.927 -0.4919  2.2266 -0.9234
 3623SOL     OW22327   3.420   2.378   4.032 -0.4062 -0.0342 -0.0102
 3623SOL    HW122328   3.344   2.397   4.086 -0.6499 -2.0483  0.3717
 3623SOL    HW222329   3.380   2.327   3.961  2.6577 -1.0439 -1.0359
 3624SOL     OW22330   1.767   3.113   2.666  0.3373 -0.5708 -0.3674
 3624SOL    HW122331   1.775   3.025   2.704 -1.4170  0.4470  2.2923
 3624SOL    HW222332   1.689   3.145   2.710  0.7115  0.9287 -0.8165
 3625SOL     OW22333   3.033   4.310  13.990 -0.5713  0.0396  0.1523
 3625SOL    HW122334   2.970   4.248  13.953 -1.2808  1.7855 -1.4956
 3625SOL    HW222335   2.995   4.331  14.076 -2.1641  1.1118 -0.8155
 3626SOL     OW22336   3.325   1.252   3.794 -0.0044  1.1748 -0.5359
 3626SOL    HW122337   3.269   1.281   3.866 -0.6263  2.5468 -1.5758
 3626SOL    HW222338   3.277   1.282   3.717  0.9191  1.2325 -1.0880
 3627SOL     OW22339   2.663   2.437   6.415  0.6252 -0.2107  0.0926
 3627SOL    HW122340   2.577   2.475   6.433  0.7361 -0.2989  0.8149
 3627SOL    HW222341   2.653   2.343   6.427 -1.5588  0.0508  0.3767
 3628SOL     OW22342   3.399   3.795   5.259 -0.4864 -0.1619 -0.8212
 3628SOL    HW122343   3.343   3.789   5.337  1.3313  2.0956  0.6950
 3628SOL    HW222344   3.421   3.702   5.255 -2.9806 -0.8731  1.8604
 3629SOL     OW22345   0.786   0.075   9.284  0.0463 -0.2871  0.4056
 3629SOL    HW122346   0.755   0.140   9.348 -3.7981  0.0511 -1.8053
 3629SOL    HW222347   0.880   0.094   9.286 -0.0300  0.0815  0.6264
 3630SOL     OW22348   3.281   1.387   3.270  0.0978 -0.9107 -0.6207
 3630SOL    HW122349   3.350   1.397   3.204  3.5871 -0.5598  3.0971
 3630SOL    HW222350   3.235   1.315   3.227  0.3676 -1.1875 -0.4487
 3631SOL     OW22351   2.437   4.700   1.646 -0.1858 -0.2096 -0.0389
 3631SOL    HW122352   2.428   0.066   1.663 -1.7149 -0.5591  1.1232
 3631SOL    HW222353   2.351   4.672   1.612  0.3480 -1.4878 -0.3543
 3632SOL     OW22354   2.695   0.731   6.579 -0.1934 -0.5938 -0.2526
 3632SOL    HW122355   2.690   0.792   6.652  0.9958 -1.5315  0.6095
 3632SOL    HW222356   2.611   0.687   6.594 -2.2182  2.5172 -2.3374
 3633SOL     OW22357   0.894   1.493  17.639 -0.2584 -0.0361  1.1446
 3633SOL    HW122358   0.972   1.547  17.636  0.3473 -1.0221 -0.7309
 3633SOL    HW222359   0.857   1.519  17.555  1.2954  1.0982  0.8194
 3634SOL     OW22360   0.397   3.637   8.621  0.7335 -1.0309 -0.4455
 3634SOL    HW122361   0.435   3.718   8.654 -0.8427 -0.6458  0.4213
 3634SOL    HW222362   0.308   3.649   8.654  1.3782  1.3375  0.4486
 3635SOL     OW22363   3.257   4.480  14.023  0.0167 -0.0450 -0.7836
 3635SOL    HW122364   3.254   4.479  14.119  0.9756  2.0935 -0.7402
 3635SOL    HW222365   3.186   4.421  13.997 -0.4479 -0.0722  0.5350
 3636SOL     OW22366   2.431   0.476   3.612  0.4812 -0.2626 -0.7646
 3636SOL    HW122367   2.514   0.492   3.568  1.4198 -1.3320  0.6229
 3636SOL    HW222368   2.466   0.442   3.694 -0.5823  0.1034 -0.1488
 3637SOL     OW22369   2.916   3.791   3.650 -0.1519  0.0695 -0.3075
 3637SOL    HW122370   2.985   3.790   3.717 -1.1968 -0.3758  0.7795
 3637SOL    HW222371   2.962   3.807   3.568  1.7630  2.1019  1.1556
 3638SOL     OW22372   2.896   4.476   9.842 -0.2319  0.0687  0.0476
 3638SOL    HW122373   2.983   4.505   9.868  0.2955 -1.2352 -0.2637
 3638SOL    HW222374   2.850   4.559   9.828 -0.1649  0.4114  1.8985
 3639SOL     OW22375   0.163   2.371   4.864 -0.0868  0.2186 -0.0379
 3639SOL    HW122376   0.223   2.381   4.938  1.7186 -1.2473 -1.2948
 3639SOL    HW222377   0.081   2.361   4.912 -1.0110 -2.3532 -2.1560
 3640SOL     OW22378   3.989   0.392  15.002 -0.2057  0.5364 -0.0644
 3640SOL    HW122379   3.973   0.300  15.021  0.7679  0.4706  0.4416
 3640SOL    HW222380   3.917   0.402  14.940 -1.1172 -2.8574  0.4698
 3641SOL     OW22381   3.955   2.865  10.510  0.3186  0.2556  0.2923
 3641SOL    HW122382   3.875   2.830  10.470 -0.2163  0.4809  1.1618
 3641SOL    HW222383   3.997   2.912  10.438  1.0713 -0.2479  0.4014
 3642SOL     OW22384   4.264   3.433   2.039 -0.3570  0.0324  0.2020
 3642SOL    HW122385   4.210   3.419   2.117 -0.3162 -0.2145  0.1877
 3642SOL    HW222386   4.353   3.417   2.070 -0.6921  1.1332  1.7506
 3643SOL     OW22387   0.432   4.413   8.734 -0.0917  0.0225  0.3322
 3643SOL    HW122388   0.384   4.416   8.652 -0.3177  2.0138  0.5493
 3643SOL    HW222389   0.519   4.405   8.694 -0.1556  1.1021 -0.0343
 3644SOL     OW22390   1.150   0.610   2.905 -0.3344 -0.5161 -0.3220
 3644SOL    HW122391   1.196   0.662   2.839  1.1791  0.2932  1.3858
 3644SOL    HW222392   1.203   0.530   2.900  2.3574  1.2623  0.2181
 3645SOL     OW22393   2.761   1.485  13.101 -0.6079 -0.3711 -0.0228
 3645SOL    HW122394   2.850   1.517  13.090 -0.1841 -1.1553  1.2577
 3645SOL    HW222395   2.771   1.445  13.187  0.8323 -0.6633 -0.3314
 3646SOL     OW22396   1.661   1.170   6.597 -0.1018 -0.3124  0.0163
 3646SOL    HW122397   1.743   1.175   6.647 -0.2523  0.1894  0.2206
 3646SOL    HW222398   1.635   1.263   6.602 -0.5803 -0.5419  2.0304
 3647SOL     OW22399   0.224   4.671  10.081  0.1605  0.3669 -0.1704
 3647SOL    HW122400   0.140   4.636  10.109 -1.8146  1.8877 -4.2574
 3647SOL    HW222401   0.269   4.625  10.152 -0.0280  0.3720 -0.0484
 3648SOL     OW22402   0.287   1.535   5.876 -0.1832  0.7131  0.5086
 3648SOL    HW122403   0.352   1.464   5.875  0.6976  1.5202  0.8023
 3648SOL    HW222404   0.207   1.492   5.845 -0.5091 -0.1328  2.4569
 3649SOL     OW22405   3.998   3.213   6.817 -0.7785  0.1214  0.3456
 3649SOL    HW122406   3.911   3.195   6.853 -2.0961  3.1329 -1.3915
 3649SOL    HW222407   4.007   3.155   6.742 -0.4671 -0.1538  0.5916
 3650SOL     OW22408   4.406   2.925   3.337  0.0355  0.3261  0.0782
 3650SOL    HW122409   4.416   3.021   3.339  2.2400  0.0594  1.9650
 3650SOL    HW222410   4.493   2.914   3.298  0.3602  0.7723  0.6721
 3651SOL     OW22411   4.296   3.088   4.388  0.2823 -0.3441  0.3047
 3651SOL    HW122412   4.276   3.172   4.347 -0.1875  0.2149  1.6681
 3651SOL    HW222413   4.209   3.063   4.417  0.5811 -3.1248 -1.1470
 3652SOL     OW22414   4.664   2.932   1.868  0.5178 -0.2862 -0.4090
 3652SOL    HW122415   4.640   2.954   1.778  1.2648  3.7923  0.4132
 3652SOL    HW222416   4.593   2.875   1.897 -0.0564  1.0502  0.8402
 3653SOL     OW22417   1.972   3.995  11.171 -0.6119 -0.4196  0.5649
 3653SOL    HW122418   2.058   3.993  11.213  0.4937 -0.6607 -1.7502
 3653SOL    HW222419   1.994   4.035  11.087  1.9651 -1.5016  0.7334
 3654SOL     OW22420   2.829   2.563   2.456  0.7546 -0.5156  0.0973
 3654SOL    HW122421   2.772   2.624   2.503 -0.2248 -1.2152 -0.1986
 3654SOL    HW222422   2.761   2.522   2.402 -0.9940  0.0453  1.8706
 3655SOL     OW22423   4.141   3.545   5.708  0.5717 -0.0301  0.1781
 3655SOL    HW122424   4.098   3.459   5.702  2.5839 -1.0655  0.4896
 3655SOL    HW222425   4.103   3.594   5.781 -1.8164  1.8817 -2.3572
 3656SOL     OW22426   2.104   1.129   3.026 -0.1965 -0.3170  0.4989
 3656SOL    HW122427   2.028   1.165   3.072 -1.0679  1.4721 -2.4030
 3656SOL    HW222428   2.072   1.039   3.017 -1.6076  0.1744  0.6147
 3657SOL     OW22429   2.953   1.729  16.155 -0.1908 -0.0731 -0.1992
 3657SOL    HW122430   2.991   1.660  16.100 -0.7675 -0.5189 -0.0335
 3657SOL    HW222431   3.036   1.771  16.177  0.5149 -1.9723  0.7868
 3658SOL     OW22432   1.275   0.119   4.091 -0.5255 -0.0716  0.1945
 3658SOL    HW122433   1.359   0.165   4.094 -0.7580  0.3842 -0.2866
 3658SOL    HW222434   1.301   0.062   4.018  1.7210 -0.5904  1.3989
 3659SOL     OW22435   1.465   0.517  15.116  0.5256  0.0641 -0.5583
 3659SOL    HW122436   1.442   0.568  15.039  1.3344  0.7138 -0.3621
 3659SOL    HW222437   1.444   0.436  15.070 -0.0001  0.9360 -1.8343
 3660SOL     OW22438   3.604   0.710  11.885 -0.3959  0.5014  0.0120
 3660SOL    HW122439   3.640   0.773  11.948 -1.4687  1.2078 -0.0951
 3660SOL    HW222440   3.530   0.673  11.933 -0.3688 -0.2829 -0.5556
 3661SOL     OW22441   0.942   1.401   0.602 -0.5765  0.1325 -0.3071
 3661SOL    HW122442   1.010   1.468   0.598 -0.1070 -0.4109 -1.5154
 3661SOL    HW222443   0.858   1.446   0.597  0.6455  2.5197  0.8709
 3662SOL     OW22444   4.575   1.370   9.574 -0.0484 -0.0784  0.4099
 3662SOL    HW122445   4.659   1.380   9.619  1.8059  0.2628 -3.1406
 3662SOL    HW222446   4.599   1.313   9.501 -0.5975  1.1128 -0.6991
 3663SOL     OW22447   1.068   3.952   2.660  0.2362 -0.7701 -0.7204
 3663SOL    HW122448   1.026   3.962   2.745 -0.0181 -0.3037 -0.9028
 3663SOL    HW222449   1.071   4.043   2.632 -0.5877 -0.3859  0.4885
 3664SOL     OW22450   4.477   0.147   4.364  0.0651  0.2980 -0.0670
 3664SOL    HW122451   4.480   0.061   4.323  0.5551  0.8460 -1.1634
 3664SOL    HW222452   4.493   0.126   4.456 -2.3469  0.2392  0.3367
 3665SOL     OW22453   3.122   3.311   4.048 -0.4178  0.8733 -0.5696
 3665SOL    HW122454   3.033   3.291   4.018  0.2091 -0.7650 -1.3080
 3665SOL    HW222455   3.160   3.226   4.069 -1.7941  0.5759  0.7593
 3666SOL     OW22456   4.282   3.755  17.136  0.0491  0.0505 -0.5048
 3666SOL    HW122457   4.342   3.762  17.210 -0.1187 -0.1856 -0.3444
 3666SOL    HW222458   4.211   3.703  17.175  0.8598  0.4420  1.5114
 3667SOL     OW22459   1.053   4.430   6.447 -0.1948  0.0300 -0.1289
 3667SOL    HW122460   0.994   4.376   6.499  0.4250  1.4258  2.0550
 3667SOL    HW222461   1.017   4.518   6.463 -0.0485  0.0835 -0.0888
 3668SOL     OW22462   0.230   1.724  12.502 -0.0057  0.5208 -0.4044
 3668SOL    HW122463   0.235   1.752  12.593  0.9919 -2.0055  0.3314
 3668SOL    HW222464   0.212   1.630  12.511 -0.6274  0.6202 -0.6622
 3669SOL     OW22465   0.144   0.951   1.168  0.0785  0.3378  0.0610
 3669SOL    HW122466   0.145   0.906   1.083 -0.5276  0.5458 -0.0585
 3669SOL    HW222467   0.096   1.031   1.144 -1.3473 -0.5251  0.0578
 3670SOL     OW22468   4.661   3.187   6.032 -0.4452  0.0336  0.0767
 3670SOL    HW122469   4.691   3.113   5.980  1.6637 -0.8424  2.5335
 3670SOL    HW222470   4.647   3.254   5.966 -1.8333 -0.4684 -0.1363
 3671SOL     OW22471   2.586   0.385  13.297 -0.0871 -0.3372 -0.2251
 3671SOL    HW122472   2.495   0.385  13.328 -0.1984 -1.1662 -0.5520
 3671SOL    HW222473   2.631   0.371  13.381  0.6683  1.3923 -0.3505
 3672SOL     OW22474   4.182   3.354   3.511 -0.0570 -0.4641 -0.1070
 3672SOL    HW122475   4.093   3.330   3.488 -0.5515  0.4810  0.8108
 3672SOL    HW222476   4.172   3.441   3.550  0.2986  0.2258 -1.5537
 3673SOL     OW22477   4.636   1.134  11.531 -0.2043  0.6427  0.2649
 3673SOL    HW122478   4.541   1.121  11.528  0.0880 -0.9124 -1.6352
 3673SOL    HW222479   4.629   1.230  11.526  0.3609  0.5372 -2.2662
 3674SOL     OW22480   4.094   3.322   4.584 -0.0679  0.0921  0.5982
 3674SOL    HW122481   4.089   3.317   4.489  0.3259 -2.7452  0.7299
 3674SOL    HW222482   4.151   3.399   4.588  1.1713 -0.8814  2.1882
 3675SOL     OW22483   0.868   0.751  16.788  0.1674 -0.3799  1.2748
 3675SOL    HW122484   0.922   0.814  16.836 -0.1383  2.0544 -1.5522
 3675SOL    HW222485   0.853   0.801  16.707 -2.0447  1.0231  2.5294
 3676SOL     OW22486   0.044   3.594  14.356  0.1290  0.4210 -0.4301
 3676SOL    HW122487   0.009   3.606  14.444  4.5701 -0.8287  1.4897
 3676SOL    HW222488   0.044   3.685  14.325  0.5238  0.4764 -0.2570
 3677SOL     OW22489   0.288   1.533   0.300 -0.2467 -0.1938 -0.2666
 3677SOL    HW122490   0.344   1.515   0.224  2.1673  0.8432  1.2656
 3677SOL    HW222491   0.245   1.606   0.256 -2.4748  0.0830  2.3399
 3678SOL     OW22492   0.355   1.428   9.141 -0.3586 -0.3560  0.1775
 3678SOL    HW122493   0.300   1.506   9.145 -1.6341 -1.3167  1.4913
 3678SOL    HW222494   0.299   1.356   9.170  0.1879 -1.0293 -0.4617
 3679SOL     OW22495   3.243   2.875  11.148 -0.0074 -0.2493 -0.2515
 3679SOL    HW122496   3.165   2.819  11.154 -1.3544  1.7078  0.7615
 3679SOL    HW222497   3.314   2.836  11.098 -1.5325 -3.4158  0.0038
 3680SOL     OW22498   2.099   4.142  15.593 -0.2161  0.3642 -0.5438
 3680SOL    HW122499   2.116   4.233  15.570 -3.2716  1.2606  0.7026
 3680SOL    HW222500   2.038   4.125  15.521  1.0206 -0.4987 -1.3844
 3681SOL     OW22501   3.469   4.461  10.761  0.3520 -0.7259 -0.0161
 3681SOL    HW122502   3.502   4.536  10.711 -0.3468 -1.2877 -1.3203
 3681SOL    HW222503   3.511   4.476  10.846  1.3198 -0.1408 -0.6000
 3682SOL     OW22504   0.092   0.287  12.318  0.0439  0.3954  0.1241
 3682SOL    HW122505   0.009   0.284  12.272 -1.2040 -1.8540  2.5756
 3682SOL    HW222506   0.069   0.226  12.388 -0.4717  1.0856  0.5602
 3683SOL     OW22507   0.513   3.987  14.315  0.0563  0.1304  0.1794
 3683SOL    HW122508   0.586   4.013  14.259 -0.9202  1.3975 -0.5245
 3683SOL    HW222509   0.461   3.929  14.259 -2.0618  1.6585  0.5508
 3684SOL     OW22510   0.511   4.433   8.174 -0.2722  0.5186 -0.2641
 3684SOL    HW122511   0.498   4.361   8.236 -1.2389  0.0615 -0.9958
 3684SOL    HW222512   0.490   4.506   8.233  1.9661 -0.5928  1.9294
 3685SOL     OW22513   3.644   1.505   5.283 -0.2822  0.0432 -0.3460
 3685SOL    HW122514   3.634   1.494   5.188 -0.2910  0.7718 -0.4306
 3685SOL    HW222515   3.738   1.489   5.288 -0.6941 -1.6213  1.8066
 3686SOL     OW22516   2.012   1.420   2.627 -0.9502 -0.0340 -0.3343
 3686SOL    HW122517   2.042   1.371   2.704  2.0971  0.8699 -0.9366
 3686SOL    HW222518   2.002   1.351   2.561  1.0980  0.2632 -0.9512
 3687SOL     OW22519   1.700   2.871   6.779  0.7081  0.2682 -0.6035
 3687SOL    HW122520   1.683   2.865   6.873 -0.8775  1.6368 -0.8056
 3687SOL    HW222521   1.729   2.962   6.772 -0.7094  0.6155 -2.0890
 3688SOL     OW22522   2.910   3.386  13.358  0.4046  0.6174 -0.2970
 3688SOL    HW122523   2.903   3.464  13.414 -1.9550 -0.5551  1.0752
 3688SOL    HW222524   2.819   3.359  13.370  0.0948  1.4252 -0.8121
 3689SOL     OW22525   4.519   0.903   7.677  0.3249  0.0816  0.0539
 3689SOL    HW122526   4.569   0.900   7.759  0.9353  0.8062 -0.2929
 3689SOL    HW222527   4.577   0.967   7.635  0.6154 -1.0012 -1.1994
 3690SOL     OW22528   3.448   4.176  14.785 -0.2372  0.4025  0.0725
 3690SOL    HW122529   3.421   4.114  14.853  0.8955 -0.5883 -0.3718
 3690SOL    HW222530   3.527   4.127  14.763 -1.1492 -1.0048 -0.0107
 3691SOL     OW22531   0.273   2.940   2.255 -0.1802 -0.3455 -0.1378
 3691SOL    HW122532   0.193   2.984   2.227  0.2478 -0.1859 -1.1474
 3691SOL    HW222533   0.297   3.007   2.318  1.7865 -0.6262 -0.5830
 3692SOL     OW22534   4.521   1.029   0.878  0.0076  0.8398  0.0636
 3692SOL    HW122535   4.491   0.959   0.936 -1.9384 -0.9643 -3.1349
 3692SOL    HW222536   4.616   1.023   0.888 -0.2700 -2.2743  0.7840
 3693SOL     OW22537   4.501   1.228   4.752  0.1811  0.6688  0.0809
 3693SOL    HW122538   4.530   1.305   4.703  1.0285  0.6482  0.5404
 3693SOL    HW222539   4.415   1.225   4.710 -0.6056 -2.8777  1.9812
 3694SOL     OW22540   0.677   4.290  11.236 -0.5535 -0.4978 -0.1388
 3694SOL    HW122541   0.686   4.365  11.178 -0.3128 -1.0998 -0.8889
 3694SOL    HW222542   0.723   4.320  11.315  1.9956  0.7881 -2.1316
 3695SOL     OW22543   1.548   2.948  12.850 -0.2960  0.3446  0.0454
 3695SOL    HW122544   1.498   2.905  12.920 -1.5073  2.9413  0.7713
 3695SOL    HW222545   1.507   2.907  12.774 -0.2206 -3.1029  1.8676
 3696SOL     OW22546   4.239   1.478   6.451  0.7226 -0.0606  0.3404
 3696SOL    HW122547   4.259   1.399   6.401 -0.6335 -1.3299  1.8220
 3696SOL    HW222548   4.308   1.542   6.430  1.5658 -0.5900  1.4758
 3697SOL     OW22549   2.460   2.915   9.020 -0.2771 -0.7024 -0.2864
 3697SOL    HW122550   2.545   2.953   9.001  0.0727 -1.7781 -0.8829
 3697SOL    HW222551   2.476   2.872   9.104 -0.9610 -0.3117  0.0517
 3698SOL     OW22552   4.100   2.914  16.790 -0.4913  0.1547 -0.2176
 3698SOL    HW122553   4.188   2.924  16.754 -0.2847 -0.0194  0.2481
 3698SOL    HW222554   4.044   2.971  16.737 -1.9386 -0.3771  0.7119
 3699SOL     OW22555   3.766   4.320   7.505 -0.2638 -0.2851  0.4952
 3699SOL    HW122556   3.708   4.297   7.578 -2.0666  3.3938  0.1988
 3699SOL    HW222557   3.822   4.385   7.546  0.1997  0.9410 -2.1448
 3700SOL     OW22558   4.086   0.901   7.975 -0.0419  0.3714  0.1078
 3700SOL    HW122559   4.001   0.882   7.935  0.2136  2.7878 -1.5326
 3700SOL    HW222560   4.147   0.901   7.902  2.8637  0.4803  2.5334
 3701SOL     OW22561   1.017   4.612   5.615 -0.1794 -0.5746  0.3172
 3701SOL    HW122562   0.945   4.664   5.579  1.4841  0.1644 -1.9908
 3701SOL    HW222563   0.972   4.528   5.604  0.2926 -0.9954  1.6753
 3702SOL     OW22564   3.233   0.102  17.461  0.2243  0.4743  1.1157
 3702SOL    HW122565   3.288   0.116  17.538 -0.4694 -1.5232  1.9841
 3702SOL    HW222566   3.173   0.039  17.501 -2.0554  1.1085 -1.2660
 3703SOL     OW22567   2.115   2.867   0.338 -0.2571 -0.1901 -0.7148
 3703SOL    HW122568   2.101   2.935   0.272 -1.7662  0.7170  0.5200
 3703SOL    HW222569   2.050   2.800   0.318  0.3522 -0.0699 -3.0534
 3704SOL     OW22570   2.577   3.113  15.688 -0.2833 -0.0480  0.1931
 3704SOL    HW122571   2.558   3.084  15.599 -0.5265  3.3843 -0.9022
 3704SOL    HW222572   2.534   3.198  15.701 -0.9480 -0.6925  2.3354
 3705SOL     OW22573   2.120   1.978   6.960  0.1291 -0.0539  0.2790
 3705SOL    HW122574   2.152   1.990   7.049  0.2764  1.8913 -0.0425
 3705SOL    HW222575   2.083   2.066   6.951  1.5569  0.4970 -0.1008
 3706SOL     OW22576   1.125   1.706  15.139 -0.1347 -0.3806 -0.0225
 3706SOL    HW122577   1.115   1.734  15.230 -1.9444  1.3930 -0.7740
 3706SOL    HW222578   1.052   1.747  15.094  1.4437  1.2051 -1.1140
 3707SOL     OW22579   0.652   1.820   1.877 -0.1162 -0.2474 -0.2249
 3707SOL    HW122580   0.611   1.869   1.948 -0.5811 -0.4732 -0.3324
 3707SOL    HW222581   0.575   1.793   1.826 -0.7983  1.4741 -0.1158
 3708SOL     OW22582   0.754   3.144  14.176 -0.2426 -0.0390  0.0529
 3708SOL    HW122583   0.744   3.090  14.253  0.1664  1.3830  1.1055
 3708SOL    HW222584   0.735   3.230  14.214  1.2810 -0.6485  2.1647
 3709SOL     OW22585   2.992   2.863   6.002 -0.3512  0.1024  0.0932
 3709SOL    HW122586   2.923   2.802   5.978 -0.5340  0.6264 -0.7119
 3709SOL    HW222587   3.023   2.827   6.086  0.3112  1.5714  0.4720
 3710SOL     OW22588   3.647   3.820   0.502  0.4423  0.6154  0.6687
 3710SOL    HW122589   3.616   3.911   0.510  1.7705  1.1310 -0.0795
 3710SOL    HW222590   3.616   3.773   0.579 -0.1568 -0.9629 -0.5334
 3711SOL     OW22591   3.627   0.861   5.818 -0.2248 -0.2506 -0.2478
 3711SOL    HW122592   3.644   0.767   5.819  0.0606 -0.2111 -1.2926
 3711SOL    HW222593   3.584   0.879   5.734 -1.2141  0.5873  0.4363
 3712SOL     OW22594   3.202   3.316   7.984  0.2181  0.0367  0.2965
 3712SOL    HW122595   3.197   3.242   7.924  0.4522 -0.2485  0.6260
 3712SOL    HW222596   3.117   3.311   8.028  1.2882 -3.0080  1.9682
 3713SOL     OW22597   3.487   2.597   3.888 -0.0256  0.5213  0.0109
 3713SOL    HW122598   3.457   2.520   3.935  1.8680 -0.3570 -0.2515
 3713SOL    HW222599   3.565   2.609   3.942  0.3523 -3.3011  0.2709
 3714SOL     OW22600   1.799   0.032  11.311 -0.1752 -0.0187 -0.1993
 3714SOL    HW122601   1.741   0.047  11.237  0.5564  1.3165 -0.5133
 3714SOL    HW222602   1.812   4.665  11.315  0.0035  0.0469  0.9026
 3715SOL     OW22603   3.535   3.399   6.728  0.3585 -0.6574 -0.1697
 3715SOL    HW122604   3.486   3.347   6.793  0.4111 -0.4811  0.0129
 3715SOL    HW222605   3.600   3.449   6.777  1.4564 -2.8373  0.6292
 3716SOL     OW22606   0.958   2.869   9.404 -0.4832 -0.5057 -0.0782
 3716SOL    HW122607   1.029   2.832   9.351 -1.1292 -0.4461 -0.9696
 3716SOL    HW222608   0.964   2.821   9.487  0.0180  0.3242  0.3652
 3717SOL     OW22609   1.777   4.614   8.006 -0.2942 -0.4305 -0.0802
 3717SOL    HW122610   1.731   4.682   8.055  0.2538 -1.0718  1.3340
 3717SOL    HW222611   1.851   4.592   8.064  1.3310 -1.2055 -2.4383
 3718SOL     OW22612   4.383   0.848   5.286  0.3508  0.1198  0.6666
 3718SOL    HW122613   4.315   0.907   5.318  0.3776 -0.2262  1.3591
 3718SOL    HW222614   4.329   0.807   5.219 -2.8211  0.8299  2.7994
 3719SOL     OW22615   3.365   2.304   5.475  0.5323  0.5709  0.2191
 3719SOL    HW122616   3.403   2.355   5.403  1.3935  1.7072  1.4942
 3719SOL    HW222617   3.281   2.350   5.484  0.8144  0.8900  1.1385
 3720SOL     OW22618   2.462   3.382   1.941  0.0994 -0.2497  0.2362
 3720SOL    HW122619   2.406   3.333   2.001  0.0494 -0.5046 -0.0203
 3720SOL    HW222620   2.403   3.457   1.932 -2.0926 -1.8681  1.1397
 3721SOL     OW22621   2.084   0.770  11.084 -0.3057 -0.7868  0.7087
 3721SOL    HW122622   2.104   0.799  11.173  0.9891 -0.9714  0.4784
 3721SOL    HW222623   2.080   0.674  11.091  0.7240 -0.8361  0.6663
 3722SOL     OW22624   2.919   1.295   7.492 -0.2921 -0.1745  0.2621
 3722SOL    HW122625   3.013   1.308   7.504 -0.9253  3.8874  0.8621
 3722SOL    HW222626   2.885   1.380   7.464  0.0559 -1.0818 -2.9132
 3723SOL     OW22627   1.698   0.097   7.509 -0.3386 -0.4991 -0.3753
 3723SOL    HW122628   1.666   0.162   7.572  0.0464  0.0518 -0.7423
 3723SOL    HW222629   1.789   0.126   7.506 -0.8060  0.9916 -0.6432
 3724SOL     OW22630   4.394   3.716  11.093 -0.5629 -0.5076  0.7045
 3724SOL    HW122631   4.438   3.770  11.158 -1.8782  1.5982 -0.1666
 3724SOL    HW222632   4.468   3.720  11.032 -0.8375 -0.8415  0.3451
 3725SOL     OW22633   1.735   2.553   0.847 -0.5828 -0.4299  0.1864
 3725SOL    HW122634   1.788   2.529   0.771  0.5362 -0.4638  0.9708
 3725SOL    HW222635   1.762   2.497   0.920  2.7282  4.4717  2.7830
 3726SOL     OW22636   2.872   1.827  12.953  0.0515  0.2594  0.7374
 3726SOL    HW122637   2.803   1.802  13.014 -0.9834  1.2136 -0.0510
 3726SOL    HW222638   2.946   1.772  12.979  1.1357 -0.0178 -2.9241
 3727SOL     OW22639   1.600   4.573   3.096  0.5017  0.0745 -0.2740
 3727SOL    HW122640   1.602   4.576   3.191 -0.6473  1.2844 -0.2885
 3727SOL    HW222641   1.678   4.522   3.077  0.7214  0.0846  0.6235
 3728SOL     OW22642   1.492   1.253   5.418  0.0028 -0.2376 -0.1135
 3728SOL    HW122643   1.535   1.223   5.498 -0.0566  1.5603  0.5862
 3728SOL    HW222644   1.401   1.225   5.431 -0.4191  1.5315  0.6588
 3729SOL     OW22645   3.510   1.955  12.272  0.6151 -0.2321 -0.3492
 3729SOL    HW122646   3.552   1.881  12.314 -1.3598 -1.6942 -0.9488
 3729SOL    HW222647   3.417   1.933  12.286  0.3375  0.5893 -0.9071
 3730SOL     OW22648   3.163   4.489   9.862  0.2836  0.3317  0.4589
 3730SOL    HW122649   3.213   4.524   9.789  0.6529 -0.9992  0.0731
 3730SOL    HW222650   3.233   4.487   9.926  0.8246 -1.2175 -0.1739
 3731SOL     OW22651   3.076   2.044   3.057 -0.2222  0.2557  0.3093
 3731SOL    HW122652   3.101   2.124   3.011  1.1482  0.9213  2.1950
 3731SOL    HW222653   2.998   2.014   3.011 -0.9477  2.4352  0.1178
 3732SOL     OW22654   4.401   3.405   6.028 -0.0362  0.1521 -0.3487
 3732SOL    HW122655   4.474   3.400   5.965  1.9615 -2.7209  2.1764
 3732SOL    HW222656   4.420   3.494   6.058 -0.1127  0.1980 -0.4365
 3733SOL     OW22657   3.964   0.920   8.580 -0.0461  0.2421 -0.1004
 3733SOL    HW122658   4.017   0.978   8.525 -0.5308  0.5505 -0.2491
 3733SOL    HW222659   4.014   0.904   8.660 -0.5728  0.2040  0.2225
 3734SOL     OW22660   1.317   0.404   2.818 -0.2296 -0.1074 -0.3172
 3734SOL    HW122661   1.315   0.403   2.723  1.7247  0.1899 -0.3488
 3734SOL    HW222662   1.371   0.328   2.841  0.4318  0.3152 -0.4804
 3735SOL     OW22663   2.120   2.056  16.077 -0.4569 -0.0287 -0.1346
 3735SOL    HW122664   2.120   2.139  16.124  2.5649 -0.7361  1.1392
 3735SOL    HW222665   2.192   2.064  16.014 -0.4792 -0.7798 -0.2643
 3736SOL     OW22666   3.535   0.598   6.066 -0.3369  0.0260 -0.2190
 3736SOL    HW122667   3.574   0.620   5.982 -0.7283 -0.0022 -0.4101
 3736SOL    HW222668   3.446   0.618   6.035 -0.3309 -0.6635 -0.6809
 3737SOL     OW22669   3.446   1.114   3.000 -0.2033 -0.1398 -0.1562
 3737SOL    HW122670   3.539   1.135   2.994 -0.0889 -0.4112  0.6974
 3737SOL    HW222671   3.412   1.149   2.917  1.6926 -2.3670 -1.8877
 3738SOL     OW22672   4.699   0.913   0.586 -0.1482  0.6447 -0.1531
 3738SOL    HW122673   4.716   0.957   0.669 -0.2745 -2.4886  1.5307
 3738SOL    HW222674   0.044   0.959   0.544  2.2618 -1.7063  1.4343
 3739SOL     OW22675   1.453   4.179   2.148 -0.3737 -0.1224 -0.3501
 3739SOL    HW122676   1.440   4.239   2.074  0.7380  0.0219 -0.4258
 3739SOL    HW222677   1.527   4.129   2.115  0.5138  0.3115  0.9817
 3740SOL     OW22678   1.374   1.744   4.061  0.0851 -0.2230 -0.4683
 3740SOL    HW122679   1.419   1.828   4.066 -1.5274  0.6948 -1.5796
 3740SOL    HW222680   1.427   1.710   3.989  1.6300 -1.8339  1.3997
 3741SOL     OW22681   2.800   2.082   3.780 -0.1791  0.3058  0.1820
 3741SOL    HW122682   2.777   1.989   3.777 -1.4790  0.6203  0.1891
 3741SOL    HW222683   2.729   2.107   3.720  0.0973  0.6274 -0.0088
 3742SOL     OW22684   4.023   3.579  10.325 -0.4816 -0.5572  0.4148
 3742SOL    HW122685   3.971   3.540  10.254 -0.4340 -1.6252  0.9662
 3742SOL    HW222686   4.113   3.553  10.304 -0.7292  0.3123 -1.7411
 3743SOL     OW22687   3.733   3.585  12.130 -0.6207 -0.0865 -0.0913
 3743SOL    HW122688   3.649   3.583  12.176 -0.5673  1.4977  0.0879
 3743SOL    HW222689   3.709   3.639  12.055 -0.5489  0.1729  0.0697
 3744SOL     OW22690   3.657   3.517  14.773  0.0932 -0.2939  0.3226
 3744SOL    HW122691   3.569   3.549  14.755  0.2199 -1.1537 -1.8654
 3744SOL    HW222692   3.635   3.447  14.835  2.3437 -0.0953  1.3558
 3745SOL     OW22693   0.625   1.251  15.412  0.0390 -0.0300  0.5168
 3745SOL    HW122694   0.673   1.240  15.494 -0.5073  0.2837  0.8763
 3745SOL    HW222695   0.595   1.342  15.423 -0.5838 -0.1986  0.1896
 3746SOL     OW22696   4.177   1.191   8.811 -0.2006  0.4307 -0.4171
 3746SOL    HW122697   4.238   1.187   8.737  2.8050 -2.3843  2.1993
 3746SOL    HW222698   4.200   1.281   8.834 -1.9911  0.7215  0.2570
 3747SOL     OW22699   4.329   2.436   0.085 -0.5255 -0.3341 -0.2692
 3747SOL    HW122700   4.365   2.507   0.139  0.4350 -2.3849  1.7806
 3747SOL    HW222701   4.297   2.390   0.163  0.4995  0.6719  0.7398
 3748SOL     OW22702   2.430   1.745   7.575 -0.0580  0.2426 -0.5687
 3748SOL    HW122703   2.346   1.720   7.614 -0.8500  1.1886 -1.6592
 3748SOL    HW222704   2.491   1.741   7.649 -0.6088  2.4519 -0.0093
 3749SOL     OW22705   3.958   3.694   9.438 -0.0347 -0.6162 -0.0924
 3749SOL    HW122706   3.950   3.605   9.405 -1.5192  0.0297 -1.4387
 3749SOL    HW222707   3.977   3.744   9.358  0.7648  2.3589  1.9584
 3750SOL     OW22708   3.542   3.345  17.058 -0.1460 -0.3642  0.1342
 3750SOL    HW122709   3.494   3.427  17.072 -0.2212 -0.0959 -1.7079
 3750SOL    HW222710   3.467   3.286  17.065  0.9309 -1.9768 -1.7764
 3751SOL     OW22711   1.867   0.616   5.080  0.1337 -0.3133 -0.0725
 3751SOL    HW122712   1.896   0.664   5.003 -0.2007  1.2135  0.7440
 3751SOL    HW222713   1.802   0.674   5.119 -1.5581 -1.6376 -0.9257
 3752SOL     OW22714   1.299   3.680   6.078  0.3311 -0.0573 -0.2097
 3752SOL    HW122715   1.384   3.710   6.110  0.7469 -0.5496 -0.8451
 3752SOL    HW222716   1.280   3.601   6.129 -1.9139  0.1435 -0.7561
 3753SOL     OW22717   4.546   3.074   6.595  0.3894  0.5928  0.0483
 3753SOL    HW122718   4.519   3.091   6.686 -0.5960 -2.8244  0.3953
 3753SOL    HW222719   4.565   3.164   6.567 -0.8486  1.1019  0.8326
 3754SOL     OW22720   2.717   1.213   4.960  0.0741 -0.1169 -0.2388
 3754SOL    HW122721   2.716   1.295   5.010 -0.3563  0.2504 -0.8569
 3754SOL    HW222722   2.637   1.175   4.997  0.0829 -0.8209 -0.9480
 3755SOL     OW22723   3.314   3.266  16.494  0.2282  0.3839 -0.0791
 3755SOL    HW122724   3.222   3.293  16.495  0.0141 -0.3930  1.5638
 3755SOL    HW222725   3.304   3.174  16.469  2.9405  0.2650 -0.7251
 3756SOL     OW22726   0.757   1.288   0.858  1.0663  0.4662  0.1100
 3756SOL    HW122727   0.734   1.364   0.912  1.8009  0.5119  0.3586
 3756SOL    HW222728   0.669   1.263   0.831  1.3678 -0.0203 -0.4133
 3757SOL     OW22729   2.747   4.631   7.446  0.0008  0.1466  0.1819
 3757SOL    HW122730   2.772   4.601   7.359 -0.8496 -1.9951  0.6537
 3757SOL    HW222731   2.783   4.564   7.505  0.2361 -0.7621 -0.9930
 3758SOL     OW22732   4.009   1.120   6.385  0.0606 -0.2170  0.3032
 3758SOL    HW122733   3.959   1.143   6.464 -0.5611  0.3682 -0.2542
 3758SOL    HW222734   3.955   1.053   6.343 -1.8808  2.3151 -1.2379
 3759SOL     OW22735   2.401   4.436   8.443 -0.1144  0.8251  0.0519
 3759SOL    HW122736   2.477   4.401   8.490  0.2029 -1.1265 -1.8852
 3759SOL    HW222737   2.436   4.475   8.363 -0.2123  1.4022  0.2945
 3760SOL     OW22738   1.740   0.519   1.423 -0.0763  0.1230 -0.2584
 3760SOL    HW122739   1.716   0.604   1.388 -0.2768 -0.2259 -0.9584
 3760SOL    HW222740   1.824   0.553   1.454 -1.1590  1.4762  1.2071
 3761SOL     OW22741   1.252   0.768   2.725 -0.4569 -0.3743  0.4553
 3761SOL    HW122742   1.162   0.795   2.706 -0.3015  1.3673  2.1470
 3761SOL    HW222743   1.277   0.719   2.647  2.0811  4.4353 -1.6751
 3762SOL     OW22744   1.917   0.520  16.716 -0.2133 -0.3553 -0.2082
 3762SOL    HW122745   1.942   0.459  16.785  1.7130 -1.4892 -1.9291
 3762SOL    HW222746   1.846   0.468  16.678  0.2875 -1.2486  0.0946
 3763SOL     OW22747   3.962   1.899   5.049  0.3642  0.0615 -0.0999
 3763SOL    HW122748   3.990   1.812   5.020 -1.0685 -0.0387 -1.1917
 3763SOL    HW222749   3.876   1.909   5.008  0.4521  2.8317  0.4036
 3764SOL     OW22750   2.997   1.213   3.681 -0.1169 -0.4367  0.2661
 3764SOL    HW122751   3.011   1.307   3.691  0.5897 -0.4990 -0.1430
 3764SOL    HW222752   2.937   1.213   3.607  0.0178 -1.0373  0.1631
 3765SOL     OW22753   2.658   3.982   7.899 -0.8262 -0.4577  0.2755
 3765SOL    HW122754   2.643   3.914   7.965 -2.5397  0.6704  1.0597
 3765SOL    HW222755   2.591   4.040   7.937 -0.5004 -0.6334  1.1179
 3766SOL     OW22756   3.898   2.290  17.409  0.1693  0.1561  0.2618
 3766SOL    HW122757   3.870   2.202  17.383  0.1853  0.8073 -1.9585
 3766SOL    HW222758   3.879   2.286  17.503  0.2965  0.2117  0.2885
 3767SOL     OW22759   2.837   1.326   1.071 -0.4926  0.7256  0.5636
 3767SOL    HW122760   2.755   1.279   1.056  0.4253 -0.3653 -1.0262
 3767SOL    HW222761   2.792   1.410   1.078  0.0368  1.1862 -1.4545
 3768SOL     OW22762   0.302   2.667   6.398 -0.2286  0.3345  0.4718
 3768SOL    HW122763   0.211   2.686   6.422 -0.2002 -1.4838  2.0870
 3768SOL    HW222764   0.291   2.613   6.319 -0.4038 -1.0420  1.4399
 3769SOL     OW22765   2.465   4.367   7.073  0.2498  0.4993  0.3001
 3769SOL    HW122766   2.435   4.335   7.158  1.0318 -0.5184  0.1942
 3769SOL    HW222767   2.421   4.452   7.071 -1.5475 -0.4261  0.2073
 3770SOL     OW22768   0.078   4.320   7.821  0.0622  0.3294 -0.5196
 3770SOL    HW122769   0.038   4.406   7.834 -0.5502  0.1362 -1.1533
 3770SOL    HW222770   0.156   4.320   7.877 -0.2649 -0.6428 -0.0496
 3771SOL     OW22771   2.114   4.587   4.604  0.4823  0.7582  0.3303
 3771SOL    HW122772   2.059   4.653   4.562  0.3607  1.7176  1.9903
 3771SOL    HW222773   2.199   4.631   4.607  1.0830 -0.4914  1.5950
 3772SOL     OW22774   2.949   3.473  10.023  0.0703  0.0974 -0.0053
 3772SOL    HW122775   2.889   3.436   9.959 -0.4001 -1.4460  1.3065
 3772SOL    HW222776   3.005   3.519   9.961  0.2576 -0.5809 -0.3473
 3773SOL     OW22777   3.119   0.455  11.486 -0.1411 -0.0520  0.3877
 3773SOL    HW122778   3.079   0.539  11.509 -0.0763  0.0589  0.1000
 3773SOL    HW222779   3.048   0.422  11.431  0.8321  0.2044 -1.0369
 3774SOL     OW22780   1.520   0.223  14.820 -0.0325 -0.1742  0.1460
 3774SOL    HW122781   1.580   0.261  14.883 -0.4242  2.1419 -0.8939
 3774SOL    HW222782   1.445   0.199  14.875  0.1093 -3.7623 -1.1966
 3775SOL     OW22783   2.480   0.554   6.621  0.3825 -0.2364 -0.2413
 3775SOL    HW122784   2.452   0.493   6.690  0.1367 -0.6954 -0.7439
 3775SOL    HW222785   2.420   0.526   6.552 -0.9082  0.2776  0.6762
 3776SOL     OW22786   3.510   2.308   5.697 -0.2153 -0.3446  0.4801
 3776SOL    HW122787   3.433   2.292   5.642 -0.4993  1.1428  0.4401
 3776SOL    HW222788   3.499   2.403   5.707 -1.4575 -0.3296 -1.0596
 3777SOL     OW22789   3.963   2.783   5.808 -0.1704  0.1524  0.1921
 3777SOL    HW122790   3.942   2.801   5.716 -1.0279  1.8995  0.7306
 3777SOL    HW222791   3.873   2.771   5.840 -0.3337 -1.0096 -0.6939
 3778SOL     OW22792   0.767   2.128   2.788 -0.2985 -0.3646  0.6651
 3778SOL    HW122793   0.725   2.198   2.738 -0.1726 -0.3931  0.5182
 3778SOL    HW222794   0.735   2.055   2.735 -1.2534  2.9102 -3.2473
 3779SOL     OW22795   3.497   4.495  14.464  0.2018 -0.3039  0.6634
 3779SOL    HW122796   3.488   4.400  14.479 -0.2146  0.0026  2.4318
 3779SOL    HW222797   3.572   4.494  14.405 -0.6286  0.0705 -0.3904
 3780SOL     OW22798   3.698   2.233   3.346 -0.0398  0.3816  0.5663
 3780SOL    HW122799   3.709   2.227   3.441  0.5658  2.7563  0.6571
 3780SOL    HW222800   3.775   2.186   3.315 -0.1769 -0.1192  0.9803
 3781SOL     OW22801   1.897   3.949   9.023  0.3714  0.1342  0.3496
 3781SOL    HW122802   1.868   3.874   9.074  0.0377  0.6079  0.8518
 3781SOL    HW222803   1.904   3.903   8.939 -0.2669  0.6298  0.0289
 3782SOL     OW22804   4.013   3.632  16.968  0.3452  0.1886 -0.1023
 3782SOL    HW122805   3.930   3.589  16.947  0.1506  1.2479 -1.4964
 3782SOL    HW222806   3.998   3.712  16.918  0.5792 -0.6189 -1.4641
 3783SOL     OW22807   3.809   3.181   5.077 -0.3523  0.8725  0.0010
 3783SOL    HW122808   3.833   3.141   5.161 -0.9763  1.0003  0.2366
 3783SOL    HW222809   3.898   3.189   5.040  0.7606 -2.3724  2.0188
 3784SOL     OW22810   2.170   1.841   6.005 -0.5587  0.0874  0.0718
 3784SOL    HW122811   2.128   1.757   5.986  1.7837 -0.6837 -1.7531
 3784SOL    HW222812   2.208   1.875   5.924 -1.2125  0.0162 -0.2639
 3785SOL     OW22813   4.221   4.434   3.258  0.2972  0.6402 -0.2165
 3785SOL    HW122814   4.196   4.343   3.240 -0.3254  0.6196  0.7811
 3785SOL    HW222815   4.172   4.496   3.204  1.9173  3.0698  1.0832
 3786SOL     OW22816   1.443   3.085   2.478 -0.0669 -0.0855 -0.2064
 3786SOL    HW122817   1.460   3.136   2.558 -0.5034  1.1833 -0.9186
 3786SOL    HW222818   1.483   3.000   2.496 -1.3144 -0.3153  1.5395
 3787SOL     OW22819   3.935   0.570   3.403  0.5413 -0.4227  0.7144
 3787SOL    HW122820   3.853   0.542   3.361  0.7896 -0.7133  0.4251
 3787SOL    HW222821   3.992   0.571   3.327  0.1455 -0.2366  0.4187
 3788SOL     OW22822   1.584   3.770   7.781 -0.2453 -0.0038  0.2051
 3788SOL    HW122823   1.564   3.732   7.867  2.4493  0.3421  0.9801
 3788SOL    HW222824   1.564   3.699   7.720  0.2181  0.8270 -0.9140
 3789SOL     OW22825   1.707   0.775  13.738 -0.5815  0.3726  0.1138
 3789SOL    HW122826   1.750   0.705  13.688 -0.3254  0.3272  0.3946
 3789SOL    HW222827   1.663   0.821  13.667 -0.2727 -0.6691 -0.7606
 3790SOL     OW22828   3.653   1.517   4.497  0.4855  0.2969  0.6280
 3790SOL    HW122829   3.663   1.437   4.548 -0.1276 -0.5762 -0.6155
 3790SOL    HW222830   3.561   1.512   4.469  0.6523 -1.8066  0.4976
 3791SOL     OW22831   3.040   0.496  10.397 -0.3856  0.1077 -0.3646
 3791SOL    HW122832   3.133   0.490  10.417 -0.2665 -2.7181 -1.8774
 3791SOL    HW222833   3.008   0.432  10.461 -0.1418  1.8355  1.4651
 3792SOL     OW22834   4.649   0.364  13.015 -0.2148 -0.0711 -0.1854
 3792SOL    HW122835   4.691   0.301  12.956  1.7380  0.4174  0.6639
 3792SOL    HW222836   4.559   0.358  12.986  0.2033  1.1103 -1.7577
 3793SOL     OW22837   0.336   3.279   4.646  0.3802  0.1048  0.1720
 3793SOL    HW122838   0.421   3.249   4.614  0.8636  2.0760 -0.4100
 3793SOL    HW222839   0.294   3.196   4.671 -0.5041  1.2288  2.4494
 3794SOL     OW22840   3.562   3.752  11.995 -0.2615  0.9829 -0.1259
 3794SOL    HW122841   3.578   3.786  12.083  0.3264 -0.0640  0.1688
 3794SOL    HW222842   3.632   3.795  11.947 -0.4130  2.1609  0.7212
 3795SOL     OW22843   0.565   0.060   4.713 -0.7478  0.2556 -0.3361
 3795SOL    HW122844   0.481   0.106   4.709 -0.2530  1.2944  1.1352
 3795SOL    HW222845   0.616   0.123   4.765  0.8237 -0.1579 -1.3844
 3796SOL     OW22846   1.103   2.092   4.405 -0.5000  0.0883 -0.3880
 3796SOL    HW122847   1.062   2.016   4.447 -1.2657 -0.4195 -2.0517
 3796SOL    HW222848   1.178   2.053   4.360 -0.1072  2.4903 -1.7991
 3797SOL     OW22849   2.933   4.015   3.974  0.2321  0.1608  0.2045
 3797SOL    HW122850   2.926   3.919   3.981  1.3594  0.2032  1.7572
 3797SOL    HW222851   3.020   4.030   3.939 -0.0173  0.1667 -0.4194
 3798SOL     OW22852   3.645   1.763   6.238 -0.0382  0.3002 -0.1742
 3798SOL    HW122853   3.585   1.718   6.178  0.3100 -0.3533 -0.0280
 3798SOL    HW222854   3.719   1.786   6.182 -1.0030  1.6769 -0.8835
 3799SOL     OW22855   1.784   1.119   5.370 -0.5762  0.4249  0.4008
 3799SOL    HW122856   1.794   1.026   5.392 -2.9713  0.1866  0.4992
 3799SOL    HW222857   1.750   1.152   5.453 -0.3419 -1.1681  1.1499
 3800SOL     OW22858   2.887   3.237  16.960 -0.0169  0.6843 -0.1355
 3800SOL    HW122859   2.979   3.217  16.977 -0.6210 -0.9451  1.2345
 3800SOL    HW222860   2.897   3.232  16.865  0.1681  2.6637 -0.2399
 3801SOL     OW22861   0.732   0.364  11.124  0.4063 -0.5471 -0.2725
 3801SOL    HW122862   0.674   0.344  11.050  0.7249 -1.3767 -0.2974
 3801SOL    HW222863   0.679   0.342  11.200 -2.4842  1.7746 -1.6255
 3802SOL     OW22864   3.938   2.412   5.787  0.7491  0.2725  0.0801
 3802SOL    HW122865   3.892   2.457   5.858  0.1765 -1.1235  0.5998
 3802SOL    HW222866   3.899   2.462   5.715  0.6516 -0.3680 -0.3206
 3803SOL     OW22867   4.229   2.798   9.233  0.5942 -0.1131  0.0296
 3803SOL    HW122868   4.248   2.891   9.224 -1.7075  0.3528 -0.1941
 3803SOL    HW222869   4.282   2.766   9.306 -0.9402 -0.1687  1.1181
 3804SOL     OW22870   0.296   0.862   5.478 -0.6691  0.0982  0.6286
 3804SOL    HW122871   0.335   0.869   5.565 -1.3763  0.5724  0.9058
 3804SOL    HW222872   0.321   0.770   5.467 -0.0760  0.2384  0.8193
 3805SOL     OW22873   2.831   3.301   4.172  0.5594 -0.1524  0.0274
 3805SOL    HW122874   2.735   3.302   4.165  0.7248  0.1330 -2.0929
 3805SOL    HW222875   2.849   3.364   4.103 -0.2680  0.6954  0.5716
 3806SOL     OW22876   4.108   3.932   5.722  0.2995 -0.4070  0.3800
 3806SOL    HW122877   4.069   3.859   5.770 -0.3694  0.0553  0.5325
 3806SOL    HW222878   4.034   3.991   5.733  1.7165  1.1811  1.4318
 3807SOL     OW22879   2.863   4.309   7.453 -0.1011  0.3053  0.0111
 3807SOL    HW122880   2.937   4.267   7.409  2.3802  2.9235  1.7067
 3807SOL    HW222881   2.790   4.322   7.392  0.0525  1.2050  0.0128
 3808SOL     OW22882   2.360   0.508  12.105  0.5706  0.0705 -0.5662
 3808SOL    HW122883   2.392   0.421  12.128 -0.0576  0.0693  0.3086
 3808SOL    HW222884   2.362   0.520  12.010  4.0771  0.7422 -0.3936
 3809SOL     OW22885   1.269   1.247   2.137 -0.2879  0.0375 -0.4462
 3809SOL    HW122886   1.237   1.338   2.131 -0.0579 -0.0880 -3.3732
 3809SOL    HW222887   1.354   1.245   2.094 -0.8814  1.1762 -1.7033
 3810SOL     OW22888   3.195   3.457  17.055 -0.0836 -0.3299 -0.4589
 3810SOL    HW122889   3.185   3.362  17.054  1.5953 -0.5176 -0.4719
 3810SOL    HW222890   3.265   3.472  16.991  1.4904  1.8344  1.7719
 3811SOL     OW22891   2.560   3.494  11.610  0.2062  0.3357 -0.0063
 3811SOL    HW122892   2.559   3.466  11.519 -2.0140  3.2047 -0.8797
 3811SOL    HW222893   2.576   3.588  11.602  0.0258  0.2462 -1.3282
 3812SOL     OW22894   3.677   2.795   3.456 -0.1655  0.3400  0.2310
 3812SOL    HW122895   3.743   2.836   3.400  0.3836 -0.4113  0.3328
 3812SOL    HW222896   3.605   2.763   3.401 -2.3471  1.8509  2.1511
 3813SOL     OW22897   0.545   4.282   3.402 -0.6166  0.5194 -0.1777
 3813SOL    HW122898   0.635   4.253   3.393 -1.1765 -1.2851 -0.0358
 3813SOL    HW222899   0.534   4.309   3.310  0.5402 -2.3594 -1.1701
 3814SOL     OW22900   2.897   0.510   0.931  0.4654  0.2564 -0.3188
 3814SOL    HW122901   2.979   0.548   0.962 -1.3588  2.4722  1.7208
 3814SOL    HW222902   2.868   0.454   1.002 -1.2979 -1.3424 -2.3003
 3815SOL     OW22903   4.371   1.699   4.983 -1.1383  0.0497  0.3429
 3815SOL    HW122904   4.364   1.609   4.953 -3.0459  0.0457  0.8276
 3815SOL    HW222905   4.370   1.754   4.905 -0.2707 -0.2295  0.1315
 3816SOL     OW22906   0.538   3.737   4.094  0.1397 -0.5600 -0.2908
 3816SOL    HW122907   0.557   3.809   4.154 -0.3977 -1.0224  0.4342
 3816SOL    HW222908   0.444   3.755   4.082  0.2246  1.0757  1.5386
 3817SOL     OW22909   2.581   4.697  10.646  0.0194  0.1676  0.3316
 3817SOL    HW122910   2.545   0.058  10.637 -1.4715 -0.1907  2.6891
 3817SOL    HW222911   2.657   4.706  10.588 -0.7239 -0.3926 -0.7257
 3818SOL     OW22912   4.549   1.056   5.159 -0.2292 -0.0112 -0.1843
 3818SOL    HW122913   4.492   0.986   5.191  2.0076 -1.9601 -0.4474
 3818SOL    HW222914   4.552   1.035   5.066  1.9868  0.9574 -0.3252
 3819SOL     OW22915   4.397   1.219   8.610 -0.3821 -0.2431 -0.5916
 3819SOL    HW122916   4.416   1.265   8.529  0.0422 -1.1600 -1.0139
 3819SOL    HW222917   4.389   1.125   8.597 -0.5099 -0.5198  1.3612
 3820SOL     OW22918   2.236   4.608  10.860 -0.3387  0.0386 -0.0890
 3820SOL    HW122919   2.196   4.695  10.866 -0.1194  0.0890  0.5982
 3820SOL    HW222920   2.248   4.604  10.954  0.3871  1.8731 -0.0909
 3821SOL     OW22921   0.228   4.258   7.098 -0.3639 -0.5378 -0.0930
 3821SOL    HW122922   0.176   4.198   7.150  1.7176 -0.7347  1.7296
 3821SOL    HW222923   0.322   4.240   7.102 -0.5863 -1.5475  0.3200
 3822SOL     OW22924   1.898   2.938   4.439  0.5685 -0.2265  0.1089
 3822SOL    HW122925   1.951   2.954   4.518 -0.4897 -0.1019  0.7837
 3822SOL    HW222926   1.971   2.911   4.383  0.8489 -0.6993  0.6900
 3823SOL     OW22927   0.591   1.279   5.098  0.0831 -0.0484  0.1887
 3823SOL    HW122928   0.611   1.273   5.191 -0.6129  0.9858  0.4032
 3823SOL    HW222929   0.620   1.368   5.080  2.6847 -0.7712  0.7629
 3824SOL     OW22930   3.798   1.825   7.100  0.0908  0.6396  0.1815
 3824SOL    HW122931   3.810   1.910   7.142 -0.9324  1.5822 -1.4497
 3824SOL    HW222932   3.752   1.850   7.020  0.5350  1.5794  0.2191
 3825SOL     OW22933   3.744   0.060   2.878 -0.4505 -0.0194 -0.6428
 3825SOL    HW122934   3.740   0.016   2.793  1.8304  0.7143 -1.1362
 3825SOL    HW222935   3.691   0.138   2.868  2.5406  1.8213 -2.2530
 3826SOL     OW22936   3.211   4.417   2.352 -0.7238 -0.1339  0.3675
 3826SOL    HW122937   3.188   4.397   2.443  0.5907 -0.6778  0.5809
 3826SOL    HW222938   3.197   4.332   2.310  0.5364 -0.5371  0.7483
 3827SOL     OW22939   2.669   2.074   4.316  0.4429 -0.2808 -0.4993
 3827SOL    HW122940   2.735   2.141   4.334  1.7277 -0.8246 -3.1907
 3827SOL    HW222941   2.676   2.077   4.220  0.9354 -0.5920 -0.4739
 3828SOL     OW22942   4.224   4.383   2.625  0.1304  0.1529  0.1006
 3828SOL    HW122943   4.257   4.387   2.715  0.4855 -0.0400 -0.0184
 3828SOL    HW222944   4.297   4.343   2.578 -0.7013 -0.2237 -0.8565
 3829SOL     OW22945   4.666   2.509  13.368  0.2751  0.1732 -0.2740
 3829SOL    HW122946   4.645   2.531  13.277  1.1044  2.5989  0.1334
 3829SOL    HW222947   4.691   2.592  13.408 -0.6327 -0.7680  2.2591
 3830SOL     OW22948   3.380   1.782   7.716  0.1045 -0.7693  0.1021
 3830SOL    HW122949   3.453   1.797   7.777  1.9875  0.2357 -2.4195
 3830SOL    HW222950   3.318   1.810   7.783  0.3048  0.4653 -0.2410
 3831SOL     OW22951   2.035   4.585   6.516  0.2113  0.4125 -0.7972
 3831SOL    HW122952   2.028   4.601   6.422  0.9450  2.0901 -0.5681
 3831SOL    HW222953   1.942   4.565   6.529 -0.1264  1.8502 -1.0187
 3832SOL     OW22954   4.497   1.513  11.587 -0.5073  0.5577  0.1989
 3832SOL    HW122955   4.447   1.433  11.606 -0.4798  0.3945 -0.4297
 3832SOL    HW222956   4.434   1.563  11.536 -1.4864  0.3405  1.1770
 3833SOL     OW22957   4.501   2.638   7.479 -0.5562  0.6105  0.0094
 3833SOL    HW122958   4.596   2.624   7.476 -0.8336 -1.1096 -0.5781
 3833SOL    HW222959   4.494   2.666   7.570  0.6387  2.7120 -0.5302
 3834SOL     OW22960   0.053   2.414   5.530  0.3751  0.4473 -0.6588
 3834SOL    HW122961   0.087   2.336   5.487 -1.2494 -1.5683  1.7379
 3834SOL    HW222962   0.126   2.476   5.520 -0.3853  1.4470 -0.0392
 3835SOL     OW22963   2.799   2.992  11.613 -0.4891  0.3152  0.2871
 3835SOL    HW122964   2.851   3.010  11.534 -0.5563 -1.2975 -0.1248
 3835SOL    HW222965   2.867   2.988  11.679 -0.5718 -3.3708  0.1688
 3836SOL     OW22966   3.597   3.487   3.441 -0.6977  0.3087 -0.0757
 3836SOL    HW122967   3.655   3.502   3.367 -0.5454 -0.1623 -0.0544
 3836SOL    HW222968   3.585   3.393   3.428 -0.6554 -0.3364  4.3556
 3837SOL     OW22969   4.526   0.693   4.988  0.7744  0.9022  1.1195
 3837SOL    HW122970   4.444   0.730   5.019  1.1118  2.1143  0.5758
 3837SOL    HW222971   4.512   0.724   4.899  0.8085 -2.0158  0.0837
 3838SOL     OW22972   2.790   0.626   5.269  0.0424  0.1416 -0.1012
 3838SOL    HW122973   2.858   0.693   5.278 -1.0937  0.9725  2.1816
 3838SOL    HW222974   2.724   0.676   5.221  0.8530 -0.2510 -1.6370
 3839SOL     OW22975   0.641   0.818   0.992  0.0759 -0.1814  0.3489
 3839SOL    HW122976   0.697   0.784   0.922 -0.7908  0.6711 -0.7582
 3839SOL    HW222977   0.583   0.864   0.931 -0.9496 -0.3899  1.1889
 3840SOL     OW22978   3.372   0.933   1.248  0.6240 -0.2500  0.9559
 3840SOL    HW122979   3.435   0.902   1.184  0.0110 -1.4678  0.9457
 3840SOL    HW222980   3.359   0.848   1.290  1.6583 -0.4381  0.8849
 3841SOL     OW22981   2.065   3.378  10.996 -0.4162  0.8526  0.0937
 3841SOL    HW122982   2.123   3.418  10.931  0.3756  0.9483  0.8521
 3841SOL    HW222983   2.125   3.327  11.051  0.5620  0.4773 -1.3092
 3842SOL     OW22984   4.371   2.135   3.963  0.0307  0.0157 -0.0197
 3842SOL    HW122985   4.341   2.135   3.872 -1.3433 -1.0928  0.4401
 3842SOL    HW222986   4.421   2.055   3.976  2.9643  1.7252 -0.6810
 3843SOL     OW22987   0.113   2.082   8.451  0.0102  0.1810  0.6540
 3843SOL    HW122988   0.075   2.145   8.512 -1.5023  0.6884 -0.8250
 3843SOL    HW222989   0.175   2.032   8.504 -0.8049 -1.7605 -0.2291
 3844SOL     OW22990   4.446   3.881  15.133 -0.0323 -0.1818 -0.0934
 3844SOL    HW122991   4.460   3.912  15.222  0.7909 -1.8493  0.3580
 3844SOL    HW222992   4.482   3.794  15.152  0.1225 -0.2123 -0.5219
 3845SOL     OW22993   3.592   1.431  16.488 -0.1237 -0.6615 -0.7101
 3845SOL    HW122994   3.607   1.464  16.577  1.9249 -0.4987 -1.1186
 3845SOL    HW222995   3.546   1.350  16.509 -4.0751  1.3090 -1.7051
 3846SOL     OW22996   3.046   0.473   4.643 -0.0273  0.3020 -0.2930
 3846SOL    HW122997   2.973   0.426   4.601  2.3051 -2.0773 -1.7220
 3846SOL    HW222998   3.095   0.506   4.568  0.8093  1.8491  0.9296
 3847SOL     OW22999   0.578   0.604   8.324 -0.3213 -0.2547  0.2424
 3847SOL    HW123000   0.513   0.642   8.265  1.5288  0.6208 -1.2308
 3847SOL    HW223001   0.625   0.544   8.267 -0.6361  0.1386 -0.4271
 3848SOL     OW23002   2.454   4.557   6.109 -0.2607  0.0189  0.1512
 3848SOL    HW123003   2.485   4.502   6.181 -1.3780  0.2527  0.8014
 3848SOL    HW223004   2.517   4.629   6.110 -0.3265  0.0393  2.4755
 3849SOL     OW23005   3.865   2.518   2.811 -0.5731 -0.0454  0.3896
 3849SOL    HW123006   3.929   2.583   2.842 -2.1740  1.6917  0.1090
 3849SOL    HW223007   3.869   2.453   2.881  0.3725 -1.9678 -1.4836
 3850SOL     OW23008   2.851   2.506   5.014 -0.4052  0.2388 -0.3814
 3850SOL    HW123009   2.906   2.471   5.083 -0.8196 -0.7962 -0.5720
 3850SOL    HW223010   2.802   2.573   5.063  0.7754  0.8705 -0.0798
 3851SOL     OW23011   3.562   1.958   6.490 -0.2916  0.2975 -0.5107
 3851SOL    HW123012   3.535   1.887   6.432 -1.2087  0.2801 -0.0645
 3851SOL    HW223013   3.513   2.035   6.460 -0.1367  0.9052  0.8062
 3852SOL     OW23014   4.065   3.897   9.244  0.8138 -0.3512  0.5704
 3852SOL    HW123015   4.013   3.976   9.259 -3.9035 -3.1943 -0.9313
 3852SOL    HW223016   4.144   3.935   9.282  1.5827 -1.8941  0.5208
 3853SOL     OW23017   1.869   3.955   4.517  0.1556 -0.7088 -0.0715
 3853SOL    HW123018   1.838   3.923   4.432 -1.0867  0.5668 -0.1038
 3853SOL    HW223019   1.955   3.916   4.528  1.1529  1.4946 -0.1301
 3854SOL     OW23020   1.618   2.903   5.999  0.0065  0.5020  0.3364
 3854SOL    HW123021   1.689   2.854   6.040 -2.3277 -3.6836 -0.6860
 3854SOL    HW223022   1.551   2.882   6.064  1.1361  0.8207  1.6147
 3855SOL     OW23023   3.817   3.214   8.595  0.2233 -0.5356 -0.0062
 3855SOL    HW123024   3.744   3.213   8.657  0.6554 -0.0108  0.5194
 3855SOL    HW223025   3.889   3.225   8.657 -0.8988 -2.6760  1.6585
 3856SOL     OW23026   1.466   2.520   2.191  0.0992  0.1380 -0.4171
 3856SOL    HW123027   1.390   2.478   2.150 -0.7018  0.1392  1.0720
 3856SOL    HW223028   1.513   2.448   2.231  1.0811  1.8100  1.4716
 3857SOL     OW23029   2.847   0.187   0.290 -0.2441 -0.3261 -0.0847
 3857SOL    HW123030   2.785   0.228   0.352  2.1112  1.0697  1.3522
 3857SOL    HW223031   2.911   0.258   0.283 -0.7302  0.0463 -0.7484
 3858SOL     OW23032   0.530   2.156  14.405  0.5943 -0.4517 -0.3454
 3858SOL    HW123033   0.461   2.223  14.402  1.8818  0.8714 -0.0322
 3858SOL    HW223034   0.482   2.083  14.364  0.1424 -0.5687  0.4005
 3859SOL     OW23035   0.380   0.257  15.895  0.0993  0.7283  0.2690
 3859SOL    HW123036   0.390   0.165  15.918  0.0547  1.6725  4.0351
 3859SOL    HW223037   0.356   0.296  15.979 -0.8614 -1.3685  0.9691
 3860SOL     OW23038   3.802   3.475   4.419 -0.7511 -0.0424 -0.3224
 3860SOL    HW123039   3.780   3.551   4.473  0.8402 -1.6184  2.5873
 3860SOL    HW223040   3.883   3.501   4.376 -0.6002  0.5493  0.3162
 3861SOL     OW23041   1.376   3.787  12.192  0.4714  0.3281  0.3675
 3861SOL    HW123042   1.413   3.701  12.172 -0.9603 -0.4797  1.2169
 3861SOL    HW223043   1.389   3.785  12.286 -0.1149 -1.5816  0.3947
 3862SOL     OW23044   1.282   4.095   7.102  0.2645  0.2552 -0.0477
 3862SOL    HW123045   1.225   4.065   7.173 -0.3010 -2.1174 -1.5339
 3862SOL    HW223046   1.317   4.175   7.142 -1.1319  0.1317  1.4396
 3863SOL     OW23047   1.324   2.666  15.562  0.6309 -0.2942 -0.1794
 3863SOL    HW123048   1.256   2.642  15.624 -1.4458  0.5872 -2.0845
 3863SOL    HW223049   1.275   2.668  15.479 -2.3010 -1.3861  1.5601
 3864SOL     OW23050   2.133   3.825   5.349 -0.2784  0.1367 -0.0942
 3864SOL    HW123051   2.077   3.868   5.284  0.4397 -0.2408 -0.9642
 3864SOL    HW223052   2.150   3.738   5.314 -1.4146  0.7072 -2.0821
 3865SOL     OW23053   3.941   1.190  12.350  0.7242 -0.0839 -0.2303
 3865SOL    HW123054   3.925   1.147  12.266 -0.3462  1.2692 -0.7038
 3865SOL    HW223055   3.874   1.258  12.347  0.7811  0.0430  1.3397
 3866SOL     OW23056   0.195   3.096   4.201 -0.9299 -0.2955  0.3970
 3866SOL    HW123057   0.218   3.187   4.220  0.5000 -0.2691 -1.4633
 3866SOL    HW223058   0.101   3.092   4.186 -0.4951  0.8485 -2.5492
 3867SOL     OW23059   0.736   4.112   3.249  0.5433 -0.2451 -0.7231
 3867SOL    HW123060   0.720   4.074   3.162 -1.4483  0.3473 -0.6287
 3867SOL    HW223061   0.765   4.200   3.223 -0.2294  0.6653  1.4556
 3868SOL     OW23062   3.231   3.416   4.738  0.2181 -0.1062  0.2339
 3868SOL    HW123063   3.302   3.363   4.702 -2.7362 -1.8346 -3.0341
 3868SOL    HW223064   3.169   3.352   4.773  0.5894  0.3400  1.7097
 3869SOL     OW23065   4.652   2.800  14.224  0.1804  0.1278  0.5724
 3869SOL    HW123066   4.680   2.874  14.278  0.5509  0.8972 -0.6760
 3869SOL    HW223067   4.575   2.843  14.187  0.6617 -0.1160 -0.7321
 3870SOL     OW23068   0.818   2.757   7.798 -0.0805 -0.7641 -0.2641
 3870SOL    HW123069   0.750   2.822   7.809 -0.5006 -1.2593  0.0683
 3870SOL    HW223070   0.885   2.790   7.858 -1.2065 -1.0911  1.1849
 3871SOL     OW23071   4.505   3.472   2.465  0.4190 -0.5732  0.2167
 3871SOL    HW123072   4.548   3.526   2.531 -2.4948  0.8163  0.9753
 3871SOL    HW223073   4.585   3.436   2.426  0.8177  0.5994 -0.0709
 3872SOL     OW23074   1.710   3.750   6.286 -0.6073 -0.0982  0.7696
 3872SOL    HW123075   1.713   3.704   6.371 -1.4513  0.7619  1.2665
 3872SOL    HW223076   1.649   3.685   6.250 -0.5290  1.1466 -1.5431
 3873SOL     OW23077   1.524   3.991   9.607 -0.5289  0.4671 -0.7587
 3873SOL    HW123078   1.525   3.963   9.515  0.9392 -2.5500  0.1611
 3873SOL    HW223079   1.614   3.974   9.634 -1.3629 -1.3778  0.8704
 3874SOL     OW23080   0.878   2.100   9.408 -0.0796 -0.1137  0.0793
 3874SOL    HW123081   0.866   2.054   9.491 -1.8603 -1.2228 -0.8054
 3874SOL    HW223082   0.848   2.037   9.342 -0.4658 -1.3017  1.3944
 3875SOL     OW23083   2.937   2.669   3.484  0.0956  0.0133 -0.2315
 3875SOL    HW123084   3.018   2.697   3.527  0.6138 -1.1646 -0.4423
 3875SOL    HW223085   2.869   2.731   3.509 -1.5184 -1.4499 -1.0294
 3876SOL     OW23086   2.446   4.483  14.480 -0.4006  0.0171 -0.2737
 3876SOL    HW123087   2.387   4.548  14.520  0.2153  0.4274 -0.0333
 3876SOL    HW223088   2.516   4.475  14.545  0.0775  1.2167 -0.6410
 3877SOL     OW23089   1.399   1.013   1.602  0.4813  0.6309 -0.0777
 3877SOL    HW123090   1.419   1.048   1.515  0.0376  0.8288 -0.0976
 3877SOL    HW223091   1.312   0.977   1.585  0.6759 -1.1955  2.8007
 3878SOL     OW23092   2.408   0.640  11.045 -0.7340 -0.7571 -0.8045
 3878SOL    HW123093   2.460   0.640  11.126  0.5593 -1.7131 -1.6261
 3878SOL    HW223094   2.341   0.572  11.055 -1.4432 -0.0901 -1.1127
 3879SOL     OW23095   0.868   1.673   2.097  0.6879 -0.5009 -0.2719
 3879SOL    HW123096   0.962   1.671   2.119  0.3106 -1.6131  1.2567
 3879SOL    HW223097   0.833   1.730   2.165  1.3173  0.0033 -0.3724
 3880SOL     OW23098   4.105   0.452  13.208 -0.3103 -0.5086  0.0739
 3880SOL    HW123099   4.149   0.500  13.138  0.7369  1.1000  1.8501
 3880SOL    HW223100   4.178   0.390  13.201  2.0896  2.1846  1.4814
 3881SOL     OW23101   4.062   3.298   8.399 -0.7440 -0.7692  0.0208
 3881SOL    HW123102   4.065   3.241   8.322  0.6465 -0.2660 -0.3143
 3881SOL    HW223103   4.043   3.383   8.358 -2.3911 -0.8150  0.6918
 3882SOL     OW23104   2.479   1.122   5.080  0.1216 -0.4402  0.1546
 3882SOL    HW123105   2.453   1.093   4.992 -1.0521  1.9343 -0.2810
 3882SOL    HW223106   2.401   1.168   5.112  0.3931  0.6406 -0.7824
 3883SOL     OW23107   3.709   4.683   2.119  0.2610 -0.0495 -0.2104
 3883SOL    HW123108   3.716   4.611   2.057 -1.6638  0.9258 -1.5727
 3883SOL    HW223109   3.631   4.654   2.166 -0.4484  0.8823 -0.8106
 3884SOL     OW23110   3.496   0.993   1.778 -0.3502  0.0193  0.0359
 3884SOL    HW123111   3.449   1.004   1.695  2.6472 -1.3801 -1.8557
 3884SOL    HW223112   3.587   0.972   1.755 -0.4319 -0.2131 -0.0717
 3885SOL     OW23113   4.550   0.533  15.020  0.4700  0.0253  0.0298
 3885SOL    HW123114   4.508   0.473  15.081  2.7526 -1.9825 -0.3747
 3885SOL    HW223115   4.641   0.509  15.038 -0.0536 -1.9276 -0.0420
 3886SOL     OW23116   3.879   4.517   7.674 -0.0903  0.4144 -0.2370
 3886SOL    HW123117   3.854   4.562   7.755  1.2720  0.0256  0.3805
 3886SOL    HW223118   3.922   4.590   7.631 -2.4387  0.7285 -2.0766
 3887SOL     OW23119   2.042   1.651   3.771  0.0485  0.3799  0.0439
 3887SOL    HW123120   2.098   1.588   3.726 -0.3178  1.1139 -1.4271
 3887SOL    HW223121   2.107   1.683   3.834  0.6169  1.1128 -0.9144
 3888SOL     OW23122   1.098   3.396  10.442  0.0056 -0.0061  0.1555
 3888SOL    HW123123   1.192   3.388  10.431  0.2580  2.7043  0.3155
 3888SOL    HW223124   1.070   3.405  10.351 -0.2943  1.8746  0.4430
 3889SOL     OW23125   2.693   4.328   3.221  0.4689 -0.7972 -0.3603
 3889SOL    HW123126   2.715   4.240   3.251  1.1709 -0.2184  0.8092
 3889SOL    HW223127   2.767   4.352   3.165 -1.0841  2.7282 -0.9153
 3890SOL     OW23128   4.194   1.603  13.782 -0.0982 -0.2172  0.1955
 3890SOL    HW123129   4.156   1.539  13.841 -1.2556 -0.7897 -1.1870
 3890SOL    HW223130   4.191   1.685  13.832 -2.5158 -0.3165  0.1912
 3891SOL     OW23131   1.698   4.240  17.511  0.0367 -0.1004 -0.4236
 3891SOL    HW123132   1.612   4.227  17.549  1.1317 -0.2707  1.9999
 3891SOL    HW223133   1.692   4.171  17.445 -1.4347 -1.5972  1.3076
 3892SOL     OW23134   3.132   0.558   7.142  0.0534  0.1643  0.2117
 3892SOL    HW123135   3.057   0.524   7.092  0.0377 -0.4293  0.6408
 3892SOL    HW223136   3.133   0.648   7.112  0.8733  0.2926  0.6269
 3893SOL     OW23137   2.635   0.241   0.581 -0.0403  0.1338  0.1612
 3893SOL    HW123138   2.612   0.333   0.595  0.7260  0.1985  1.0300
 3893SOL    HW223139   2.603   0.234   0.492  0.6026 -1.8386  0.0846
 3894SOL     OW23140   3.523   2.957  13.705  0.0129 -0.1551  0.1394
 3894SOL    HW123141   3.529   3.048  13.732 -0.2268 -0.2952  0.6637
 3894SOL    HW223142   3.524   2.906  13.787  2.4262  0.2727  0.3790
 3895SOL     OW23143   3.999   4.646   6.982  0.1778  0.6687  0.1106
 3895SOL    HW123144   3.934   4.634   6.913  1.9772 -1.0160 -1.2675
 3895SOL    HW223145   4.066   4.585   6.953 -0.3579  0.8105 -1.4042
 3896SOL     OW23146   0.871   4.255   7.197  0.0913  0.0238 -0.6418
 3896SOL    HW123147   0.952   4.276   7.150  3.0211 -1.3710  3.7821
 3896SOL    HW223148   0.812   4.224   7.128 -1.8167  1.6322  0.2617
 3897SOL     OW23149   3.361   3.932  10.569  0.0678 -0.1004  0.0316
 3897SOL    HW123150   3.347   4.017  10.610  2.1358  0.0698  0.4019
 3897SOL    HW223151   3.402   3.883  10.640  0.9222 -0.9933 -1.0867
 3898SOL     OW23152   2.537   3.823  15.226 -0.0947 -0.2584 -0.2246
 3898SOL    HW123153   2.590   3.903  15.221 -0.8268  0.0107 -3.3204
 3898SOL    HW223154   2.506   3.816  15.136  1.4305  2.2161 -0.9556
 3899SOL     OW23155   3.158   2.379  10.553  0.1258  0.3200  0.2129
 3899SOL    HW123156   3.232   2.409  10.605 -2.3766  2.2664  2.7034
 3899SOL    HW223157   3.143   2.296  10.598 -3.6282  0.3830 -0.9488
 3900SOL     OW23158   0.518   2.185   3.975 -0.3308 -0.1293 -0.5735
 3900SOL    HW123159   0.482   2.108   4.020  1.3744 -0.3208  0.4759
 3900SOL    HW223160   0.447   2.209   3.915 -0.8114 -0.1801 -0.0305
 3901SOL     OW23161   1.449   3.752   3.812  0.1702 -0.0653  0.0355
 3901SOL    HW123162   1.456   3.659   3.833 -1.4325  0.2876  2.0588
 3901SOL    HW223163   1.473   3.732   3.721  0.5803 -1.2210  0.4076
 3902SOL     OW23164   0.153   3.608   7.647  0.2501  0.6722 -0.1718
 3902SOL    HW123165   0.073   3.645   7.610  0.4559 -1.9171 -3.1681
 3902SOL    HW223166   0.187   3.675   7.706 -4.0139  1.6917  1.1290
 3903SOL     OW23167   4.248   1.802  15.751  0.3072 -0.1344  0.3680
 3903SOL    HW123168   4.279   1.845  15.672 -0.7579 -3.6068 -1.9340
 3903SOL    HW223169   4.203   1.873  15.798  1.0453  1.9068 -1.9888
 3904SOL     OW23170   1.277   0.281   4.987 -0.2514 -0.4983 -0.1034
 3904SOL    HW123171   1.329   0.326   5.054  0.8810 -1.3372 -0.4143
 3904SOL    HW223172   1.199   0.270   5.041  0.3256 -1.8730  0.4585
 3905SOL     OW23173   0.546   2.639   0.595  0.5862  0.4428 -0.3646
 3905SOL    HW123174   0.541   2.732   0.574  0.0523  0.2872 -0.9411
 3905SOL    HW223175   0.519   2.650   0.686 -0.2957  2.6644 -0.8892
 3906SOL     OW23176   3.912   3.443   9.334  0.2090  0.2599 -0.1501
 3906SOL    HW123177   3.841   3.419   9.394  0.9357 -0.6294  0.3471
 3906SOL    HW223178   3.956   3.359   9.318 -2.2832 -1.6848  3.1160
 3907SOL     OW23179   3.605   3.636   9.339  0.1298  0.1977  0.0047
 3907SOL    HW123180   3.644   3.681   9.264  0.3307 -1.0104 -0.6253
 3907SOL    HW223181   3.537   3.694   9.372  0.3983  1.7889 -2.2428
 3908SOL     OW23182   2.848   2.571   7.865  0.1408 -0.3039  0.5054
 3908SOL    HW123183   2.866   2.512   7.792  1.5631  0.2226  0.4264
 3908SOL    HW223184   2.887   2.536   7.946  2.9880  0.3094 -0.6141
 3909SOL     OW23185   0.949   2.751   3.823 -0.7348  0.3880 -1.1760
 3909SOL    HW123186   0.901   2.804   3.887  0.0155  0.6526 -0.8364
 3909SOL    HW223187   1.015   2.706   3.877 -1.3736  1.9226  0.9001
 3910SOL     OW23188   1.888   3.487   6.332 -0.1125 -0.3997  0.3129
 3910SOL    HW123189   1.855   3.473   6.243 -0.3037  1.0928  0.1628
 3910SOL    HW223190   1.981   3.508   6.330 -0.1955 -0.1037 -0.4254
 3911SOL     OW23191   4.677   4.680  13.974  0.0945  0.5804 -0.0322
 3911SOL    HW123192   4.619   0.017  13.934  0.2226  0.1114 -0.9719
 3911SOL    HW223193   4.636   4.668  14.060  1.6455  1.0887  0.7878
 3912SOL     OW23194   2.646   4.414  11.328  0.1704 -0.2406  0.1041
 3912SOL    HW123195   2.697   4.350  11.378  0.5212  1.1046  1.4768
 3912SOL    HW223196   2.573   4.356  11.309  0.4317 -0.1915 -0.9976
 3913SOL     OW23197   2.627   3.065   2.369 -0.3335  0.0486 -0.1117
 3913SOL    HW123198   2.663   3.057   2.457  0.1307 -1.1973 -0.4179
 3913SOL    HW223199   2.704   3.034   2.322 -0.6261 -0.7122 -0.0902
 3914SOL     OW23200   3.169   1.777   4.764  0.3440 -0.1998  0.6150
 3914SOL    HW123201   3.181   1.862   4.807  1.9228 -0.9515  1.6618
 3914SOL    HW223202   3.089   1.792   4.713  0.2950  0.3319  0.8488
 3915SOL     OW23203   0.911   4.538   2.997 -0.3413 -0.4486  0.2283
 3915SOL    HW123204   0.971   4.599   3.040  0.5529 -0.1716 -1.3989
 3915SOL    HW223205   0.895   4.582   2.913 -1.6252 -1.7141 -0.1899
 3916SOL     OW23206   3.343   1.892   7.043 -0.1276  0.1601  0.2093
 3916SOL    HW123207   3.411   1.959   7.036 -1.4309  1.5428  0.5411
 3916SOL    HW223208   3.339   1.863   6.952 -1.6494  1.9391 -0.3060
 3917SOL     OW23209   2.881   4.664   7.936 -0.2254 -0.5052 -0.1322
 3917SOL    HW123210   2.953   4.607   7.910  0.2779  0.5658 -1.0794
 3917SOL    HW223211   2.805   4.612   7.912 -0.0972 -0.5077 -0.5264
 3918SOL     OW23212   3.055   4.081   2.046  0.2357 -0.3263 -0.1436
 3918SOL    HW123213   3.002   4.013   2.004  0.7221 -1.5312  1.1915
 3918SOL    HW223214   3.015   4.154   2.000 -1.3750 -2.7701 -2.6323
 3919SOL     OW23215   1.700   4.561   2.566 -0.1417 -0.2810 -1.0268
 3919SOL    HW123216   1.747   4.486   2.529 -0.1107 -0.4264 -0.6968
 3919SOL    HW223217   1.647   4.526   2.637 -0.7152  1.7112 -0.4851
 3920SOL     OW23218   1.903   2.419   1.450 -0.0960 -0.2017 -0.5211
 3920SOL    HW123219   1.813   2.408   1.480  0.3276  0.8522  1.1273
 3920SOL    HW223220   1.944   2.450   1.531 -0.3405 -0.8433 -0.1498
 3921SOL     OW23221   4.239   2.110   5.842  0.1403  0.2599 -0.7281
 3921SOL    HW123222   4.315   2.071   5.799  0.3068  0.5492 -0.6939
 3921SOL    HW223223   4.220   2.184   5.784 -2.0076  0.0226 -0.3217
 3922SOL     OW23224   2.009   0.119  10.917  0.5574  0.0100  0.3374
 3922SOL    HW123225   1.955   0.068  10.856  0.6696 -0.5984  0.7465
 3922SOL    HW223226   1.976   0.205  10.892  1.3766  0.5427  1.1216
 3923SOL     OW23227   4.325   2.390  16.089  0.7535  0.2951 -0.2741
 3923SOL    HW123228   4.249   2.338  16.115  1.2932 -0.2413  0.2030
 3923SOL    HW223229   4.374   2.333  16.031  1.6726  1.0761 -0.2591
 3924SOL     OW23230   2.476   1.733   2.044  0.2273 -0.1867  0.2178
 3924SOL    HW123231   2.384   1.730   2.071  0.1913  0.6268  0.2122
 3924SOL    HW223232   2.519   1.731   2.130  1.5933 -0.4788 -0.4706
 3925SOL     OW23233   3.863   1.885   6.711  0.1353 -0.1659 -0.5700
 3925SOL    HW123234   3.936   1.849   6.760 -0.3135 -1.2178 -0.6811
 3925SOL    HW223235   3.838   1.805   6.664 -1.2481  1.0708 -1.9648
 3926SOL     OW23236   0.585   4.407   4.643  0.1405  0.0521  0.2393
 3926SOL    HW123237   0.531   4.437   4.570  0.9200 -1.8375 -1.1139
 3926SOL    HW223238   0.529   4.400   4.721  0.8948  2.2220  0.9785
 3927SOL     OW23239   3.048   2.572   3.836 -0.6010 -0.5578  0.5892
 3927SOL    HW123240   2.971   2.591   3.782  0.6278 -0.1730 -1.0067
 3927SOL    HW223241   3.033   2.479   3.857 -0.6970 -0.3489  1.4610
 3928SOL     OW23242   1.863   3.487  15.890  0.6486  0.9166  0.3129
 3928SOL    HW123243   1.770   3.505  15.879 -0.1192 -2.3761  1.3836
 3928SOL    HW223244   1.855   3.399  15.854  0.3694  0.8519  0.5273
 3929SOL     OW23245   0.239   0.744   8.487  0.1290 -0.3294 -0.0199
 3929SOL    HW123246   0.277   0.747   8.399  2.3340 -2.4134  0.8440
 3929SOL    HW223247   0.262   0.655   8.514  0.1382 -0.0537  0.8695
 3930SOL     OW23248   1.807   1.313  14.157  0.0631 -0.0393  0.8213
 3930SOL    HW123249   1.864   1.319  14.234  0.9470  1.1750  0.0631
 3930SOL    HW223250   1.855   1.345  14.080 -0.8014 -0.9480 -0.0951
 3931SOL     OW23251   3.087   0.594   2.853  0.4560  0.4012  0.3390
 3931SOL    HW123252   3.141   0.634   2.785  0.2184  1.3771  0.7157
 3931SOL    HW223253   3.148   0.595   2.926 -0.6865 -2.7678  1.3297
 3932SOL     OW23254   2.038   2.017   3.124 -0.3607  0.4647  0.1973
 3932SOL    HW123255   2.128   2.046   3.134 -0.0369 -0.0103 -1.3545
 3932SOL    HW223256   2.021   2.032   3.217 -0.4446  0.3896  0.1938
 3933SOL     OW23257   1.697   3.214   7.268  0.1434  0.1023  0.8520
 3933SOL    HW123258   1.655   3.296   7.241  0.5728  0.3586  0.9584
 3933SOL    HW223259   1.789   3.239   7.272  1.2897 -3.7093 -1.4506
 3934SOL     OW23260   0.739   2.350   5.258  0.1250 -1.0004  0.5597
 3934SOL    HW123261   0.792   2.422   5.291 -0.1029 -0.9334  0.7849
 3934SOL    HW223262   0.803   2.283   5.239 -0.0919 -0.4045 -2.2684
 3935SOL     OW23263   0.329   2.243  12.826  0.4034 -0.2719 -0.5127
 3935SOL    HW123264   0.347   2.329  12.862 -0.3287 -1.7046  3.2601
 3935SOL    HW223265   0.322   2.262  12.732 -2.0414 -0.4768 -0.3890
 3936SOL     OW23266   0.176   0.303   8.066 -0.2657 -0.5595 -0.3860
 3936SOL    HW123267   0.110   0.280   8.000 -0.4300  0.1104 -0.4527
 3936SOL    HW223268   0.170   0.398   8.070  0.9240 -0.4952 -0.2495
 3937SOL     OW23269   3.740   4.706   6.172 -0.1418  0.3740  0.0758
 3937SOL    HW123270   3.677   0.043   6.205 -1.5866 -1.5412  1.0819
 3937SOL    HW223271   3.676   4.661   6.116 -0.3062 -0.8557  1.2392
 3938SOL     OW23272   3.583   2.677  13.151  0.2050  0.2348  0.3707
 3938SOL    HW123273   3.539   2.642  13.229  1.6691  0.6491  1.3699
 3938SOL    HW223274   3.674   2.657  13.172 -0.7059 -4.4284 -0.2036
 3939SOL     OW23275   3.971   1.885  10.764  0.1244 -0.4878 -0.1007
 3939SOL    HW123276   3.965   1.909  10.857 -0.6338  0.4987 -0.4082
 3939SOL    HW223277   3.893   1.831  10.773  0.7555 -1.3997 -0.1306
 3940SOL     OW23278   2.015   0.828   8.550  0.1117 -0.1329 -0.0851
 3940SOL    HW123279   1.958   0.904   8.564  0.5805  0.2974 -0.5176
 3940SOL    HW223280   1.949   0.784   8.498 -0.5740 -0.9750  1.4827
 3941SOL     OW23281   2.002   3.353   2.638  0.0866 -0.1645 -0.1448
 3941SOL    HW123282   1.974   3.375   2.727 -0.4227  2.3398 -0.9086
 3941SOL    HW223283   2.060   3.279   2.656 -0.0210 -0.2828 -0.2911
 3942SOL     OW23284   3.683   2.193  16.779 -0.5994  0.0252 -0.7244
 3942SOL    HW123285   3.765   2.240  16.766 -1.0436  0.9883 -0.0833
 3942SOL    HW223286   3.615   2.257  16.756 -1.3152 -0.8039 -0.9424
 3943SOL     OW23287   3.609   3.228  16.438  0.1270  0.1746 -0.2065
 3943SOL    HW123288   3.610   3.137  16.408 -0.6534  0.6403 -1.6340
 3943SOL    HW223289   3.521   3.260  16.418 -0.2774 -0.8000 -0.0144
 3944SOL     OW23290   2.556   3.118  16.139  0.1060 -0.1822  0.2517
 3944SOL    HW123291   2.609   3.189  16.104 -0.2797 -0.1143 -0.2002
 3944SOL    HW223292   2.564   3.058  16.064  1.2628  0.6259 -0.2745
 3945SOL     OW23293   2.777   2.765   6.160  0.4627  0.0733  0.2011
 3945SOL    HW123294   2.820   2.707   6.223 -0.5724 -0.7598  0.1340
 3945SOL    HW223295   2.684   2.751   6.180  0.0169  1.6041 -0.8212
 3946SOL     OW23296   0.596   4.526   5.579  0.3796  0.4197 -0.3484
 3946SOL    HW123297   0.689   4.502   5.583  0.4747  0.9528  0.5931
 3946SOL    HW223298   0.594   4.616   5.611  1.4318  0.1105  0.5765
 3947SOL     OW23299   3.253   0.106   0.453  0.2272 -0.2747  0.4808
 3947SOL    HW123300   3.291   0.048   0.520 -0.3113  0.9029  1.8067
 3947SOL    HW223301   3.301   0.187   0.471  2.2509 -1.6087  1.0975
 3948SOL     OW23302   0.253   1.833   3.310 -0.0036 -0.1290  0.2272
 3948SOL    HW123303   0.204   1.887   3.247  1.5404  0.1176 -0.7462
 3948SOL    HW223304   0.341   1.869   3.320 -0.5384  0.6501  2.0537
 3949SOL     OW23305   0.401   0.479  11.086 -0.3908 -0.3778  0.1888
 3949SOL    HW123306   0.398   0.460  10.992  1.1296  2.0732 -0.3591
 3949SOL    HW223307   0.313   0.511  11.102 -0.1321  1.5157 -2.0754
 3950SOL     OW23308   3.985   3.435   7.998  0.7006  0.1145  0.0287
 3950SOL    HW123309   3.949   3.522   7.983 -0.4865 -0.0789  1.7494
 3950SOL    HW223310   3.931   3.391   7.932  1.3995 -2.2317  1.0038
 3951SOL     OW23311   1.270   3.154   3.650 -0.1374  0.0404 -0.4344
 3951SOL    HW123312   1.199   3.206   3.611 -0.6430  2.0365  3.1376
 3951SOL    HW223313   1.317   3.216   3.706  2.1823  0.1631 -2.5000
 3952SOL     OW23314   3.288   4.167   7.222 -0.1713 -0.5765 -0.0436
 3952SOL    HW123315   3.217   4.219   7.183  1.4142  0.5337 -1.4697
 3952SOL    HW223316   3.291   4.204   7.311  3.7129 -1.4323  0.1453
 3953SOL     OW23317   3.269   2.756   7.100 -0.3396  0.2462  0.3458
 3953SOL    HW123318   3.341   2.698   7.077  0.3964  0.4563  2.1424
 3953SOL    HW223319   3.289   2.789   7.187 -0.9083 -2.0073  1.3272
 3954SOL     OW23320   1.492   4.255   5.349  0.0571  0.1533  0.3823
 3954SOL    HW123321   1.562   4.289   5.403 -2.1732  1.4027  2.4618
 3954SOL    HW223322   1.419   4.279   5.405  0.3067  2.6218 -0.3760
 3955SOL     OW23323   4.167   0.419  14.303 -0.0294 -0.2555 -0.2727
 3955SOL    HW123324   4.180   0.442  14.211 -0.1338 -2.3675 -0.8291
 3955SOL    HW223325   4.074   0.396  14.300 -0.3271  0.7374  1.6615
 3956SOL     OW23326   1.914   0.038   7.821  0.0947 -0.0961  0.5064
 3956SOL    HW123327   1.862   0.000   7.892  2.1824 -0.6348  1.7323
 3956SOL    HW223328   1.879   0.127   7.820 -0.3302 -0.2445  1.8062
 3957SOL     OW23329   4.094   0.139   6.811 -0.5986 -0.0926 -0.1186
 3957SOL    HW123330   4.038   0.068   6.844 -0.1935 -0.4212 -0.1353
 3957SOL    HW223331   4.146   0.081   6.756  1.3038  0.1295  1.4154
 3958SOL     OW23332   0.546   0.133   5.171 -0.2667  0.1837 -0.0231
 3958SOL    HW123333   0.540   0.140   5.266 -2.9445  0.6247 -0.2081
 3958SOL    HW223334   0.482   0.063   5.156  1.3465 -1.0369 -1.1318
 3959SOL     OW23335   2.749   1.828   0.709  0.0132 -0.2057  0.4150
 3959SOL    HW123336   2.720   1.912   0.673 -2.0095 -0.7066  0.8942
 3959SOL    HW223337   2.706   1.765   0.651  0.1745 -0.5867  0.7083
 3960SOL     OW23338   2.933   3.665  10.518 -0.7737 -0.0540 -0.1500
 3960SOL    HW123339   2.994   3.729  10.482 -0.2085  0.0270  0.9657
 3960SOL    HW223340   2.952   3.587  10.466 -1.2837 -0.3302  0.0801
 3961SOL     OW23341   1.789   3.752  12.682  0.3603 -0.2899  0.3371
 3961SOL    HW123342   1.747   3.730  12.765  0.5849  1.1590  0.8257
 3961SOL    HW223343   1.836   3.834  12.698  0.5880 -0.4931  0.7200
 3962SOL     OW23344   2.965   4.086  16.086  0.1300  0.2800  0.3116
 3962SOL    HW123345   2.931   4.073  15.997  0.5467  0.1236  0.1767
 3962SOL    HW223346   2.926   4.019  16.141  1.0498  0.6550  1.4089
 3963SOL     OW23347   3.337   4.629  11.144 -0.1896  0.1463  0.0471
 3963SOL    HW123348   3.413   4.604  11.092  0.7086  0.0966  1.3807
 3963SOL    HW223349   3.322   4.713  11.100 -0.9566  0.4166  0.8175
 3964SOL     OW23350   0.613   1.946   9.348 -0.5666  0.0808  0.5955
 3964SOL    HW123351   0.633   1.853   9.346 -0.1760  0.1888 -0.5891
 3964SOL    HW223352   0.552   1.961   9.420 -1.3417  1.4522 -0.3586
 3965SOL     OW23353   2.974   2.465   9.802 -0.2491  0.3012 -0.6134
 3965SOL    HW123354   3.038   2.525   9.839 -0.2464 -0.3906  0.5139
 3965SOL    HW223355   3.009   2.451   9.714  1.6185  1.4207 -0.0487
 3966SOL     OW23356   4.421   1.596   3.906  0.4389  0.1321  0.4257
 3966SOL    HW123357   4.498   1.550   3.873  0.4104 -0.4549  1.1719
 3966SOL    HW223358   4.416   1.675   3.851 -0.5745 -0.8996 -0.9462
 3967SOL     OW23359   3.452   4.353   3.412  0.2095 -0.1538  0.5446
 3967SOL    HW123360   3.425   4.297   3.485 -0.7149  1.7617  1.6690
 3967SOL    HW223361   3.391   4.319   3.347 -0.9395  1.4996  0.7427
 3968SOL     OW23362   2.862   0.289   7.444 -0.1745  0.1357  0.2407
 3968SOL    HW123363   2.886   0.211   7.494  1.5052 -1.2053 -2.6269
 3968SOL    HW223364   2.944   0.319   7.406 -0.4146 -1.6618 -1.6589
 3969SOL     OW23365   3.161   1.874   3.245 -0.2633 -0.0511 -0.4431
 3969SOL    HW123366   3.156   1.949   3.305 -2.2003 -0.3291 -0.2700
 3969SOL    HW223367   3.136   1.917   3.164 -1.4568  0.7557  0.3558
 3970SOL     OW23368   1.806   3.490   1.221 -0.2193  0.5692 -0.2847
 3970SOL    HW123369   1.876   3.531   1.168  0.7374 -2.2951 -1.2231
 3970SOL    HW223370   1.799   3.401   1.188 -0.2437  0.4564  0.0285
 3971SOL     OW23371   4.329   3.349  15.689  0.5052  0.4516 -0.2111
 3971SOL    HW123372   4.417   3.311  15.687 -0.1502 -1.0410 -0.7400
 3971SOL    HW223373   4.283   3.304  15.618  0.6582 -1.3265  0.7991
 3972SOL     OW23374   3.584   1.804   7.893 -0.2160  0.2748 -0.0657
 3972SOL    HW123375   3.573   1.714   7.922 -0.0795  0.9265  1.9716
 3972SOL    HW223376   3.659   1.834   7.945  0.1691 -0.5787 -0.1318
 3973SOL     OW23377   2.721   1.105   5.843  0.2192  0.6817 -0.0670
 3973SOL    HW123378   2.655   1.109   5.774 -1.7715  0.2323  1.8312
 3973SOL    HW223379   2.734   1.013   5.863  0.6392  0.7722  0.0822
 3974SOL     OW23380   3.082   0.627   1.092 -0.4378 -0.9306 -0.1328
 3974SOL    HW123381   3.048   0.641   1.181 -1.4360  1.6560 -0.9186
 3974SOL    HW223382   3.166   0.670   1.107 -1.1902  0.2944  0.5295
 3975SOL     OW23383   3.651   0.431   5.164 -0.5714  0.1538 -0.4246
 3975SOL    HW123384   3.721   0.440   5.229  0.0171 -1.1119 -0.8736
 3975SOL    HW223385   3.650   0.517   5.121  1.5431  1.1283  1.4709
 3976SOL     OW23386   3.409   4.081   8.858  0.0324  0.0108 -0.0751
 3976SOL    HW123387   3.382   4.090   8.767  0.8219 -0.2891 -0.3410
 3976SOL    HW223388   3.463   4.159   8.870 -2.1134  1.2812  1.2692
 3977SOL     OW23389   4.621   1.875   7.232  0.0784 -0.0542  0.7088
 3977SOL    HW123390   4.576   1.794   7.255 -0.2412  0.3896  1.6702
 3977SOL    HW223391   4.648   1.916   7.315 -0.1534  0.1912  0.6626
 3978SOL     OW23392   0.734   1.164  10.142 -0.0554 -0.4052  0.3300
 3978SOL    HW123393   0.756   1.238  10.086  1.1932 -2.3514 -1.7513
 3978SOL    HW223394   0.638   1.163  10.140 -0.0941  0.6382  1.6529
 3979SOL     OW23395   0.654   4.351   5.325 -0.3329  0.1114  0.2474
 3979SOL    HW123396   0.643   4.421   5.391  2.4531 -1.5758  2.5264
 3979SOL    HW223397   0.716   4.296   5.373 -0.9219 -1.5556 -0.9078
 3980SOL     OW23398   2.113   2.657   1.518  1.1139 -0.1692 -0.6095
 3980SOL    HW123399   2.058   2.727   1.483  2.4404  1.1332 -0.0979
 3980SOL    HW223400   2.154   2.622   1.438  0.5518  1.5986 -1.6875
 3981SOL     OW23401   0.152   2.863   7.328  0.0169  0.0761  0.2998
 3981SOL    HW123402   0.218   2.915   7.374 -2.4430  1.5554  2.2157
 3981SOL    HW223403   0.174   2.888   7.238  0.0851 -1.2668 -0.0535
 3982SOL     OW23404   0.055   0.621   3.062 -0.5399 -0.1187 -0.2375
 3982SOL    HW123405   0.095   0.678   3.128  1.1305 -1.8507  0.2428
 3982SOL    HW223406   4.695   0.650   3.035 -0.3857  1.2859  0.7687
 3983SOL     OW23407   1.697   2.900   8.825 -0.0665  0.6965 -0.1471
 3983SOL    HW123408   1.640   2.842   8.773 -0.1738  0.8995 -0.2569
 3983SOL    HW223409   1.741   2.944   8.752  3.3472 -3.1403 -0.3836
 3984SOL     OW23410   1.160   1.851   6.815 -0.0737  0.3226  0.6794
 3984SOL    HW123411   1.121   1.917   6.872  1.4214  0.2201  1.7997
 3984SOL    HW223412   1.098   1.778   6.821 -1.4881  1.3927 -0.8504
 3985SOL     OW23413   0.188   4.652   6.633 -0.8995  0.1009  0.6124
 3985SOL    HW123414   0.129   4.578   6.620  0.6239 -1.1473  0.7971
 3985SOL    HW223415   0.156   4.670   6.722 -1.3679  0.9915  0.2683
 3986SOL     OW23416   1.406   2.804  12.671  0.3244  0.6862 -0.0406
 3986SOL    HW123417   1.452   2.766  12.596  1.1415 -0.1615  0.8914
 3986SOL    HW223418   1.316   2.772  12.667  0.4227  0.4632 -0.4401
 3987SOL     OW23419   1.851   2.029   9.245 -0.1723 -0.7389 -0.4442
 3987SOL    HW123420   1.787   2.099   9.251 -1.8170 -2.4318  1.6939
 3987SOL    HW223421   1.820   1.961   9.305 -0.8008  1.3765  1.6020
 3988SOL     OW23422   2.451   3.857   9.015 -0.3258  0.5073  0.0891
 3988SOL    HW123423   2.355   3.849   9.012 -0.3479  0.0478  2.0869
 3988SOL    HW223424   2.470   3.765   9.034  1.5510  0.9571  0.3413
 3989SOL     OW23425   2.072   0.236   3.646 -0.5933  0.5811 -0.1602
 3989SOL    HW123426   2.061   0.322   3.604  0.4266  0.9593  0.3434
 3989SOL    HW223427   2.106   0.259   3.732  1.2018 -1.6100 -0.3006
 3990SOL     OW23428   2.893   4.004   5.963 -0.0686  0.4187  0.0607
 3990SOL    HW123429   2.919   3.958   5.882  0.0068  1.3911 -0.4614
 3990SOL    HW223430   2.847   3.936   6.013  0.4435 -0.6673 -0.9221
 3991SOL     OW23431   0.666   2.021   6.359  0.5741  0.1601  0.0986
 3991SOL    HW123432   0.688   1.941   6.311  1.0551 -0.4643  1.3728
 3991SOL    HW223433   0.752   2.063   6.361  0.3714  0.5475  0.5581
 3992SOL     OW23434   3.737   1.327   7.001  0.4355  0.0082  0.2985
 3992SOL    HW123435   3.712   1.414   6.969 -1.6524 -1.1311 -1.1568
 3992SOL    HW223436   3.831   1.338   7.018  0.6955  3.3362 -3.2085
 3993SOL     OW23437   1.433   0.409   5.180 -0.0759 -0.5233  0.4259
 3993SOL    HW123438   1.500   0.353   5.141 -0.2255 -0.6527  0.3528
 3993SOL    HW223439   1.448   0.391   5.273  1.5049  0.8902  0.4341
 3994SOL     OW23440   4.183   3.853   8.045 -0.5452 -0.0779  0.1794
 3994SOL    HW123441   4.255   3.914   8.061  0.0234 -0.4973 -0.7618
 3994SOL    HW223442   4.123   3.874   8.117 -1.2264  0.6638 -0.6000
 3995SOL     OW23443   3.346   4.181  13.857  0.1742 -0.5384  0.2554
 3995SOL    HW123444   3.394   4.264  13.855  1.4180 -1.2711 -0.1988
 3995SOL    HW223445   3.311   4.183  13.946 -0.4014 -0.6540  0.0302
 3996SOL     OW23446   3.776   0.936   1.376  0.2299  0.1016  0.3943
 3996SOL    HW123447   3.715   0.864   1.390 -0.8831  1.3029  1.8107
 3996SOL    HW223448   3.742   0.968   1.293 -1.1907 -0.5186  0.7421
 3997SOL     OW23449   3.252   0.485   8.458 -0.8127  0.0011 -0.0056
 3997SOL    HW123450   3.260   0.547   8.385  1.7832 -0.1297  0.1951
 3997SOL    HW223451   3.274   0.545   8.530 -0.6396 -0.8064  0.6070
 3998SOL     OW23452   3.318   4.321  12.291  0.0785 -0.5070 -0.0921
 3998SOL    HW123453   3.308   4.274  12.207 -0.6634 -3.1419  1.4571
 3998SOL    HW223454   3.280   4.258  12.352 -0.5400  1.8735  1.9453
 3999SOL     OW23455   1.508   0.101   0.896  0.8133 -0.6266 -0.2801
 3999SOL    HW123456   1.417   0.088   0.920  0.8332  1.9393  1.1280
 3999SOL    HW223457   1.532   0.182   0.941  0.6893 -1.2893  0.9842
 4000SOL     OW23458   1.917   2.747   9.645 -0.4158 -0.9090 -0.6814
 4000SOL    HW123459   1.825   2.725   9.635 -1.3949  2.8019  0.0958
 4000SOL    HW223460   1.963   2.692   9.581 -0.8608 -1.8102 -0.2107
 4001SOL     OW23461   4.712   3.771   5.923  0.0030  0.2110  0.0401
 4001SOL    HW123462   0.046   3.761   5.851  3.4269 -0.4695  3.0426
 4001SOL    HW223463   4.630   3.748   5.881  0.8520  0.6823 -1.8648
 4002SOL     OW23464   0.452   2.075   5.475  0.1756 -0.1367 -0.3397
 4002SOL    HW123465   0.423   2.123   5.553  0.2943 -1.5459  0.5678
 4002SOL    HW223466   0.518   2.024   5.521 -1.3572 -1.7511  0.0729
 4003SOL     OW23467   3.800   3.647   7.994  0.7604 -0.0897 -0.3687
 4003SOL    HW123468   3.802   3.705   8.070 -3.2301  0.7090 -0.8687
 4003SOL    HW223469   3.726   3.677   7.941  0.2875  1.2128  1.0462
 4004SOL     OW23470   4.395   3.575  10.744 -1.0462 -0.3840  0.0690
 4004SOL    HW123471   4.346   3.521  10.806 -0.0615  1.0432  2.0743
 4004SOL    HW223472   4.454   3.617  10.806 -0.5352 -1.6536  0.4439
 4005SOL     OW23473   4.672   4.268   7.420 -0.3280 -0.6592 -0.3150
 4005SOL    HW123474   4.578   4.270   7.436 -0.1988 -1.8054  0.5751
 4005SOL    HW223475   4.677   4.364   7.417  2.7358 -0.8600 -1.8138
 4006SOL     OW23476   1.448   1.511   2.134 -0.3493  0.3899 -0.4182
 4006SOL    HW123477   1.363   1.537   2.099  0.3489  2.0917 -0.8611
 4006SOL    HW223478   1.438   1.565   2.213 -1.2639  1.9200 -1.5894
 4007SOL     OW23479   4.668   2.098   6.622  0.1925  0.2502 -0.5007
 4007SOL    HW123480   0.022   2.069   6.582 -0.9261 -2.9836 -0.4692
 4007SOL    HW223481   4.604   2.031   6.600 -1.5555  0.8196  2.8564
 4008SOL     OW23482   4.528   0.646   2.176 -0.1874  0.0706 -0.4244
 4008SOL    HW123483   4.485   0.568   2.213 -3.4995  1.3161 -1.6972
 4008SOL    HW223484   4.475   0.654   2.097  0.6700  1.1766 -0.8789
 4009SOL     OW23485   2.811   4.114   9.385  0.0429  0.8135  0.2560
 4009SOL    HW123486   2.747   4.157   9.442 -0.3023 -1.3762  1.5072
 4009SOL    HW223487   2.758   4.072   9.317  3.4138 -3.2575  0.2021
 4010SOL     OW23488   3.248   4.511   6.151 -0.2705 -0.4599 -0.2899
 4010SOL    HW123489   3.274   4.498   6.060  1.4633  0.9577  0.0071
 4010SOL    HW223490   3.172   4.453   6.159  0.3132 -0.7961  2.9066
 4011SOL     OW23491   2.363   3.750   9.275  0.1198 -0.1540  0.3759
 4011SOL    HW123492   2.304   3.799   9.219  1.8721  1.9421  0.3496
 4011SOL    HW223493   2.384   3.813   9.345  2.3571 -1.8533  1.2407
 4012SOL     OW23494   3.263   4.025  14.967 -0.4044  0.5312 -0.3957
 4012SOL    HW123495   3.272   4.096  15.030 -1.5802  0.8806 -0.6233
 4012SOL    HW223496   3.183   4.050  14.921  0.0289  2.3161 -0.1750
 4013SOL     OW23497   3.684   4.376   5.851  0.0639  0.2332 -0.1109
 4013SOL    HW123498   3.657   4.465   5.873  1.2872  0.8186 -1.0137
 4013SOL    HW223499   3.620   4.312   5.882 -1.0339  0.4505 -1.9308
 4014SOL     OW23500   4.511   4.712  11.251  0.0884 -0.6396 -0.3062
 4014SOL    HW123501   4.464   4.629  11.257  0.0248 -0.4993  1.0495
 4014SOL    HW223502   4.514   4.727  11.156  0.0386 -1.0521 -0.3736
 4015SOL     OW23503   1.682   2.175   4.717 -0.2873  0.1051 -0.4647
 4015SOL    HW123504   1.643   2.169   4.804 -3.7830  0.8270 -2.0019
 4015SOL    HW223505   1.663   2.264   4.690 -1.5551 -0.3852 -1.1915
 4016SOL     OW23506   1.751   4.278   5.458 -0.3479 -0.0998  0.1808
 4016SOL    HW123507   1.786   4.303   5.372 -0.7181  2.1828  0.6889
 4016SOL    HW223508   1.809   4.205   5.477  0.1554  0.3842  0.4865
 4017SOL     OW23509   0.294   3.326   8.589  0.0275 -0.0290 -0.4922
 4017SOL    HW123510   0.275   3.281   8.671  0.6610  1.6646  0.5960
 4017SOL    HW223511   0.375   3.287   8.555  0.3995 -0.8270  1.3088
 4018SOL     OW23512   2.955   2.375   6.654 -0.6706  0.4298  0.2446
 4018SOL    HW123513   2.985   2.327   6.732  0.0085 -0.7957 -0.7697
 4018SOL    HW223514   2.982   2.313   6.587 -0.2670  0.4637  0.3763
 4019SOL     OW23515   1.290   1.301   0.058 -0.4764 -0.2702  0.2881
 4019SOL    HW123516   1.219   1.363   0.042 -0.9011 -0.6270  0.7762
 4019SOL    HW223517   1.362   1.360   0.078 -1.0540 -0.0812  1.8575
 4020SOL     OW23518   0.681   2.355  13.006 -0.0790  0.2751 -0.0808
 4020SOL    HW123519   0.759   2.396  12.970  1.1058  0.7865  3.0168
 4020SOL    HW223520   0.721   2.321  13.086 -0.1485 -1.3249 -0.7347
 4021SOL     OW23521   0.375   4.426  16.059 -0.1888  0.2635  0.7688
 4021SOL    HW123522   0.433   4.503  16.062 -0.6292  0.5609  1.5832
 4021SOL    HW223523   0.398   4.375  16.137  1.7465 -0.0098  0.0276
 4022SOL     OW23524   1.457   3.133   2.214  0.2442 -0.0821  0.0400
 4022SOL    HW123525   1.455   3.094   2.302  0.5086  0.6132  0.3574
 4022SOL    HW223526   1.379   3.092   2.177  0.2269  0.5018 -0.5629
 4023SOL     OW23527   1.835   2.251   6.694  0.1136 -0.3850  0.0952
 4023SOL    HW123528   1.821   2.242   6.600  3.3860 -0.6090 -0.3763
 4023SOL    HW223529   1.797   2.173   6.734 -0.2364  0.6051  1.6878
 4024SOL     OW23530   3.826   0.373   1.215  0.0994  0.1604  0.9185
 4024SOL    HW123531   3.808   0.310   1.284  1.3311 -0.4438  0.6818
 4024SOL    HW223532   3.884   0.323   1.158  0.0639 -1.0499  1.9447
 4025SOL     OW23533   4.221   3.503   1.015  0.5850 -0.7259  0.4336
 4025SOL    HW123534   4.314   3.501   0.991  0.4531  2.4808 -0.3614
 4025SOL    HW223535   4.189   3.417   0.991 -1.1737  0.1839 -0.4472
 4026SOL     OW23536   3.940   2.562   9.127 -0.2986 -0.3028 -0.0469
 4026SOL    HW123537   3.988   2.495   9.078  0.8086  0.3528  0.1348
 4026SOL    HW223538   3.903   2.512   9.200  2.4776 -2.7382 -0.3191
 4027SOL     OW23539   0.331   1.832  10.025 -0.0748  0.0276  0.5833
 4027SOL    HW123540   0.327   1.787   9.941 -0.5885  0.7703  0.2077
 4027SOL    HW223541   0.293   1.766  10.082 -0.1370 -0.7721 -0.3774
 4028SOL     OW23542   1.295   0.329  15.000  0.0083  0.4582  0.2887
 4028SOL    HW123543   1.254   0.386  14.934 -0.7479 -1.7570 -1.1503
 4028SOL    HW223544   1.219   0.318  15.057 -0.8486 -0.4017 -1.0277
 4029SOL     OW23545   0.070   4.311   2.517 -0.8298  0.0426  0.3899
 4029SOL    HW123546   0.047   4.318   2.424 -2.8280 -0.5473  0.8455
 4029SOL    HW223547   0.156   4.353   2.515 -0.2110 -1.2392  0.5949
 4030SOL     OW23548   2.272   1.271   5.540  0.0982 -0.2931 -0.6080
 4030SOL    HW123549   2.244   1.192   5.494 -0.4039 -0.6733  0.3260
 4030SOL    HW223550   2.239   1.336   5.479  1.2639 -0.8492 -1.8142
 4031SOL     OW23551   4.465   3.494   6.768 -0.0323  0.1905  0.1743
 4031SOL    HW123552   4.380   3.452   6.752 -1.2915  1.0971  4.3966
 4031SOL    HW223553   4.465   3.478   6.862  1.7387  2.1184  0.5020
 4032SOL     OW23554   1.160   3.835   4.928  0.4073  0.6001 -0.0867
 4032SOL    HW123555   1.131   3.925   4.944  0.3019  0.5700 -0.1077
 4032SOL    HW223556   1.227   3.824   4.996 -2.3156  0.3948  2.5449
 4033SOL     OW23557   4.517   2.115  13.428 -0.2935 -1.2277  0.1382
 4033SOL    HW123558   4.510   2.025  13.398  1.5361 -1.6238  0.9221
 4033SOL    HW223559   4.445   2.119  13.491  0.4568 -3.0089  1.0787
 4034SOL     OW23560   3.523   3.547  12.263 -0.3005 -0.3023  0.2173
 4034SOL    HW123561   3.516   3.471  12.321 -2.0954  0.6136  1.2012
 4034SOL    HW223562   3.441   3.549  12.214 -0.3424  1.4904  0.3764
 4035SOL     OW23563   1.181   3.806   8.623 -0.3484  0.4413  0.0678
 4035SOL    HW123564   1.252   3.778   8.680 -1.0505 -0.8086  0.3347
 4035SOL    HW223565   1.115   3.737   8.627 -0.8008  0.8115 -1.1379
 4036SOL     OW23566   4.389   2.507  13.556  0.3443  0.3437 -0.2755
 4036SOL    HW123567   4.349   2.483  13.472  1.3467 -0.8367 -0.4227
 4036SOL    HW223568   4.476   2.535  13.525  0.3087  0.0952 -0.6099
 4037SOL     OW23569   1.987   1.924  16.292 -0.1119 -0.7516  0.5684
 4037SOL    HW123570   2.029   1.974  16.222 -1.5723 -1.3606 -0.7462
 4037SOL    HW223571   2.044   1.920  16.368  1.8976  2.2257 -0.7893
 4038SOL     OW23572   4.647   0.251   7.912 -0.3380  0.1799  0.1819
 4038SOL    HW123573   4.567   0.297   7.936 -1.2105 -1.8334  1.1275
 4038SOL    HW223574   4.615   0.178   7.858 -0.4541  0.5118 -0.1956
 4039SOL     OW23575   1.040   1.984   6.042  0.3674 -0.3257  0.1421
 4039SOL    HW123576   1.084   1.952   6.121  2.3500 -0.0654 -0.8688
 4039SOL    HW223577   1.003   1.904   6.004  1.0031 -0.0301 -1.1001
 4040SOL     OW23578   4.665   0.772   4.340  0.0452  0.0623 -0.4243
 4040SOL    HW123579   4.583   0.738   4.304  0.4567  0.0512 -1.3237
 4040SOL    HW223580   4.724   0.763   4.266  1.3359 -2.9160  0.9741
 4041SOL     OW23581   3.111   4.246   6.439 -0.2951 -0.2679  0.0920
 4041SOL    HW123582   3.105   4.264   6.345 -2.8388 -1.5537  0.0206
 4041SOL    HW223583   3.020   4.241   6.466  0.6080  1.1909  3.4011
 4042SOL     OW23584   1.978   2.093   7.894  0.2554  0.0562  0.1373
 4042SOL    HW123585   2.051   2.066   7.950 -1.9145 -1.6703  2.1047
 4042SOL    HW223586   2.024   2.075   7.812  0.6297 -1.8159  0.7441
 4043SOL     OW23587   0.062   2.628   3.023  0.3449 -0.3582  0.0779
 4043SOL    HW123588   0.080   2.654   2.932 -0.4970  1.2183  0.3589
 4043SOL    HW223589   0.085   2.702   3.078 -1.2293  0.4007 -0.2748
 4044SOL     OW23590   3.027   0.614  17.611  0.5450  0.0247  0.4034
 4044SOL    HW123591   3.077   0.565  17.676  0.9498 -1.1127 -0.7481
 4044SOL    HW223592   3.038   0.570  17.526  3.1081 -1.3493  1.4363
 4045SOL     OW23593   1.282   0.713  13.136 -0.0187  0.7627 -0.3155
 4045SOL    HW123594   1.309   0.684  13.048  0.4218 -2.4713  0.8666
 4045SOL    HW223595   1.293   0.808  13.134  2.4577  0.3861 -4.0183
 4046SOL     OW23596   2.851   1.780   6.839  0.1248 -0.2843  0.1863
 4046SOL    HW123597   2.812   1.808   6.756  0.2401 -1.0427 -0.1191
 4046SOL    HW223598   2.852   1.866   6.882 -1.6084 -0.2320  0.1511
 4047SOL     OW23599   1.276   4.009  14.295 -0.3590  0.3823  0.0269
 4047SOL    HW123600   1.305   4.044  14.380 -1.7747  2.0797 -0.1887
 4047SOL    HW223601   1.187   3.988  14.323 -0.4983 -2.0831 -2.2758
 4048SOL     OW23602   1.267   4.586   4.320 -0.7847 -0.0483 -0.0171
 4048SOL    HW123603   1.243   4.678   4.306 -0.6720 -0.1135 -0.6725
 4048SOL    HW223604   1.310   4.554   4.240  1.5960  0.4786  1.0572
 4049SOL     OW23605   3.001   4.554   0.668  0.5550  0.1457  0.8574
 4049SOL    HW123606   3.023   4.636   0.711 -2.2630  0.4630  1.6897
 4049SOL    HW223607   2.966   4.588   0.585  0.6913 -1.4613  0.1388
 4050SOL     OW23608   2.703   0.482   0.276 -0.4157  0.0275  0.0541
 4050SOL    HW123609   2.783   0.535   0.278  0.2071 -1.0037  3.2907
 4050SOL    HW223610   2.640   0.531   0.330 -1.9394  0.0999 -1.8036
 4051SOL     OW23611   2.698   0.691   1.842 -0.1575 -0.3536 -0.3334
 4051SOL    HW123612   2.742   0.763   1.796  1.5866 -0.1087  1.7126
 4051SOL    HW223613   2.701   0.703   1.937 -1.5783 -1.6096 -0.1393
 4052SOL     OW23614   3.716   3.804   4.053  0.1390  1.0592 -0.1519
 4052SOL    HW123615   3.627   3.835   4.069 -0.1479  0.4772 -0.6733
 4052SOL    HW223616   3.696   3.743   3.983 -0.0899  0.9512  0.0081
 4053SOL     OW23617   3.929   2.104   3.249  0.1617  0.3305 -0.1599
 4053SOL    HW123618   4.017   2.136   3.231 -0.4513  2.0218 -0.0600
 4053SOL    HW223619   3.947   2.015   3.280 -0.9046 -0.3669 -1.5367
 4054SOL     OW23620   0.105   3.017   7.919  0.7021  0.3547  0.3634
 4054SOL    HW123621   0.098   2.938   7.972 -1.5718 -0.1226 -0.6723
 4054SOL    HW223622   0.197   3.029   7.894  0.6293 -0.0381 -0.1073
 4055SOL     OW23623   1.123   0.726   1.228  0.2679  0.7437 -0.6491
 4055SOL    HW123624   1.120   0.766   1.141  0.8444  3.0682  0.3774
 4055SOL    HW223625   1.212   0.690   1.230 -1.1122 -2.4659  2.4840
 4056SOL     OW23626   2.017   1.055   5.075 -0.3976 -0.3416  0.1232
 4056SOL    HW123627   2.081   1.063   5.004  0.2274  0.0441  0.7382
 4056SOL    HW223628   2.013   1.136   5.125 -0.3340  0.0709 -0.5380
 4057SOL     OW23629   1.296   1.666   4.345 -0.1375 -0.2769 -0.0815
 4057SOL    HW123630   1.304   1.703   4.257 -1.2457  0.3628  0.0795
 4057SOL    HW223631   1.356   1.592   4.350  0.9095  0.5622 -0.3419
 4058SOL     OW23632   3.685   1.004   4.197 -0.8340  0.0090 -0.0784
 4058SOL    HW123633   3.696   0.914   4.164  2.0386  0.2317  0.3513
 4058SOL    HW223634   3.598   1.025   4.162 -1.2767 -2.8718 -0.7654
 4059SOL     OW23635   1.813   1.628  16.933  0.2905 -0.4989 -0.3647
 4059SOL    HW123636   1.903   1.604  16.955  0.5620  1.9584  1.2114
 4059SOL    HW223637   1.767   1.619  17.017 -0.8375 -2.1464 -1.1618
 4060SOL     OW23638   3.596   4.602   8.397 -0.1907  0.5912  0.1523
 4060SOL    HW123639   3.671   4.657   8.419 -0.1786  0.1031  1.3481
 4060SOL    HW223640   3.528   4.668   8.387 -0.5831  0.1603 -0.0299
 4061SOL     OW23641   1.065   3.799   5.860 -0.4996 -0.5980  0.1902
 4061SOL    HW123642   1.142   3.815   5.914  0.7842 -2.0543 -1.1819
 4061SOL    HW223643   1.042   3.710   5.889  0.0390 -0.6092  0.5666
 4062SOL     OW23644   0.381   3.459   6.090 -0.3869  0.3762 -0.2330
 4062SOL    HW123645   0.414   3.397   6.025  0.6275 -0.0272  0.6544
 4062SOL    HW223646   0.407   3.538   6.044  0.4214  0.3341  0.1475
 4063SOL     OW23647   2.843   2.512  11.348  0.4809 -0.3903  0.0696
 4063SOL    HW123648   2.935   2.537  11.340 -0.0303  1.4712  0.1013
 4063SOL    HW223649   2.820   2.550  11.433  1.9467  0.4900  0.0785
 4064SOL     OW23650   4.166   1.995   8.422  0.8924  0.2763  0.0276
 4064SOL    HW123651   4.132   2.070   8.470  0.3599  0.5523 -0.7710
 4064SOL    HW223652   4.192   2.033   8.338 -1.9681  0.1198 -0.9462
 4065SOL     OW23653   1.051   1.063   3.908 -0.2262  0.3492  0.4288
 4065SOL    HW123654   0.968   1.039   3.867 -0.0146 -0.2682  0.3622
 4065SOL    HW223655   1.083   1.129   3.846 -0.0784  0.2836  0.4346
 4066SOL     OW23656   3.589   1.698  15.868 -0.6889 -0.0940  0.0451
 4066SOL    HW123657   3.616   1.789  15.853  3.0266 -1.3585 -0.8208
 4066SOL    HW223658   3.565   1.661  15.783 -1.1712 -1.7959  0.9285
 4067SOL     OW23659   4.418   3.658   3.411  0.6221 -0.4606  0.2000
 4067SOL    HW123660   4.374   3.652   3.326 -0.9757  0.3635  0.9639
 4067SOL    HW223661   4.424   3.754   3.418 -2.4633 -0.1627 -1.1117
 4068SOL     OW23662   3.178   4.412   3.709  0.3781  0.3944  1.0989
 4068SOL    HW123663   3.249   4.382   3.766  1.7001 -0.1902 -0.8554
 4068SOL    HW223664   3.176   4.327   3.664 -0.1325 -0.1827  2.2179
 4069SOL     OW23665   4.413   1.686  10.737  0.2585 -0.1154  0.2890
 4069SOL    HW123666   4.426   1.621  10.806  0.1219  0.6109  1.0078
 4069SOL    HW223667   4.469   1.658  10.665  0.3496 -0.1769  0.3843
 4070SOL     OW23668   1.182   0.833   3.536  0.2031 -0.2855 -0.1392
 4070SOL    HW123669   1.263   0.784   3.520  1.0399  1.1479 -0.2540
 4070SOL    HW223670   1.156   0.794   3.619 -0.6003  0.0196 -0.2467
 4071SOL     OW23671   1.158   1.574   2.471 -0.0068 -0.0592 -0.1185
 4071SOL    HW123672   1.065   1.554   2.486 -0.4309  0.0183 -2.5942
 4071SOL    HW223673   1.200   1.534   2.547 -2.9236 -0.4579  1.3146
 4072SOL     OW23674   4.177   0.503   2.892 -0.3967 -0.3196  0.5423
 4072SOL    HW123675   4.144   0.480   2.805 -0.5672  0.5023  0.3916
 4072SOL    HW223676   4.200   0.419   2.933 -2.8776 -1.4205 -0.2690
 4073SOL     OW23677   3.951   4.231  11.950 -0.1823 -0.2457 -0.1567
 4073SOL    HW123678   3.876   4.268  11.997  0.8213 -0.2149  1.4189
 4073SOL    HW223679   3.955   4.138  11.973  1.2103 -0.2323 -0.3569
 4074SOL     OW23680   2.851   3.344   4.644 -0.1214 -0.4846 -0.2351
 4074SOL    HW123681   2.771   3.291   4.635 -0.8679  0.2277  2.2110
 4074SOL    HW223682   2.858   3.337   4.739 -0.7806 -0.6657 -0.1960
 4075SOL     OW23683   2.299   0.186   8.884  0.4756  0.3792 -0.3094
 4075SOL    HW123684   2.227   0.215   8.829 -0.1043 -1.2005 -0.3706
 4075SOL    HW223685   2.372   0.226   8.837  0.0342  2.5150  0.8071
 4076SOL     OW23686   4.579   2.066   7.919  0.7360 -0.1092 -0.1370
 4076SOL    HW123687   4.591   2.081   8.012 -0.8250 -0.5271  0.1382
 4076SOL    HW223688   4.663   2.023   7.901  1.8577  3.1370 -2.6666
 4077SOL     OW23689   1.610   0.459  13.875 -0.3292  0.0475  0.4642
 4077SOL    HW123690   1.699   0.491  13.889 -0.6759  1.7541 -1.1538
 4077SOL    HW223691   1.558   0.517  13.931  0.4048 -1.1259  2.3483
 4078SOL     OW23692   4.376   2.428   3.394 -0.2131 -0.6643 -0.0661
 4078SOL    HW123693   4.406   2.384   3.315  0.1184 -0.1034 -0.2547
 4078SOL    HW223694   4.383   2.521   3.370  1.3242 -1.0388 -1.0836
 4079SOL     OW23695   1.731   3.102   8.538 -0.2236  0.2620 -0.3635
 4079SOL    HW123696   1.682   3.173   8.497 -1.3421 -0.3191 -0.0186
 4079SOL    HW223697   1.697   3.023   8.496  1.3680 -0.4104 -0.3774
 4080SOL     OW23698   3.553   4.698  12.566  0.0837 -0.5675  0.0166
 4080SOL    HW123699   3.472   4.686  12.615  0.1802 -1.7656 -0.1169
 4080SOL    HW223700   3.551   4.619  12.511 -0.2672 -0.3229 -0.3169
 4081SOL     OW23701   3.046   3.310   5.494 -0.0740 -0.3536  0.2648
 4081SOL    HW123702   3.016   3.315   5.585 -0.1354  1.8747  0.1301
 4081SOL    HW223703   3.048   3.401   5.463  1.1600 -0.9243 -1.3348
 4082SOL     OW23704   2.353   2.759   0.852 -0.6872 -0.6596  0.0988
 4082SOL    HW123705   2.360   2.849   0.883 -1.7293 -0.5990  0.1503
 4082SOL    HW223706   2.257   2.753   0.853 -0.7651  0.6177  1.5573
 4083SOL     OW23707   3.187   3.866   9.435  0.2825 -0.4123 -0.1291
 4083SOL    HW123708   3.256   3.926   9.406  0.1203  0.2620  0.8903
 4083SOL    HW223709   3.229   3.792   9.479  2.3819  0.2349 -1.0439
 4084SOL     OW23710   2.349   1.039   3.559 -0.0968  0.3283  0.2679
 4084SOL    HW123711   2.402   0.961   3.541 -1.5405 -0.0396 -2.5386
 4084SOL    HW223712   2.265   0.995   3.542 -0.0544 -0.6311  2.5533
 4085SOL     OW23713   4.396   0.933   3.322 -0.1323  0.0207  0.5812
 4085SOL    HW123714   4.360   0.923   3.410  0.0474 -0.9365  0.5457
 4085SOL    HW223715   4.358   0.859   3.276  0.3845 -0.2766  0.6286
 4086SOL     OW23716   4.326   0.668   6.653 -0.1346 -0.0671  0.3730
 4086SOL    HW123717   4.374   0.615   6.590 -3.8723 -0.9570 -1.7412
 4086SOL    HW223718   4.399   0.721   6.686 -1.2127  3.1800 -2.4441
 4087SOL     OW23719   1.255   1.157   9.102  0.7794 -0.3200  0.2646
 4087SOL    HW123720   1.179   1.169   9.159  1.1282  0.4577  0.5668
 4087SOL    HW223721   1.327   1.182   9.159 -0.7161  1.7548  1.2166
 4088SOL     OW23722   0.869   3.210   7.815 -0.6080  0.0640  0.5644
 4088SOL    HW123723   0.891   3.148   7.885 -0.5672 -1.3113 -0.6581
 4088SOL    HW223724   0.805   3.262   7.862  0.1014  0.2263  1.3620
 4089SOL     OW23725   4.389   3.747   9.698 -0.6362  0.3162 -0.1253
 4089SOL    HW123726   4.299   3.781   9.690 -0.9445 -0.4917 -0.0585
 4089SOL    HW223727   4.399   3.722   9.790 -0.9768 -2.0688 -0.7531
 4090SOL     OW23728   1.068   0.238   3.967  0.5261  0.1418  0.1269
 4090SOL    HW123729   1.013   0.163   3.941 -0.2142  0.9022 -0.5084
 4090SOL    HW223730   1.141   0.198   4.013  0.5328 -0.1685 -0.1527
 4091SOL     OW23731   0.021   2.001   5.443 -0.4207  0.2986 -0.0230
 4091SOL    HW123732   0.008   1.984   5.536  0.5822  0.1806  0.0955
 4091SOL    HW223733   0.075   2.080   5.453  0.2420 -0.0941 -0.4991
 4092SOL     OW23734   4.047   1.784   6.308 -0.0422 -0.1516  0.0075
 4092SOL    HW123735   3.997   1.734   6.243  0.3856  2.7466 -2.5086
 4092SOL    HW223736   3.977   1.810   6.368  1.6677  1.5146  1.2531
 4093SOL     OW23737   4.270   1.938   2.366  0.8600 -0.1543  0.0327
 4093SOL    HW123738   4.203   2.006   2.376  0.7687 -0.3095  0.4587
 4093SOL    HW223739   4.313   1.987   2.296 -1.7343  1.4202 -0.4670
 4094SOL     OW23740   2.230   0.323   4.184  0.0786 -0.3788 -0.1368
 4094SOL    HW123741   2.291   0.312   4.256  0.2742 -0.6724 -0.3461
 4094SOL    HW223742   2.163   0.367   4.236  2.4025 -0.5020  2.9009
 4095SOL     OW23743   0.650   3.958   4.708  0.2301  0.5549  0.0675
 4095SOL    HW123744   0.637   4.042   4.751 -0.8929  0.8774 -0.9315
 4095SOL    HW223745   0.664   3.898   4.782  2.2198  0.5461 -0.3271
 4096SOL     OW23746   2.818   0.094   6.844  0.4873  0.0065  0.1494
 4096SOL    HW123747   2.753   0.026   6.826 -0.1749  0.7132 -0.1593
 4096SOL    HW223748   2.760   0.164   6.813  1.6747 -0.0681 -2.2056
 4097SOL     OW23749   3.650   3.992   2.756  0.5206 -0.0421  0.0969
 4097SOL    HW123750   3.593   3.992   2.833  0.7851  1.8196  0.3024
 4097SOL    HW223751   3.733   4.020   2.795  0.6674 -2.1678  1.3170
 4098SOL     OW23752   2.769   0.948   4.374  0.3095  0.3769  0.0740
 4098SOL    HW123753   2.738   1.004   4.303  0.8202  2.3740  1.4131
 4098SOL    HW223754   2.718   0.868   4.360  2.0502 -1.2083  2.7476
 4099SOL     OW23755   3.034   1.069  17.276  0.1460 -0.3398  0.0864
 4099SOL    HW123756   3.002   1.068  17.185  1.6249  0.1169 -0.4368
 4099SOL    HW223757   2.971   1.123  17.324  0.8267 -1.0256  1.7434
 4100SOL     OW23758   2.612   3.739   2.935  0.1253 -0.0367  0.5245
 4100SOL    HW123759   2.640   3.821   2.975  0.0097 -0.3228  1.1913
 4100SOL    HW223760   2.697   3.712   2.901  0.9771  1.4990  1.4323
 4101SOL     OW23761   1.459   0.837  15.231 -0.1417  0.5641 -0.2952
 4101SOL    HW123762   1.529   0.902  15.223  1.5389 -1.0683  1.0491
 4101SOL    HW223763   1.510   0.757  15.246 -1.0240  0.4273  1.8793
 4102SOL     OW23764   4.387   3.887  16.587  0.3311 -0.1388  0.0408
 4102SOL    HW123765   4.323   3.892  16.659  0.5737  0.8121  0.1890
 4102SOL    HW223766   4.414   3.979  16.584  2.1472 -0.6868 -0.1627
 4103SOL     OW23767   3.326   0.257  11.357 -0.1005 -0.3484  0.4188
 4103SOL    HW123768   3.348   0.345  11.325  1.1736 -0.3782  1.2079
 4103SOL    HW223769   3.412   0.215  11.354  0.6370  1.3000 -1.0817
 4104SOL     OW23770   2.084   3.003  10.597 -0.1891 -0.0790 -0.3008
 4104SOL    HW123771   2.060   3.060  10.525 -4.2638 -1.9032 -0.4492
 4104SOL    HW223772   2.158   3.042  10.642 -0.0000  0.1925 -0.8576
 4105SOL     OW23773   0.591   1.181   0.386  0.4306  0.5731 -0.2344
 4105SOL    HW123774   0.663   1.180   0.450  0.3706  1.9178 -0.1511
 4105SOL    HW223775   0.639   1.138   0.315  0.1907 -4.0875  2.4532
 4106SOL     OW23776   0.935   0.188   0.772 -0.4922  0.0809  0.0299
 4106SOL    HW123777   0.943   0.095   0.792  1.5539  0.4462  0.8928
 4106SOL    HW223778   1.017   0.203   0.725 -2.1666  0.4458 -2.8348
 4107SOL     OW23779   2.884   3.037   7.791  0.0580  0.0959  0.1603
 4107SOL    HW123780   2.835   2.964   7.829  0.3821 -1.2262 -1.9347
 4107SOL    HW223781   2.865   3.025   7.697  1.0871  0.7191 -0.1283
 4108SOL     OW23782   1.720   1.571  17.170 -0.4047 -0.1401  0.3313
 4108SOL    HW123783   1.630   1.563  17.200 -0.6779  0.2585 -0.3681
 4108SOL    HW223784   1.751   1.566  17.260 -1.1621 -1.0521  0.5422
 4109SOL     OW23785   0.029   0.446   7.306  0.5493  0.0915 -0.4138
 4109SOL    HW123786   0.006   0.510   7.373 -0.3904 -0.9590  0.2726
 4109SOL    HW223787   0.085   0.495   7.247  0.4278 -1.1803 -1.5881
 4110SOL     OW23788   0.698   4.418   7.664 -0.0812  0.6954 -0.2913
 4110SOL    HW123789   0.649   4.373   7.595  1.7588 -0.2037 -1.0038
 4110SOL    HW223790   0.728   4.351   7.725  1.6805  0.8972 -0.9513
 4111SOL     OW23791   4.718   0.286   5.759  0.1736 -0.0188 -0.3002
 4111SOL    HW123792   0.056   0.352   5.736 -0.6085  0.7458 -0.3342
 4111SOL    HW223793   0.028   0.208   5.718  1.9218  0.8876 -0.4229
 4112SOL     OW23794   4.198   1.001   8.212  0.5942  0.6238  0.7989
 4112SOL    HW123795   4.127   0.974   8.154  0.2336  2.6087  0.3307
 4112SOL    HW223796   4.254   0.924   8.200 -0.6036  0.4814 -3.8501
 4113SOL     OW23797   2.734   4.689   0.664 -0.1548 -0.3692 -0.1893
 4113SOL    HW123798   2.667   4.694   0.596  0.6103  1.4302 -0.7929
 4113SOL    HW223799   2.801   0.020   0.630  0.8732 -0.8701  0.9570
 4114SOL     OW23800   2.014   2.984   0.573  0.0397 -0.2393  0.0758
 4114SOL    HW123801   2.075   2.970   0.500 -0.0039  0.4594 -0.0982
 4114SOL    HW223802   1.989   3.076   0.562 -0.2275 -0.2425  0.6868
 4115SOL     OW23803   4.479   1.010   4.005  0.8207 -0.3605 -0.0714
 4115SOL    HW123804   4.510   1.064   4.078 -1.8460 -1.1732  1.6576
 4115SOL    HW223805   4.393   0.981   4.035  1.0912 -1.3034 -0.2218
 4116SOL     OW23806   3.706   2.865  15.502 -0.6775 -0.0893 -0.2569
 4116SOL    HW123807   3.644   2.920  15.548  1.1005 -0.5139  2.6549
 4116SOL    HW223808   3.694   2.780  15.546 -0.3035 -0.4273 -0.8107
 4117SOL     OW23809   3.099   2.619  10.459 -0.0171  0.1338 -0.6263
 4117SOL    HW123810   3.186   2.655  10.474  0.8209 -1.9664 -0.3432
 4117SOL    HW223811   3.107   2.534  10.503  0.2759  0.0042 -0.9360
 4118SOL     OW23812   1.859   2.260   2.600 -0.7344  0.5746 -0.0210
 4118SOL    HW123813   1.910   2.319   2.655  0.4488  0.4601 -0.9930
 4118SOL    HW223814   1.786   2.317   2.577 -0.0682  1.4400  0.0519
 4119SOL     OW23815   2.902   3.264   3.834 -0.2079  0.0026  0.0320
 4119SOL    HW123816   2.825   3.248   3.888 -1.3854 -0.6277 -1.8573
 4119SOL    HW223817   2.929   3.176   3.806 -0.7492 -0.3244  0.5371
 4120SOL     OW23818   4.139   1.374   1.719 -0.3949  0.2204 -0.1025
 4120SOL    HW123819   4.128   1.437   1.791  0.2843  0.9996 -0.6747
 4120SOL    HW223820   4.170   1.290   1.751  0.5149  0.6633  0.1778
 4121SOL     OW23821   2.881   2.411  15.465  0.0735  0.1527 -0.1551
 4121SOL    HW123822   2.975   2.394  15.460  0.0588  0.9558 -3.0067
 4121SOL    HW223823   2.841   2.334  15.423  1.7662 -0.1218 -1.2729
 4122SOL     OW23824   0.031   1.980   2.943  0.0130  0.3329  0.0585
 4122SOL    HW123825   0.049   1.999   2.851  0.2109 -2.0378 -0.3813
 4122SOL    HW223826   0.074   1.895   2.954  1.0886  1.0206  1.2527
 4123SOL     OW23827   2.874   0.169   6.246  0.2534  0.2548  0.3480
 4123SOL    HW123828   2.929   0.246   6.266 -1.2179  1.2107  0.7264
 4123SOL    HW223829   2.928   0.090   6.247  0.8840  0.6369 -3.7157
 4124SOL     OW23830   1.967   2.640   2.360 -0.3354 -0.4655 -0.0701
 4124SOL    HW123831   2.049   2.675   2.393 -1.5162  0.8953  1.4755
 4124SOL    HW223832   1.942   2.692   2.284 -1.4497  1.5699  1.6720
 4125SOL     OW23833   1.129   0.796   5.636  0.1716 -0.6733 -0.2177
 4125SOL    HW123834   1.168   0.846   5.707 -0.7280  1.8666 -1.4961
 4125SOL    HW223835   1.091   0.727   5.690  2.3381 -1.5254  0.1796
 4126SOL     OW23836   0.507   1.337   8.531 -0.8229 -0.6054 -0.0472
 4126SOL    HW123837   0.447   1.291   8.589  1.7116 -1.6356  1.7219
 4126SOL    HW223838   0.588   1.327   8.581 -1.0726 -1.0459  0.2676
 4127SOL     OW23839   4.658   2.805  10.254  0.5983  0.2613  0.1338
 4127SOL    HW123840   0.018   2.777  10.278  0.8332  2.9102  2.3645
 4127SOL    HW223841   4.637   2.736  10.191  2.7988 -0.5018  0.2513
 4128SOL     OW23842   4.640   0.910  12.846 -0.3886 -0.1631  0.1558
 4128SOL    HW123843   4.623   0.946  12.759 -2.4433 -0.7957  0.3023
 4128SOL    HW223844   4.643   0.817  12.824 -4.6720 -0.3513  0.4240
 4129SOL     OW23845   1.004   0.868  17.414  0.3557 -0.1153 -0.6213
 4129SOL    HW123846   0.943   0.818  17.360 -0.2548 -2.4684  2.2565
 4129SOL    HW223847   0.974   0.958  17.405  0.5045 -0.1225 -1.1876
 4130SOL     OW23848   2.617   4.684  11.436  0.7430  0.0611  0.1815
 4130SOL    HW123849   2.604   4.604  11.386  0.1857  0.1990  0.1046
 4130SOL    HW223850   2.648   4.653  11.521 -1.6606 -1.2359  0.5670
 4131SOL     OW23851   4.022   4.179   3.964  0.2224  0.4012 -0.5153
 4131SOL    HW123852   4.003   4.249   3.901  0.7539  1.5544  0.6075
 4131SOL    HW223853   4.044   4.110   3.901 -0.9577 -0.8588  0.4381
 4132SOL     OW23854   3.918   2.035   6.500 -0.6860 -0.0073  0.0947
 4132SOL    HW123855   3.962   2.067   6.579  0.4328 -0.2475 -0.4276
 4132SOL    HW223856   3.849   1.978   6.533 -0.6510  0.9013  1.7324
 4133SOL     OW23857   3.442   4.343   8.844 -0.2523  0.1391 -0.0145
 4133SOL    HW123858   3.358   4.334   8.799  0.7890  0.6156 -2.0497
 4133SOL    HW223859   3.490   4.408   8.793  0.5713 -1.1182 -0.8393
 4134SOL     OW23860   2.669   0.458   2.639 -0.1758  0.2129  0.8614
 4134SOL    HW123861   2.735   0.397   2.607 -0.8251 -0.4037  0.6934
 4134SOL    HW223862   2.675   0.445   2.734  1.4519  3.0447  1.1519
 4135SOL     OW23863   2.471   0.521   5.196 -0.0674 -0.1047 -0.5028
 4135SOL    HW123864   2.395   0.498   5.249 -1.0462  1.2900 -1.3204
 4135SOL    HW223865   2.523   0.557   5.269 -0.4641 -0.1275 -0.2081
 4136SOL     OW23866   1.035   3.032   5.634 -0.0795  0.0566  0.2120
 4136SOL    HW123867   1.065   3.067   5.550 -2.3400 -1.4736 -1.2287
 4136SOL    HW223868   1.113   3.050   5.687 -0.4743  1.6528  0.2603
 4137SOL     OW23869   3.082   3.541   5.350 -0.1686  0.7985  0.0378
 4137SOL    HW123870   3.006   3.590   5.320  0.4658  2.9791  2.0200
 4137SOL    HW223871   3.149   3.609   5.361 -0.3664  0.9552  0.2497
 4138SOL     OW23872   3.167   1.119  13.187 -0.0864  0.2469 -0.6423
 4138SOL    HW123873   3.241   1.064  13.161  0.7742  1.3371 -0.5060
 4138SOL    HW223874   3.111   1.048  13.220 -0.7589  0.6810 -0.8472
 4139SOL     OW23875   2.199   2.303   5.612 -0.1275 -0.3873 -0.0869
 4139SOL    HW123876   2.155   2.280   5.694  2.0272  0.8462  1.4415
 4139SOL    HW223877   2.129   2.304   5.547 -2.0424 -0.9916  1.9854
 4140SOL     OW23878   1.244   2.196  11.782 -0.7978 -0.1392  0.2472
 4140SOL    HW123879   1.160   2.222  11.743 -0.8070 -1.8660 -0.8740
 4140SOL    HW223880   1.288   2.274  11.816  1.3634 -1.4700  0.4789
 4141SOL     OW23881   3.653   3.869  10.681  0.6774  0.2439  0.1482
 4141SOL    HW123882   3.597   3.811  10.629  0.4011 -0.8420  1.6188
 4141SOL    HW223883   3.717   3.807  10.717 -1.1536 -2.0142 -0.4884
 4142SOL     OW23884   2.737   0.590   5.790 -0.2075  0.2246  0.0244
 4142SOL    HW123885   2.771   0.624   5.707 -1.0950  1.3897  0.1413
 4142SOL    HW223886   2.670   0.537   5.748 -1.5499  0.4761  1.8179
 4143SOL     OW23887   0.677   4.175   8.559 -0.5909  0.0855 -0.2376
 4143SOL    HW123888   0.757   4.161   8.609 -0.8385  1.8385  0.6415
 4143SOL    HW223889   0.621   4.113   8.606 -1.9893  1.2073 -0.4225
 4144SOL     OW23890   4.445   3.148   1.575  0.0202 -0.1614  0.2583
 4144SOL    HW123891   4.400   3.137   1.491  1.2803 -1.1185 -0.2804
 4144SOL    HW223892   4.477   3.060   1.590  0.5174 -0.4836 -2.6116
 4145SOL     OW23893   1.257   4.671   9.127 -1.1995  0.4210  0.0886
 4145SOL    HW123894   1.204   4.724   9.186 -0.6588  0.6940  0.3339
 4145SOL    HW223895   1.337   4.665   9.179  0.0459 -0.9378 -1.9865
 4146SOL     OW23896   2.187   3.408  15.652  0.1410 -0.2380  0.3091
 4146SOL    HW123897   2.145   3.344  15.709 -0.1520 -2.0883 -1.9662
 4146SOL    HW223898   2.165   3.373  15.566 -0.3609  1.4655 -0.2711
 4147SOL     OW23899   0.642   4.432   6.832  0.0431  0.6831 -0.2820
 4147SOL    HW123900   0.691   4.514   6.829  3.2325 -1.1588  0.9061
 4147SOL    HW223901   0.605   4.423   6.745  1.9377  1.2758 -1.1497
 4148SOL     OW23902   3.711   4.034  16.213 -0.1823 -0.1491  0.0354
 4148SOL    HW123903   3.725   4.051  16.306 -1.4230  3.0885 -0.3777
 4148SOL    HW223904   3.721   4.117  16.167 -0.1871 -0.0540  0.2103
 4149SOL     OW23905   2.243   1.730  13.689 -0.3237 -0.2173 -0.1241
 4149SOL    HW123906   2.161   1.757  13.732 -0.4592  0.9860 -1.1306
 4149SOL    HW223907   2.299   1.807  13.693  0.2885 -0.7162  0.9722
 4150SOL     OW23908   0.495   4.090   7.768 -0.9208  1.2229 -0.2815
 4150SOL    HW123909   0.528   4.052   7.686 -3.0091 -0.1559 -0.4800
 4150SOL    HW223910   0.576   4.129   7.801 -1.5157  2.7561 -0.6484
 4151SOL     OW23911   1.139   3.599   2.903 -0.1201 -0.0508  0.1889
 4151SOL    HW123912   1.181   3.539   2.841 -1.2522 -1.2173  0.5532
 4151SOL    HW223913   1.211   3.660   2.915  0.2104 -0.4312  0.1630
 4152SOL     OW23914   4.385   1.684   2.335 -0.8031  0.0534 -0.2479
 4152SOL    HW123915   4.339   1.766   2.356  0.0234  0.3899  0.2415
 4152SOL    HW223916   4.453   1.685   2.401 -2.5332  2.6459  1.4956
 4153SOL     OW23917   3.278   3.376  14.829 -0.4716  0.0868 -0.6345
 4153SOL    HW123918   3.256   3.444  14.892 -0.9298 -0.7160  0.0645
 4153SOL    HW223919   3.304   3.420  14.748 -1.6320  2.3951  0.2411
 4154SOL     OW23920   1.990   1.288   3.509  0.3129  0.3229 -0.5646
 4154SOL    HW123921   1.922   1.349   3.482 -1.9136 -1.9324 -0.0455
 4154SOL    HW223922   1.957   1.209   3.466 -1.4673  1.6435 -1.5965
 4155SOL     OW23923   2.359   1.975  14.598 -0.2752  0.3869  0.0048
 4155SOL    HW123924   2.270   1.944  14.617 -0.4848  1.4081  0.6815
 4155SOL    HW223925   2.383   1.886  14.570 -2.4065 -0.2179  0.0461
 4156SOL     OW23926   1.680   0.772  14.704  0.0140  0.5249  0.0595
 4156SOL    HW123927   1.654   0.694  14.752  2.0985 -0.2105  0.0009
 4156SOL    HW223928   1.689   0.735  14.616 -0.4094  0.3654  0.0855
 4157SOL     OW23929   3.730   4.637   3.950 -0.3861  0.0702 -0.4506
 4157SOL    HW123930   3.763   4.727   3.957  0.5931 -0.2427 -1.1057
 4157SOL    HW223931   3.793   4.586   4.001 -1.3421  0.3336  0.9963
 4158SOL     OW23932   1.609   1.418   6.603 -0.5799 -0.0831 -0.2571
 4158SOL    HW123933   1.546   1.483   6.574 -0.2047 -1.1159 -3.5002
 4158SOL    HW223934   1.617   1.428   6.697  0.1375 -0.3470 -0.2839
 4159SOL     OW23935   4.212   2.917   3.120  0.3685  0.3140  0.3600
 4159SOL    HW123936   4.141   2.875   3.169 -0.2419  0.7497 -0.1590
 4159SOL    HW223937   4.289   2.870   3.152 -1.1392 -0.2543  3.1525
 4160SOL     OW23938   2.340   4.508   2.799  0.3472  0.1308 -0.3965
 4160SOL    HW123939   2.420   4.556   2.780  0.7132  0.1009  1.0576
 4160SOL    HW223940   2.295   4.580   2.844 -1.3252 -0.9382 -0.3708
 4161SOL     OW23941   1.854   2.062   5.195  0.1935 -0.2109 -0.8990
 4161SOL    HW123942   1.909   2.034   5.122 -1.1808 -0.4563 -1.8375
 4161SOL    HW223943   1.787   1.995   5.183  0.2736 -0.2208 -1.2873
 4162SOL     OW23944   1.043   3.230   8.920 -0.2711 -0.1369 -0.2227
 4162SOL    HW123945   1.052   3.195   8.831 -1.0676 -0.3244 -0.2321
 4162SOL    HW223946   1.102   3.303   8.935 -0.7524  0.1394  0.3363
 4163SOL     OW23947   1.957   0.489   5.427  0.5372  0.3508  0.5370
 4163SOL    HW123948   1.899   0.468   5.354  2.0862 -0.5481 -0.4471
 4163SOL    HW223949   1.904   0.525   5.499 -2.1490 -1.5748 -0.4708
 4164SOL     OW23950   0.360   1.587   5.496  0.1778  1.0179 -0.3668
 4164SOL    HW123951   0.362   1.662   5.437  2.4124  0.6806 -0.7154
 4164SOL    HW223952   0.433   1.605   5.556  0.7066 -3.0365  0.2110
 4165SOL     OW23953   3.892   0.225  17.342 -0.0245 -0.0720  0.3158
 4165SOL    HW123954   3.944   0.148  17.369 -0.4883 -0.6152 -0.3289
 4165SOL    HW223955   3.834   0.191  17.274 -0.6743  3.3978 -0.8274
 4166SOL     OW23956   4.073   2.179   6.718 -0.5110  0.4671 -0.5687
 4166SOL    HW123957   4.159   2.158   6.681 -0.4434  1.9007 -1.2237
 4166SOL    HW223958   4.076   2.129   6.800 -1.6035 -1.2974 -1.5917
 4167SOL     OW23959   1.745   2.952  14.317  0.1492  0.2228  0.3536
 4167SOL    HW123960   1.702   3.009  14.381 -0.5737  0.3601 -0.2646
 4167SOL    HW223961   1.709   2.984  14.235 -1.2155 -1.0189  0.4713
 4168SOL     OW23962   0.155   0.892   2.564 -0.1323  0.1494 -0.7509
 4168SOL    HW123963   0.149   0.924   2.654 -0.0538 -1.8674 -0.0455
 4168SOL    HW223964   0.188   0.804   2.576 -0.7370 -0.0500 -0.5502
 4169SOL     OW23965   1.900   4.223   6.595  0.2146 -0.0854  0.0462
 4169SOL    HW123966   1.990   4.203   6.621  1.2386  1.9414 -1.9283
 4169SOL    HW223967   1.858   4.146   6.633 -1.7730  1.1486  0.3431
 4170SOL     OW23968   4.099   1.687  12.124 -0.0570  0.9305 -0.3924
 4170SOL    HW123969   4.104   1.726  12.211 -0.9126  0.0755  0.0522
 4170SOL    HW223970   4.186   1.651  12.107 -0.6944 -0.6586 -0.3349
 4171SOL     OW23971   1.352   3.494   0.961  0.1848 -0.1634 -0.3434
 4171SOL    HW123972   1.338   3.460   1.049 -1.1218 -1.1348 -0.9069
 4171SOL    HW223973   1.324   3.585   0.972 -0.1758 -0.3035 -0.1160
 4172SOL     OW23974   3.832   3.764  11.896 -0.4132 -0.2065 -0.7113
 4172SOL    HW123975   3.872   3.851  11.890  0.4506 -0.4490  1.4420
 4172SOL    HW223976   3.912   3.720  11.924 -0.5230  0.1139  0.1277
 4173SOL     OW23977   0.704   1.858   7.936 -0.0451 -0.3722 -0.5810
 4173SOL    HW123978   0.655   1.928   7.894 -0.0911 -0.6710 -1.0243
 4173SOL    HW223979   0.732   1.899   8.018  0.7304 -1.3913 -0.3405
 4174SOL     OW23980   0.792   1.302   6.945 -0.1249 -0.0717  0.3344
 4174SOL    HW123981   0.712   1.346   6.974 -2.0613 -2.1993 -1.7198
 4174SOL    HW223982   0.862   1.341   6.998  1.9871 -0.4848 -2.1947
 4175SOL     OW23983   3.260   1.051   5.313  0.6496  0.6939 -0.2238
 4175SOL    HW123984   3.240   1.101   5.234 -2.6835  1.1186  0.8857
 4175SOL    HW223985   3.356   1.046   5.313  0.5560 -1.3543 -2.7489
 4176SOL     OW23986   2.063   3.921   6.442  0.5168 -0.5788  0.4699
 4176SOL    HW123987   2.124   3.858   6.404 -0.1274 -1.4282  0.8643
 4176SOL    HW223988   2.117   3.962   6.510 -0.6617  0.8254  0.5551
 4177SOL     OW23989   3.495   2.886  12.399 -0.1670  0.2776 -0.4068
 4177SOL    HW123990   3.524   2.877  12.489  1.3749 -0.0216 -0.9448
 4177SOL    HW223991   3.403   2.913  12.409 -0.5453 -1.7648  1.5299
 4178SOL     OW23992   2.103   0.731  16.754 -0.1853 -0.0330  0.9169
 4178SOL    HW123993   2.045   0.800  16.784  0.7542  0.0364  2.5568
 4178SOL    HW223994   2.046   0.655  16.762 -0.5326  0.3021  1.5580
 4179SOL     OW23995   4.409   1.955   8.981 -0.3668  0.0192 -0.3363
 4179SOL    HW123996   4.424   1.980   9.072  1.6559 -0.2326 -0.6027
 4179SOL    HW223997   4.422   1.861   8.989  1.6903  0.5961  2.6428
 4180SOL     OW23998   3.659   0.591   5.817 -0.1763  0.7683  0.3036
 4180SOL    HW123999   3.747   0.556   5.801 -1.1624 -2.4876  1.9113
 4180SOL    HW224000   3.614   0.547   5.745  0.4746 -1.5876  1.3286
 4181SOL     OW24001   4.053   1.289   3.901  0.0995 -0.4990 -0.2365
 4181SOL    HW124002   4.098   1.226   3.844  1.2219  0.5771 -0.5277
 4181SOL    HW224003   4.097   1.371   3.876  0.8980 -1.0116 -0.5206
 4182SOL     OW24004   4.389   2.097   2.124 -0.2741  0.0990  0.0394
 4182SOL    HW124005   4.296   2.095   2.102  0.0803  0.6658 -1.4916
 4182SOL    HW224006   4.431   2.088   2.038  0.7699 -0.8106  0.6490
 4183SOL     OW24007   2.450   2.428   7.172 -0.9183 -0.2232 -0.0048
 4183SOL    HW124008   2.492   2.411   7.256 -0.7694  0.5886  0.0913
 4183SOL    HW224009   2.476   2.515   7.142  0.5418 -0.7380 -0.2489
 4184SOL     OW24010   2.116   3.379  12.477 -0.1374 -0.2309 -0.0065
 4184SOL    HW124011   2.114   3.303  12.535 -0.8739 -0.9596 -0.9813
 4184SOL    HW224012   2.193   3.431  12.501  0.7604 -1.6969  0.3117
 4185SOL     OW24013   4.223   2.646  11.733 -0.2980  0.1529  0.4884
 4185SOL    HW124014   4.267   2.719  11.777 -1.2831  0.6203  0.7081
 4185SOL    HW224015   4.215   2.675  11.643 -0.1957  0.4137  0.5645
 4186SOL     OW24016   2.325   2.772   6.015  0.3297 -0.8409  0.3764
 4186SOL    HW124017   2.282   2.829   6.079 -0.1032 -0.2015 -0.4827
 4186SOL    HW224018   2.260   2.707   5.988 -1.2100 -0.1766  2.4735
 4187SOL     OW24019   0.858   3.236   4.239  0.3128  0.7263  0.3671
 4187SOL    HW124020   0.862   3.145   4.269  1.4837  0.6020 -0.1472
 4187SOL    HW224021   0.769   3.232   4.205  0.3010 -3.2001  0.8859
 4188SOL     OW24022   2.018   0.233   5.579  0.4017 -0.2507  0.0429
 4188SOL    HW124023   1.970   0.179   5.517  2.2379  0.5646 -2.0751
 4188SOL    HW224024   1.990   0.320   5.550 -1.7874 -1.5029 -1.5615
 4189SOL     OW24025   4.702   0.194   3.355 -0.5086 -0.1210 -0.2574
 4189SOL    HW124026   0.043   0.260   3.345 -0.7105  0.1922  0.3920
 4189SOL    HW224027   4.661   0.220   3.437  1.5285 -0.4820  0.8814
 4190SOL     OW24028   3.638   3.006   7.077 -0.7866  0.7755  0.6190
 4190SOL    HW124029   3.562   2.970   7.031  0.0399  0.1832 -0.2944
 4190SOL    HW224030   3.684   3.054   7.008  0.5457 -0.2582  0.7910
 4191SOL     OW24031   2.964   0.503   6.289 -0.1270  0.0770  0.1370
 4191SOL    HW124032   2.905   0.486   6.215  0.8527  0.4767 -0.7382
 4191SOL    HW224033   3.046   0.474   6.248  0.7609  1.6945  0.7656
 4192SOL     OW24034   0.623   1.429   2.790 -0.8256  0.1925 -0.2248
 4192SOL    HW124035   0.568   1.435   2.868 -1.9044  1.0952 -1.0513
 4192SOL    HW224036   0.569   1.441   2.711 -3.1697 -0.9550  1.1944
 4193SOL     OW24037   0.399   4.396   0.369 -0.3825  0.5987  0.2354
 4193SOL    HW124038   0.368   4.473   0.322 -0.6575 -0.3243 -1.1106
 4193SOL    HW224039   0.316   4.362   0.402 -0.9405  0.4476 -1.3354
 4194SOL     OW24040   0.966   2.042   0.274  0.3854  0.2570 -0.2419
 4194SOL    HW124041   0.971   2.032   0.179 -0.7682  0.6746 -0.3535
 4194SOL    HW224042   1.022   2.118   0.286 -0.5553  0.8754  0.2660
 4195SOL     OW24043   0.072   2.433  12.647 -0.0059 -0.1056  0.1432
 4195SOL    HW124044   0.113   2.446  12.733 -0.5883  3.1147 -0.0657
 4195SOL    HW224045   0.004   2.500  12.637 -1.4841 -1.4213  1.3158
 4196SOL     OW24046   2.730   2.760  13.369 -0.0699  0.4353 -0.0022
 4196SOL    HW124047   2.818   2.774  13.332  0.3586  0.3239  0.9846
 4196SOL    HW224048   2.678   2.744  13.290 -2.1883 -0.3713  1.5678
 4197SOL     OW24049   0.408   1.004  12.409  0.1922 -0.3977 -0.8735
 4197SOL    HW124050   0.337   0.960  12.455  3.1785 -1.4889  2.7684
 4197SOL    HW224051   0.370   1.084  12.375  0.5848  0.4103  0.5597
 4198SOL     OW24052   1.279   2.125   3.136  0.5770 -0.1502  0.7510
 4198SOL    HW124053   1.270   2.216   3.106  0.6921  0.3823  2.3393
 4198SOL    HW224054   1.211   2.130   3.203 -0.7977 -0.2372 -0.6412
 4199SOL     OW24055   2.642   4.137  11.163  0.1907 -0.3331  0.1283
 4199SOL    HW124056   2.689   4.187  11.097  1.8175  0.5871  1.9738
 4199SOL    HW224057   2.552   4.162  11.145  0.5860  0.8483 -0.2285
 4200SOL     OW24058   4.657   1.664  12.733  0.6743 -0.3541  0.1197
 4200SOL    HW124059   4.583   1.724  12.745  1.3386  0.7502 -1.2883
 4200SOL    HW224060   4.605   1.591  12.700 -2.6417  2.4503 -0.9771
 4201SOL     OW24061   0.607   2.159   4.924  0.0521 -0.0528  0.0530
 4201SOL    HW124062   0.632   2.126   5.010 -2.5447 -3.1805 -0.4039
 4201SOL    HW224063   0.634   2.251   4.920 -1.6996  0.3724 -1.9390
 4202SOL     OW24064   1.586   4.578   8.527  0.4524 -0.5861  0.0214
 4202SOL    HW124065   1.510   4.544   8.479 -0.5765  0.3711  0.9887
 4202SOL    HW224066   1.554   4.655   8.575 -0.2650 -0.3818 -0.7702
 4203SOL     OW24067   0.453   2.813   7.812  0.3257  0.2305 -0.0987
 4203SOL    HW124068   0.520   2.785   7.874  2.4204  1.9989 -1.5746
 4203SOL    HW224069   0.381   2.763   7.852  0.0662  0.1173 -0.7035
 4204SOL     OW24070   0.458   2.417  12.418 -0.0477  0.0803  0.0353
 4204SOL    HW124071   0.492   2.489  12.471  1.9237 -0.7372 -0.1230
 4204SOL    HW224072   0.533   2.401  12.360 -1.9651 -1.3352 -2.0855
 4205SOL     OW24073   4.245   1.367  11.339  0.2997 -0.0550  0.0684
 4205SOL    HW124074   4.192   1.370  11.418 -1.1093  4.3824 -1.0433
 4205SOL    HW224075   4.179   1.327  11.283 -2.2303  2.0157  1.5934
 4206SOL     OW24076   0.088   3.528   5.567  0.0436  0.2720 -0.4402
 4206SOL    HW124077   0.112   3.594   5.502  2.8837  0.6222  0.9914
 4206SOL    HW224078   0.140   3.556   5.642  0.7220  1.4233 -1.3470
 4207SOL     OW24079   1.685   1.275   3.955 -0.2066 -0.5242 -0.6401
 4207SOL    HW124080   1.764   1.314   3.917  0.2537  1.6301  2.5479
 4207SOL    HW224081   1.723   1.203   4.005  2.2465  0.4927 -1.0842
 4208SOL     OW24082   2.498   1.568  15.195  0.2220  0.2174  0.0667
 4208SOL    HW124083   2.538   1.650  15.166  0.2617  0.3592  0.5220
 4208SOL    HW224084   2.442   1.560  15.118  0.5554 -0.4389 -0.1015
 4209SOL     OW24085   4.624   2.570   3.586 -0.0096 -0.5727 -0.4054
 4209SOL    HW124086   4.678   2.649   3.581 -0.9708  0.3017  2.6451
 4209SOL    HW224087   4.566   2.585   3.662 -0.7082 -3.7840 -0.3338
 4210SOL     OW24088   1.928   2.487  14.331  0.4614  0.5591  0.6170
 4210SOL    HW124089   1.989   2.439  14.387  1.6623  0.5043 -0.7411
 4210SOL    HW224090   1.993   2.536  14.280  1.1125  0.5706  1.4679
 4211SOL     OW24091   0.059   0.361   3.069  0.4295  0.1794 -0.1109
 4211SOL    HW124092   4.701   0.330   3.099  1.9086 -0.9193  3.0522
 4211SOL    HW224093   0.068   0.451   3.101  2.7975  0.1327 -0.6199
 4212SOL     OW24094   1.824   3.363   6.078  0.3753  0.0947  0.6444
 4212SOL    HW124095   1.774   3.391   6.001  1.0890  0.2933  0.2554
 4212SOL    HW224096   1.894   3.316   6.032 -0.5422 -0.2281 -0.4120
 4213SOL     OW24097   1.058   0.034   6.999 -0.3038  0.1927 -0.0590
 4213SOL    HW124098   1.089   0.119   7.031  2.1315 -0.8061  0.2971
 4213SOL    HW224099   1.110   4.712   7.062 -0.6542 -0.1800 -0.0688
 4214SOL     OW24100   2.229   3.649  11.495 -0.0105 -0.1723  0.2825
 4214SOL    HW124101   2.315   3.671  11.531 -1.1724  1.8481  1.7963
 4214SOL    HW224102   2.231   3.714  11.425  3.8807 -1.4290 -0.8111
 4215SOL     OW24103   3.032   0.145   3.603  0.0283  0.2553  0.4013
 4215SOL    HW124104   3.081   0.082   3.657 -0.4594  2.9026  3.9331
 4215SOL    HW224105   2.974   0.081   3.562 -2.0194  1.6060  1.2009
 4216SOL     OW24106   0.200   4.428   8.973  0.2170 -0.0972  0.3449
 4216SOL    HW124107   0.257   4.375   9.028 -0.5198 -1.7728 -0.4959
 4216SOL    HW224108   0.255   4.499   8.941 -1.2836  1.4690  1.2028
 4217SOL     OW24109   0.907   4.644  13.919 -0.0348  0.1738  0.0671
 4217SOL    HW124110   0.865   0.003  13.921  0.8216  0.5816  0.6473
 4217SOL    HW224111   0.955   4.664  13.839 -0.5919 -1.3072 -0.6251
 4218SOL     OW24112   0.647   0.282   9.434 -0.0290  0.7095 -0.2377
 4218SOL    HW124113   0.723   0.337   9.455  0.0744  0.3953  0.2045
 4218SOL    HW224114   0.632   0.311   9.344 -1.8133 -0.7870 -0.4139
 4219SOL     OW24115   4.685   3.500   9.972 -0.1789  0.3725 -0.1571
 4219SOL    HW124116   4.697   3.501   9.877  0.4363 -0.6665 -0.0926
 4219SOL    HW224117   4.611   3.561   9.973 -1.0782 -0.7282  0.5961
 4220SOL     OW24118   1.926   1.034   5.962  0.2783  0.0343 -0.3946
 4220SOL    HW124119   1.876   1.016   5.883  2.0696  1.2065 -1.7820
 4220SOL    HW224120   1.887   1.119   5.986 -0.4405 -0.4349  0.0988
 4221SOL     OW24121   4.348   4.152   9.568 -0.4654 -0.1492  0.1265
 4221SOL    HW124122   4.390   4.151   9.654 -0.0746  0.4709 -0.0575
 4221SOL    HW224123   4.375   4.242   9.550 -2.7788  0.2297 -1.4267
 4222SOL     OW24124   1.318   2.194  13.580  0.8136  0.8681 -0.3887
 4222SOL    HW124125   1.384   2.234  13.636 -0.3831 -0.5879  2.0611
 4222SOL    HW224126   1.349   2.227  13.496 -0.5325  1.1818 -0.7641
 4223SOL     OW24127   3.331   1.534   5.235 -0.3094 -0.4945 -0.0130
 4223SOL    HW124128   3.369   1.613   5.273 -1.7488  1.2087 -2.0864
 4223SOL    HW224129   3.394   1.491   5.177 -0.1959  1.0431 -1.0335
 4224SOL     OW24130   3.859   4.635   5.688  0.2047  0.1040  0.0851
 4224SOL    HW124131   3.796   4.683   5.635  0.4035 -1.1873 -1.3153
 4224SOL    HW224132   3.899   4.583   5.619  0.5230 -0.0214  0.3607
 4225SOL     OW24133   3.850   1.712   6.068  0.0333  0.0100 -0.4184
 4225SOL    HW124134   3.852   1.705   5.973 -0.7478 -1.6226 -0.3039
 4225SOL    HW224135   3.860   1.621   6.093 -0.2039 -0.0923 -0.7005
 4226SOL     OW24136   0.408   2.681   4.893 -0.0067  0.2349  0.0601
 4226SOL    HW124137   0.352   2.690   4.816  0.2406  0.2311 -0.1200
 4226SOL    HW224138   0.455   2.598   4.880 -2.5516 -1.2724  0.4429
 4227SOL     OW24139   3.045   0.818   2.103  0.1715 -0.1470 -0.5445
 4227SOL    HW124140   2.999   0.883   2.050  1.2181  2.1012  1.2855
 4227SOL    HW224141   2.977   0.753   2.124 -1.7204  1.8599 -0.4493
 4228SOL     OW24142   2.844   0.888   0.678  0.2219 -0.0733  0.0533
 4228SOL    HW124143   2.820   0.796   0.687  0.9877 -0.3164 -0.3944
 4228SOL    HW224144   2.865   0.920   0.766  2.6976 -1.3372 -0.0853
 4229SOL     OW24145   2.781   3.940  11.861 -0.1845 -0.0076 -0.3482
 4229SOL    HW124146   2.797   4.032  11.841  0.8814  0.0735  0.9038
 4229SOL    HW224147   2.801   3.897  11.778  0.7784  0.9230 -0.5939
 4230SOL     OW24148   1.986   2.121  10.220 -0.0580 -0.3504 -0.2337
 4230SOL    HW124149   1.946   2.207  10.209  0.4490  0.0513  1.0635
 4230SOL    HW224150   2.071   2.147  10.255  0.4368  1.0578 -2.4935
 4231SOL     OW24151   4.156   4.464  16.257  0.3327 -0.1597  0.0796
 4231SOL    HW124152   4.141   4.504  16.342  0.5015 -0.8986  0.4538
 4231SOL    HW224153   4.203   4.384  16.279  1.4675  0.8809  1.4280
 4232SOL     OW24154   0.200   3.400   7.066 -0.2264 -0.2937  0.3937
 4232SOL    HW124155   0.275   3.460   7.075 -1.2250  1.1335 -0.7468
 4232SOL    HW224156   0.131   3.466   7.072 -0.5107 -0.5686  0.1084
 4233SOL     OW24157   1.217   1.647   4.875  0.0539  0.0987 -0.1217
 4233SOL    HW124158   1.168   1.592   4.814  1.4277 -1.9324  0.6194
 4233SOL    HW224159   1.279   1.699   4.825 -1.5746  0.4117 -1.8105
 4234SOL     OW24160   2.797   3.457   5.672 -0.4388 -0.5461  0.0055
 4234SOL    HW124161   2.719   3.421   5.715 -0.7752 -1.4806 -1.3527
 4234SOL    HW224162   2.853   3.478   5.746  1.0790  2.2374 -1.9594
 4235SOL     OW24163   2.988   2.234   9.577  0.0402 -0.6413 -0.4445
 4235SOL    HW124164   2.932   2.205   9.505  0.7496 -1.1690 -0.7816
 4235SOL    HW224165   3.031   2.311   9.540 -0.5870 -0.4942 -0.8676
 4236SOL     OW24166   0.870   2.908   4.643  0.4103  0.3577 -1.1792
 4236SOL    HW124167   0.897   2.957   4.721 -1.3858 -1.7059  0.7276
 4236SOL    HW224168   0.775   2.918   4.640  0.1879 -0.8380  1.8295
 4237SOL     OW24169   1.036   3.544   5.947  0.0472 -0.0215  0.1736
 4237SOL    HW124170   1.027   3.478   5.878 -2.4901  0.3558  0.1425
 4237SOL    HW224171   1.049   3.484   6.020  1.1942  1.4409  1.1645
 4238SOL     OW24172   3.623   1.577   3.514 -0.0395 -0.7888 -0.0026
 4238SOL    HW124173   3.678   1.506   3.547 -1.0628 -1.1202  0.9951
 4238SOL    HW224174   3.680   1.612   3.446 -0.2177 -0.9970 -0.2616
 4239SOL     OW24175   0.445   2.006  16.095 -0.0200  0.3149 -0.4741
 4239SOL    HW124176   0.437   1.930  16.152 -1.3246  2.2461  1.9035
 4239SOL    HW224177   0.510   2.060  16.140 -0.0176  1.8905 -2.3424
 4240SOL     OW24178   1.121   1.957   4.724 -0.2420 -0.5823  0.0285
 4240SOL    HW124179   1.068   1.914   4.658  1.3243  0.7372 -2.0831
 4240SOL    HW224180   1.066   2.028   4.757  0.3455  0.4172 -1.1455
 4241SOL     OW24181   0.027   1.936   6.969 -0.2880  0.2820 -0.1920
 4241SOL    HW124182   4.724   1.943   7.059  0.6022  3.5683 -0.1354
 4241SOL    HW224183   0.065   1.849   6.973  1.3132  0.9474 -0.7137
 4242SOL     OW24184   0.384   3.003   8.031 -0.1078 -0.7032 -0.7431
 4242SOL    HW124185   0.444   2.930   8.041 -0.2951 -0.4356  2.1571
 4242SOL    HW224186   0.408   3.051   7.951 -0.7626 -0.0819 -0.5716
 4243SOL     OW24187   0.717   1.411   4.860  0.3067  0.0408 -0.1717
 4243SOL    HW124188   0.738   1.478   4.795  0.0449 -0.9208 -1.2443
 4243SOL    HW224189   0.661   1.350   4.812 -0.3427  0.0486  0.5775
 4244SOL     OW24190   3.269   1.311   0.619 -0.4616  0.4811 -0.2200
 4244SOL    HW124191   3.206   1.378   0.645 -0.6642  0.3281 -0.3085
 4244SOL    HW224192   3.300   1.270   0.700 -0.5794 -0.3989 -0.6160
 4245SOL     OW24193   3.753   3.452   2.746 -1.0428 -0.3192  0.4026
 4245SOL    HW124194   3.686   3.460   2.679 -2.7033 -2.0833  1.8519
 4245SOL    HW224195   3.783   3.361   2.743 -1.5295 -0.3859 -1.8968
 4246SOL     OW24196   0.709   4.546   7.992  0.6717  0.2566 -0.4736
 4246SOL    HW124197   0.628   4.585   7.959 -0.9117  0.2536  3.3908
 4246SOL    HW224198   0.668   4.527   8.077 -1.4337 -0.4123 -1.6312
 4247SOL     OW24199   4.113   2.592  11.979  0.0225  0.3388  0.0462
 4247SOL    HW124200   4.151   2.611  11.893  0.7488 -0.4987  0.1839
 4247SOL    HW224201   4.167   2.518  12.007 -0.8335 -0.4807 -0.4497
 4248SOL     OW24202   4.605   1.382   4.064  0.2320 -0.2342  0.2706
 4248SOL    HW124203   4.560   1.412   3.985  1.6084 -1.0820 -0.8380
 4248SOL    HW224204   4.699   1.396   4.049  0.6294 -0.3830  2.5846
 4249SOL     OW24205   4.018   2.382  16.020  0.2014  0.0800  0.1026
 4249SOL    HW124206   3.926   2.361  16.001 -0.2824  1.0149  1.3576
 4249SOL    HW224207   4.037   2.335  16.101 -0.7226  0.3250  0.4640
 4250SOL     OW24208   1.098   4.081   9.102 -0.2571  0.0097 -0.3890
 4250SOL    HW124209   1.124   4.159   9.151  1.9807 -0.3811 -0.9478
 4250SOL    HW224210   1.180   4.034   9.115 -0.0976  0.4049  0.0560
 4251SOL     OW24211   4.280   4.712   2.355 -0.3126  0.3352  0.1518
 4251SOL    HW124212   4.347   4.695   2.421  0.0549 -1.1607 -0.5991
 4251SOL    HW224213   4.273   0.079   2.370 -0.1443 -0.1206  2.9192
 4252SOL     OW24214   2.747   4.725   6.525 -0.7307 -0.5719  0.8218
 4252SOL    HW124215   2.825   0.021   6.475 -2.4365  2.1255 -0.5293
 4252SOL    HW224216   2.692   0.075   6.541  1.8407  1.0499  1.8542
 4253SOL     OW24217   0.872   0.245   4.474  0.0719 -0.0745  0.1217
 4253SOL    HW124218   0.909   0.229   4.387  2.7040 -2.8469  1.7468
 4253SOL    HW224219   0.860   0.340   4.475  0.2698 -0.0269 -1.6034
 4254SOL     OW24220   4.322   1.660  10.349 -1.0747  0.2508  0.2046
 4254SOL    HW124221   4.314   1.755  10.352  0.1076  0.3066  1.6493
 4254SOL    HW224222   4.242   1.634  10.394 -0.1209  1.9863  2.8444
 4255SOL     OW24223   4.326   0.772   8.150 -0.0486 -0.2971 -0.1587
 4255SOL    HW124224   4.272   0.694   8.160 -0.3189  0.2231  2.4482
 4255SOL    HW224225   4.339   0.757   8.056 -2.1562  2.7443 -0.9508
 4256SOL     OW24226   0.146   1.164   3.370  0.2714 -0.1164  0.5875
 4256SOL    HW124227   0.241   1.175   3.379  0.2402 -0.9922  2.1040
 4256SOL    HW224228   0.130   1.249   3.328  1.0561  0.8412  2.2151
 4257SOL     OW24229   1.631   1.050  15.228  0.2591  0.1576  0.1737
 4257SOL    HW124230   1.623   1.081  15.138 -0.1256 -0.0070  0.1516
 4257SOL    HW224231   1.606   1.126  15.280  0.7522  0.6263 -0.2795
 4258SOL     OW24232   1.786   1.602   5.380  0.8312 -0.0786 -0.0371
 4258SOL    HW124233   1.743   1.567   5.302 -0.4994  0.8942  0.2762
 4258SOL    HW224234   1.739   1.683   5.396  3.9867  1.6123  0.7579
 4259SOL     OW24235   3.370   0.972   6.260 -0.5749 -0.1819  0.1398
 4259SOL    HW124236   3.275   0.966   6.255 -0.7945  0.0076  4.2775
 4259SOL    HW224237   3.381   0.881   6.289 -0.3586  0.3915  1.8243
 4260SOL     OW24238   4.010   1.340  17.703  0.4483 -0.3957 -0.0637
 4260SOL    HW124239   4.033   1.272   0.056  0.6751 -2.1674 -2.0425
 4260SOL    HW224240   3.926   1.365   0.031 -1.2177 -2.2998 -2.5027
 4261SOL     OW24241   2.909   1.077   5.272  0.2072  0.1294 -0.4391
 4261SOL    HW124242   2.814   1.080   5.255  0.6953 -0.7132 -3.4097
 4261SOL    HW224243   2.940   0.996   5.232  1.5186  0.7092 -0.5933
 4262SOL     OW24244   4.671   3.704   7.514  0.2268  0.1037  0.7713
 4262SOL    HW124245   4.650   3.784   7.562  0.4158 -0.1649  1.3010
 4262SOL    HW224246   4.647   3.739   7.429  0.8735 -0.0375  0.5372
 4263SOL     OW24247   0.264   4.405   6.860 -0.2534 -0.1083 -0.0476
 4263SOL    HW124248   0.264   4.388   6.954 -1.7092  0.9594  0.1357
 4263SOL    HW224249   0.225   4.325   6.824 -3.7266  1.6091 -0.0725
 4264SOL     OW24250   1.014   3.509   8.689 -0.7284 -0.0368  0.4749
 4264SOL    HW124251   0.956   3.584   8.697 -0.2816  0.1480  1.9784
 4264SOL    HW224252   0.960   3.435   8.716  0.8936 -1.5462 -0.3829
 4265SOL     OW24253   1.890   2.033   2.144  0.1587 -0.2666  0.2766
 4265SOL    HW124254   1.933   1.989   2.217 -0.0980 -2.0315 -0.6203
 4265SOL    HW224255   1.964   2.072   2.097  0.1791  0.3292  0.8048
 4266SOL     OW24256   3.113   0.994   3.800  0.0365  0.3570 -0.1258
 4266SOL    HW124257   3.067   1.069   3.762  2.0565  1.8094  0.2330
 4266SOL    HW224258   3.142   1.020   3.888 -0.5109  0.1163  0.1237
 4267SOL     OW24259   0.174   3.139   2.704  0.0168  0.8130 -0.2228
 4267SOL    HW124260   0.181   3.235   2.707  0.7181  0.6614  2.3346
 4267SOL    HW224261   0.265   3.112   2.717 -0.5939 -1.2384 -0.3277
 4268SOL     OW24262   2.185   4.156   9.867 -0.3164 -0.3982 -0.0870
 4268SOL    HW124263   2.093   4.143   9.889 -0.7373 -0.2851 -1.7672
 4268SOL    HW224264   2.216   4.066   9.859  1.0246  0.0287  0.2992
 4269SOL     OW24265   0.031   0.077   5.587 -0.7386 -0.1188  0.4626
 4269SOL    HW124266   4.701   0.000   5.579 -2.5260  0.9869  2.4188
 4269SOL    HW224267   0.023   0.116   5.500 -2.3152 -2.1997 -0.3225
 4270SOL     OW24268   0.750   1.074   2.009 -0.5828 -0.1127  0.5271
 4270SOL    HW124269   0.830   1.068   2.061 -0.2417  2.4834  0.3122
 4270SOL    HW224270   0.726   0.984   1.988 -0.3572  0.7018 -3.1278
 4271SOL     OW24271   1.704   0.529   7.747  0.1146 -0.0784  0.1484
 4271SOL    HW124272   1.615   0.564   7.736  0.0716 -0.9068 -2.0981
 4271SOL    HW224273   1.723   0.553   7.838  0.1478  2.2971 -0.4789
 4272SOL     OW24274   3.173   0.620   6.803  0.4934 -0.7660 -0.6538
 4272SOL    HW124275   3.141   0.675   6.874  0.9805 -0.3510 -0.7596
 4272SOL    HW224276   3.180   0.686   6.734  1.7439 -0.3104 -0.0831
 4273SOL     OW24277   2.317   0.100   6.137  0.2181 -0.2037 -0.0904
 4273SOL    HW124278   2.363   0.130   6.216  1.5573 -4.6661  0.8121
 4273SOL    HW224279   2.334   0.007   6.121 -0.4115 -0.7133  2.2259
 4274SOL     OW24280   0.798   3.822   8.243 -0.3810  0.3488 -0.0402
 4274SOL    HW124281   0.870   3.758   8.245  0.3788  1.1311 -2.2494
 4274SOL    HW224282   0.769   3.818   8.334  1.8153 -3.7363  0.4929
 4275SOL     OW24283   1.920   0.332   7.241 -0.1164 -0.0080  0.0524
 4275SOL    HW124284   1.956   0.416   7.269  0.3492  0.0353 -0.6705
 4275SOL    HW224285   1.871   0.316   7.321  1.8874 -0.2960  1.2326
 4276SOL     OW24286   3.085   1.692   2.458  0.4306  0.0444  0.0273
 4276SOL    HW124287   3.091   1.685   2.553 -0.3264  2.3276  0.2414
 4276SOL    HW224288   2.996   1.726   2.445  0.7844  0.6334 -0.8027
 4277SOL     OW24289   3.583   3.630   4.250  0.1692 -0.5972 -0.7442
 4277SOL    HW124290   3.673   3.632   4.284  0.2665 -1.8423 -0.9563
 4277SOL    HW224291   3.586   3.537   4.230 -1.1295 -1.1491  1.5535
 4278SOL     OW24292   0.471   0.355   3.674  0.3926 -0.0256 -0.3727
 4278SOL    HW124293   0.451   0.362   3.580 -2.4291  0.4172  0.2740
 4278SOL    HW224294   0.393   0.338   3.726  0.8883 -1.6573 -0.1768
 4279SOL     OW24295   3.728   3.750  17.046  0.3633 -0.2604 -0.2555
 4279SOL    HW124296   3.710   3.781  17.135  1.8863  1.0246 -0.4010
 4279SOL    HW224297   3.696   3.819  16.989  1.2301  0.9751  0.7465
 4280SOL     OW24298   1.825   2.755   4.182  0.0017  0.5745  0.3296
 4280SOL    HW124299   1.867   2.786   4.262 -0.5612 -0.3464  0.9796
 4280SOL    HW224300   1.874   2.673   4.185  1.6226  1.6879  3.5676
 4281SOL     OW24301   1.349   1.974   2.193  0.0586 -0.7082  0.7999
 4281SOL    HW124302   1.404   1.904   2.228 -0.0830  0.4982  3.4786
 4281SOL    HW224303   1.421   2.022   2.152 -1.4383  2.3584  1.7265
 4282SOL     OW24304   3.764   1.413   0.168 -0.2453  0.2961 -0.4094
 4282SOL    HW124305   3.800   1.332   0.206 -1.8417  0.7238  2.0430
 4282SOL    HW224306   3.678   1.392   0.134  0.3617 -1.4396 -0.8609
 4283SOL     OW24307   4.083   2.407   6.423 -0.3920 -0.2803  0.7688
 4283SOL    HW124308   4.177   2.391   6.415 -0.4485 -0.1753 -0.0680
 4283SOL    HW224309   4.052   2.413   6.333  1.6785  0.5273  0.1075
 4284SOL     OW24310   2.757   3.260  14.341 -0.3185 -0.0651  0.0266
 4284SOL    HW124311   2.812   3.269  14.418  0.5753  1.0210 -0.7520
 4284SOL    HW224312   2.821   3.226  14.279 -1.2252 -0.6048 -0.6292
 4285SOL     OW24313   0.609   1.807   1.572  0.1706  0.2226 -0.0742
 4285SOL    HW124314   0.547   1.764   1.630  0.3710  1.6787  1.2052
 4285SOL    HW224315   0.681   1.745   1.586 -0.6132 -1.3846 -3.1825
 4286SOL     OW24316   0.597   4.009   7.527  0.1682 -0.7230  0.2946
 4286SOL    HW124317   0.626   3.925   7.561 -2.6441 -2.1134 -0.7385
 4286SOL    HW224318   0.517   3.979   7.483  0.0728  0.0121 -0.0372
 4287SOL     OW24319   0.613   2.512  17.251  0.1427  0.5023 -0.4626
 4287SOL    HW124320   0.656   2.597  17.260  0.2208  0.2757  1.2420
 4287SOL    HW224321   0.520   2.532  17.254 -0.8882 -4.5727  1.1714
 4288SOL     OW24322   4.184   2.188  10.762  0.0104  0.1062  0.0815
 4288SOL    HW124323   4.240   2.123  10.805 -3.2078 -3.5532 -1.2841
 4288SOL    HW224324   4.220   2.187  10.673 -2.0943 -2.0704 -0.7458
 4289SOL     OW24325   3.608   2.797   5.629  0.5784 -0.3122 -0.0073
 4289SOL    HW124326   3.674   2.747   5.677 -0.0017 -0.0609  1.0484
 4289SOL    HW224327   3.556   2.727   5.591 -3.5950  1.7108  1.9710
 4290SOL     OW24328   4.266   4.307  10.464 -0.7610 -0.8905 -0.8161
 4290SOL    HW124329   4.258   4.296  10.558  0.5609 -1.4205 -0.7652
 4290SOL    HW224330   4.199   4.249  10.427 -2.0451  0.3102 -0.3709
 4291SOL     OW24331   0.916   3.854   6.715  0.1838  0.0879 -0.5865
 4291SOL    HW124332   0.840   3.856   6.773  0.9492 -0.2711  0.4313
 4291SOL    HW224333   0.993   3.848   6.773 -0.8543  0.4139  0.8295
 4292SOL     OW24334   4.510   2.090   3.725 -0.2352  0.0646 -0.0415
 4292SOL    HW124335   4.527   2.156   3.659 -0.9396 -0.4709 -0.7426
 4292SOL    HW224336   4.415   2.085   3.727 -0.1945  0.1210  2.5894
 4293SOL     OW24337   3.381   2.360   6.521  0.1078  0.3486 -0.1337
 4293SOL    HW124338   3.369   2.332   6.612  2.1789 -0.6956 -0.1743
 4293SOL    HW224339   3.434   2.439   6.532  0.1591  0.2118  0.6031
 4294SOL     OW24340   4.129   2.470  10.766  0.1281  0.0487 -0.1178
 4294SOL    HW124341   4.176   2.386  10.760 -0.2848 -0.0802 -1.5630
 4294SOL    HW224342   4.045   2.428  10.784  0.7148 -0.3015  1.7523
 4295SOL     OW24343   3.381   2.622   5.883  0.3512  0.3181  0.4483
 4295SOL    HW124344   3.301   2.675   5.884  0.9534  1.2015  0.6972
 4295SOL    HW224345   3.420   2.639   5.968 -0.1722  1.8357  0.3788
 4296SOL     OW24346   1.356   1.074   7.965  0.4558 -0.5265  0.3756
 4296SOL    HW124347   1.334   1.110   8.051 -0.9417  0.3495 -0.3687
 4296SOL    HW224348   1.327   0.984   7.978  1.2884 -1.0583 -1.4569
 4297SOL     OW24349   1.557   4.208   7.709  0.2060 -0.1147 -0.0889
 4297SOL    HW124350   1.494   4.254   7.653  0.7540 -0.2522 -0.8217
 4297SOL    HW224351   1.633   4.265   7.714 -0.8615  1.3469 -0.4978
 4298SOL     OW24352   1.131   3.209   0.698  0.3223  0.3457 -0.4752
 4298SOL    HW124353   1.124   3.281   0.761 -1.6391  0.4207 -0.7687
 4298SOL    HW224354   1.177   3.147   0.755 -0.1385  0.8978  0.5073
 4299SOL     OW24355   0.372   0.067   4.235 -0.4181 -0.6014 -0.1143
 4299SOL    HW124356   0.434   0.044   4.304 -0.8219 -2.8515 -0.5126
 4299SOL    HW224357   0.432   0.098   4.166 -0.1192 -1.1064 -0.0775
 4300SOL     OW24358   3.938   4.228   7.911  0.4158 -0.0977  0.1074
 4300SOL    HW124359   3.948   4.246   7.818  0.8067 -0.7611  0.0297
 4300SOL    HW224360   3.900   4.141   7.910  1.2556 -0.4746  1.3363
 4301SOL     OW24361   4.017   1.378  12.026 -0.3870  0.6927 -0.1477
 4301SOL    HW124362   4.056   1.417  11.948 -2.0559  1.9111 -0.3723
 4301SOL    HW224363   4.093   1.398  12.081  0.8457 -2.1182 -0.8326
 4302SOL     OW24364   3.784   2.355   1.422  0.1538 -0.0260 -0.0847
 4302SOL    HW124365   3.760   2.395   1.338 -1.5959 -0.7856  0.0464
 4302SOL    HW224366   3.879   2.361   1.414  0.1585  1.7715  1.4035
 4303SOL     OW24367   1.773   3.642   1.658  0.5908 -0.1662 -0.4396
 4303SOL    HW124368   1.743   3.651   1.568 -0.5971  2.1401  0.1907
 4303SOL    HW224369   1.829   3.718   1.675  0.6589  0.0951 -1.8320
 4304SOL     OW24370   2.467   4.690  17.237 -0.2117 -0.5264  0.1869
 4304SOL    HW124371   2.479   4.644  17.153 -1.5238 -0.5870  0.0390
 4304SOL    HW224372   2.372   4.702  17.237  0.0479  1.5769 -1.7437
 4305SOL     OW24373   4.292   3.777   6.785 -0.0946  0.1388 -0.5603
 4305SOL    HW124374   4.342   3.764   6.704 -2.6114 -0.6576 -1.9854
 4305SOL    HW224375   4.359   3.827   6.831 -1.6011 -0.5477  2.3515
 4306SOL     OW24376   1.944   0.192  15.989  0.0801 -0.3334 -0.2426
 4306SOL    HW124377   1.956   0.280  15.953  1.8287 -0.2160  0.6531
 4306SOL    HW224378   1.850   0.190  15.971  0.3363 -0.8496 -1.5678
 4307SOL     OW24379   0.196   4.465   1.217  0.1763  0.2176 -0.3651
 4307SOL    HW124380   0.238   4.383   1.242 -1.1850 -1.2415 -2.9059
 4307SOL    HW224381   0.268   4.504   1.168  0.7384  0.4724  0.6762
 4308SOL     OW24382   0.384   1.147  10.224  0.3350  0.1263 -0.2477
 4308SOL    HW124383   0.290   1.162  10.232  0.5100 -0.3368  2.7426
 4308SOL    HW224384   0.409   1.178  10.311 -0.6421  0.5854 -0.1223
 4309SOL     OW24385   0.148   3.727   8.709 -0.5557  0.0234  0.2379
 4309SOL    HW124386   0.056   3.729   8.684 -0.7744  1.3485  1.1535
 4309SOL    HW224387   0.161   3.821   8.723 -0.9409 -0.0005  0.7520
 4310SOL     OW24388   0.543   1.311   3.792 -0.2090 -0.2039 -0.6279
 4310SOL    HW124389   0.501   1.240   3.742 -0.0984  0.0868 -1.1402
 4310SOL    HW224390   0.634   1.312   3.764 -0.4463  2.0421 -1.3300
 4311SOL     OW24391   4.258   2.627   2.114  0.0125  0.0492 -0.6221
 4311SOL    HW124392   4.163   2.643   2.115 -0.0126 -0.1955  1.7353
 4311SOL    HW224393   4.263   2.589   2.026 -0.8839  1.2384 -1.1815
 4312SOL     OW24394   1.315   2.329   4.163  0.4577 -0.3352  0.0553
 4312SOL    HW124395   1.362   2.249   4.185 -0.7047 -0.2300  2.8999
 4312SOL    HW224396   1.237   2.333   4.218 -1.7815  0.1245 -3.1111
 4313SOL     OW24397   0.629   1.560   0.241 -0.5689 -0.1409 -0.0372
 4313SOL    HW124398   0.637   1.465   0.254 -0.6791 -0.1576 -0.0952
 4313SOL    HW224399   0.555   1.567   0.181  0.5897  1.0191 -1.3218
 4314SOL     OW24400   0.579   0.658  13.918  0.2820  0.0489  0.1219
 4314SOL    HW124401   0.648   0.719  13.894  0.1149 -1.1299 -3.3792
 4314SOL    HW224402   0.511   0.724  13.932  0.6637  0.6954 -1.1029
 4315SOL     OW24403   2.781   2.877   3.477 -0.1398 -0.0588 -0.4961
 4315SOL    HW124404   2.800   2.920   3.394  2.1494 -0.8037 -0.3634
 4315SOL    HW224405   2.811   2.949   3.534 -0.4646  0.0531 -0.4634
 4316SOL     OW24406   0.131   4.614   8.208 -0.4542  0.3287 -0.8385
 4316SOL    HW124407   0.148   4.522   8.229 -0.8752  0.4917  0.2263
 4316SOL    HW224408   0.097   4.608   8.119 -0.9180 -0.0928 -0.6331
 4317SOL     OW24409   3.738   2.148   2.805  0.1892  0.3771 -0.0937
 4317SOL    HW124410   3.708   2.235   2.777 -2.5443  0.0971  1.9282
 4317SOL    HW224411   3.656   2.108   2.835  1.1998 -1.2699  0.4183
 4318SOL     OW24412   0.358   1.667   7.866 -0.3510 -0.6589 -0.2842
 4318SOL    HW124413   0.322   1.747   7.904  2.6995  0.2093  0.7136
 4318SOL    HW224414   0.320   1.610   7.933  0.0492 -1.4371 -0.7163
 4319SOL     OW24415   4.485   2.146   7.505  0.1175  0.2562 -0.3935
 4319SOL    HW124416   4.527   2.208   7.445  1.0181  0.2899  0.2667
 4319SOL    HW224417   4.442   2.196   7.573 -0.8911 -0.3102 -0.6188
 4320SOL     OW24418   0.759   0.479   3.419  0.1625 -0.1137  0.2372
 4320SOL    HW124419   0.688   0.506   3.362 -0.7595 -1.1520  0.8977
 4320SOL    HW224420   0.819   0.554   3.415  1.3890 -1.2720 -3.0284
 4321SOL     OW24421   0.448   1.491   2.579 -0.4650  0.1299  0.1837
 4321SOL    HW124422   0.415   1.452   2.498 -1.0880 -0.9665  0.9664
 4321SOL    HW224423   0.419   1.580   2.560  0.8124  0.7268  1.0627
 4322SOL     OW24424   4.680   2.707  14.690 -0.9410  0.6896  0.2563
 4322SOL    HW124425   0.009   2.769  14.735 -2.5043  0.9632  1.8878
 4322SOL    HW224426   4.662   2.643  14.760  1.3480  1.3497  1.4437
 4323SOL     OW24427   2.753   3.936  17.126  0.0423 -0.4445  0.4599
 4323SOL    HW124428   2.713   3.986  17.056  0.1330  1.8043  2.0059
 4323SOL    HW224429   2.737   3.994  17.201 -3.0304 -0.5248 -0.1407
 4324SOL     OW24430   1.602   4.038   5.253 -0.3334  0.1466 -0.4475
 4324SOL    HW124431   1.570   4.050   5.164  0.5398 -1.4246 -0.9699
 4324SOL    HW224432   1.571   4.117   5.297  1.8006 -0.8013  2.8438
 4325SOL     OW24433   0.124   2.516  12.903  0.3735 -0.1215  0.1101
 4325SOL    HW124434   0.098   2.586  12.962  1.4469  0.7384 -0.4228
 4325SOL    HW224435   0.218   2.508  12.922  0.5783  0.6150 -0.5614
 4326SOL     OW24436   0.152   2.756   8.547  0.0890  0.2630 -0.3386
 4326SOL    HW124437   0.222   2.817   8.524  1.9453 -1.1739  1.5138
 4326SOL    HW224438   0.086   2.821   8.571  1.1589  0.8506  1.0658
 4327SOL     OW24439   1.253   0.881  14.860  0.2904 -0.8290  0.4081
 4327SOL    HW124440   1.342   0.914  14.844  0.0706 -1.9719 -3.1526
 4327SOL    HW224441   1.207   0.956  14.899 -0.5367 -1.2626  0.2582
 4328SOL     OW24442   0.793   3.618  17.158  0.2008  0.2447 -0.1488
 4328SOL    HW124443   0.827   3.651  17.241  2.7254 -0.5700 -0.8349
 4328SOL    HW224444   0.769   3.528  17.181  1.9106 -0.6345 -1.7830
 4329SOL     OW24445   1.832   4.540   2.900 -0.1100 -0.1161 -0.6478
 4329SOL    HW124446   1.803   4.562   2.812  1.7463  1.0607 -0.9828
 4329SOL    HW224447   1.865   4.452   2.880 -0.4340 -0.9600  2.4641
 4330SOL     OW24448   1.357   3.410  10.049  0.1310  0.6142 -0.2422
 4330SOL    HW124449   1.335   3.376   9.962  1.2876 -0.9271  0.0588
 4330SOL    HW224450   1.388   3.497  10.026  1.0392  0.1768 -0.7033
 4331SOL     OW24451   0.196   1.572   0.560  0.3554 -0.3936  0.4843
 4331SOL    HW124452   0.238   1.495   0.598 -0.3476 -2.0973 -2.1944
 4331SOL    HW224453   0.221   1.558   0.469  3.0312  0.3815  1.0898
 4332SOL     OW24454   3.495   3.107   3.046  0.1701 -0.0427 -0.3367
 4332SOL    HW124455   3.432   3.116   3.117  0.3963 -0.0194 -0.1368
 4332SOL    HW224456   3.508   3.012   3.035 -0.2900 -0.1584  0.1646
 4333SOL     OW24457   1.466   1.857  15.351  0.0630  0.0327 -0.3540
 4333SOL    HW124458   1.544   1.912  15.355 -0.4902  0.7321  1.0461
 4333SOL    HW224459   1.433   1.883  15.437  0.2172  0.0376 -0.2977
 4334SOL     OW24460   1.785   2.747   6.123  0.1778 -0.1487 -0.2537
 4334SOL    HW124461   1.865   2.730   6.074 -0.7770 -0.7241 -1.6189
 4334SOL    HW224462   1.809   2.806   6.194  0.1784 -0.1369 -0.2637
 4335SOL     OW24463   3.500   3.182   1.897  0.2682 -0.1215  0.9908
 4335SOL    HW124464   3.437   3.110   1.898  0.2158 -0.1276 -1.1516
 4335SOL    HW224465   3.466   3.241   1.830  1.4698 -0.7586 -0.1900
 4336SOL     OW24466   3.332   0.207  15.845 -0.0629 -0.3389  0.8320
 4336SOL    HW124467   3.371   0.225  15.759 -1.2585  0.0529  0.3774
 4336SOL    HW224468   3.284   0.289  15.856 -1.6716 -1.1164 -0.4568
 4337SOL     OW24469   1.985   3.460   4.296  0.2824 -1.1994  0.2083
 4337SOL    HW124470   2.057   3.503   4.251  1.9201 -0.9455  3.0433
 4337SOL    HW224471   1.910   3.502   4.254  1.2232 -0.7404 -1.0091
 4338SOL     OW24472   0.400   0.186   0.710  0.0097  0.2384 -0.1804
 4338SOL    HW124473   0.387   0.280   0.708  1.7148  0.4508 -1.2053
 4338SOL    HW224474   0.343   0.158   0.638 -0.3223 -0.8516  0.4969
 4339SOL     OW24475   3.700   0.685  12.215 -0.4761  0.5266 -0.1978
 4339SOL    HW124476   3.702   0.756  12.152 -0.9860 -1.4851 -2.4800
 4339SOL    HW224477   3.666   0.611  12.165 -0.4401 -0.2943  0.9887
 4340SOL     OW24478   3.608   2.177   5.913  0.3796  0.3033  0.1997
 4340SOL    HW124479   3.580   2.094   5.954  0.4652  0.4552  0.5690
 4340SOL    HW224480   3.545   2.194   5.843 -0.1823  1.2014  0.9197
 4341SOL     OW24481   2.678   1.636   4.466  0.1867 -0.3162 -0.7254
 4341SOL    HW124482   2.741   1.707   4.465  1.5965 -1.5662 -0.6949
 4341SOL    HW224483   2.677   1.617   4.373  2.0852  0.3503 -0.8651
 4342SOL     OW24484   1.912   1.696   6.274  0.0633  0.7319 -0.0861
 4342SOL    HW124485   1.892   1.686   6.181  0.4333  0.0891 -0.0954
 4342SOL    HW224486   1.980   1.629   6.282 -1.0335 -0.2947  0.6239
 4343SOL     OW24487   3.782   4.445   0.466 -0.6029 -0.0614  0.0411
 4343SOL    HW124488   3.753   4.535   0.481 -0.4596 -0.1030  0.5551
 4343SOL    HW224489   3.707   4.426   0.409 -0.8052 -1.8787  0.9010
 4344SOL     OW24490   2.933   4.719   3.935  0.0448 -0.0753 -0.2612
 4344SOL    HW124491   2.916   4.684   3.848  1.2594 -1.8395  0.2323
 4344SOL    HW224492   3.027   0.002   3.925  0.0642 -1.7822 -1.8915
 4345SOL     OW24493   0.182   3.472   8.872  0.4155  0.0395  0.8461
 4345SOL    HW124494   0.132   3.554   8.875 -0.1161 -0.1940 -2.0471
 4345SOL    HW224495   0.272   3.498   8.851  0.4499 -2.2081 -1.6492
 4346SOL     OW24496   1.809   3.607   0.407  0.0321 -0.2610  0.0305
 4346SOL    HW124497   1.750   3.632   0.478 -1.5090 -0.7249 -1.0817
 4346SOL    HW224498   1.765   3.524   0.391 -1.9249  0.5176  1.4982
 4347SOL     OW24499   1.126   2.470   5.602  0.3297 -0.2928  0.0569
 4347SOL    HW124500   1.036   2.454   5.576  0.2571  0.1192  0.0599
 4347SOL    HW224501   1.117   2.501   5.692  0.9268 -1.0018  0.3635
 4348SOL     OW24502   0.573   1.686   8.098  0.4921 -0.2315 -0.1354
 4348SOL    HW124503   0.599   1.738   8.175 -0.8079 -0.2671  0.3319
 4348SOL    HW224504   0.619   1.735   8.030 -1.2412  0.7236 -0.6145
 4349SOL     OW24505   1.595   4.184   2.956  0.0735 -0.0914 -0.2852
 4349SOL    HW124506   1.630   4.219   3.037 -0.7599  1.1524 -0.4764
 4349SOL    HW224507   1.658   4.113   2.944  1.6925  1.1490  0.8980
 4350SOL     OW24508   3.286   0.619   2.078  0.1382 -0.2454  0.6446
 4350SOL    HW124509   3.219   0.687   2.088  0.0903 -0.1377 -0.4133
 4350SOL    HW224510   3.364   0.637   2.130  1.0054 -1.1693 -0.3468
 4351SOL     OW24511   3.425   2.232  16.411 -0.0746  0.1919  0.4899
 4351SOL    HW124512   3.373   2.186  16.476 -1.2989  1.2586  0.2707
 4351SOL    HW224513   3.477   2.298  16.456 -0.4682 -0.7507  2.3017
 4352SOL     OW24514   4.414   0.862   8.808  0.4531 -0.0715 -0.5661
 4352SOL    HW124515   4.490   0.806   8.823  0.1746 -0.7192 -1.5433
 4352SOL    HW224516   4.426   0.919   8.884  1.4717 -1.0672  0.0104
 4353SOL     OW24517   2.046   1.282   7.178  0.1473  0.5266  0.1103
 4353SOL    HW124518   1.968   1.307   7.129 -0.0988  0.2908  0.3794
 4353SOL    HW224519   2.084   1.215   7.121 -1.6237 -1.0900  0.8419
 4354SOL     OW24520   4.693   3.745   1.677 -0.3528  0.4367 -0.3245
 4354SOL    HW124521   4.710   3.823   1.731  0.8715  0.2776 -0.4742
 4354SOL    HW224522   4.705   3.682   1.748  0.3093  0.8415 -0.0752
 4355SOL     OW24523   0.683   1.544   5.880 -0.6206  0.2932  0.0071
 4355SOL    HW124524   0.727   1.463   5.856 -0.9215  0.0988  0.1107
 4355SOL    HW224525   0.623   1.514   5.947  0.5704  0.5304  1.1766
 4356SOL     OW24526   0.827   4.015   8.976 -0.3563 -0.0299  0.0741
 4356SOL    HW124527   0.906   4.006   9.030 -0.1160  2.1906  0.1222
 4356SOL    HW224528   0.828   4.104   8.941 -0.8323 -0.5119 -1.1539
 4357SOL     OW24529   4.676   3.168  14.978 -1.1700 -0.8033 -0.0335
 4357SOL    HW124530   4.710   3.254  14.952 -1.4561 -0.4112  0.8702
 4357SOL    HW224531   4.704   3.113  14.905  0.3025 -0.2455  0.1051
 4358SOL     OW24532   0.576   0.458  12.406  0.0991 -0.3681 -0.3216
 4358SOL    HW124533   0.626   0.464  12.325  0.9069  2.8756  0.4200
 4358SOL    HW224534   0.627   0.397  12.458  0.7265  0.9430  0.5748
 4359SOL     OW24535   0.437   2.190  12.578  0.5778  0.0525  0.2424
 4359SOL    HW124536   0.525   2.190  12.614  0.3909  0.1240  0.7009
 4359SOL    HW224537   0.452   2.250  12.504  0.8429 -0.4281 -0.0875
 4360SOL     OW24538   2.761   4.354  10.067 -0.7397 -0.2168 -0.3756
 4360SOL    HW124539   2.766   4.383   9.976 -0.6299 -0.0495 -0.3173
 4360SOL    HW224540   2.723   4.430  10.112  1.9589  0.2189  1.1935
 4361SOL     OW24541   2.461   2.700   5.181  0.1671  0.1543 -0.4042
 4361SOL    HW124542   2.405   2.624   5.195  0.9419 -0.6102 -1.5354
 4361SOL    HW224543   2.402   2.772   5.205  0.1120 -0.6443  1.8320
 4362SOL     OW24544   0.322   1.332   7.447  0.4014 -0.3169  0.4352
 4362SOL    HW124545   0.297   1.263   7.386  2.8974 -1.8009  1.0926
 4362SOL    HW224546   0.246   1.391   7.452 -1.3493 -2.7195  2.0371
 4363SOL     OW24547   0.555   2.646   6.551  0.2438 -0.0725  0.3636
 4363SOL    HW124548   0.469   2.657   6.512  1.9085  3.0803 -2.4015
 4363SOL    HW224549   0.517   2.611   6.632  2.3632 -2.6004  0.2606
 4364SOL     OW24550   1.757   3.182   3.636 -0.5265  0.5177 -0.0492
 4364SOL    HW124551   1.831   3.213   3.689  0.3374  2.4208 -2.3687
 4364SOL    HW224552   1.722   3.117   3.696  0.1803  1.3618  1.2855
 4365SOL     OW24553   1.530   0.106   9.502  0.1712 -0.1629  0.3351
 4365SOL    HW124554   1.612   0.065   9.528  0.2487 -2.3089 -3.2741
 4365SOL    HW224555   1.566   0.175   9.446 -0.3580 -0.2488 -0.1151
 4366SOL     OW24556   1.243   1.913  14.128  0.3946 -0.0295 -0.1161
 4366SOL    HW124557   1.230   1.955  14.213  2.7517 -0.1194  0.2958
 4366SOL    HW224558   1.184   1.965  14.072  0.7833 -0.2158 -0.7035
 4367SOL     OW24559   2.850   3.550  11.172  0.3880  0.1297  0.5243
 4367SOL    HW124560   2.900   3.540  11.254 -1.2955 -1.0244  1.4062
 4367SOL    HW224561   2.817   3.463  11.150 -0.8635  0.8140 -0.3018
 4368SOL     OW24562   0.898   0.365   3.682  0.0821 -0.1357  0.1216
 4368SOL    HW124563   0.975   0.333   3.636  0.1315  0.1003  0.0408
 4368SOL    HW224564   0.850   0.384   3.601 -0.4676  0.0575  0.4905
 4369SOL     OW24565   1.200   0.592   0.663 -0.3322 -0.4122 -0.1717
 4369SOL    HW124566   1.269   0.630   0.717 -1.0777 -0.7486  1.0142
 4369SOL    HW224567   1.149   0.547   0.730 -0.4854 -0.2648 -0.1893
 4370SOL     OW24568   3.813   0.625   0.321 -0.6094 -0.2165 -0.5206
 4370SOL    HW124569   3.757   0.580   0.384  0.3708 -1.1078 -0.2912
 4370SOL    HW224570   3.746   0.681   0.282 -2.2111 -1.6429  0.1859
 4371SOL     OW24571   0.758   4.609   4.767  0.1535  0.2663 -0.2291
 4371SOL    HW124572   0.712   4.532   4.735  0.3733 -0.3883  1.0203
 4371SOL    HW224573   0.684   4.666   4.749  1.2564  2.2484  1.4777
 4372SOL     OW24574   1.445   1.487  12.248 -0.4379  0.1227  0.3584
 4372SOL    HW124575   1.536   1.515  12.242 -0.1373 -0.7876  0.5906
 4372SOL    HW224576   1.398   1.569  12.231 -2.3988 -0.7848  1.3660
 4373SOL     OW24577   4.451   4.594   6.717 -0.2790 -0.1321  0.6261
 4373SOL    HW124578   4.373   4.621   6.765  1.0665 -0.4314  2.9977
 4373SOL    HW224579   4.433   4.566   6.627 -1.8146  0.7836  0.6630
 4374SOL     OW24580   4.171   3.583  11.684 -0.2750  0.4023 -0.3879
 4374SOL    HW124581   4.123   3.564  11.603  0.7164  0.6260 -1.0301
 4374SOL    HW224582   4.235   3.652  11.670  0.9525 -0.7431 -0.4173
 4375SOL     OW24583   2.912   2.413   3.406  0.3321  0.1629 -0.4326
 4375SOL    HW124584   2.970   2.488   3.392 -1.2297  1.5206  0.3691
 4375SOL    HW224585   2.830   2.462   3.410  0.3766 -0.0474  3.1342
 4376SOL     OW24586   4.379   4.002   6.308 -0.2292 -0.2490  0.3619
 4376SOL    HW124587   4.405   3.941   6.239 -0.7048 -1.8837  1.6479
 4376SOL    HW224588   4.287   3.980   6.319 -0.3094 -1.0131 -1.7875
 4377SOL     OW24589   4.479   3.006  16.424  0.3913 -0.1871  0.7124
 4377SOL    HW124590   4.406   3.054  16.384  0.5901 -1.0388 -0.6818
 4377SOL    HW224591   4.536   2.986  16.349  1.7112 -0.6148  1.8435
 4378SOL     OW24592   3.904   1.955  12.681 -0.3194  0.4772  1.1401
 4378SOL    HW124593   3.810   1.949  12.668 -0.1132 -0.3989  0.0449
 4378SOL    HW224594   3.936   1.929  12.595  0.2642  1.3374  1.0937
 4379SOL     OW24595   3.379   0.206   4.961  0.1519 -0.4538 -0.8795
 4379SOL    HW124596   3.443   0.141   4.933 -1.6755 -1.7376 -2.0841
 4379SOL    HW224597   3.357   0.236   4.873  0.1410  0.1871 -0.6597
 4380SOL     OW24598   1.814   0.836   1.650  0.3167 -0.7378 -0.2254
 4380SOL    HW124599   1.872   0.828   1.575 -0.0335 -0.7130 -0.5028
 4380SOL    HW224600   1.807   0.931   1.657  0.3273 -0.6473 -1.5685
 4381SOL     OW24601   3.202   3.522  12.778 -0.5877  0.2002  0.3112
 4381SOL    HW124602   3.265   3.536  12.707 -1.1097  0.3542 -0.1223
 4381SOL    HW224603   3.210   3.604  12.827 -0.3079  0.0932  0.4437
 4382SOL     OW24604   4.246   1.858   7.720  0.3990  0.5217  0.0375
 4382SOL    HW124605   4.301   1.808   7.781 -2.3944 -0.4720  1.7375
 4382SOL    HW224606   4.299   1.933   7.693  1.4651 -0.5586 -0.8333
 4383SOL     OW24607   2.440   1.163  10.790  0.8610  0.6790  0.6043
 4383SOL    HW124608   2.410   1.073  10.802  1.4605  0.1736 -1.6995
 4383SOL    HW224609   2.535   1.152  10.793  1.0863  1.8551 -2.1726
 4384SOL     OW24610   0.800   1.621   4.707  0.2346  0.0150  0.1870
 4384SOL    HW124611   0.771   1.623   4.616 -1.4510  1.5994  0.7582
 4384SOL    HW224612   0.890   1.593   4.690 -0.7102 -1.8411 -1.7571
 4385SOL     OW24613   2.666   4.646   2.839 -0.0516  0.4008 -0.3094
 4385SOL    HW124614   2.695   4.580   2.776 -0.8962  0.9431 -1.2645
 4385SOL    HW224615   2.722   4.632   2.915  0.1551 -0.8453 -0.7020
 4386SOL     OW24616   4.148   0.720   1.550  1.0070  0.0712 -0.3110
 4386SOL    HW124617   4.058   0.688   1.540  0.4411  1.1888  1.1507
 4386SOL    HW224618   4.136   0.779   1.624  0.2340 -1.6487  0.9123
 4387SOL     OW24619   0.558   4.018   6.446  0.2561 -0.3409 -0.5440
 4387SOL    HW124620   0.464   4.010   6.458  0.2406 -0.2922 -0.6274
 4387SOL    HW224621   0.587   3.961   6.517  0.7942  1.8036  0.9632
 4388SOL     OW24622   3.013   0.631   1.353  0.0646  0.8171  0.2526
 4388SOL    HW124623   2.924   0.639   1.387  0.8163  2.7506  1.7982
 4388SOL    HW224624   3.018   0.537   1.372 -0.1630  0.4389 -1.6283
 4389SOL     OW24625   0.124   4.719  15.897 -0.1209  0.3742  0.1297
 4389SOL    HW124626   0.192   4.654  15.880 -0.7246  0.3755 -2.2124
 4389SOL    HW224627   0.165   0.055  15.956 -1.8467  2.4827 -0.9699
 4390SOL     OW24628   0.714   1.033   5.686  0.0338 -0.3711  0.3431
 4390SOL    HW124629   0.773   1.065   5.617 -0.2293 -0.0960  0.2439
 4390SOL    HW224630   0.731   1.099   5.753 -0.5187 -1.2101  1.3073
 4391SOL     OW24631   2.506   4.070   2.807  0.4276  0.0726 -0.4581
 4391SOL    HW124632   2.534   4.013   2.879  1.9990  1.5585  0.1158
 4391SOL    HW224633   2.584   4.116   2.775  0.5175 -0.2064 -0.6410
 4392SOL     OW24634   4.089   0.374   1.585 -0.1733  0.0644 -0.2860
 4392SOL    HW124635   4.131   0.328   1.512 -0.4906 -0.2017 -0.3000
 4392SOL    HW224636   4.028   0.434   1.542 -0.0286 -0.8357 -1.7641
 4393SOL     OW24637   1.378   2.690   7.613  0.3489 -0.0522  0.6400
 4393SOL    HW124638   1.463   2.732   7.619  0.8133 -0.6643 -1.5922
 4393SOL    HW224639   1.401   2.597   7.604 -1.3859 -0.4186 -0.0654
 4394SOL     OW24640   1.021   1.442   6.602  0.0918 -0.5389  0.0298
 4394SOL    HW124641   1.009   1.349   6.618 -1.2782 -0.7774 -2.3334
 4394SOL    HW224642   1.085   1.466   6.668  0.6813 -5.6496  1.2488
 4395SOL     OW24643   4.148   3.926  11.017 -0.0489  0.1351  0.0208
 4395SOL    HW124644   4.189   4.012  11.007  0.2656 -0.0019  0.1275
 4395SOL    HW224645   4.165   3.885  10.932 -2.1978  0.1918 -0.4287
 4396SOL     OW24646   0.262   1.313   7.821 -0.1572  0.1565  0.1049
 4396SOL    HW124647   0.303   1.365   7.890  1.5311 -0.9693 -0.0344
 4396SOL    HW224648   0.325   1.311   7.748 -0.4171  0.3306 -0.1237
 4397SOL     OW24649   0.134   3.724   5.325  0.1974  0.0251 -0.0752
 4397SOL    HW124650   0.165   3.651   5.272  0.1616  2.0377 -2.8472
 4397SOL    HW224651   0.041   3.725   5.305  0.4504  2.5448 -0.9833
 4398SOL     OW24652   2.301   2.783  15.554  0.0299 -0.2994 -0.9574
 4398SOL    HW124653   2.395   2.795  15.544  0.1442 -1.0304 -0.7208
 4398SOL    HW224654   2.280   2.876  15.553 -0.2406 -0.3708 -1.8115
 4399SOL     OW24655   3.723   1.476   7.829  0.6194  0.3797 -0.1259
 4399SOL    HW124656   3.801   1.515   7.869 -0.5256  1.0645  1.4568
 4399SOL    HW224657   3.718   1.534   7.754  0.0858  0.4590 -0.0256
 4400SOL     OW24658   4.573   1.320   0.141  0.2320  0.5044  0.1596
 4400SOL    HW124659   4.649   1.330   0.198  1.3814 -0.9954 -1.1126
 4400SOL    HW224660   4.575   1.225   0.133  0.1690  0.6421 -1.4731
 4401SOL     OW24661   0.232   3.884  13.887 -0.2000 -0.2344  0.1668
 4401SOL    HW124662   0.161   3.938  13.923 -1.1929 -0.3362 -1.6473
 4401SOL    HW224663   0.274   3.940  13.821  1.6148 -0.7129  0.9005
 4402SOL     OW24664   1.310   4.541   0.586  0.3566  0.0745 -0.7080
 4402SOL    HW124665   1.378   4.493   0.632  0.8303  0.7061 -0.7395
 4402SOL    HW224666   1.361   4.607   0.539 -0.2670  1.3007  0.3382
 4403SOL     OW24667   2.829   2.670   7.184  0.2333 -0.0994 -0.1836
 4403SOL    HW124668   2.859   2.711   7.103 -2.1011  5.0841  1.5385
 4403SOL    HW224669   2.822   2.738   7.251  0.4290 -2.3262  2.0925
 4404SOL     OW24670   3.511   2.272  15.900  0.6397  0.3964  0.3095
 4404SOL    HW124671   3.494   2.295  15.991  0.4812  0.3709  0.2856
 4404SOL    HW224672   3.425   2.298  15.869  0.7847  1.3772  0.7274
 4405SOL     OW24673   3.813   1.345  11.175  0.3242 -0.2513 -0.0739
 4405SOL    HW124674   3.906   1.337  11.197  0.4307 -1.5992 -0.9899
 4405SOL    HW224675   3.786   1.254  11.160 -0.6029 -0.2039  1.3686
 4406SOL     OW24676   1.860   1.718  10.399  0.1687  0.1235  0.0679
 4406SOL    HW124677   1.882   1.774  10.473  0.1445  1.7295 -1.1385
 4406SOL    HW224678   1.832   1.779  10.330 -1.0870 -0.4807  0.0533
 4407SOL     OW24679   4.198   2.140   3.727 -0.2032  0.1292 -0.0155
 4407SOL    HW124680   4.178   2.219   3.677 -0.4006 -1.3879 -2.3509
 4407SOL    HW224681   4.115   2.136   3.775  0.6885  0.4602  1.5502
 4408SOL     OW24682   2.987   3.378   9.609 -0.4184 -0.5728 -0.0401
 4408SOL    HW124683   3.050   3.308   9.625  0.8704  0.2455 -1.5180
 4408SOL    HW224684   2.944   3.386   9.694  0.2178 -1.7470  0.3853
 4409SOL     OW24685   4.143   0.133   4.739  0.0217  0.5294 -0.2040
 4409SOL    HW124686   4.064   0.147   4.791 -0.8105 -1.1113 -1.0473
 4409SOL    HW224687   4.101   0.119   4.654 -0.9890 -0.8888  0.5391
 4410SOL     OW24688   3.685   1.826   7.414 -0.3234  0.0319  0.1132
 4410SOL    HW124689   3.681   1.852   7.322 -0.1218 -0.4058 -0.0208
 4410SOL    HW224690   3.713   1.904   7.462 -0.5638 -0.2816  0.7571
 4411SOL     OW24691   2.040   4.378  11.184  0.5890  0.1898  0.2015
 4411SOL    HW124692   1.987   4.430  11.124  2.5540  0.5822 -1.2366
 4411SOL    HW224693   1.974   4.356  11.249 -0.3760  1.0629 -0.4819
 4412SOL     OW24694   2.641   3.575  10.293 -0.0273 -0.5095  0.6861
 4412SOL    HW124695   2.592   3.644  10.336 -0.3894 -0.3874  0.0799
 4412SOL    HW224696   2.721   3.616  10.260 -0.4132  0.4013  0.8709
 4413SOL     OW24697   2.378   2.931   4.860  0.1270  0.1132  0.0032
 4413SOL    HW124698   2.350   2.903   4.947 -1.8072 -0.2710 -0.7246
 4413SOL    HW224699   2.387   3.026   4.861  1.2965  0.0022  0.0811
 4414SOL     OW24700   2.639   3.258  16.444 -0.0441  0.6020  0.5546
 4414SOL    HW124701   2.659   3.259  16.538  0.2706  0.2359  0.4964
 4414SOL    HW224702   2.560   3.205  16.441 -0.2962  0.8899  2.0446
 4415SOL     OW24703   4.401   4.242   7.471 -0.0209 -0.1222 -0.4230
 4415SOL    HW124704   4.354   4.187   7.534  3.0282  1.0355  2.8659
 4415SOL    HW224705   4.373   4.327   7.506  1.7529  0.3261 -0.0913
 4416SOL     OW24706   3.727   0.459   6.207 -0.1009 -0.3853 -0.2692
 4416SOL    HW124707   3.754   0.411   6.128 -4.3338 -0.5878 -1.6420
 4416SOL    HW224708   3.638   0.489   6.189  0.2591  0.0818 -1.2702
 4417SOL     OW24709   4.535   4.046   8.964  0.0185 -0.0135  1.1329
 4417SOL    HW124710   4.540   4.051   8.869 -0.3101 -2.7561  0.9549
 4417SOL    HW224711   4.601   4.111   8.987  0.2832 -0.4405  1.5906
 4418SOL     OW24712   2.283   3.136   3.416 -0.0874  0.6360 -0.2325
 4418SOL    HW124713   2.302   3.230   3.414  0.5471  0.5413  1.1441
 4418SOL    HW224714   2.188   3.141   3.403 -0.0793 -0.2007 -0.6081
 4419SOL     OW24715   3.028   2.794   6.986 -0.3304 -0.3887  0.0538
 4419SOL    HW124716   3.106   2.758   7.028  0.8266  0.4354 -1.3923
 4419SOL    HW224717   3.052   2.790   6.894  0.0756  1.8712  0.0471
 4420SOL     OW24718   3.659   1.865   8.539  0.6325 -0.4810  0.3210
 4420SOL    HW124719   3.641   1.958   8.523  1.0329 -0.3570  0.5884
 4420SOL    HW224720   3.744   1.860   8.583  1.6725 -1.3613 -1.8122
 4421SOL     OW24721   2.229   4.222  11.021  0.2973  0.1431  0.4308
 4421SOL    HW124722   2.212   4.221  11.115  0.8164  0.1450  0.5213
 4421SOL    HW224723   2.139   4.203  10.993  0.1366  1.1562  0.2354
 4422SOL     OW24724   1.679   1.121   5.639 -0.3708  0.2726  0.6798
 4422SOL    HW124725   1.625   1.092   5.712 -0.5435 -0.0098  0.4419
 4422SOL    HW224726   1.753   1.064   5.663 -0.6815 -0.3943  0.0729
 4423SOL     OW24727   0.123   4.202   6.687  0.0177  0.2500 -0.0401
 4423SOL    HW124728   0.059   4.263   6.650  0.2368  2.0960  2.6752
 4423SOL    HW224729   0.149   4.152   6.610 -1.5449 -1.2001  0.3816
 4424SOL     OW24730   4.123   1.628   0.323 -0.0141 -0.1930  0.2252
 4424SOL    HW124731   4.166   1.604   0.242  2.0022  0.5021  1.0782
 4424SOL    HW224732   4.146   1.721   0.326  0.9616 -0.4071 -0.6845
 4425SOL     OW24733   3.670   3.154   5.978  0.1107 -0.0017  0.4736
 4425SOL    HW124734   3.740   3.132   5.917 -1.1730  2.2399 -1.7977
 4425SOL    HW224735   3.720   3.197   6.048  0.2923 -0.1239  0.4193
 4426SOL     OW24736   0.644   1.018   4.941  0.4037 -0.3090  0.3321
 4426SOL    HW124737   0.676   1.085   5.002  0.9618  0.7145 -1.0692
 4426SOL    HW224738   0.562   0.988   4.980 -0.5585  1.3626 -0.4003
 4427SOL     OW24739   1.561   2.100   3.184 -0.3492 -0.0660 -0.2366
 4427SOL    HW124740   1.470   2.097   3.155 -0.5087  1.1644  0.1346
 4427SOL    HW224741   1.583   2.013   3.150  1.6399  1.5345 -3.0162
 4428SOL     OW24742   1.625   0.788   8.632  0.1340  0.4283 -0.2322
 4428SOL    HW124743   1.547   0.833   8.599 -1.1964 -0.0712  2.2345
 4428SOL    HW224744   1.608   0.757   8.721 -0.9135  0.3174 -0.4687
 4429SOL     OW24745   2.681   3.853  11.174 -0.8198 -0.4205 -0.3518
 4429SOL    HW124746   2.644   3.935  11.140  0.0687 -0.3458 -1.1688
 4429SOL    HW224747   2.644   3.852  11.261  0.1441  1.0744  0.0884
 4430SOL     OW24748   2.051   1.498  10.605 -0.3426  0.2519  0.0424
 4430SOL    HW124749   2.116   1.553  10.561 -1.4581  0.0062 -1.9194
 4430SOL    HW224750   2.103   1.419  10.614 -0.1564  0.3760  0.0553
 4431SOL     OW24751   3.185   1.647   7.475 -0.1998 -0.0714  0.1222
 4431SOL    HW124752   3.227   1.710   7.417  0.5204  0.6718  1.4438
 4431SOL    HW224753   3.261   1.621   7.528 -1.2951  1.5924  2.5184
 4432SOL     OW24754   1.731   2.325  13.493 -0.4017 -0.3323 -0.2954
 4432SOL    HW124755   1.713   2.328  13.399  1.9850  0.6121 -0.7002
 4432SOL    HW224756   1.713   2.414  13.522  0.0797  0.5760 -2.7713
 4433SOL     OW24757   0.886   4.706   4.515  0.4886  0.0759  0.3291
 4433SOL    HW124758   0.814   4.695   4.577  0.0063  1.2467 -0.0269
 4433SOL    HW224759   0.887   0.074   4.507  0.4369  0.0721  0.2758
 4434SOL     OW24760   0.305   4.229   1.773 -0.1254 -0.3901  0.1273
 4434SOL    HW124761   0.386   4.214   1.724 -0.1427  0.6641 -0.2241
 4434SOL    HW224762   0.321   4.318   1.805  0.7111 -0.9364  1.2395
 4435SOL     OW24763   4.686   3.063   8.390 -1.1671  0.8209  0.3040
 4435SOL    HW124764   4.721   3.027   8.472  2.7330  2.7285 -0.5352
 4435SOL    HW224765   0.037   3.058   8.336 -1.7951  2.0361 -0.6894
 4436SOL     OW24766   3.484   3.992  14.364 -0.0779  0.0953  0.1194
 4436SOL    HW124767   3.563   3.940  14.351 -0.8307 -0.9022 -0.4616
 4436SOL    HW224768   3.468   4.031  14.279 -0.2903 -1.0676 -0.3713
 4437SOL     OW24769   3.126   2.902  10.672  0.0641 -0.0856  0.0829
 4437SOL    HW124770   3.173   2.827  10.636  1.7500  0.4418  1.1507
 4437SOL    HW224771   3.098   2.960  10.601  1.6123  2.0542  1.2192
 4438SOL     OW24772   3.221   3.026  12.693  0.0328 -0.4972  0.3492
 4438SOL    HW124773   3.185   2.969  12.761  0.5939 -2.5270 -1.0509
 4438SOL    HW224774   3.295   3.062  12.741 -1.0714  1.0064  0.9215
 4439SOL     OW24775   3.617   0.730   1.703  0.2899  0.1838  0.2897
 4439SOL    HW124776   3.536   0.778   1.718  0.4629  0.7528 -0.5711
 4439SOL    HW224777   3.682   0.800   1.709 -0.7911  1.3739 -1.8429
 4440SOL     OW24778   0.311   2.092   4.550  0.0981 -0.4030 -0.1903
 4440SOL    HW124779   0.392   2.041   4.553  0.1001 -0.4007 -0.2057
 4440SOL    HW224780   0.349   2.179   4.544 -3.0072  0.8544 -1.6348
 4441SOL     OW24781   2.966   0.483   3.868 -0.2679  0.6489  0.4691
 4441SOL    HW124782   2.873   0.499   3.886 -1.1195 -3.3673 -0.3944
 4441SOL    HW224783   2.960   0.437   3.785  0.6341  0.6949  0.3830
 4442SOL     OW24784   2.739   1.533   2.465 -0.0452  0.2865 -0.0814
 4442SOL    HW124785   2.768   1.548   2.375  0.3999 -1.8938 -0.3009
 4442SOL    HW224786   2.777   1.614   2.498  1.7061 -0.3388 -0.5279
 4443SOL     OW24787   0.290   2.260   6.609  0.0350  0.1750  0.6323
 4443SOL    HW124788   0.353   2.223   6.671  1.1926  1.3815  0.1940
 4443SOL    HW224789   0.319   2.236   6.521 -0.2545  1.1502  0.2783
 4444SOL     OW24790   4.401   3.473   4.372  0.3382 -0.3632  0.0633
 4444SOL    HW124791   4.464   3.451   4.441  1.7641  1.0719 -0.7665
 4444SOL    HW224792   4.456   3.524   4.312 -1.3289  2.4056  0.8924
 4445SOL     OW24793   1.098   1.788  13.625  0.1115 -0.5070 -0.1205
 4445SOL    HW124794   1.067   1.757  13.540  0.8467  3.4315 -1.8257
 4445SOL    HW224795   1.101   1.711  13.683  0.5597 -1.8942 -1.9866
 4446SOL     OW24796   1.770   4.016   1.762  0.5721  0.3634 -0.3091
 4446SOL    HW124797   1.819   3.994   1.683  0.5912  0.2778 -0.2726
 4446SOL    HW224798   1.685   3.974   1.750  0.5588  0.4315 -0.4609
 4447SOL     OW24799   2.449   3.971  12.566  0.2010  0.1862 -0.4779
 4447SOL    HW124800   2.432   3.923  12.485 -0.5501  0.0497 -0.2358
 4447SOL    HW224801   2.389   4.046  12.562  0.2407  0.3007  0.9041
 4448SOL     OW24802   1.802   4.340   7.229  0.3187  0.3019  0.5208
 4448SOL    HW124803   1.894   4.324   7.210 -0.0652 -1.4389  0.1301
 4448SOL    HW224804   1.754   4.271   7.183  1.3595 -0.5868  0.7798
 4449SOL     OW24805   0.205   1.491   2.080  0.6191  0.1912 -0.1786
 4449SOL    HW124806   0.228   1.537   2.160 -1.5329  0.2285  0.4241
 4449SOL    HW224807   0.268   1.526   2.017 -0.0643 -0.6190 -1.3095
 4450SOL     OW24808   2.807   1.130   6.098 -0.3773  0.1017 -0.3159
 4450SOL    HW124809   2.786   1.163   6.011  0.7342 -0.1565 -0.6861
 4450SOL    HW224810   2.867   1.062   6.066  0.8317  1.5858 -1.1900
 4451SOL     OW24811   0.198   1.731  15.111  0.3227  0.0961 -0.1596
 4451SOL    HW124812   0.152   1.812  15.135  2.2582  1.1339 -0.0064
 4451SOL    HW224813   0.122   1.678  15.086  0.8238  0.0373 -1.5607
 4452SOL     OW24814   2.678   0.836   0.430  0.3387  0.8201  0.6477
 4452SOL    HW124815   2.617   0.910   0.422  0.0211  0.5895  0.9435
 4452SOL    HW224816   2.719   0.856   0.514  0.2659  0.1961  0.8309
 4453SOL     OW24817   0.731   2.294   4.409 -0.2483  0.2350  0.1369
 4453SOL    HW124818   0.746   2.370   4.353 -0.9346  1.1798  1.2355
 4453SOL    HW224819   0.820   2.259   4.416 -0.3914 -0.0301  0.6360
 4454SOL     OW24820   3.225   0.178   0.172  0.3380  0.6450  0.2597
 4454SOL    HW124821   3.261   0.139   0.252 -0.4393 -1.9661 -0.6614
 4454SOL    HW224822   3.172   0.107   0.137 -0.9082  2.4284 -1.4712
 4455SOL     OW24823   4.446   1.077   2.932  0.1692  0.2489 -0.4138
 4455SOL    HW124824   4.484   1.160   2.905 -0.8094  0.8914  0.2097
 4455SOL    HW224825   4.406   1.059   2.846  0.7605  0.8897 -0.8260
 4456SOL     OW24826   1.217   3.816   8.341 -0.7624  0.0275  0.0304
 4456SOL    HW124827   1.141   3.772   8.303 -0.1069 -1.4711  0.4555
 4456SOL    HW224828   1.191   3.809   8.433 -1.1658  1.6177  0.0279
 4457SOL     OW24829   1.316   0.180  13.190  0.4956  0.1765  0.0494
 4457SOL    HW124830   1.310   0.209  13.281  3.3958  1.5055 -0.1964
 4457SOL    HW224831   1.285   0.261  13.150 -2.6719 -0.7530  0.6075
 4458SOL     OW24832   2.333   1.741  11.969  0.0904 -0.1068 -0.5587
 4458SOL    HW124833   2.352   1.671  12.031  0.4820  1.1200  0.6984
 4458SOL    HW224834   2.396   1.732  11.898 -0.0829  0.1570 -0.7453
 4459SOL     OW24835   2.948   3.763   4.645 -0.9149 -0.0840 -0.1964
 4459SOL    HW124836   3.032   3.731   4.678 -1.6878 -0.0886  1.7689
 4459SOL    HW224837   2.903   3.802   4.720 -0.9233  1.0503 -0.7850
 4460SOL     OW24838   2.818   1.747   5.147  0.2862 -0.2266 -0.4638
 4460SOL    HW124839   2.866   1.694   5.211  0.6597  1.1394  0.3892
 4460SOL    HW224840   2.842   1.707   5.064  1.8223 -1.8451  0.7485
 4461SOL     OW24841   1.425   4.638   1.371 -0.0893  0.0997 -0.1507
 4461SOL    HW124842   1.419   4.695   1.294 -1.8450 -1.3711 -1.0892
 4461SOL    HW224843   1.409   4.553   1.330 -0.9664 -0.2596  0.9681
 4462SOL     OW24844   0.246   0.637   9.838  0.2477 -0.2035 -0.2403
 4462SOL    HW124845   0.192   0.685   9.775 -0.4782  0.4783  0.9127
 4462SOL    HW224846   0.334   0.670   9.819 -0.4584  1.2970 -0.9297
 4463SOL     OW24847   4.248   4.018   7.649  0.1585 -0.2119  0.5176
 4463SOL    HW124848   4.192   3.957   7.698  1.4194  0.5256  2.8718
 4463SOL    HW224849   4.200   4.100   7.660 -0.2518 -0.4507  0.5301
 4464SOL     OW24850   2.745   1.408   0.099 -0.1334 -0.1172  0.2810
 4464SOL    HW124851   2.742   1.315   0.077  0.0423  0.0968 -0.6423
 4464SOL    HW224852   2.732   1.444   0.011 -0.7947  2.2930  1.3708
 4465SOL     OW24853   3.003   0.964   2.852  0.1483 -1.0176 -0.1473
 4465SOL    HW124854   2.933   0.898   2.858  0.1408 -0.8018  2.2864
 4465SOL    HW224855   2.965   1.038   2.805 -1.9866 -2.4856 -0.7687
 4466SOL     OW24856   2.493   4.613   8.732 -0.8235  0.5651  0.5797
 4466SOL    HW124857   2.459   4.620   8.821 -0.2963  1.4406  0.7127
 4466SOL    HW224858   2.550   4.536   8.743 -2.0533 -0.6005 -1.1569
 4467SOL     OW24859   2.022   4.114   2.299 -0.3222  0.3993 -0.2836
 4467SOL    HW124860   2.039   4.193   2.247  0.1448 -0.8655 -2.0534
 4467SOL    HW224861   2.108   4.071   2.294 -0.8752 -0.8478  0.8351
 4468SOL     OW24862   3.481   3.103   8.327 -0.2003 -0.2040  0.2620
 4468SOL    HW124863   3.444   3.156   8.398  0.9863  0.4376  0.4015
 4468SOL    HW224864   3.544   3.049   8.376  3.1637  2.1437 -1.4815
 4469SOL     OW24865   4.722   1.915   5.742  0.3014  0.3783  0.1302
 4469SOL    HW124866   0.047   1.929   5.821  0.5982  0.5659 -0.0973
 4469SOL    HW224867   0.011   1.822   5.727 -2.2966  0.2886 -2.1616
 4470SOL     OW24868   3.831   2.833   3.799  0.1495 -0.2372 -0.1800
 4470SOL    HW124869   3.899   2.899   3.784 -1.9101  2.0446  0.4916
 4470SOL    HW224870   3.797   2.882   3.874 -0.9574  0.0678 -0.8851
 4471SOL     OW24871   1.912   2.478   5.338  0.0594 -0.6970 -0.4524
 4471SOL    HW124872   1.972   2.502   5.267  2.4431  1.5225  2.3098
 4471SOL    HW224873   1.892   2.566   5.371  0.1350 -0.4351 -1.1011
 4472SOL     OW24874   3.825   4.670   7.941 -0.0673  0.0191  0.4291
 4472SOL    HW124875   3.788   0.026   7.913 -2.1987 -1.1497 -0.2102
 4472SOL    HW224876   3.888   4.700   8.007  0.4775  0.6156 -0.3613
 4473SOL     OW24877   3.379   3.579   6.588 -0.2234  0.0564 -0.1692
 4473SOL    HW124878   3.346   3.602   6.674  1.9897  0.0809  0.6872
 4473SOL    HW224879   3.444   3.510   6.605  0.0888  0.5931  0.7707
 4474SOL     OW24880   3.443   2.499  11.885 -0.6873  0.5526 -0.2869
 4474SOL    HW124881   3.348   2.504  11.897 -0.5033  0.3731  1.2246
 4474SOL    HW224882   3.453   2.404  11.874 -0.7325  0.2095  2.5584
 4475SOL     OW24883   3.359   1.012  12.427 -0.0471  0.0951  0.1056
 4475SOL    HW124884   3.384   0.920  12.440 -3.0844 -0.6505  0.4943
 4475SOL    HW224885   3.430   1.063  12.465 -0.7168  0.5980  0.6671
 4476SOL     OW24886   3.692   3.922   7.322 -0.0924 -0.4633  0.0083
 4476SOL    HW124887   3.749   3.991   7.356 -0.4341 -0.8398  1.3385
 4476SOL    HW224888   3.733   3.846   7.365  0.8952 -1.1015 -2.0029
 4477SOL     OW24889   3.007   1.195  15.706 -0.6314  0.3883  0.0794
 4477SOL    HW124890   3.019   1.280  15.663 -1.1212  0.3465 -0.1368
 4477SOL    HW224891   3.047   1.138  15.640 -0.8065  0.4935 -0.1167
 4478SOL     OW24892   1.306   4.010   7.750 -0.5203 -0.1656  0.6724
 4478SOL    HW124893   1.218   4.039   7.722 -0.9857  0.9075  3.2007
 4478SOL    HW224894   1.276   3.967   7.830 -1.0780  0.4797  0.8163
 4479SOL     OW24895   2.617   1.136   4.583  0.7468 -0.0272  0.4426
 4479SOL    HW124896   2.668   1.059   4.606  2.4706  0.5331 -1.5110
 4479SOL    HW224897   2.684   1.201   4.561  0.9986 -0.6919 -0.7514
 4480SOL     OW24898   0.260   4.601   0.270 -0.0360  0.0659 -0.4840
 4480SOL    HW124899   0.205   4.673   0.300  1.6832  1.2825 -0.2038
 4480SOL    HW224900   0.207   4.572   0.196 -0.1730 -0.1226 -0.3117
 4481SOL     OW24901   1.956   1.940   7.514  0.1777  0.4117  0.2466
 4481SOL    HW124902   1.960   1.845   7.504  0.0957  0.6774 -2.3250
 4481SOL    HW224903   1.868   1.948   7.552 -0.4282  1.5406 -1.4242
 4482SOL     OW24904   1.272   0.865  17.313 -0.3260 -0.1231 -0.6007
 4482SOL    HW124905   1.178   0.874  17.293  0.0892  0.1561 -2.4759
 4482SOL    HW224906   1.276   0.775  17.346 -1.3368  1.4331  3.7387
 4483SOL     OW24907   1.553   2.829   2.557  0.0117 -0.4289 -0.3650
 4483SOL    HW124908   1.638   2.846   2.596  0.7489 -1.5684 -1.4476
 4483SOL    HW224909   1.590   2.774   2.488 -0.7239 -1.3787 -0.0008
 4484SOL     OW24910   1.201   3.147   5.464  0.6148 -1.0360  0.5570
 4484SOL    HW124911   1.215   3.162   5.370  0.0541 -1.7562  0.3532
 4484SOL    HW224912   1.253   3.067   5.471  2.2558 -0.0587 -0.6793
 4485SOL     OW24913   3.838   1.328  15.481  0.0918 -0.6754 -0.2513
 4485SOL    HW124914   3.774   1.365  15.421 -0.2217 -1.7755 -0.5846
 4485SOL    HW224915   3.872   1.408  15.522 -0.3671 -0.0814 -1.0222
 4486SOL     OW24916   4.371   2.463   2.312 -0.3539 -0.0712  0.2722
 4486SOL    HW124917   4.368   2.519   2.234 -1.8865 -0.9763 -0.3192
 4486SOL    HW224918   4.279   2.463   2.339 -0.7935  2.7226 -1.2237
 4487SOL     OW24919   3.974   0.407   4.007  0.5381  0.1205 -0.3494
 4487SOL    HW124920   3.927   0.486   3.982 -1.3746 -0.3801  1.6749
 4487SOL    HW224921   3.977   0.418   4.102  1.5857 -0.0085 -0.3577
 4488SOL     OW24922   1.725   4.264  16.652  0.2266 -0.0046 -0.2555
 4488SOL    HW124923   1.699   4.354  16.674  0.7030  0.5633 -1.9900
 4488SOL    HW224924   1.812   4.265  16.693 -0.0033 -1.9970  0.2736
 4489SOL     OW24925   2.898   1.760  12.676 -0.4231 -0.5812 -0.1940
 4489SOL    HW124926   2.836   1.828  12.649  0.8694  1.0684  0.9391
 4489SOL    HW224927   2.887   1.773  12.770  1.0720  3.9297 -0.6217
 4490SOL     OW24928   4.302   2.632   1.206 -0.3026 -0.1197 -0.2997
 4490SOL    HW124929   4.220   2.681   1.194 -0.7528 -1.1098 -1.3180
 4490SOL    HW224930   4.312   2.578   1.127 -1.7704 -3.7386  2.0001
 4491SOL     OW24931   4.596   4.618  14.220  0.3805 -0.0252  0.5993
 4491SOL    HW124932   4.680   4.623  14.265  1.2058  1.7311 -1.1041
 4491SOL    HW224933   4.541   4.656  14.288 -1.4152  1.2124 -1.5409
 4492SOL     OW24934   0.040   2.422   7.678 -0.4924  0.3715  0.5735
 4492SOL    HW124935   4.675   2.440   7.695 -0.0433  2.4508  0.8253
 4492SOL    HW224936   0.081   2.507   7.690 -0.5002  0.4443  0.0669
 4493SOL     OW24937   3.756   0.983   2.399 -0.3315  0.0125  0.5743
 4493SOL    HW124938   3.732   1.076   2.408 -0.1536  0.2406 -1.4231
 4493SOL    HW224939   3.848   1.006   2.393 -0.2811 -0.4534 -0.3936
 4494SOL     OW24940   2.850   0.187   7.845 -0.1453  0.3036 -0.5843
 4494SOL    HW124941   2.838   0.103   7.889 -2.1544  1.2682  0.7272
 4494SOL    HW224942   2.944   0.185   7.829  0.2297 -0.4107  1.7616
 4495SOL     OW24943   3.650   1.646   0.794 -0.0202  0.0549 -0.3783
 4495SOL    HW124944   3.575   1.640   0.853  1.2830  1.0070  1.3671
 4495SOL    HW224945   3.692   1.563   0.813  2.8746  1.4194 -0.8142
 4496SOL     OW24946   0.226   3.699   1.452  0.0923 -0.9661 -0.0849
 4496SOL    HW124947   0.247   3.666   1.540  2.1785 -2.0376 -0.9896
 4496SOL    HW224948   0.135   3.676   1.436  0.0753 -0.6615 -0.4214
 4497SOL     OW24949   0.130   4.010   5.369  0.2116 -0.0079 -0.1777
 4497SOL    HW124950   0.156   4.035   5.458  2.0652  1.3056 -1.0881
 4497SOL    HW224951   0.130   3.915   5.371  0.0273 -0.0380 -2.4908
 4498SOL     OW24952   0.767   3.121   5.041  0.3384 -0.3663 -0.9416
 4498SOL    HW124953   0.841   3.113   4.981  1.4102 -0.1019  0.3466
 4498SOL    HW224954   0.697   3.147   4.982  0.1474 -0.1942 -0.6423
 4499SOL     OW24955   1.224   2.010   0.939 -0.2525  0.0454  0.1619
 4499SOL    HW124956   1.271   2.074   0.992 -0.3099 -0.7829  1.2336
 4499SOL    HW224957   1.277   2.008   0.860  0.3073 -0.1322  0.5378
 4500SOL     OW24958   0.163   4.685   4.004 -0.1071  1.0240  0.0629
 4500SOL    HW124959   0.123   4.651   4.084  0.7990 -0.6686 -0.1914
 4500SOL    HW224960   0.156   0.052   4.015 -0.7161  1.1097 -1.0790
 4501SOL     OW24961   0.895   2.274   1.340  0.9545  0.0968 -0.3847
 4501SOL    HW124962   0.950   2.202   1.371  0.4450 -0.8871 -1.7544
 4501SOL    HW224963   0.813   2.232   1.318  1.2241  0.9522 -3.0387
 4502SOL     OW24964   0.171   2.105  13.021 -0.3046  0.0549  0.2435
 4502SOL    HW124965   0.099   2.168  13.027  0.2230  0.5617  1.3016
 4502SOL    HW224966   0.225   2.148  12.955 -1.3486  2.7322  1.1234
 4503SOL     OW24967   1.388   4.094   4.104 -0.7317  0.9314  0.0065
 4503SOL    HW124968   1.457   4.160   4.091 -0.3270  0.2100 -1.4655
 4503SOL    HW224969   1.380   4.092   4.200  1.6918  0.5137  0.2204
 4504SOL     OW24970   1.903   1.520   0.237  0.8379 -0.1082  0.5333
 4504SOL    HW124971   1.970   1.586   0.254  0.1381  0.1821  2.1640
 4504SOL    HW224972   1.919   1.464   0.312  0.1359 -0.1376  0.6621
 4505SOL     OW24973   1.191   2.893  16.637 -0.1167 -0.1894  0.3400
 4505SOL    HW124974   1.274   2.867  16.676  0.4309 -0.7650 -1.2232
 4505SOL    HW224975   1.153   2.943  16.709 -1.9548 -0.4928 -0.4116
 4506SOL     OW24976   2.345   4.597   6.715  0.0657 -0.6144  0.4779
 4506SOL    HW124977   2.305   4.510   6.709 -3.1856  0.6734  3.3511
 4506SOL    HW224978   2.318   4.655   6.644 -0.1996 -2.3980 -0.8749
 4507SOL     OW24979   2.783   1.488  10.077 -0.5069 -0.2242 -0.2602
 4507SOL    HW124980   2.720   1.420  10.054  0.3140 -0.8114 -0.7812
 4507SOL    HW224981   2.753   1.563  10.026  0.6036 -0.1584 -0.8231
 4508SOL     OW24982   1.632   1.914   5.174  0.6758 -0.5302 -0.0156
 4508SOL    HW124983   1.675   1.884   5.094 -0.1901 -2.2863  0.1677
 4508SOL    HW224984   1.547   1.882   5.143  0.3108 -2.9237  3.4573
 4509SOL     OW24985   4.266   4.238  16.416 -0.1799  0.3803 -0.5231
 4509SOL    HW124986   4.340   4.192  16.377 -1.4754 -0.5005 -1.9454
 4509SOL    HW224987   4.314   4.294  16.477  1.5892  0.7191 -2.2494
 4510SOL     OW24988   0.998   4.550   1.505  0.3619  0.1891  0.2375
 4510SOL    HW124989   1.014   4.631   1.457  1.2096  1.5558  2.7999
 4510SOL    HW224990   1.089   4.542   1.535  0.2430  0.6811  0.7298
 4511SOL     OW24991   0.565   2.456   5.045  0.4742  0.2108  0.3917
 4511SOL    HW124992   0.634   2.408   5.091  0.2672 -0.7848 -0.3485
 4511SOL    HW224993   0.621   2.509   4.989 -1.5174  1.0862 -0.7661
 4512SOL     OW24994   3.771   4.685   0.150 -0.1704  0.1784 -0.2281
 4512SOL    HW124995   3.704   4.699   0.083  0.6763 -0.0476 -1.1136
 4512SOL    HW224996   3.717   4.711   0.225 -0.0358 -0.3347  0.0456
 4513SOL     OW24997   0.401   0.497  15.262 -0.1517  0.2506 -0.1798
 4513SOL    HW124998   0.339   0.428  15.284 -0.1648  0.3769  0.1855
 4513SOL    HW224999   0.358   0.551  15.329 -0.3199 -0.6560  0.4322
 4514SOL     OW25000   1.638   4.606   1.535  0.5550 -0.0179  0.7179
 4514SOL    HW125001   1.563   4.626   1.479  0.5603  0.2379  0.8029
 4514SOL    HW225002   1.693   4.555   1.474 -2.0558 -2.5895  0.5291
 4515SOL     OW25003   2.762   3.973  15.217 -0.5573  0.2692  0.6070
 4515SOL    HW125004   2.837   4.012  15.172 -0.2745 -0.2287  0.6588
 4515SOL    HW225005   2.776   3.882  15.240  2.7238  0.9524  1.3257
 4516SOL     OW25006   2.426   2.203  13.623 -0.9335 -0.1131 -0.6623
 4516SOL    HW125007   2.420   2.284  13.572  1.4279  0.5248  0.0548
 4516SOL    HW225008   2.357   2.215  13.688  1.5415 -0.0092  1.9534
 4517SOL     OW25009   0.798   0.171   8.145  0.2491 -0.5222 -0.0412
 4517SOL    HW125010   0.755   0.133   8.222 -0.5623 -0.2953 -0.3806
 4517SOL    HW225011   0.885   0.132   8.147 -0.0849 -1.2484  0.3885
 4518SOL     OW25012   1.460   2.574   6.064 -0.2590  0.1984  0.3378
 4518SOL    HW125013   1.476   2.587   5.971 -0.8600  4.0877  0.7600
 4518SOL    HW225014   1.470   2.665   6.092  1.4347 -0.2155  1.0779
 4519SOL     OW25015   3.855   1.337  16.910  0.2924  0.9032 -0.3197
 4519SOL    HW125016   3.877   1.420  16.952 -1.3668  0.8191  0.7115
 4519SOL    HW225017   3.892   1.343  16.822  2.3323 -0.5932  0.4384
 4520SOL     OW25018   2.757   4.206   5.436 -0.0647 -0.3028  0.4814
 4520SOL    HW125019   2.777   4.150   5.511 -1.3300  1.0044  1.7745
 4520SOL    HW225020   2.705   4.135   5.398  1.5055 -2.7051  2.7773
 4521SOL     OW25021   3.411   1.089   4.354  0.2883  0.0064  0.2779
 4521SOL    HW125022   3.338   1.034   4.323  1.3477 -0.6101 -1.1189
 4521SOL    HW225023   3.405   1.159   4.288 -0.9360 -0.4891 -0.1478
 4522SOL     OW25024   4.076   1.021   2.851 -0.2678 -0.2327 -0.6640
 4522SOL    HW125025   4.116   0.935   2.848 -0.5832 -0.3271 -2.4112
 4522SOL    HW225026   4.015   1.019   2.777 -1.4324 -1.2660  0.3216
 4523SOL     OW25027   0.807   2.424  11.697  0.6455  0.1585 -0.0360
 4523SOL    HW125028   0.842   2.339  11.669 -0.0180 -0.5913  1.3951
 4523SOL    HW225029   0.886   2.461  11.737 -0.1596  2.2073 -0.3581
 4524SOL     OW25030   4.590   4.149   7.815 -0.2958  0.0889  0.2231
 4524SOL    HW125031   4.668   4.203   7.807 -2.1634  2.6359 -0.9365
 4524SOL    HW225032   4.515   4.207   7.833 -0.4834  0.0518 -0.4463
 4525SOL     OW25033   3.121   0.891  17.632 -0.0631 -0.4327  0.0544
 4525SOL    HW125034   3.103   0.811  17.584  1.6482 -0.2894 -0.8236
 4525SOL    HW225035   3.213   0.907  17.609 -0.5783  0.8033 -1.1799
 4526SOL     OW25036   3.220   0.629   8.724 -0.0465  0.5193  0.0345
 4526SOL    HW125037   3.131   0.623   8.757 -0.0808 -0.7355 -0.2916
 4526SOL    HW225038   3.266   0.700   8.769  0.0101  0.5603 -0.0864
 4527SOL     OW25039   2.161   0.829   6.680 -0.1196  0.0283 -0.4887
 4527SOL    HW125040   2.169   0.841   6.586 -2.1914 -1.7148 -0.8801
 4527SOL    HW225041   2.093   0.892   6.704  0.1198  0.3294 -0.6048
 4528SOL     OW25042   2.535   0.492   5.493 -0.1413 -0.3069 -0.3048
 4528SOL    HW125043   2.445   0.524   5.494  0.3048  1.0060 -2.3997
 4528SOL    HW225044   2.523   0.404   5.527 -0.9159  0.0984  0.4697
 4529SOL     OW25045   1.267   4.209   8.198 -0.6460 -0.0731 -0.3654
 4529SOL    HW125046   1.205   4.180   8.131  0.6288 -1.7787 -0.8107
 4529SOL    HW225047   1.297   4.298   8.178  2.1537 -0.8743  0.1743
 4530SOL     OW25048   2.113   2.373   7.736 -0.4406  0.3941 -0.2891
 4530SOL    HW125049   2.117   2.280   7.713  0.9123 -0.3757  3.1651
 4530SOL    HW225050   2.059   2.385   7.814  0.4954  0.5028  0.3361
 4531SOL     OW25051   2.694   3.401   2.911 -0.0729 -0.1841 -0.3933
 4531SOL    HW125052   2.608   3.421   2.874  0.1134 -1.2901 -1.4198
 4531SOL    HW225053   2.760   3.435   2.849 -0.7818  1.0201 -0.4749
 4532SOL     OW25054   2.104   0.236  12.397 -0.5723  0.1151 -0.4964
 4532SOL    HW125055   2.055   0.314  12.423  2.4810  1.5118  1.0664
 4532SOL    HW225056   2.136   0.215  12.485 -1.1240  1.5878  0.0689
 4533SOL     OW25057   0.969   1.326  10.719 -0.0017  0.1364 -0.2885
 4533SOL    HW125058   0.980   1.417  10.747 -0.8466 -0.6684  2.5513
 4533SOL    HW225059   0.920   1.286  10.790 -2.0313  0.2967 -1.5926
 4534SOL     OW25060   2.270   3.787   6.339  0.0503 -0.1196 -0.3193
 4534SOL    HW125061   2.297   3.793   6.248  1.3580 -1.4602 -0.0302
 4534SOL    HW225062   2.222   3.704   6.332 -2.0546  1.2058 -1.3205
 4535SOL     OW25063   1.093   1.232   7.033  0.9195 -0.3015 -0.0112
 4535SOL    HW125064   1.168   1.196   6.986  0.7788 -0.1037 -0.3813
 4535SOL    HW225065   1.102   1.191   7.119 -1.0737  2.3778  1.4946
 4536SOL     OW25066   0.346   0.832  11.283  0.0299  0.0063 -0.1334
 4536SOL    HW125067   0.393   0.913  11.264 -1.4531  0.7331 -0.7326
 4536SOL    HW225068   0.383   0.767  11.223  0.6339  0.1365  0.1021
 4537SOL     OW25069   4.486   3.536   0.914  0.0541  0.3922 -0.4767
 4537SOL    HW125070   4.582   3.532   0.913  0.0121 -1.1193  1.9983
 4537SOL    HW225071   4.472   3.631   0.917 -1.9849  0.0738 -0.3474
 4538SOL     OW25072   0.919   4.607   0.031 -0.1639 -0.2525 -0.2382
 4538SOL    HW125073   0.982   4.625   0.100  0.0372 -2.6284  0.1644
 4538SOL    HW225074   0.842   4.591   0.086 -0.7563  1.2764 -0.6018
 4539SOL     OW25075   0.314   0.876   8.812 -0.3113 -0.5385 -0.3606
 4539SOL    HW125076   0.382   0.842   8.754  0.1130  3.4554 -2.2297
 4539SOL    HW225077   0.365   0.936   8.866 -0.2947 -0.2111 -0.7427
 4540SOL     OW25078   4.060   2.221  13.706  0.4393  0.6040 -0.0128
 4540SOL    HW125079   4.037   2.244  13.616  1.1746 -0.8847 -0.5818
 4540SOL    HW225080   3.989   2.162  13.731  0.7161  0.7077  1.0220
 4541SOL     OW25081   1.368   2.182   4.620  0.2387 -0.0079 -0.3648
 4541SOL    HW125082   1.274   2.196   4.628  0.2446  0.7193 -1.5986
 4541SOL    HW225083   1.389   2.232   4.541  3.6604  2.2618  1.9823
 4542SOL     OW25084   4.378   2.973  15.576  0.0058  0.0276 -0.0402
 4542SOL    HW125085   4.438   3.046  15.593 -2.4045  1.9525  0.2729
 4542SOL    HW225086   4.311   2.981  15.644  0.6605 -0.8552  0.7067
 4543SOL     OW25087   0.284   4.092   3.984 -0.2544 -0.2538  0.1962
 4543SOL    HW125088   0.356   4.053   3.933 -1.0569 -1.0384 -0.3481
 4543SOL    HW225089   0.220   4.123   3.919  0.4695 -0.3191 -0.5495
 4544SOL     OW25090   2.051   0.420   0.668 -0.2524 -0.4803 -0.0145
 4544SOL    HW125091   2.093   0.371   0.739  0.2971  1.3296  0.9243
 4544SOL    HW225092   2.065   0.359   0.597 -0.7882 -0.4652 -0.1310
 4545SOL     OW25093   4.315   0.119   0.115 -0.5320 -0.5414 -0.0035
 4545SOL    HW125094   4.281   0.208   0.116 -0.5924 -0.5636 -0.0920
 4545SOL    HW225095   4.322   0.110   0.020 -3.5743 -1.5741 -0.1389
 4546SOL     OW25096   2.323   4.645  10.387 -0.0040 -0.3401  0.2764
 4546SOL    HW125097   2.310   4.602  10.472 -0.5458  2.0131  1.3782
 4546SOL    HW225098   2.244   4.697  10.382 -0.6267 -1.1217  1.7332
 4547SOL     OW25099   0.238   3.688  11.155 -0.1042  0.2264  0.2435
 4547SOL    HW125100   0.329   3.701  11.184  0.1199 -1.6359  0.3780
 4547SOL    HW225101   0.225   3.601  11.192 -2.9941  1.0514  1.1690
 4548SOL     OW25102   1.206   4.261   9.284  0.1929 -0.2757 -0.2665
 4548SOL    HW125103   1.137   4.257   9.350 -1.5904  2.6589 -1.9720
 4548SOL    HW225104   1.265   4.323   9.326  1.0083 -1.2669  0.0564
 4549SOL     OW25105   3.296   4.637  15.834  0.0614 -0.0394  0.8035
 4549SOL    HW125106   3.291   0.004  15.850 -0.9645  0.1884 -0.7965
 4549SOL    HW225107   3.362   4.642  15.764 -0.8275 -0.8993 -0.0931
 4550SOL     OW25108   2.420   0.830  10.086  0.0623  0.1336 -0.1951
 4550SOL    HW125109   2.432   0.735  10.082  2.1339  0.4287 -0.8629
 4550SOL    HW225110   2.502   0.853  10.130  0.0016  0.8371 -0.4508
 4551SOL     OW25111   1.248   2.576   8.759  0.1954 -0.7269  0.0308
 4551SOL    HW125112   1.170   2.532   8.793  0.8516 -1.5691  0.4380
 4551SOL    HW225113   1.234   2.579   8.665 -0.2609 -1.5678  0.0759
 4552SOL     OW25114   1.140   2.080   8.950  0.4656  0.1941  0.4011
 4552SOL    HW125115   1.081   2.108   9.020 -0.2151  0.3635 -0.2406
 4552SOL    HW225116   1.218   2.057   9.000  1.1396 -1.3707 -1.3431
 4553SOL     OW25117   4.626   4.327  14.888  0.0702  0.1003  0.1301
 4553SOL    HW125118   4.586   4.383  14.822 -0.2854 -1.0004 -0.5869
 4553SOL    HW225119   4.599   4.364  14.972 -3.8455  1.0574 -1.5613
 4554SOL     OW25120   2.832   0.234   8.225 -0.5549  0.4240 -0.3390
 4554SOL    HW125121   2.755   0.256   8.278  1.2233 -0.0090  2.4013
 4554SOL    HW225122   2.866   0.314   8.186  0.5860  0.9409  1.7769
 4555SOL     OW25123   0.633   0.972  15.892 -0.0494  0.3083 -0.0066
 4555SOL    HW125124   0.591   0.991  15.808  0.1643  1.1818  0.0831
 4555SOL    HW225125   0.575   0.900  15.919  0.4425  0.6018  1.7988
 4556SOL     OW25126   2.323   3.657   3.061  0.8051 -0.0501  0.5958
 4556SOL    HW125127   2.417   3.650   3.041  0.2534 -0.3203 -1.9274
 4556SOL    HW225128   2.296   3.679   2.972 -0.3215  2.3454  1.5147
 4557SOL     OW25129   1.059   1.505  15.412 -0.3527  0.3637 -0.0629
 4557SOL    HW125130   1.083   1.597  15.413 -0.3052  0.3151  2.0139
 4557SOL    HW225131   1.077   1.468  15.498  0.2511  0.0748 -0.3068
 4558SOL     OW25132   0.439   0.581   6.780 -0.2343  0.3287 -0.2901
 4558SOL    HW125133   0.440   0.487   6.796  1.3643  0.1075 -1.6361
 4558SOL    HW225134   0.518   0.609   6.828 -0.6376  2.3021 -0.7866
 4559SOL     OW25135   4.487   4.645  17.415 -0.2792 -0.5092 -0.5450
 4559SOL    HW125136   4.417   4.667  17.353 -0.1606  0.6602 -0.2808
 4559SOL    HW225137   4.435   4.608  17.486  0.9680 -1.7083 -0.2578
 4560SOL     OW25138   0.793   2.065   1.904 -0.0295  0.4825 -0.3497
 4560SOL    HW125139   0.754   2.040   1.988 -1.6682  0.2211 -1.1994
 4560SOL    HW225140   0.817   1.983   1.861 -2.1139 -0.3044 -0.0164
 4561SOL     OW25141   3.804   1.587   4.867 -0.0498  0.0103  0.0858
 4561SOL    HW125142   3.846   1.501   4.871 -0.3785 -0.1878 -0.7927
 4561SOL    HW225143   3.878   1.643   4.847  0.7704 -0.6914  1.1591
 4562SOL     OW25144   4.096   4.418   7.370 -0.3684  0.1169 -0.6428
 4562SOL    HW125145   4.164   4.401   7.435  1.2332  1.9307 -1.8224
 4562SOL    HW225146   4.145   4.439   7.290  0.6246 -0.0066 -0.0734
 4563SOL     OW25147   3.678   1.500   9.162 -0.2576 -0.0284  0.8288
 4563SOL    HW125148   3.614   1.447   9.115  1.3189 -0.6334 -0.6086
 4563SOL    HW225149   3.624   1.530   9.236  0.3229  0.2673  1.1339
 4564SOL     OW25150   4.534   3.207   8.969  0.2041  0.4815 -0.4965
 4564SOL    HW125151   4.537   3.298   8.938  0.7117  0.5254 -0.3148
 4564SOL    HW225152   4.626   3.188   8.987  0.2974 -0.1074 -1.6519
 4565SOL     OW25153   2.486   1.684   6.591  0.6766 -0.3594  0.3211
 4565SOL    HW125154   2.400   1.691   6.633  0.6407  1.0075  0.0133
 4565SOL    HW225155   2.505   1.776   6.578 -0.3595 -0.1720  0.1167
 4566SOL     OW25156   3.749   3.771   8.269 -0.4539 -0.0585  0.0137
 4566SOL    HW125157   3.692   3.750   8.343 -1.5154 -0.5313 -0.9391
 4566SOL    HW225158   3.700   3.838   8.222  0.4904 -0.0901 -1.0033
 4567SOL     OW25159   1.374   4.308   4.674  1.0327 -0.1204  0.5110
 4567SOL    HW125160   1.335   4.225   4.646 -0.2582 -0.4594  3.3334
 4567SOL    HW225161   1.465   4.282   4.685  1.5749  2.2037  1.5231
 4568SOL     OW25162   2.888   3.070  13.189  0.2052 -0.1006 -0.2086
 4568SOL    HW125163   2.924   3.119  13.115 -0.3176 -2.0952 -1.7706
 4568SOL    HW225164   2.796   3.096  13.178  0.2970 -0.0568 -0.8593
 4569SOL     OW25165   0.434   0.432  10.810  0.4825  0.1609  0.0533
 4569SOL    HW125166   0.437   0.397  10.721 -0.4802  1.2985 -0.4370
 4569SOL    HW225167   0.471   0.520  10.805 -3.4702  1.7368 -1.5889
 4570SOL     OW25168   0.895   0.738   1.666 -0.1437 -0.0608 -0.4861
 4570SOL    HW125169   0.897   0.733   1.571  2.3034  1.2230 -0.5108
 4570SOL    HW225170   0.870   0.831   1.672  0.9949  0.3308 -1.7693
 4571SOL     OW25171   4.693   3.765  16.211 -0.4283  0.6910 -0.0859
 4571SOL    HW125172   0.021   3.842  16.202 -0.9123  1.2156  1.5246
 4571SOL    HW225173   4.638   3.782  16.287 -0.3295  1.5359 -0.2024
 4572SOL     OW25174   3.815   1.443  12.377 -0.3582  0.0920 -0.9925
 4572SOL    HW125175   3.845   1.512  12.437  0.2731  0.2588 -1.4991
 4572SOL    HW225176   3.794   1.487  12.295 -1.4631  0.3826 -0.5454
 4573SOL     OW25177   4.143   2.989   5.457  0.3543  0.1552  0.1247
 4573SOL    HW125178   4.180   2.979   5.369  0.1200  2.6616 -0.2543
 4573SOL    HW225179   4.142   2.898   5.485 -0.5225 -0.2847 -1.3121
 4574SOL     OW25180   3.760   2.528  17.473  0.0243 -0.2324 -0.2869
 4574SOL    HW125181   3.821   2.456  17.457 -0.3082 -0.4844 -0.4429
 4574SOL    HW225182   3.810   2.573  17.540  0.0210  1.1488 -1.2146
 4575SOL     OW25183   2.608   4.428   5.411  0.1256 -0.5079 -0.3257
 4575SOL    HW125184   2.673   4.362   5.434 -0.8142 -1.6543 -0.9779
 4575SOL    HW225185   2.660   4.509   5.410 -1.9313  0.8016 -2.3313
 4576SOL     OW25186   1.704   4.280   6.373 -0.0150 -0.3013  0.0944
 4576SOL    HW125187   1.762   4.355   6.387 -1.4084  0.5999  1.0604
 4576SOL    HW225188   1.764   4.206   6.365  0.6123 -0.0934  2.8227
 4577SOL     OW25189   3.417   0.286  15.604 -0.3241  1.0067  0.1230
 4577SOL    HW125190   3.440   0.231  15.529  2.3890  2.5592 -0.1682
 4577SOL    HW225191   3.423   0.371  15.561 -3.7560  1.4433  0.4963
 4578SOL     OW25192   1.279   1.476   2.687  0.6092  0.0795  0.3401
 4578SOL    HW125193   1.215   1.433   2.743 -0.5359 -0.2707 -1.2425
 4578SOL    HW225194   1.358   1.446   2.732  1.5830  0.2859 -1.2578
 4579SOL     OW25195   1.189   1.152  14.926  0.2577  0.1860 -0.1179
 4579SOL    HW125196   1.164   1.231  14.975 -1.5249 -0.4812  0.0473
 4579SOL    HW225197   1.255   1.188  14.867 -1.0467  0.0682 -1.6636
 4580SOL     OW25198   0.045   3.986   4.761  0.2874 -0.4089  0.1240
 4580SOL    HW125199   0.108   4.059   4.753  0.9717 -1.3040 -2.6999
 4580SOL    HW225200   0.072   3.950   4.846  2.6346  1.2468  0.1038
 4581SOL     OW25201   2.802   2.095   0.513  0.3375 -0.3553 -0.1109
 4581SOL    HW125202   2.836   2.182   0.534  1.3442 -0.6681 -0.4360
 4581SOL    HW225203   2.713   2.097   0.547  0.4145 -0.1641  0.0808
 4582SOL     OW25204   3.479   0.777  11.639  0.0371  0.5322  0.2099
 4582SOL    HW125205   3.533   0.764  11.717 -3.0117 -1.3709  2.0089
 4582SOL    HW225206   3.429   0.696  11.638 -0.5412  0.8894 -0.0135
 4583SOL     OW25207   0.397   3.085   8.949 -0.2157 -0.1185  0.2715
 4583SOL    HW125208   0.343   3.074   8.871  0.9804  0.0275 -0.5758
 4583SOL    HW225209   0.423   2.993   8.956 -1.0807 -0.3486  0.4975
 4584SOL     OW25210   0.729   3.492   9.278  0.1061  0.2616 -0.4985
 4584SOL    HW125211   0.787   3.429   9.235  1.6477  0.0963  1.8389
 4584SOL    HW225212   0.666   3.513   9.208 -0.7325 -0.1888  0.1177
 4585SOL     OW25213   3.155   4.326  11.525 -0.0211 -0.1483 -0.4948
 4585SOL    HW125214   3.078   4.329  11.582 -0.2360  0.0876 -0.8019
 4585SOL    HW225215   3.135   4.407  11.479  0.7967  0.1553 -0.3101
 4586SOL     OW25216   2.019   2.872  13.924 -0.5360 -0.1112  0.2719
 4586SOL    HW125217   1.945   2.817  13.899  0.5041 -0.8157 -1.2174
 4586SOL    HW225218   2.087   2.847  13.861 -1.2486 -0.6323 -0.2921
 4587SOL     OW25219   2.009   4.557   7.661 -0.3049  0.1703  0.0580
 4587SOL    HW125220   2.069   4.534   7.732  0.8278  1.0141 -0.6020
 4587SOL    HW225221   1.982   4.638   7.704 -2.0752 -0.5137  0.2099
 4588SOL     OW25222   1.109   3.477  11.186 -0.6522 -0.1499  0.1092
 4588SOL    HW125223   1.134   3.567  11.206 -0.5295  0.2840 -1.9991
 4588SOL    HW225224   1.018   3.482  11.156 -0.6481  1.4278  0.3818
 4589SOL     OW25225   4.205   2.600  15.931 -0.1566  0.1155  0.3587
 4589SOL    HW125226   4.254   2.588  16.013 -1.2113 -0.2935  0.9247
 4589SOL    HW225227   4.145   2.526  15.937  3.3922 -2.7654  0.1621
 4590SOL     OW25228   2.255   1.205  14.567 -0.8966  0.4944  0.2187
 4590SOL    HW125229   2.204   1.141  14.616 -0.7101 -0.1944 -0.4790
 4590SOL    HW225230   2.325   1.162  14.517 -1.0544  1.1945 -0.6128
 4591SOL     OW25231   1.480   2.092   9.435  0.4316  0.4312 -0.2791
 4591SOL    HW125232   1.506   2.184   9.439 -0.7316  0.8711 -2.3980
 4591SOL    HW225233   1.547   2.059   9.375 -1.4525  0.7169 -2.5593
 4592SOL     OW25234   3.498   2.280   1.422  0.3010 -0.1042 -0.0804
 4592SOL    HW125235   3.588   2.301   1.447  0.3891 -0.5651 -0.0047
 4592SOL    HW225236   3.486   2.200   1.474 -1.1863  0.7684  0.9372
 4593SOL     OW25237   4.418   3.307   1.791  0.5864 -0.6163  0.2263
 4593SOL    HW125238   4.393   3.240   1.728  1.2800  1.8014 -2.6397
 4593SOL    HW225239   4.376   3.386   1.758  1.2137 -0.9418 -1.3340
 4594SOL     OW25240   0.736   1.821   1.130 -0.1331  0.2407  0.2810
 4594SOL    HW125241   0.705   1.804   1.041 -0.1126  0.7410  0.1826
 4594SOL    HW225242   0.670   1.783   1.188  0.3370  0.6787  1.1008
 4595SOL     OW25243   2.463   1.942  13.758 -0.2872 -0.3718  0.3145
 4595SOL    HW125244   2.557   1.924  13.751 -0.0216  0.9696  0.4032
 4595SOL    HW225245   2.469   2.037  13.753 -0.4472 -0.4649 -1.6354
 4596SOL     OW25246   1.666   4.179   8.719  0.2028 -0.0322  0.2438
 4596SOL    HW125247   1.631   4.195   8.631  1.0988  1.5575  0.1825
 4596SOL    HW225248   1.666   4.266   8.758 -0.8734 -1.3448  3.1077
 4597SOL     OW25249   0.083   2.586   7.360 -0.3930 -0.5814 -0.2207
 4597SOL    HW125250   0.127   2.670   7.343  0.1332 -1.1533 -1.6788
 4597SOL    HW225251   0.056   2.592   7.451 -1.6317 -0.1723 -0.6171
 4598SOL     OW25252   4.385   2.759  10.262 -0.0408 -0.0158 -0.1166
 4598SOL    HW125253   4.379   2.806  10.345  1.8986  0.2658 -0.1317
 4598SOL    HW225254   4.468   2.797  10.234  0.7293 -0.8154  1.0528
 4599SOL     OW25255   0.020   2.938   3.268  0.3089  0.1501 -0.2128
 4599SOL    HW125256   0.040   2.932   3.174 -2.5672 -1.3768 -0.7502
 4599SOL    HW225257   4.714   3.028   3.265  0.2490  0.0037 -5.4816
 4600SOL     OW25258   4.527   3.291   0.752 -0.0687  0.2767 -0.3422
 4600SOL    HW125259   4.532   3.329   0.665  2.1401 -1.4818 -0.9622
 4600SOL    HW225260   4.499   3.367   0.803  0.2017 -1.0976  1.8963
 4601SOL     OW25261   4.446   2.901  14.087  0.5490  0.1350  0.1019
 4601SOL    HW125262   4.353   2.916  14.071  0.5317 -0.4310 -0.3297
 4601SOL    HW225263   4.486   2.924  14.003 -0.5477  1.8764  0.0567
 4602SOL     OW25264   1.489   2.408  13.678  0.0670 -0.5600  0.2009
 4602SOL    HW125265   1.546   2.450  13.613 -0.6399  0.7000  0.4035
 4602SOL    HW225266   1.546   2.367  13.744  0.4316  0.9114  0.7830
 4603SOL     OW25267   4.527   1.838   5.148  0.2258 -0.3492 -0.6099
 4603SOL    HW125268   4.616   1.808   5.129  1.1123  0.7597  1.8576
 4603SOL    HW225269   4.467   1.787   5.093  0.4093  0.5319 -1.6177
 4604SOL     OW25270   3.385   4.045   5.128  0.3347 -0.5868  0.7145
 4604SOL    HW125271   3.433   4.059   5.046 -0.5466  1.8479  0.6149
 4604SOL    HW225272   3.425   3.970   5.172  0.8945  0.3950  1.8754
 4605SOL     OW25273   1.218   1.668   6.226 -0.0428 -0.0683  0.3523
 4605SOL    HW125274   1.172   1.595   6.265 -0.4826 -0.0559 -0.1465
 4605SOL    HW225275   1.212   1.663   6.131  0.7878 -0.2451  0.3088
 4606SOL     OW25276   0.242   0.297   3.827 -0.0271 -0.2623  0.8976
 4606SOL    HW125277   0.224   0.269   3.917 -3.7690 -0.4780  0.0967
 4606SOL    HW225278   0.230   0.214   3.779 -0.9885  0.3934  0.0068
 4607SOL     OW25279   3.558   3.247   6.503 -0.0157 -0.1355 -0.1598
 4607SOL    HW125280   3.571   3.154   6.521 -2.2948 -0.3870  0.0697
 4607SOL    HW225281   3.549   3.278   6.593 -0.1366 -1.2321  0.2036
 4608SOL     OW25282   1.419   3.711   5.518  0.6058  0.0094  0.1621
 4608SOL    HW125283   1.331   3.675   5.506  0.5255  0.0781  0.5514
 4608SOL    HW225284   1.456   3.691   5.432  1.8383  0.0655  0.6866
 4609SOL     OW25285   0.305   2.213  16.365 -0.1071  0.0220  0.3330
 4609SOL    HW125286   0.338   2.216  16.455 -0.1656  0.4397  0.3362
 4609SOL    HW225287   0.327   2.122  16.343  1.3998  0.4455  0.1438
 4610SOL     OW25288   1.406   3.558  16.665  0.1321  0.0363 -0.7187
 4610SOL    HW125289   1.481   3.507  16.696 -0.7845 -1.6148 -1.2292
 4610SOL    HW225290   1.437   3.648  16.673  0.4152 -0.1803  0.7575
 4611SOL     OW25291   4.074   2.770   2.472  0.6523  0.3920  0.4885
 4611SOL    HW125292   4.123   2.817   2.406 -0.1422 -0.0917 -0.4386
 4611SOL    HW225293   4.083   2.832   2.545 -0.2238 -0.8725  1.6958
 4612SOL     OW25294   3.948   1.015  14.850  0.1943  0.0329  0.4992
 4612SOL    HW125295   3.869   1.045  14.806  1.1217  1.2915 -0.2803
 4612SOL    HW225296   3.938   0.926  14.815 -2.2208 -0.0055  1.2447
 4613SOL     OW25297   0.338   0.633   2.638  0.3566 -0.5091 -0.1870
 4613SOL    HW125298   0.266   0.583   2.677 -1.1782  1.9415  0.1016
 4613SOL    HW225299   0.404   0.596   2.697  1.6779 -2.6006 -3.0042
 4614SOL     OW25300   3.838   2.778   7.559 -0.1687 -0.2190  0.0296
 4614SOL    HW125301   3.744   2.785   7.544 -0.1909 -0.7463 -0.0835
 4614SOL    HW225302   3.867   2.723   7.486  0.4291 -0.2818  0.3160
 4615SOL     OW25303   0.527   3.678  11.733  0.1365  0.0598 -0.0748
 4615SOL    HW125304   0.502   3.759  11.688 -0.6901  0.4629  1.1143
 4615SOL    HW225305   0.579   3.723  11.800  1.6579  0.0530 -1.2442
 4616SOL     OW25306   0.686   2.738   6.997 -0.5157  0.2279 -0.6018
 4616SOL    HW125307   0.666   2.768   7.085  0.4410  0.4984 -0.4801
 4616SOL    HW225308   0.646   2.651   6.996 -0.7894  0.3580 -1.0233
 4617SOL     OW25309   3.608   0.603   8.874 -0.3992  0.7224 -0.2119
 4617SOL    HW125310   3.698   0.633   8.884 -0.2377 -0.4702  1.7558
 4617SOL    HW225311   3.578   0.622   8.963 -0.2236 -0.7551  0.1567
 4618SOL     OW25312   3.928   3.852   4.230 -0.0177  0.1667  0.0082
 4618SOL    HW125313   3.840   3.835   4.197  0.4808 -1.6004 -0.4044
 4618SOL    HW225314   3.917   3.841   4.324  0.0688  0.7986  0.0988
 4619SOL     OW25315   0.746   3.549   4.127 -0.7985 -0.2430  0.3980
 4619SOL    HW125316   0.738   3.552   4.222  3.6163  3.7016  0.6468
 4619SOL    HW225317   0.680   3.618   4.115  0.5224  0.7903 -0.9017
 4620SOL     OW25318   3.309   4.511   5.897 -0.1571  0.4731  0.5932
 4620SOL    HW125319   3.217   4.529   5.878  0.3397 -0.0345 -2.3650
 4620SOL    HW225320   3.347   4.516   5.809 -0.9981  0.5162  0.2263
 4621SOL     OW25321   1.295   1.339  15.293  0.0134 -0.0656  0.5040
 4621SOL    HW125322   1.214   1.375  15.329 -1.2048 -1.4863 -0.8550
 4621SOL    HW225323   1.281   1.353  15.200  2.1062 -1.5936 -0.0491
 4622SOL     OW25324   3.321   2.976   8.562 -0.1045  0.1088  0.0174
 4622SOL    HW125325   3.414   2.952   8.563  0.4378  2.1199 -2.4832
 4622SOL    HW225326   3.330   3.070   8.548 -3.2753  0.3079 -0.6093
 4623SOL     OW25327   2.528   0.266   7.907  0.2029 -0.2065  0.0183
 4623SOL    HW125328   2.465   0.196   7.893  0.2463 -0.0838 -0.7901
 4623SOL    HW225329   2.562   0.234   7.990 -0.3274  1.1341  0.7682
 4624SOL     OW25330   1.658   2.100  14.365  0.0897 -0.2006  0.9819
 4624SOL    HW125331   1.640   2.037  14.295 -0.0341  0.1069  0.7336
 4624SOL    HW225332   1.587   2.088  14.428 -0.5971  0.1888  0.2916
 4625SOL     OW25333   2.952   2.322   3.881 -0.3236 -0.3419  0.4034
 4625SOL    HW125334   2.979   2.273   3.958  1.6358 -0.6379 -0.4717
 4625SOL    HW225335   2.901   2.261   3.828  0.6768  0.5431 -1.5988
 4626SOL     OW25336   1.624   3.120   4.728 -0.1712 -0.0986 -0.0803
 4626SOL    HW125337   1.557   3.091   4.666  0.8478  1.4602 -1.9066
 4626SOL    HW225338   1.620   3.215   4.719 -1.3393 -0.3405 -2.0809
 4627SOL     OW25339   1.849   4.331   5.231 -0.2004  0.5004 -0.6676
 4627SOL    HW125340   1.883   4.276   5.161 -2.2480  0.5071 -1.6524
 4627SOL    HW225341   1.922   4.392   5.235  0.1055  0.1065 -0.2410
 4628SOL     OW25342   2.475   2.283   1.011 -0.0402 -0.2712 -0.4212
 4628SOL    HW125343   2.547   2.287   1.073  0.9486  0.4392 -1.6087
 4628SOL    HW225344   2.501   2.362   0.963 -0.3634  0.8994  1.3658
 4629SOL     OW25345   2.387   4.312  10.487  0.4865 -0.7961 -0.1560
 4629SOL    HW125346   2.383   4.401  10.523 -0.9539 -0.3238 -1.4569
 4629SOL    HW225347   2.480   4.292  10.500  0.2921  1.0110  3.8945
 4630SOL     OW25348   0.034   0.943   6.828 -1.1412 -0.2295  0.1455
 4630SOL    HW125349   0.093   0.938   6.752 -0.0449 -0.2255  0.9862
 4630SOL    HW225350   0.069   0.874   6.884  0.1893 -0.1648 -0.5853
 4631SOL     OW25351   3.811   3.383   3.989  0.5427  0.5093  0.4089
 4631SOL    HW125352   3.762   3.390   4.071  0.3996 -0.2070  0.3824
 4631SOL    HW225353   3.860   3.306   4.018 -1.3455 -0.7867  0.1779
 4632SOL     OW25354   1.155   3.435   6.557 -0.1851 -0.2872  0.3180
 4632SOL    HW125355   1.105   3.396   6.485 -0.2503  0.4052 -0.0111
 4632SOL    HW225356   1.144   3.527   6.533  1.9330 -0.6083 -1.9306
 4633SOL     OW25357   2.638   4.555  13.383  0.1900  0.2336 -0.4403
 4633SOL    HW125358   2.681   4.622  13.330 -0.0435  1.5180  0.9790
 4633SOL    HW225359   2.568   4.612  13.416  0.0538 -2.0412  3.2999
 4634SOL     OW25360   0.819   1.736   7.636 -0.7511  0.2147  0.1670
 4634SOL    HW125361   0.865   1.762   7.716  1.5802 -2.4598 -0.2801
 4634SOL    HW225362   0.856   1.792   7.569 -0.6071 -0.5485 -0.3965
 4635SOL     OW25363   1.099   3.981   5.422  0.5667  0.6197  0.1529
 4635SOL    HW125364   1.176   4.013   5.374  2.7533 -2.0831  1.8853
 4635SOL    HW225365   1.138   3.961   5.507  1.0166  1.7622  0.2252
 4636SOL     OW25366   0.866   1.255   9.841  0.3121  0.8700 -0.4972
 4636SOL    HW125367   0.846   1.342   9.876 -0.0367  0.4118  0.4684
 4636SOL    HW225368   0.949   1.280   9.802  2.1194 -3.4708  0.5155
 4637SOL     OW25369   3.396   2.687   8.641 -0.5399  0.5501 -0.1467
 4637SOL    HW125370   3.365   2.778   8.644 -0.4649  0.6085 -1.1176
 4637SOL    HW225371   3.452   2.686   8.719 -1.1512 -0.1904  0.2745
 4638SOL     OW25372   1.140   0.783  16.916 -0.1309  0.2716 -0.0191
 4638SOL    HW125373   1.123   0.739  17.000 -2.6016  1.0469 -0.1394
 4638SOL    HW225374   1.219   0.831  16.942  0.5930  0.1898 -2.0901
 4639SOL     OW25375   1.129   4.280   6.138  0.0750 -0.0473 -0.2844
 4639SOL    HW125376   1.122   4.331   6.219  0.0535 -2.3153  1.1584
 4639SOL    HW225377   1.063   4.212   6.149  2.4811 -2.0999  1.4932
 4640SOL     OW25378   3.170   1.307  17.286 -0.4844  0.3452 -0.5845
 4640SOL    HW125379   3.115   1.273  17.357 -1.0797 -1.2980 -1.8411
 4640SOL    HW225380   3.199   1.226  17.245  1.0054  1.5870 -1.9882
 4641SOL     OW25381   1.413   2.960  15.357 -0.4108  0.2294 -0.2892
 4641SOL    HW125382   1.425   2.884  15.301 -4.8997 -0.0573 -0.8985
 4641SOL    HW225383   1.334   3.002  15.321 -0.6260 -0.1365 -0.2353
 4642SOL     OW25384   2.471   1.069   1.602  0.1418  0.2361 -0.1901
 4642SOL    HW125385   2.478   1.087   1.696  2.2859  1.0674 -0.5241
 4642SOL    HW225386   2.481   1.153   1.558 -0.3113  0.7125  0.5973
 4643SOL     OW25387   2.016   1.184   0.347  0.2387 -0.4007 -0.2981
 4643SOL    HW125388   2.045   1.261   0.397 -0.0830 -1.5245  1.6026
 4643SOL    HW225389   1.959   1.139   0.410  0.0364 -0.1084 -0.2737
 4644SOL     OW25390   2.838   4.062  15.845  0.4461  0.4320 -0.1753
 4644SOL    HW125391   2.885   4.110  15.777  1.4963 -2.1166 -1.2392
 4644SOL    HW225392   2.815   3.999  15.777  0.3671 -1.1357  1.2982
 4645SOL     OW25393   1.363   2.342   5.558 -0.5114  0.1708  0.1257
 4645SOL    HW125394   1.283   2.393   5.566 -0.5504  0.0273  0.6298
 4645SOL    HW225395   1.342   2.261   5.603 -0.3430 -1.0186 -1.9677
 4646SOL     OW25396   1.203   3.242  11.225 -0.0715 -0.1358  0.3690
 4646SOL    HW125397   1.171   3.330  11.206 -2.3879 -0.9779  0.4638
 4646SOL    HW225398   1.172   3.206  11.142 -0.8522 -1.0011  1.0400
 4647SOL     OW25399   4.693   4.239   5.403 -0.4671  0.4917 -0.2811
 4647SOL    HW125400   0.020   4.164   5.381  2.2074  2.1305  0.8260
 4647SOL    HW225401   0.019   4.291   5.463 -0.3141 -0.2372  0.2152
 4648SOL     OW25402   0.709   3.375  17.165  0.0277 -0.1535 -0.2632
 4648SOL    HW125403   0.691   3.351  17.074  1.2116 -1.0928 -0.2631
 4648SOL    HW225404   0.631   3.343  17.210  0.1722 -0.2561 -0.0847
 4649SOL     OW25405   3.134   0.168   7.852 -0.1321  0.0760 -0.5439
 4649SOL    HW125406   3.180   0.085   7.855 -0.9306 -0.2974  1.3296
 4649SOL    HW225407   3.212   0.224   7.853 -1.8491  2.4916  0.4007
 4650SOL     OW25408   0.329   2.228   5.654  0.5841  0.3409 -0.2795
 4650SOL    HW125409   0.318   2.193   5.742  2.8230 -0.5034 -0.3491
 4650SOL    HW225410   0.381   2.303   5.683  1.3746 -0.0393 -0.7320
 4651SOL     OW25411   4.191   4.287  11.850 -0.1732 -0.3633 -0.5389
 4651SOL    HW125412   4.193   4.223  11.779  0.3055 -1.4963  0.4904
 4651SOL    HW225413   4.108   4.275  11.895  1.0930 -1.2635  1.5497
 4652SOL     OW25414   4.651   3.634   2.650 -0.8114 -0.0605  0.2073
 4652SOL    HW125415   4.707   3.709   2.629 -0.2489 -0.5537 -0.0843
 4652SOL    HW225416   4.620   3.644   2.740 -3.7717  1.3557 -0.9891
 4653SOL     OW25417   4.660   4.086  11.111 -0.4673  0.0803  0.3606
 4653SOL    HW125418   4.697   4.002  11.139 -1.0692 -0.8063 -1.4997
 4653SOL    HW225419   4.576   4.071  11.154  0.0226 -1.1029  0.9266
 4654SOL     OW25420   1.771   4.613   6.593  0.3670  0.2644  0.5908
 4654SOL    HW125421   1.710   4.644   6.526 -1.1557  0.0301  1.8613
 4654SOL    HW225422   1.797   4.697   6.629  0.3303  1.9633 -3.3608
 4655SOL     OW25423   2.723   2.336   5.589  0.1184 -0.8551  0.0876
 4655SOL    HW125424   2.787   2.330   5.660 -1.1512 -3.1182  1.0221
 4655SOL    HW225425   2.685   2.249   5.601 -4.4928  0.8515 -2.4370
 4656SOL     OW25426   2.860   1.265   5.543  0.0478  0.0237  0.8831
 4656SOL    HW125427   2.901   1.188   5.506  0.1849  0.1642  0.7437
 4656SOL    HW225428   2.766   1.245   5.551 -0.9426  3.5299 -1.4835
 4657SOL     OW25429   4.301   4.690   8.175 -0.6556 -0.1120 -0.0417
 4657SOL    HW125430   4.269   4.622   8.116  0.0559  0.1855 -0.7666
 4657SOL    HW225431   4.280   4.650   8.260 -1.2441 -0.4368 -0.3383
 4658SOL     OW25432   0.474   4.198   7.165 -0.0948  0.2482 -0.0226
 4658SOL    HW125433   0.454   4.115   7.122 -0.1069  0.6576 -0.8285
 4658SOL    HW225434   0.569   4.198   7.168 -0.1401  2.0632  1.3724
 4659SOL     OW25435   0.508   3.315   3.247  0.1551  0.0309 -0.5244
 4659SOL    HW125436   0.571   3.378   3.281  0.4094 -1.1395  1.1922
 4659SOL    HW225437   0.472   3.270   3.323 -0.1368  0.7571 -0.2337
 4660SOL     OW25438   1.455   4.688   7.706  0.6705  0.2186 -0.5770
 4660SOL    HW125439   1.517   4.637   7.758  1.8143  0.2819 -1.8788
 4660SOL    HW225440   1.505   0.038   7.679 -1.1942  0.9941 -1.7321
 4661SOL     OW25441   1.482   3.336   3.645  0.2265  0.1013 -0.3494
 4661SOL    HW125442   1.563   3.287   3.633 -1.2773 -2.4532 -0.1406
 4661SOL    HW225443   1.498   3.382   3.728 -0.1775 -0.2679 -0.0704
 4662SOL     OW25444   0.780   2.220   7.067  0.4002 -0.2196 -0.2405
 4662SOL    HW125445   0.846   2.158   7.036  0.6528  0.0044 -0.1461
 4662SOL    HW225446   0.761   2.171   7.147 -1.4471 -0.6477 -0.9379
 4663SOL     OW25447   0.235   0.432  16.867  0.1145  0.1025  0.2399
 4663SOL    HW125448   0.320   0.474  16.859 -1.1519  2.2987 -1.7288
 4663SOL    HW225449   0.208   0.456  16.956 -1.5845  0.8807 -0.4742
 4664SOL     OW25450   1.789   4.516   0.712 -0.1619  0.2039 -0.4135
 4664SOL    HW125451   1.862   4.530   0.773  0.7345 -1.3978 -1.1158
 4664SOL    HW225452   1.829   4.447   0.660  1.1661 -0.9717  2.1666
 4665SOL     OW25453   4.384   1.768  16.511 -0.0598  0.2019  0.4718
 4665SOL    HW125454   4.468   1.777  16.556  0.9397 -0.8841 -1.1882
 4665SOL    HW225455   4.396   1.837  16.446 -2.0389  2.3072  2.3639
 4666SOL     OW25456   2.596   1.840   6.312  0.1639  0.3994 -0.1466
 4666SOL    HW125457   2.588   1.852   6.217 -2.6078 -0.1380  0.0219
 4666SOL    HW225458   2.668   1.901   6.328 -1.6447  1.6596  3.0213
 4667SOL     OW25459   1.306   4.266   1.787 -0.2329  0.6071  0.0875
 4667SOL    HW125460   1.372   4.203   1.816  0.9172  0.5473 -2.6255
 4667SOL    HW225461   1.338   4.283   1.698 -0.2014  1.0873  0.1929
 4668SOL     OW25462   0.081   3.493  12.321  0.1580  0.2772  0.3554
 4668SOL    HW125463   0.117   3.580  12.306 -2.0624  0.9634 -1.0248
 4668SOL    HW225464   4.718   3.500  12.291  0.6909  0.0909 -1.2529
 4669SOL     OW25465   2.080   4.500  12.684  0.7537 -0.2169 -0.7989
 4669SOL    HW125466   2.055   4.474  12.773  0.5381 -0.8126 -1.0333
 4669SOL    HW225467   2.173   4.477  12.675  0.5454 -1.0817 -0.8043
 4670SOL     OW25468   4.055   1.054   3.295  0.7190  0.1726 -0.0351
 4670SOL    HW125469   4.103   1.054   3.378  3.5257  0.3565 -1.6528
 4670SOL    HW225470   4.132   1.065   3.238  0.9008  1.1250  0.4090
 4671SOL     OW25471   1.745   4.644   5.351 -0.2219 -0.3036  0.2510
 4671SOL    HW125472   1.656   4.662   5.323 -0.2329  0.9294  1.0797
 4671SOL    HW225473   1.726   4.602   5.435  0.2461 -0.0914  0.4659
 4672SOL     OW25474   3.763   3.922   9.407 -0.3375  0.1495  0.1881
 4672SOL    HW125475   3.823   3.849   9.420 -1.9833 -0.9514  1.7410
 4672SOL    HW225476   3.751   3.945   9.499 -0.8656 -0.9622  0.3968
 4673SOL     OW25477   3.676   2.258   5.492  0.2803  0.0797  0.6195
 4673SOL    HW125478   3.664   2.165   5.472 -0.9677 -0.2069  2.6765
 4673SOL    HW225479   3.586   2.273   5.520 -0.2107 -0.5879 -0.6113
 4674SOL     OW25480   1.340   1.881   8.414  0.0052  0.1415 -0.0326
 4674SOL    HW125481   1.309   1.794   8.440 -0.3283 -0.1775 -1.4736
 4674SOL    HW225482   1.306   1.937   8.484 -1.0589  1.1331 -1.3375
 4675SOL     OW25483   3.353   4.253   4.540 -0.0902 -0.3310  0.5643
 4675SOL    HW125484   3.339   4.163   4.509  2.7479  0.1376 -2.1536
 4675SOL    HW225485   3.428   4.246   4.598  0.9125  0.9189 -0.5753
 4676SOL     OW25486   3.326   3.062   3.995  0.1094 -0.1609  0.1784
 4676SOL    HW125487   3.334   3.130   3.928 -1.5968 -0.1022  0.0520
 4676SOL    HW225488   3.352   2.980   3.952 -1.2100 -0.3523 -0.2480
 4677SOL     OW25489   2.646   4.008  10.743  0.3972 -0.1691 -0.0090
 4677SOL    HW125490   2.673   3.930  10.693  0.3575  0.4920 -1.0625
 4677SOL    HW225491   2.594   4.054  10.678  1.2902 -1.4897 -1.6674
 4678SOL     OW25492   0.024   0.471  16.646  0.0143 -0.0999  0.4763
 4678SOL    HW125493   0.097   0.446  16.703 -0.3196 -0.3132  0.8140
 4678SOL    HW225494   0.049   0.557  16.612 -1.7869  0.9362  1.7538
 4679SOL     OW25495   0.716   0.184   3.076  0.2314  0.1627  0.2212
 4679SOL    HW125496   0.680   0.158   3.161  0.9854  1.2945  0.8922
 4679SOL    HW225497   0.739   0.100   3.036 -0.6619  2.0046 -4.1989
 4680SOL     OW25498   4.637   1.604  10.556  0.1151  0.2912 -0.0228
 4680SOL    HW125499   4.665   1.569  10.472  0.3657  0.6323 -0.0814
 4680SOL    HW225500   4.662   1.694  10.533 -0.8599  0.3764 -0.7760
 4681SOL     OW25501   0.683   2.207  12.213  0.1731 -0.3613  0.1206
 4681SOL    HW125502   0.756   2.153  12.183 -0.3333 -1.9895  1.8133
 4681SOL    HW225503   0.616   2.138  12.213 -1.3808  1.1619 -0.1579
 4682SOL     OW25504   3.651   4.260   7.738 -0.3782  0.2259 -0.1158
 4682SOL    HW125505   3.577   4.318   7.724 -0.1197  0.3143 -1.1742
 4682SOL    HW225506   3.685   4.309   7.813 -1.1724  0.6970 -0.0703
 4683SOL     OW25507   4.654   3.501  13.799 -0.2363  1.0365  0.0380
 4683SOL    HW125508   4.659   3.499  13.895 -2.5538 -0.4683  0.1323
 4683SOL    HW225509   4.598   3.424  13.795 -0.3235  1.1344 -0.5655
 4684SOL     OW25510   1.877   2.642   8.179 -0.2348 -0.6072  0.6043
 4684SOL    HW125511   1.866   2.711   8.114 -1.0638  0.0102  1.4105
 4684SOL    HW225512   1.920   2.577   8.123 -0.5172 -0.6871  0.4754
 4685SOL     OW25513   4.336   4.425   4.308  0.6820 -0.0202  0.2079
 4685SOL    HW125514   4.309   4.366   4.237  0.4039 -0.5638  0.7657
 4685SOL    HW225515   4.253   4.428   4.355 -1.2193 -1.3310 -3.0149
 4686SOL     OW25516   0.622   0.241   4.056 -0.2103  0.2878  0.5220
 4686SOL    HW125517   0.650   0.313   4.113  1.5060  0.6421 -0.7776
 4686SOL    HW225518   0.643   0.281   3.972 -2.2798  0.5977  0.1423
 4687SOL     OW25519   1.601   2.246   5.695  0.4754 -0.0381  0.2610
 4687SOL    HW125520   1.527   2.299   5.666  1.9271  1.5465 -0.5473
 4687SOL    HW225521   1.553   2.192   5.758  1.2666 -0.4186  0.5370
 4688SOL     OW25522   0.120   1.991   2.676 -0.3960  0.0759 -0.6339
 4688SOL    HW125523   0.037   2.028   2.649 -0.8177 -0.0565  0.4824
 4688SOL    HW225524   0.183   2.020   2.609 -0.3317 -1.1947 -1.1473
 4689SOL     OW25525   3.637   2.007   4.357  0.1297 -0.3829  0.1524
 4689SOL    HW125526   3.683   1.926   4.335 -0.5149 -0.3264 -1.3944
 4689SOL    HW225527   3.593   1.969   4.434 -3.3530  1.3714 -0.9802
 4690SOL     OW25528   3.111   0.976   1.157  0.3769 -0.0738 -0.0565
 4690SOL    HW125529   3.092   0.994   1.249 -0.9599 -1.2361 -0.1110
 4690SOL    HW225530   3.203   0.953   1.172  0.1274 -0.9649  0.0940
 4691SOL     OW25531   2.314   1.968   7.443  0.2832  0.3355 -0.0584
 4691SOL    HW125532   2.233   1.922   7.422  1.1939  0.1043 -3.0778
 4691SOL    HW225533   2.352   1.911   7.510 -0.3889 -1.0617 -0.8748
 4692SOL     OW25534   0.677   2.014   4.322  0.3315 -0.0496  0.2305
 4692SOL    HW125535   0.714   2.103   4.326  0.0834  0.0963 -0.7419
 4692SOL    HW225536   0.756   1.963   4.302  1.2088  1.2314  0.3466
 4693SOL     OW25537   4.439   1.416   5.609 -0.0188  0.0810  0.0760
 4693SOL    HW125538   4.445   1.499   5.656  0.4078  0.2929 -0.3493
 4693SOL    HW225539   4.503   1.434   5.540 -2.4232  0.1212 -2.1664
 4694SOL     OW25540   1.904   1.431   4.421 -0.1306 -0.0659  0.2006
 4694SOL    HW125541   1.968   1.416   4.353 -0.4161 -2.9369  0.5392
 4694SOL    HW225542   1.922   1.522   4.446  0.6765 -0.4246  0.9088
 4695SOL     OW25543   3.992   3.433   7.514 -0.1759  0.5964  0.3480
 4695SOL    HW125544   4.026   3.374   7.581  0.0878  0.0347 -0.2785
 4695SOL    HW225545   4.015   3.514   7.560  0.8298 -0.2689  1.3641
 4696SOL     OW25546   2.470   1.365   8.551 -0.6548  0.1640 -0.9532
 4696SOL    HW125547   2.527   1.437   8.525  1.5784 -0.8225  1.1581
 4696SOL    HW225548   2.399   1.416   8.590  0.1313  0.3563  0.2298
 4697SOL     OW25549   3.734   2.848   5.977  0.0270 -0.6743 -0.5079
 4697SOL    HW125550   3.813   2.874   6.024  0.5341 -0.0629 -1.6966
 4697SOL    HW225551   3.729   2.910   5.904 -3.1806 -0.7236 -0.3351
 4698SOL     OW25552   0.245   3.051   9.311 -0.2482 -0.2996  0.3480
 4698SOL    HW125553   0.236   2.970   9.261 -2.4121 -0.8042  1.5486
 4698SOL    HW225554   0.213   3.018   9.395  2.1876 -1.0987  0.9705
 4699SOL     OW25555   4.600   1.132   7.896 -0.1542  0.4310  0.1730
 4699SOL    HW125556   4.666   1.160   7.960 -0.4421  0.4924  0.4445
 4699SOL    HW225557   4.620   1.038   7.895 -1.2489  0.2323 -2.1508
 4700SOL     OW25558   2.550   4.155   3.903  1.3375  0.2100 -0.3882
 4700SOL    HW125559   2.502   4.223   3.951 -1.1039 -0.3168 -2.0846
 4700SOL    HW225560   2.640   4.178   3.927  1.0017  0.8285  0.2914
 4701SOL     OW25561   3.555   3.031  17.003 -0.7995  0.2481  0.3452
 4701SOL    HW125562   3.505   2.982  17.069 -3.1959 -0.4699 -2.0204
 4701SOL    HW225563   3.511   3.006  16.922  0.3854 -0.0603 -0.1863
 4702SOL     OW25564   2.645   0.389   8.330  0.0304  0.2060 -0.1305
 4702SOL    HW125565   2.576   0.376   8.395  1.0870 -1.6055  0.6166
 4702SOL    HW225566   2.673   0.479   8.348  0.9051 -0.0335 -0.2918
 4703SOL     OW25567   0.707   0.462   6.054  0.2144  0.1824 -0.0643
 4703SOL    HW125568   0.712   0.409   6.133 -1.8665 -0.3585 -0.2911
 4703SOL    HW225569   0.677   0.398   5.989 -1.4578 -0.9745  1.8475
 4704SOL     OW25570   3.497   4.479   3.936  0.7834 -0.3934 -0.2065
 4704SOL    HW125571   3.571   4.533   3.961  0.7926 -0.4509 -0.1123
 4704SOL    HW225572   3.429   4.524   3.987 -1.6584 -1.9454 -2.0998
 4705SOL     OW25573   4.393   1.480   7.286 -0.6947 -0.5505 -0.1310
 4705SOL    HW125574   4.369   1.568   7.314 -0.7271 -0.3621 -0.7560
 4705SOL    HW225575   4.442   1.451   7.364  1.4371 -1.5780 -1.8602
 4706SOL     OW25576   3.527   0.973   2.617  0.2554 -0.0377  0.2539
 4706SOL    HW125577   3.440   1.000   2.586  0.5086 -0.3602 -0.7515
 4706SOL    HW225578   3.547   1.027   2.693 -1.2620 -0.3746  0.8974
 4707SOL     OW25579   4.573   2.144   5.178 -0.1165  0.3376  0.1888
 4707SOL    HW125580   4.666   2.160   5.194  0.1146  1.3679 -2.1204
 4707SOL    HW225581   4.559   2.051   5.160  1.8503 -0.4153  2.6045
 4708SOL     OW25582   2.280   3.484  12.856  0.0768  0.3171 -0.5929
 4708SOL    HW125583   2.375   3.496  12.854  0.3830 -2.5578 -2.6012
 4708SOL    HW225584   2.253   3.503  12.766  3.2329 -1.4265 -1.9242
 4709SOL     OW25585   2.904   2.856   5.605 -0.0255  0.2979 -0.4745
 4709SOL    HW125586   2.813   2.826   5.606 -0.3704  1.3615  0.6985
 4709SOL    HW225587   2.930   2.819   5.690 -0.9467 -1.5445 -1.0167
 4710SOL     OW25588   4.076   3.555   1.404  0.0558  0.0167 -0.4454
 4710SOL    HW125589   4.059   3.510   1.322 -1.1799 -2.0846  0.9692
 4710SOL    HW225590   4.020   3.632   1.398 -0.0328 -0.1298 -1.5220
 4711SOL     OW25591   4.685   4.706   7.535  0.0527  0.3145 -0.0072
 4711SOL    HW125592   0.014   0.040   7.488  0.4320  0.0886  0.1459
 4711SOL    HW225593   4.726   4.710   7.622  1.5357 -1.5255 -0.6104
 4712SOL     OW25594   0.291   3.102  11.141 -0.0689  0.0435  0.3027
 4712SOL    HW125595   0.207   3.058  11.130 -0.6896  1.9238 -2.7015
 4712SOL    HW225596   0.305   3.112  11.047 -0.4992  0.3511  0.2676
 4713SOL     OW25597   4.033   0.060   8.615  0.5897 -0.8535 -0.4236
 4713SOL    HW125598   4.045   0.050   8.520  2.4354 -1.2857 -0.1380
 4713SOL    HW225599   3.952   0.011   8.632  0.5253  0.5105  3.2217
 4714SOL     OW25600   2.401   2.564  17.219  0.3277  0.3668  0.2106
 4714SOL    HW125601   2.364   2.597  17.137 -1.0065  2.6222  1.6955
 4714SOL    HW225602   2.395   2.641  17.276  0.3919  1.7615 -1.6367
 4715SOL     OW25603   0.310   2.256   9.074  0.5248 -0.4843 -0.2015
 4715SOL    HW125604   0.353   2.194   9.133  0.0187 -0.3584  0.2976
 4715SOL    HW225605   0.366   2.333   9.090  0.4197 -0.4779  0.1304
 4716SOL     OW25606   1.260   4.707   6.742  0.6216  0.5290 -0.5071
 4716SOL    HW125607   1.321   4.635   6.759  0.2251  0.3542  0.1982
 4716SOL    HW225608   1.311   0.022   6.673 -0.3733  0.7728 -1.0791
 4717SOL     OW25609   1.830   1.135   1.578 -0.0577 -0.4065 -0.2125
 4717SOL    HW125610   1.831   1.083   1.497 -0.9092  2.1341 -1.8572
 4717SOL    HW225611   1.743   1.171   1.594  0.5643  1.0758 -0.1320
 4718SOL     OW25612   0.623   0.850   7.545 -0.1931 -0.7883  0.6429
 4718SOL    HW125613   0.641   0.944   7.539 -1.9190 -0.4149  1.1868
 4718SOL    HW225614   0.528   0.853   7.531 -0.5358 -2.3717  2.6252
 4719SOL     OW25615   2.595   3.467   1.201 -0.4181  0.2018  0.3181
 4719SOL    HW125616   2.530   3.496   1.265  0.3670  0.3333  1.0510
 4719SOL    HW225617   2.649   3.415   1.261  0.7144  0.4168 -0.5188
 4720SOL     OW25618   4.130   1.777   8.036  0.1353 -0.2719 -0.2585
 4720SOL    HW125619   4.143   1.724   8.115 -0.1731  0.7532  0.4873
 4720SOL    HW225620   4.139   1.710   7.968 -0.8679 -2.6772  1.9824
 4721SOL     OW25621   2.754   1.382   6.965 -0.1968  0.4645  0.7279
 4721SOL    HW125622   2.716   1.456   7.012  0.1458  0.6826  0.6645
 4721SOL    HW225623   2.708   1.388   6.882 -0.3678  0.5895  0.8320
 4722SOL     OW25624   2.784   0.917   8.950 -0.0597  0.2795  0.3107
 4722SOL    HW125625   2.724   0.857   8.994  0.5200 -1.5907 -1.4786
 4722SOL    HW225626   2.732   0.997   8.941  1.2076  1.2213  1.3829
 4723SOL     OW25627   3.178   2.671   7.464  0.0736 -0.0667  0.6530
 4723SOL    HW125628   3.121   2.717   7.402  1.0781 -1.1928 -1.0698
 4723SOL    HW225629   3.141   2.697   7.549 -2.3805  1.3638 -0.8463
 4724SOL     OW25630   3.830   1.441   0.849  0.3242 -0.0182  0.4120
 4724SOL    HW125631   3.861   1.488   0.926  4.0539  1.4541 -2.0056
 4724SOL    HW225632   3.904   1.382   0.838 -0.8448 -1.3623 -0.2956
 4725SOL     OW25633   0.253   2.392   3.546  0.8990 -0.5138  0.1464
 4725SOL    HW125634   0.322   2.354   3.493  2.5229  1.1799  1.0359
 4725SOL    HW225635   0.180   2.397   3.485  1.4714  1.6043 -0.3734
 4726SOL     OW25636   0.413   4.683  17.656 -0.4169  0.2237  0.0071
 4726SOL    HW125637   0.340   4.721  17.607 -0.3871  0.3425  0.0572
 4726SOL    HW225638   0.463   4.646  17.583  0.5268 -0.8300  1.1767
 4727SOL     OW25639   0.557   3.699   4.849 -0.0777  0.1310 -0.4719
 4727SOL    HW125640   0.499   3.711   4.773 -0.3874 -0.4291 -0.3161
 4727SOL    HW225641   0.500   3.682   4.923  0.1847  1.2269 -0.0076
 4728SOL     OW25642   3.280   0.623   5.967  0.3929 -0.4523  0.6068
 4728SOL    HW125643   3.211   0.562   5.941 -0.6001  0.9069  0.0750
 4728SOL    HW225644   3.233   0.701   5.994 -1.4091 -0.9545 -1.0797
 4729SOL     OW25645   3.153   3.307   3.407  0.5259 -0.6208  0.7368
 4729SOL    HW125646   3.169   3.257   3.487 -1.1145  0.1381  1.5418
 4729SOL    HW225647   3.060   3.324   3.418  0.4939  0.6194 -1.4706
 4730SOL     OW25648   1.747   1.087   4.139 -0.6234 -0.0943 -0.8597
 4730SOL    HW125649   1.747   0.996   4.111  0.0388 -0.0291 -1.0670
 4730SOL    HW225650   1.697   1.080   4.220 -0.6467 -1.3617 -0.9827
 4731SOL     OW25651   2.955   3.109  14.199 -0.3045 -0.1714  0.0863
 4731SOL    HW125652   2.965   3.050  14.125  0.4372 -1.9246  1.6097
 4731SOL    HW225653   3.045   3.103  14.231  0.2046  1.5679 -1.0143
 4732SOL     OW25654   2.697   0.922   8.569 -0.6847 -0.2572 -0.2216
 4732SOL    HW125655   2.721   1.005   8.528 -1.4350 -0.8224 -1.8095
 4732SOL    HW225656   2.625   0.951   8.624  1.7060  1.4508  1.9638
 4733SOL     OW25657   2.332   0.110   6.828 -0.3404  0.2122  0.0374
 4733SOL    HW125658   2.341   0.015   6.822  1.1726  0.3266  0.6180
 4733SOL    HW225659   2.279   0.141   6.755  2.0570  1.7977 -1.0260
 4734SOL     OW25660   2.204   1.003   7.024  0.1943  0.2823 -0.2927
 4734SOL    HW125661   2.243   0.953   7.096 -0.5515 -0.2267 -0.2349
 4734SOL    HW225662   2.262   0.991   6.950 -0.0738  1.3020 -0.6684
 4735SOL     OW25663   1.749   1.956  16.397  0.4412 -0.0245 -0.6504
 4735SOL    HW125664   1.745   2.046  16.363 -0.3654  0.2469  0.1612
 4735SOL    HW225665   1.834   1.938  16.358 -0.1023 -1.5386 -1.1409
 4736SOL     OW25666   3.471   1.410   3.050 -0.6053 -0.2494 -0.1229
 4736SOL    HW125667   3.565   1.412   3.034 -0.6239 -0.7551 -0.3062
 4736SOL    HW225668   3.451   1.323   3.015 -1.1657 -0.0892 -0.2116
 4737SOL     OW25669   1.517   0.208   4.219  0.3368  0.1238 -0.2212
 4737SOL    HW125670   1.526   0.146   4.291 -0.3699  2.0174  1.5009
 4737SOL    HW225671   1.524   0.295   4.260  1.8118  0.3503 -0.9622
 4738SOL     OW25672   2.269   2.815  13.459  0.1768 -0.0377  0.1371
 4738SOL    HW125673   2.238   2.898  13.422 -0.6330  0.9605  3.0666
 4738SOL    HW225674   2.281   2.760  13.382  0.6865 -1.0872  0.9600
 4739SOL     OW25675   1.472   1.138   9.257  0.3375 -0.2986  0.0236
 4739SOL    HW125676   1.507   1.050   9.241 -0.3406 -0.6040  0.2026
 4739SOL    HW225677   1.543   1.185   9.301 -0.9205  0.0746  1.6429
 4740SOL     OW25678   1.573   2.338   9.900  0.2095  0.1437 -0.1235
 4740SOL    HW125679   1.614   2.422   9.921 -0.2118  0.6617 -1.3734
 4740SOL    HW225680   1.576   2.286   9.980 -3.6481  0.0293 -0.0551
 4741SOL     OW25681   3.197   2.489  16.268 -0.7180  0.1484 -0.5713
 4741SOL    HW125682   3.154   2.522  16.347 -0.4394  2.2584 -1.3027
 4741SOL    HW225683   3.125   2.470  16.207 -0.7066  0.1073 -0.5717
 4742SOL     OW25684   3.125   4.644   5.145 -0.0876 -0.1535  0.1100
 4742SOL    HW125685   3.072   4.720   5.120 -0.8157 -0.4648  0.6876
 4742SOL    HW225686   3.075   4.600   5.215  1.3059 -2.1303 -0.1434
 4743SOL     OW25687   0.982   2.641   3.550  0.5407 -0.2384 -0.1559
 4743SOL    HW125688   1.020   2.727   3.529 -0.5083  0.9203  2.6059
 4743SOL    HW225689   0.945   2.656   3.637  0.6670 -1.4987  0.1056
 4744SOL     OW25690   4.243   1.788   3.655 -0.7506 -0.1376 -0.1356
 4744SOL    HW125691   4.164   1.790   3.600  0.5704  0.8275 -1.9882
 4744SOL    HW225692   4.207   1.788   3.744 -0.5357 -0.0323 -0.0510
 4745SOL     OW25693   0.813   3.522   4.885 -0.1259  0.0663  0.4731
 4745SOL    HW125694   0.823   3.485   4.798  1.5790  0.5286  0.4786
 4745SOL    HW225695   0.742   3.583   4.864 -0.4936  0.1084  1.7955
 4746SOL     OW25696   3.056   1.675   2.773  0.1096 -0.2500  0.5502
 4746SOL    HW125697   3.034   1.583   2.760 -0.5928  0.1612 -1.1378
 4746SOL    HW225698   3.142   1.658   2.812  1.5552  0.7338 -2.1602
 4747SOL     OW25699   3.045   1.227  12.318  0.5136 -0.3488  0.2405
 4747SOL    HW125700   3.116   1.166  12.296 -0.1610 -1.5470  1.3495
 4747SOL    HW225701   3.027   1.273  12.236 -0.7452 -0.6513  0.3410
 4748SOL     OW25702   3.032   4.001   0.108  0.6116 -0.4505  0.2568
 4748SOL    HW125703   3.028   3.942   0.032  0.5627 -2.2240  1.6448
 4748SOL    HW225704   2.947   3.993   0.150  2.3831 -1.1994  3.6596
 4749SOL     OW25705   3.609   4.470  13.979 -0.3569  0.1982 -0.5243
 4749SOL    HW125706   3.535   4.462  13.919  0.6570 -3.2924 -1.3127
 4749SOL    HW225707   3.639   4.383  14.004 -0.5479 -0.0900 -1.2914
 4750SOL     OW25708   3.884   2.266  13.259 -0.1934 -0.5754 -0.1143
 4750SOL    HW125709   3.831   2.216  13.321 -2.0346  0.2782 -1.0029
 4750SOL    HW225710   3.826   2.261  13.183 -1.7057 -0.2937  1.0284
 4751SOL     OW25711   4.151   2.185   6.087 -0.0975 -0.1874 -0.4729
 4751SOL    HW125712   4.071   2.134   6.085 -1.4794  1.8851  2.0518
 4751SOL    HW225713   4.181   2.181   5.996 -2.4745 -0.3928 -1.2311
 4752SOL     OW25714   3.964   4.716   1.996 -0.6585 -0.9001 -0.1425
 4752SOL    HW125715   3.878   0.027   1.976 -0.6231 -2.4825 -3.4001
 4752SOL    HW225716   4.012   0.067   2.023  0.4707 -0.8142 -2.4567
 4753SOL     OW25717   0.899   1.460   7.809 -0.4141 -0.2509 -0.4200
 4753SOL    HW125718   0.811   1.435   7.835  0.0114  0.1750  1.4306
 4753SOL    HW225719   0.891   1.555   7.803  0.4452  0.0474  3.1944
 4754SOL     OW25720   0.852   2.222   6.757  0.6562 -0.4900 -0.5792
 4754SOL    HW125721   0.817   2.240   6.844 -1.6448 -0.0264 -1.6184
 4754SOL    HW225722   0.885   2.132   6.757  1.4617 -0.2005  0.0113
 4755SOL     OW25723   3.384   4.647   5.184 -0.8640 -0.3052  0.4062
 4755SOL    HW125724   3.290   4.659   5.173 -0.9870 -3.7989 -2.4961
 4755SOL    HW225725   3.413   4.626   5.273 -0.6035 -1.3980  0.0669
 4756SOL     OW25726   2.190   1.606   8.152 -0.1936  0.1760  0.1036
 4756SOL    HW125727   2.221   1.570   8.068 -0.3203  3.6861 -1.4545
 4756SOL    HW225728   2.200   1.536   8.216  0.3555  1.3098  1.2466
 4757SOL     OW25729   4.248   4.451   7.160 -0.8225  0.0471 -0.0006
 4757SOL    HW125730   4.252   4.437   7.066  2.0227  0.0853  0.1090
 4757SOL    HW225731   4.310   4.524   7.160 -1.1186  0.2967 -0.0370
 4758SOL     OW25732   4.224   0.229   2.929  0.3415  0.0841  0.3397
 4758SOL    HW125733   4.278   0.165   2.883  3.2665  1.6245  1.6127
 4758SOL    HW225734   4.138   0.196   2.902 -0.0068  1.2144  0.0295
 4759SOL     OW25735   1.493   4.694   7.365 -0.0103  0.1575 -0.5658
 4759SOL    HW125736   1.567   0.002   7.414 -0.3901 -3.3663  2.5809
 4759SOL    HW225737   1.527   4.718   7.279 -1.3866  2.2793 -0.4897
 4760SOL     OW25738   3.751   2.377   3.752  0.2990  0.0721  0.0421
 4760SOL    HW125739   3.755   2.433   3.675 -1.2954  0.7762  0.4835
 4760SOL    HW225740   3.761   2.443   3.820 -1.4882 -0.6450  0.9999
 4761SOL     OW25741   1.032   0.079   1.913 -0.8147  0.2144 -0.1070
 4761SOL    HW125742   1.033   0.104   1.821 -0.6668 -0.7920 -0.3853
 4761SOL    HW225743   0.937   0.087   1.923 -0.9438  0.8919 -1.9248
 4762SOL     OW25744   0.369   4.671   3.847 -0.1489 -0.1304 -0.5299
 4762SOL    HW125745   0.436   4.724   3.889 -3.2095  0.3402  3.7415
 4762SOL    HW225746   0.293   4.662   3.905 -0.2454 -1.7267 -0.9057
 4763SOL     OW25747   3.453   1.401  14.759  0.1353 -0.0761  0.5075
 4763SOL    HW125748   3.474   1.478  14.705  0.5591  1.4528  2.8369
 4763SOL    HW225749   3.536   1.355  14.750 -0.4691 -0.7365 -1.7864
 4764SOL     OW25750   3.592   2.569   4.603 -0.4365  0.1678  0.0143
 4764SOL    HW125751   3.669   2.541   4.553 -0.4495 -0.1934  0.1968
 4764SOL    HW225752   3.641   2.585   4.683  0.2562 -1.5616 -0.0788
 4765SOL     OW25753   3.061   3.423   4.299  0.4554 -0.0028 -0.1128
 4765SOL    HW125754   3.110   3.389   4.224  3.2274  3.3905  0.1439
 4765SOL    HW225755   2.973   3.392   4.278  0.3253 -0.0672  0.5160
 4766SOL     OW25756   4.692   4.112   2.140  0.3992 -0.7432 -0.5568
 4766SOL    HW125757   4.701   4.196   2.183 -0.0799 -2.1030  2.1783
 4766SOL    HW225758   0.046   4.073   2.173 -0.2931  0.1043  2.0835
 4767SOL     OW25759   3.100   4.493   1.937  0.4988 -0.1007 -0.6122
 4767SOL    HW125760   3.127   4.556   2.003  2.0746 -0.5676 -0.8111
 4767SOL    HW225761   3.007   4.508   1.952  0.0772 -0.9811 -2.3159
 4768SOL     OW25762   4.392   3.796   0.934  0.0351 -0.2874 -0.1463
 4768SOL    HW125763   4.317   3.748   0.968 -1.9358  3.1805  0.4706
 4768SOL    HW225764   4.409   3.868   0.996  1.1220 -0.3155 -0.4141
 4769SOL     OW25765   4.309   1.829   6.269  0.2243  0.3402 -0.1071
 4769SOL    HW125766   4.314   1.841   6.174 -2.0040 -1.5367 -0.4306
 4769SOL    HW225767   4.215   1.827   6.281  0.4117 -1.1549  1.1029
 4770SOL     OW25768   0.812   3.912   2.101 -0.3698 -0.2534  0.1482
 4770SOL    HW125769   0.774   3.944   2.019 -0.8434  0.5654  0.6896
 4770SOL    HW225770   0.870   3.986   2.121 -0.1765 -0.2472 -0.4477
 4771SOL     OW25771   2.129   0.248   3.007  0.1383  0.2170  0.4077
 4771SOL    HW125772   2.186   0.325   3.008 -2.6047  2.2676 -1.6208
 4771SOL    HW225773   2.123   0.231   3.101  1.3304 -0.3974  0.3726
 4772SOL     OW25774   0.761   0.806  11.181 -0.1268  0.0920  0.2300
 4772SOL    HW125775   0.725   0.751  11.250  0.5761  0.1524  0.6415
 4772SOL    HW225776   0.805   0.745  11.121 -3.1306 -0.5351 -1.3331
 4773SOL     OW25777   3.738   2.853   9.660 -0.0117 -0.3476 -0.6840
 4773SOL    HW125778   3.701   2.886   9.579 -0.9876  0.7827  0.2136
 4773SOL    HW225779   3.775   2.768   9.639  2.5491  0.5969 -0.0154
 4774SOL     OW25780   4.249   4.293  14.654 -0.1205  0.0043 -0.3684
 4774SOL    HW125781   4.290   4.377  14.636 -2.2479  1.5767  2.1984
 4774SOL    HW225782   4.209   4.297  14.740  0.5727 -0.9032  0.0010
 4775SOL     OW25783   4.663   3.155   4.461  0.9578 -0.5763 -0.0909
 4775SOL    HW125784   4.681   3.084   4.524  0.0581  0.6265  1.5324
 4775SOL    HW225785   4.692   3.116   4.379  1.2458 -1.7854  0.5816
 4776SOL     OW25786   2.092   1.867  11.891 -0.0793  0.0311 -0.6054
 4776SOL    HW125787   2.171   1.827  11.927  0.7736  2.1195 -0.1640
 4776SOL    HW225788   2.052   1.786  11.859 -0.7136  0.7343 -1.6062
 4777SOL     OW25789   0.232   0.439  12.135 -0.0509  0.0195  0.1600
 4777SOL    HW125790   0.162   0.433  12.071 -0.1362 -1.4183  0.3820
 4777SOL    HW225791   0.190   0.397  12.210 -0.9989  1.3510  0.3705
 4778SOL     OW25792   4.159   2.679   0.384 -1.0760  0.6990  0.0904
 4778SOL    HW125793   4.139   2.750   0.323  0.7698  2.1336  1.1916
 4778SOL    HW225794   4.254   2.667   0.383 -1.1009  0.4544  0.7836
 4779SOL     OW25795   2.109   0.218   0.497  0.3595 -0.1984  0.1138
 4779SOL    HW125796   2.130   0.125   0.496 -1.0308 -0.5318  1.9840
 4779SOL    HW225797   2.109   0.246   0.406 -2.6224 -1.2072 -0.2137
 4780SOL     OW25798   3.018   2.679  12.779 -0.3259  0.3615  0.0408
 4780SOL    HW125799   3.030   2.661  12.685  2.3387 -0.4169  0.5192
 4780SOL    HW225800   3.063   2.763  12.791  1.2517 -0.2733 -1.3708
 4781SOL     OW25801   4.689   1.678  12.376 -0.4606 -0.0784  0.0688
 4781SOL    HW125802   0.039   1.723  12.409 -0.1962 -0.8414  0.5103
 4781SOL    HW225803   4.626   1.733  12.423  0.1163  3.1946 -3.0705
 4782SOL     OW25804   3.948   4.049  16.008 -0.2071 -0.0514 -0.3527
 4782SOL    HW125805   3.956   4.025  16.100 -2.9361  1.1792  0.2105
 4782SOL    HW225806   3.855   4.045  15.988 -0.3010  2.7063 -0.4288
 4783SOL     OW25807   1.137   0.087  10.783  0.3430  0.1191  0.3455
 4783SOL    HW125808   1.104   0.170  10.750 -0.7949 -0.5349 -0.1910
 4783SOL    HW225809   1.085   0.037  10.720  0.3413  1.1973 -0.4989
 4784SOL     OW25810   1.036   3.794   4.044  0.0251  0.3223  0.1806
 4784SOL    HW125811   0.991   3.793   4.129 -0.4789  1.2571 -0.0779
 4784SOL    HW225812   1.047   3.888   4.029  0.1728  0.5021  1.4169
 4785SOL     OW25813   0.232   3.971   1.515  0.5949  0.0751 -0.0503
 4785SOL    HW125814   0.293   4.002   1.448  2.8293 -0.6258  1.6647
 4785SOL    HW225815   0.243   3.877   1.496 -0.3215 -0.2379  0.9471
 4786SOL     OW25816   4.411   2.360   5.211 -0.0210 -0.4850  0.1994
 4786SOL    HW125817   4.467   2.283   5.200  0.8924  0.0774  0.9572
 4786SOL    HW225818   4.402   2.372   5.305 -1.8985  0.0386 -0.0469
 4787SOL     OW25819   0.853   1.765   4.240  0.1573 -0.2179  0.0001
 4787SOL    HW125820   0.928   1.739   4.187  1.2915 -0.2909  1.6348
 4787SOL    HW225821   0.797   1.794   4.168 -0.5829 -0.8742  0.3080
 4788SOL     OW25822   4.709   4.234  17.537 -0.9240  0.2620 -0.4051
 4788SOL    HW125823   4.628   4.244  17.588  1.1083  0.7980  2.7243
 4788SOL    HW225824   4.712   4.324  17.504  0.9901  0.0734 -0.7231
 4789SOL     OW25825   2.263   3.470  12.220  0.3486 -0.5220 -0.0053
 4789SOL    HW125826   2.293   3.429  12.301  2.6604 -2.8129 -2.0435
 4789SOL    HW225827   2.175   3.440  12.196  0.3740 -0.7415  0.1758
 4790SOL     OW25828   1.564   1.881   7.030 -0.0616 -0.9838 -0.2053
 4790SOL    HW125829   1.497   1.813   7.025 -0.1408 -0.9211 -0.0080
 4790SOL    HW225830   1.569   1.889   7.126 -1.1777 -1.1897 -0.1378
 4791SOL     OW25831   3.440   3.693   5.831  0.2578  0.2008 -0.1973
 4791SOL    HW125832   3.507   3.652   5.884 -0.9400  0.9491  1.8920
 4791SOL    HW225833   3.462   3.785   5.849 -0.2066  0.5921 -1.6066
 4792SOL     OW25834   3.246   3.299  10.865  0.0775  0.3036  0.3067
 4792SOL    HW125835   3.164   3.341  10.892  0.7617  1.2251  0.9720
 4792SOL    HW225836   3.231   3.205  10.861 -0.2903  0.2058  4.0620
 4793SOL     OW25837   0.955   1.015   7.733  0.2661  0.1118 -0.2142
 4793SOL    HW125838   0.980   0.943   7.791 -1.2207 -0.5537 -0.4098
 4793SOL    HW225839   0.878   0.981   7.688 -0.2625  2.2221 -0.9412
 4794SOL     OW25840   2.025   0.374   0.263  0.4933 -0.5508 -0.3550
 4794SOL    HW125841   2.045   0.428   0.340  0.9942  0.0645 -0.9073
 4794SOL    HW225842   2.020   0.445   0.199 -1.4246  1.3022  1.8010
 4795SOL     OW25843   3.917   4.552   2.283  0.1625  0.4030 -0.3495
 4795SOL    HW125844   3.827   4.545   2.252  0.1391 -0.4918 -0.1053
 4795SOL    HW225845   3.902   4.555   2.378 -0.2149 -0.5112 -0.3736
 4796SOL     OW25846   0.634   2.620  12.888 -0.1959  0.0648  0.0973
 4796SOL    HW125847   0.706   2.681  12.899 -0.6026  0.2146  1.8896
 4796SOL    HW225848   0.666   2.546  12.940  0.7669  0.2353 -0.2541
 4797SOL     OW25849   0.690   2.417   8.049 -0.1709  0.0495 -0.6335
 4797SOL    HW125850   0.690   2.427   8.144 -2.6418  1.4426 -0.7906
 4797SOL    HW225851   0.784   2.408   8.033 -0.0553  0.7869 -0.3970
 4798SOL     OW25852   3.080   0.008   7.493  0.6986  0.6502  0.0407
 4798SOL    HW125853   3.126   0.052   7.422 -0.6254  0.6942 -0.7905
 4798SOL    HW225854   2.998   4.719   7.447 -0.2337  2.8883  0.8782
 4799SOL     OW25855   3.077   0.531   4.927 -0.5430 -0.3596  0.3855
 4799SOL    HW125856   3.119   0.530   4.841  1.4685  1.6658  1.3415
 4799SOL    HW225857   3.090   0.621   4.958 -3.5055  0.3456 -0.4063
 4800SOL     OW25858   2.547   1.661   5.388  0.4824 -0.2945 -0.5533
 4800SOL    HW125859   2.501   1.652   5.305  0.1992 -1.4663 -0.2721
 4800SOL    HW225860   2.630   1.619   5.367 -0.1157 -1.5177 -0.4529
 4801SOL     OW25861   4.251   1.612   6.950  0.0275  0.3946 -0.5924
 4801SOL    HW125862   4.346   1.618   6.959 -0.1648  0.5978  1.4084
 4801SOL    HW225863   4.239   1.544   6.884 -0.4500  0.3786 -0.4879
 4802SOL     OW25864   1.393   0.521   1.384 -0.0862 -0.1027 -0.2334
 4802SOL    HW125865   1.311   0.521   1.434 -0.4595 -2.3496 -0.8275
 4802SOL    HW225866   1.443   0.457   1.436 -1.6167  0.7579  2.2997
 4803SOL     OW25867   2.245   2.830   7.891 -0.1239  0.0735 -0.1261
 4803SOL    HW125868   2.236   2.768   7.818  0.0676 -0.3104  0.1789
 4803SOL    HW225869   2.179   2.898   7.876 -0.3344 -0.0482  0.2586
 4804SOL     OW25870   0.263   1.510  10.356  0.1192  0.6396 -0.9838
 4804SOL    HW125871   0.287   1.439  10.416  0.1382 -0.0366 -1.7857
 4804SOL    HW225872   0.172   1.497  10.330  0.1147 -1.0726 -0.1346
 4805SOL     OW25873   4.046   3.506   6.068 -0.1045 -0.2578 -0.1556
 4805SOL    HW125874   4.122   3.450   6.087  0.0508 -0.0791 -0.2410
 4805SOL    HW225875   4.002   3.507   6.153 -2.6840 -2.5317 -1.5073
 4806SOL     OW25876   2.442   1.973   9.895  0.5031 -0.7188  0.0826
 4806SOL    HW125877   2.395   1.895   9.868  0.8177 -0.9543  0.2129
 4806SOL    HW225878   2.390   1.992   9.973  0.5765 -0.6889  0.1243
 4807SOL     OW25879   2.237   3.380  13.205  0.1324  0.3881 -0.4319
 4807SOL    HW125880   2.226   3.461  13.156 -1.1788  0.9003  0.6961
 4807SOL    HW225881   2.182   3.325  13.149 -0.9681  0.8669  0.1630
 4808SOL     OW25882   1.453   2.021   6.448  0.1070  0.0581 -0.4864
 4808SOL    HW125883   1.453   1.986   6.537 -0.6415 -2.2757 -1.3988
 4808SOL    HW225884   1.547   2.031   6.434  0.3064 -0.3508  0.6249
 4809SOL     OW25885   3.745   0.916   0.393  0.1728  0.2796  0.0448
 4809SOL    HW125886   3.730   0.907   0.487  1.5414  0.9398  0.3192
 4809SOL    HW225887   3.679   0.860   0.351 -1.0093  0.4393  1.6752
 4810SOL     OW25888   2.635   2.430  17.168  0.8165  0.1530 -0.6287
 4810SOL    HW125889   2.556   2.479  17.189 -0.1637 -0.9259 -1.7889
 4810SOL    HW225890   2.651   2.394  17.255 -1.6935 -1.7743 -0.9662
 4811SOL     OW25891   4.135   0.169   0.468 -0.3563 -0.0905  0.1131
 4811SOL    HW125892   4.055   0.124   0.441  0.5721 -2.9780  2.2291
 4811SOL    HW225893   4.207   0.117   0.432  0.8818  2.6265 -1.3522
 4812SOL     OW25894   0.729   3.192   3.731  0.7894  0.4062  0.2965
 4812SOL    HW125895   0.645   3.153   3.755  0.7091 -0.4482 -1.4374
 4812SOL    HW225896   0.713   3.281   3.763  1.5335  0.8367 -0.5466
 4813SOL     OW25897   2.165   2.265   1.092  0.3500 -0.2521  0.1292
 4813SOL    HW125898   2.164   2.330   1.021 -1.6258 -0.8038 -0.3454
 4813SOL    HW225899   2.260   2.257   1.099  0.3729 -0.1907 -0.0983
 4814SOL     OW25900   3.315   0.947   0.714 -0.0036  0.2397 -0.8499
 4814SOL    HW125901   3.323   0.871   0.657 -0.3120 -1.4496  1.4153
 4814SOL    HW225902   3.233   0.981   0.677 -1.5991 -2.9414 -0.2489
 4815SOL     OW25903   1.188   1.122  10.798  0.4069 -0.5419  0.2677
 4815SOL    HW125904   1.144   1.130  10.883 -0.4160  0.3385 -0.2393
 4815SOL    HW225905   1.258   1.068  10.833 -2.8759 -4.0698  1.3710
 4816SOL     OW25906   3.019   2.400   5.184  0.4596 -0.2082  0.1824
 4816SOL    HW125907   3.104   2.362   5.160  0.3150  0.4205 -1.3438
 4816SOL    HW225908   2.981   2.332   5.239  1.1066 -1.0802 -0.4419
 4817SOL     OW25909   1.274   4.714   7.960 -0.6917 -0.3876  0.1628
 4817SOL    HW125910   1.284   4.637   7.904 -1.8559  1.0525 -2.0286
 4817SOL    HW225911   1.304   0.045   7.891  0.2394  0.3355  1.1779
 4818SOL     OW25912   1.931   0.946   2.573 -0.6617 -0.2310 -0.0835
 4818SOL    HW125913   2.006   0.907   2.529  1.1324  1.0530  1.8436
 4818SOL    HW225914   1.863   0.879   2.572  1.3471 -2.2403 -1.0373
 4819SOL     OW25915   0.736   2.673  11.539 -0.1588 -0.6793  0.8004
 4819SOL    HW125916   0.659   2.620  11.562 -0.2840 -1.3429 -1.1685
 4819SOL    HW225917   0.805   2.613  11.569 -0.1374 -0.9614  0.1793
 4820SOL     OW25918   3.401   0.314  16.111 -0.5117  0.5509  0.2339
 4820SOL    HW125919   3.490   0.319  16.077 -0.9443  3.8558 -0.4826
 4820SOL    HW225920   3.362   0.257  16.044  1.7559 -0.4712 -0.1862
 4821SOL     OW25921   0.057   1.843   5.050  0.0451  0.4095  0.0654
 4821SOL    HW125922   0.066   1.937   5.065  0.0641  0.4703 -0.3390
 4821SOL    HW225923   0.145   1.821   5.020  0.0621  0.9940 -0.3195
 4822SOL     OW25924   2.083   4.508   7.906  0.1184 -0.0746 -0.2452
 4822SOL    HW125925   2.131   4.581   7.945  0.6974 -1.2293  1.1612
 4822SOL    HW225926   2.089   4.446   7.978 -2.4164 -0.8071 -0.6690
 4823SOL     OW25927   3.488   3.670   5.545 -0.3364  0.0363  0.0460
 4823SOL    HW125928   3.489   3.637   5.635  0.4444 -0.0152  0.0208
 4823SOL    HW225929   3.406   3.629   5.518 -0.3263  0.7198 -1.0146
 4824SOL     OW25930   1.928   1.158  12.070  0.8632 -0.2382 -0.0280
 4824SOL    HW125931   1.970   1.159  12.156  0.6822  0.1074  0.0587
 4824SOL    HW225932   1.836   1.143  12.092  0.5580 -0.1624 -1.2525
 4825SOL     OW25933   0.467   0.074   5.423  0.0846  0.0074  0.0529
 4825SOL    HW125934   0.544   0.050   5.474 -1.6742 -2.3933  1.5862
 4825SOL    HW225935   0.411   0.084   5.501  1.3658  1.4570  0.7821
 4826SOL     OW25936   0.599   3.352  16.755 -0.0988  0.1104 -0.5297
 4826SOL    HW125937   0.679   3.405  16.748  0.2611 -0.4302 -0.5334
 4826SOL    HW225938   0.551   3.371  16.675  1.2409 -1.7003 -1.7663
 4827SOL     OW25939   3.016   3.063  17.688 -0.2373 -0.2343  0.4250
 4827SOL    HW125940   3.094   3.046   0.030  1.0014 -0.4704 -1.4930
 4827SOL    HW225941   2.958   3.117   0.031 -0.7615 -2.1028  1.7545
 4828SOL     OW25942   1.128   3.151   2.694  0.2389  0.1369 -0.3655
 4828SOL    HW125943   1.074   3.194   2.760  1.3398 -0.2764  0.7926
 4828SOL    HW225944   1.168   3.084   2.750 -0.3247 -1.2729 -1.6529
 4829SOL     OW25945   3.200   1.321   7.642  0.3111 -0.2424  0.4287
 4829SOL    HW125946   3.290   1.347   7.621  0.0621  0.3237  0.0650
 4829SOL    HW225947   3.222   1.232   7.670 -0.6929 -0.5980  0.0865
 4830SOL     OW25948   4.565   0.045   2.105 -0.1678  0.6278 -1.0273
 4830SOL    HW125949   4.601   4.714   2.038 -0.3958 -1.1193  0.3601
 4830SOL    HW225950   4.559   4.718   2.183  0.2319  0.5432 -1.0572
 4831SOL     OW25951   0.921   2.717  10.550  0.2249 -0.2264 -0.4533
 4831SOL    HW125952   0.846   2.658  10.563  0.1979 -0.3785 -1.2966
 4831SOL    HW225953   0.959   2.722  10.638 -0.9249  1.9122 -0.0837
 4832SOL     OW25954   4.672   3.612  14.614 -0.4205  0.2068  0.6344
 4832SOL    HW125955   4.595   3.666  14.627 -0.0536  0.3922  1.9871
 4832SOL    HW225956   4.723   3.641  14.690 -1.2835  2.2208  0.4299
 4833SOL     OW25957   1.013   3.536   6.977  0.6985 -0.0135  0.0784
 4833SOL    HW125958   1.063   3.583   6.910 -3.3227  0.1286 -2.8008
 4833SOL    HW225959   1.019   3.595   7.053 -0.8973 -3.1628  2.6229
 4834SOL     OW25960   1.194   3.278  13.320 -0.1184 -0.3775  0.5597
 4834SOL    HW125961   1.183   3.253  13.411  1.3980 -0.5254  0.6959
 4834SOL    HW225962   1.173   3.371  13.314 -1.8096 -0.9062 -1.7769
 4835SOL     OW25963   1.849   0.979   3.839  0.3456  0.2687  0.1757
 4835SOL    HW125964   1.838   0.934   3.923  0.8457  2.5650  1.4890
 4835SOL    HW225965   1.882   1.063   3.871 -0.3716  0.6396 -0.0631
 4836SOL     OW25966   0.478   1.516   9.950  0.2088  0.3587  0.1482
 4836SOL    HW125967   0.541   1.463  10.000 -0.4622  0.4053  1.0543
 4836SOL    HW225968   0.395   1.506   9.997 -0.0034 -0.4954 -0.4043
 4837SOL     OW25969   2.959   3.025   7.090  0.1568 -0.1958 -0.3264
 4837SOL    HW125970   2.996   2.950   7.044 -0.2255 -1.3559  1.2538
 4837SOL    HW225971   3.041   3.071   7.109  1.1401 -1.6674 -0.9801
 4838SOL     OW25972   3.211   2.800   4.512 -0.1950 -0.2362 -0.4341
 4838SOL    HW125973   3.215   2.813   4.607  1.2621  2.6649 -0.9278
 4838SOL    HW225974   3.154   2.723   4.514 -0.0754 -0.2927  0.9614
 4839SOL     OW25975   4.566   1.457   2.509  1.3578  0.0330 -0.5142
 4839SOL    HW125976   4.552   1.551   2.503  0.7818 -0.0625 -0.6688
 4839SOL    HW225977   4.480   1.418   2.528  2.0034 -1.1298  0.0483
 4840SOL     OW25978   0.851   4.241   6.547 -0.5447 -0.4644  0.6238
 4840SOL    HW125979   0.757   4.255   6.559 -0.9526 -2.4177 -0.2800
 4840SOL    HW225980   0.850   4.174   6.479  0.7134  0.4731 -0.3183
 4841SOL     OW25981   1.818   1.077  10.809 -0.1226  0.0691 -0.1157
 4841SOL    HW125982   1.816   1.137  10.883  1.0042  1.1013 -0.9113
 4841SOL    HW225983   1.792   0.996  10.853  1.1813 -0.9551 -1.2441
 4842SOL     OW25984   4.463   2.698   8.900  0.3559  0.4367  0.2538
 4842SOL    HW125985   4.492   2.771   8.954  3.4734 -0.9156  0.4218
 4842SOL    HW225986   4.414   2.654   8.970 -1.7903  4.2893  1.1235
 4843SOL     OW25987   2.357   0.771   0.293  0.4306  0.5507 -0.6938
 4843SOL    HW125988   2.426   0.779   0.228  0.2580 -0.0720 -0.9542
 4843SOL    HW225989   2.361   0.853   0.342  2.1389  0.2855 -0.3833
 4844SOL     OW25990   0.217   1.176  11.805 -0.0970 -0.0850 -0.4759
 4844SOL    HW125991   0.289   1.155  11.745  1.5876 -1.6869  2.1008
 4844SOL    HW225992   0.265   1.162  11.886 -1.5227  1.4608  0.6322
 4845SOL     OW25993   4.046   4.102  10.321  0.1736 -0.0422  0.3564
 4845SOL    HW125994   4.067   4.030  10.381 -0.9426 -2.9438 -2.7015
 4845SOL    HW225995   4.115   4.088  10.256  0.7018 -0.2735  0.9611
 4846SOL     OW25996   1.421   1.161   0.799  0.1615  0.2670  0.1004
 4846SOL    HW125997   1.342   1.202   0.763  0.0417 -0.6164 -0.6334
 4846SOL    HW225998   1.456   1.234   0.850 -1.3743  0.5596  0.7399
 4847SOL     OW25999   2.764   0.052   5.726  0.5828 -0.1163 -0.0974
 4847SOL    HW126000   2.702   0.002   5.672 -1.0250  0.9744  0.7419
 4847SOL    HW226001   2.729   0.025   5.810  0.0212 -0.3317 -0.3995
 4848SOL     OW26002   2.937   1.334  11.610 -0.0773 -0.0516 -0.2093
 4848SOL    HW126003   3.021   1.287  11.612  0.0621  0.1937 -0.1982
 4848SOL    HW226004   2.924   1.347  11.704  1.3642 -2.6938  0.3735
 4849SOL     OW26005   1.514   0.681   7.154 -0.4055 -0.1449  0.3610
 4849SOL    HW126006   1.447   0.748   7.166  0.9021  0.8979  1.8228
 4849SOL    HW226007   1.528   0.660   7.246  2.0438 -1.2402 -0.2544
 4850SOL     OW26008   0.620   1.984   3.668  0.2202 -0.5990  0.3820
 4850SOL    HW126009   0.529   1.987   3.638  0.0324  1.4763  1.1544
 4850SOL    HW226010   0.663   2.038   3.601  2.0903  0.3926  2.4043
 4851SOL     OW26011   2.101   2.609   7.056  0.5970 -0.2391  0.6490
 4851SOL    HW126012   2.117   2.540   7.119  1.5733  0.0735  0.7403
 4851SOL    HW226013   2.170   2.667   7.088  1.1166  0.4598 -1.7154
 4852SOL     OW26014   0.980   3.778  15.510  0.3743 -0.6415 -0.6597
 4852SOL    HW126015   0.924   3.855  15.500  0.3317 -0.4252  1.3416
 4852SOL    HW226016   0.972   3.738  15.423  0.3739  2.6182 -2.1738
 4853SOL     OW26017   2.994   4.600   3.692 -0.4139  0.3654  0.5399
 4853SOL    HW126018   3.072   4.546   3.705  1.3384  2.4680 -1.2081
 4853SOL    HW226019   2.958   4.563   3.612  0.8268 -0.2794  0.2774
 4854SOL     OW26020   2.723   2.658   8.129 -0.1122 -0.4087  0.2111
 4854SOL    HW126021   2.807   2.701   8.110 -0.0678 -0.8827 -0.6566
 4854SOL    HW226022   2.702   2.616   8.046 -0.7101 -1.0113  0.6794
 4855SOL     OW26023   2.628   0.530   0.595 -0.0691 -0.1460  0.2436
 4855SOL    HW126024   2.631   0.606   0.653 -0.1159 -1.5022  2.0301
 4855SOL    HW226025   2.556   0.558   0.538 -0.1814 -1.3622 -0.2142
 4856SOL     OW26026   0.199   1.110   4.141  0.0233 -0.5319  0.1053
 4856SOL    HW126027   0.128   1.144   4.195 -0.3384 -0.1050 -0.6397
 4856SOL    HW226028   0.153   1.091   4.059 -0.7072  0.4226  0.2881
 4857SOL     OW26029   1.091   1.241   7.761  0.4866  0.1548  0.2628
 4857SOL    HW126030   1.036   1.164   7.749  1.7326 -0.5650 -0.8760
 4857SOL    HW226031   1.038   1.306   7.808 -0.4752  1.1003 -2.1557
 4858SOL     OW26032   2.697   0.882   1.001  0.0289 -0.0456  0.1843
 4858SOL    HW126033   2.791   0.885   0.983 -0.0411 -0.9013 -0.3332
 4858SOL    HW226034   2.694   0.931   1.083  3.3435 -1.3952  1.0979
 4859SOL     OW26035   2.413   2.427   7.960  0.8146 -0.4097  0.2909
 4859SOL    HW126036   2.376   2.515   7.968  3.0535  0.5104  0.5805
 4859SOL    HW226037   2.408   2.404   8.053 -0.7906  0.9165  0.5307
 4860SOL     OW26038   0.911   2.137   4.189 -0.3699 -0.6260 -0.1996
 4860SOL    HW126039   0.856   2.118   4.113 -1.8011  1.0921  0.4034
 4860SOL    HW226040   0.992   2.087   4.177 -0.6149 -1.0671 -0.0416
 4861SOL     OW26041   0.518   4.394   0.142  0.3153  0.4728 -0.1000
 4861SOL    HW126042   0.478   4.340   0.210  0.4625  0.6562  0.1337
 4861SOL    HW226043   0.451   4.398   0.073 -1.0172  1.1314  1.2432
 4862SOL     OW26044   2.860   3.280   3.081  0.3975 -0.0467 -0.2726
 4862SOL    HW126045   2.812   3.331   3.016 -2.7924 -1.6187  0.8840
 4862SOL    HW226046   2.904   3.212   3.030  1.6820  1.7047 -1.5330
 4863SOL     OW26047   1.027   2.647   1.969  0.2244  0.2270 -0.2350
 4863SOL    HW126048   1.047   2.631   2.062 -3.0784 -0.0910  0.4429
 4863SOL    HW226049   1.060   2.735   1.953  1.5538  0.0249  1.3640
 4864SOL     OW26050   2.386   1.214  17.243 -0.2940  0.2144 -0.0033
 4864SOL    HW126051   2.420   1.125  17.237 -0.5533  0.1337 -0.2655
 4864SOL    HW226052   2.307   1.200  17.295  0.2538 -1.1779  0.4375
 4865SOL     OW26053   0.608   0.263   1.343 -0.4443 -0.3133 -0.4586
 4865SOL    HW126054   0.526   0.215   1.336 -1.2365  1.0698 -0.6941
 4865SOL    HW226055   0.606   0.326   1.270  0.5026  1.8165  1.3468
 4866SOL     OW26056   0.206   4.271   2.866  0.2410 -0.1129  0.1832
 4866SOL    HW126057   0.230   4.267   2.958 -3.0964  0.2805  1.0612
 4866SOL    HW226058   0.296   4.273   2.834  0.9273 -0.2292  2.1149
 4867SOL     OW26059   2.834   1.430  17.219  0.1746 -0.2003  0.4341
 4867SOL    HW126060   2.877   1.381  17.290  2.2104 -1.3595 -1.6074
 4867SOL    HW226061   2.750   1.388  17.206  0.5886 -1.4962  1.8683
 4868SOL     OW26062   2.579   0.029   9.987  0.2825  0.2596 -0.1367
 4868SOL    HW126063   2.544   0.101   9.934  2.1761  0.6560 -0.8321
 4868SOL    HW226064   2.668   0.031   9.952 -0.0853 -0.1758 -1.1075
 4869SOL     OW26065   4.282   1.256  14.820 -0.3052  0.0483  0.1005
 4869SOL    HW126066   4.292   1.266  14.725  1.1731 -0.9101  0.1457
 4869SOL    HW226067   4.235   1.331  14.855  0.3191  0.9932 -1.0721
 4870SOL     OW26068   1.765   4.454   3.851 -0.3027  0.0611 -0.2128
 4870SOL    HW126069   1.822   4.394   3.897 -0.9888 -0.6488 -0.2958
 4870SOL    HW226070   1.808   4.469   3.766 -1.4269 -1.0942 -0.9907
 4871SOL     OW26071   3.604   1.150   5.141  0.0944 -0.7229 -0.4332
 4871SOL    HW126072   3.695   1.140   5.111  0.3281 -1.4115  0.4930
 4871SOL    HW226073   3.576   1.222   5.085  0.1077  0.0461  0.5481
 4872SOL     OW26074   2.957   2.844   4.354  0.1566  0.1927  0.1606
 4872SOL    HW126075   3.041   2.849   4.399  0.1436 -0.9333  0.3095
 4872SOL    HW226076   2.928   2.935   4.345  0.7025  0.2697 -0.8036
 4873SOL     OW26077   1.991   3.791   7.488  0.0164 -0.1302 -0.9995
 4873SOL    HW126078   1.973   3.793   7.394 -0.6645  0.9952 -0.8411
 4873SOL    HW226079   2.073   3.840   7.487 -0.2774  0.3659  0.2030
 4874SOL     OW26080   2.394   3.534   3.884 -0.5885  0.1389 -0.0757
 4874SOL    HW126081   2.444   3.568   3.958  0.2824  0.5574 -0.8564
 4874SOL    HW226082   2.373   3.616   3.840 -1.8797  1.5777  3.1766
 4875SOL     OW26083   3.829   3.862   7.011  0.8454  0.1739 -0.1901
 4875SOL    HW126084   3.775   3.866   7.090  1.3912 -0.1664  0.2000
 4875SOL    HW226085   3.916   3.861   7.051  1.2500  1.0156 -1.0452
 4876SOL     OW26086   2.384   2.141  16.382 -0.8136 -0.0506  0.4628
 4876SOL    HW126087   2.458   2.093  16.346  0.0755  1.2172  0.6274
 4876SOL    HW226088   2.423   2.176  16.462  1.3864 -2.2851  0.3712
 4877SOL     OW26089   0.100   2.892  15.487 -0.7390  0.0780 -0.2243
 4877SOL    HW126090   0.056   2.910  15.571  4.6619 -1.4835  2.9525
 4877SOL    HW226091   0.049   2.818  15.454 -0.8425  0.5586 -1.1271
 4878SOL     OW26092   0.478   0.296  16.170 -0.3267 -0.2162 -0.3080
 4878SOL    HW126093   0.541   0.247  16.117  1.2073  2.3465 -0.8421
 4878SOL    HW226094   0.410   0.230  16.185 -1.3906  0.6231 -1.4150
 4879SOL     OW26095   1.987   2.892  15.723 -0.3604 -0.1992  0.0478
 4879SOL    HW126096   1.936   2.825  15.677  1.6223 -1.0526 -0.9380
 4879SOL    HW226097   2.024   2.945  15.652 -0.4795  0.1797  0.2747
 4880SOL     OW26098   3.025   4.077  14.227  0.5381 -0.5143  1.0237
 4880SOL    HW126099   3.030   4.023  14.306 -2.0944 -0.8345  0.9399
 4880SOL    HW226100   3.085   4.148  14.253 -0.3955  0.6822 -0.0995
 4881SOL     OW26101   0.311   2.305  14.343  0.2428  0.5620  0.2320
 4881SOL    HW126102   0.279   2.373  14.403  0.8349 -0.7105  1.9754
 4881SOL    HW226103   0.251   2.233  14.358  0.1760  0.2569 -1.4872
 4882SOL     OW26104   1.372   2.926  15.066  0.1141 -0.0359 -0.0205
 4882SOL    HW126105   1.344   3.012  15.033  0.9823  0.5433  0.7295
 4882SOL    HW226106   1.462   2.917  15.037 -0.0702 -0.2379 -0.5234
 4883SOL     OW26107   1.866   2.469  11.170 -0.2456 -0.6579 -0.2514
 4883SOL    HW126108   1.898   2.471  11.080  0.9921 -2.1593  0.1638
 4883SOL    HW226109   1.812   2.548  11.177 -1.0962 -1.3239  0.8210
 4884SOL     OW26110   3.907   4.339  11.664 -0.0234  0.4750 -0.5358
 4884SOL    HW126111   3.837   4.301  11.716  1.6478  1.2602  2.2787
 4884SOL    HW226112   3.972   4.348  11.734 -0.7905 -1.7522  0.4741
 4885SOL     OW26113   0.335   2.593  16.981 -0.3688  0.0750  0.8781
 4885SOL    HW126114   0.240   2.581  16.982 -0.4153  0.6009  2.8164
 4885SOL    HW226115   0.354   2.617  17.072 -3.5596  2.2390  0.9529
 4886SOL     OW26116   2.126   0.841  11.345  0.7700 -0.3715 -0.7027
 4886SOL    HW126117   2.100   0.919  11.394  1.2814 -0.6384 -0.0143
 4886SOL    HW226118   2.217   0.859  11.365  0.5470 -0.6249  0.5315
 4887SOL     OW26119   3.990   4.513   5.459 -0.0640 -0.5304  0.2987
 4887SOL    HW126120   4.013   4.492   5.369 -0.4805  1.9821 -0.3781
 4887SOL    HW226121   4.075   4.515   5.504 -0.0849 -2.8887  0.4861
 4888SOL     OW26122   3.602   2.436   8.239 -0.0298 -0.1051  0.1063
 4888SOL    HW126123   3.675   2.497   8.248 -0.8564  0.8257  0.4328
 4888SOL    HW226124   3.654   2.355   8.239  0.6040  0.2973 -2.5676
 4889SOL     OW26125   4.515   1.081   6.833 -0.3766 -0.3783  0.7787
 4889SOL    HW126126   4.460   1.006   6.852  0.9156 -1.5053  0.0486
 4889SOL    HW226127   4.602   1.041   6.831  0.5067  1.4859  0.9272
 4890SOL     OW26128   0.676   4.196   4.842  0.2753  0.1528  0.3378
 4890SOL    HW126129   0.748   4.259   4.835  2.8600 -2.4355  3.4586
 4890SOL    HW226130   0.678   4.180   4.937 -2.4308  0.5473  0.4641
 4891SOL     OW26131   2.714   2.151   6.511 -0.1255 -0.2865  0.4549
 4891SOL    HW126132   2.800   2.110   6.500  0.0857  0.9828 -2.8088
 4891SOL    HW226133   2.712   2.145   6.607  0.1299 -1.1936  0.4069
 4892SOL     OW26134   1.445   0.540   6.933  0.8425 -0.4215  0.2609
 4892SOL    HW126135   1.468   0.568   7.022  2.1953 -3.4923  0.8893
 4892SOL    HW226136   1.504   0.588   6.876 -1.8154  1.3750 -0.9700
 4893SOL     OW26137   3.897   4.660   5.026  0.1607  0.3054  0.3795
 4893SOL    HW126138   3.855   4.623   4.948 -0.1104  1.9983 -0.2945
 4893SOL    HW226139   3.942   4.582   5.056  2.4742  0.7208 -1.9722
 4894SOL     OW26140   2.827   1.913   7.912  0.0625 -0.0896  0.5584
 4894SOL    HW126141   2.756   1.861   7.876  0.6944 -1.0375  0.6738
 4894SOL    HW226142   2.900   1.864   7.874  1.3917  1.3015  1.3165
 4895SOL     OW26143   3.432   1.727   8.614  0.4836 -0.0425  0.1079
 4895SOL    HW126144   3.513   1.768   8.583  0.0588  0.3810 -0.4437
 4895SOL    HW226145   3.383   1.803   8.647  1.4961  0.0383  1.4171
 4896SOL     OW26146   1.183   3.138   7.787  0.3277 -0.0075  0.0938
 4896SOL    HW126147   1.113   3.143   7.852 -0.1128 -0.9942 -0.3164
 4896SOL    HW226148   1.171   3.049   7.756 -0.1759  0.1860 -0.2690
 4897SOL     OW26149   4.609   4.518   6.322  0.0754  0.3380  0.2142
 4897SOL    HW126150   4.673   4.486   6.258 -0.9101 -2.5599  0.6944
 4897SOL    HW226151   4.540   4.454   6.335  0.8929 -0.0691  2.4612
 4898SOL     OW26152   3.417   3.116   5.175 -0.1843 -0.1934  0.1125
 4898SOL    HW126153   3.476   3.065   5.120 -0.0602  1.1774 -1.0080
 4898SOL    HW226154   3.381   3.049   5.234 -1.0643  0.9386  0.8610
 4899SOL     OW26155   2.460   2.725   6.567 -0.3122 -0.1203 -0.0605
 4899SOL    HW126156   2.386   2.776   6.598 -1.7332 -0.9215 -2.1679
 4899SOL    HW226157   2.504   2.692   6.646 -2.4305 -0.0928  1.1226
 4900SOL     OW26158   1.905   1.254   6.746 -0.0360 -0.2108  0.4256
 4900SOL    HW126159   1.959   1.288   6.674 -2.2955  0.4793 -0.9401
 4900SOL    HW226160   1.914   1.327   6.807  0.0149 -0.8749  1.2147
 4901SOL     OW26161   3.025   2.204   6.854  0.2440 -0.0512  0.1125
 4901SOL    HW126162   3.075   2.202   6.936  1.4992  2.9378 -0.5940
 4901SOL    HW226163   3.011   2.110   6.842  2.2669 -0.4253  0.7310
 4902SOL     OW26164   0.467   0.763   3.482 -0.0098 -0.2270 -0.2016
 4902SOL    HW126165   0.427   0.782   3.397  1.9178 -1.8985 -1.4751
 4902SOL    HW226166   0.431   0.674   3.481 -2.5918  0.8399 -2.2236
 4903SOL     OW26167   4.286   0.234   7.820 -0.2271 -0.0865  0.4681
 4903SOL    HW126168   4.208   0.266   7.774 -0.3377  1.0993  1.4819
 4903SOL    HW226169   4.294   0.293   7.895  1.4260  0.1358  0.1215
 4904SOL     OW26170   3.607   0.755   4.108  0.3439  0.2467  0.2659
 4904SOL    HW126171   3.516   0.767   4.079  0.0155 -3.2078 -0.1613
 4904SOL    HW226172   3.601   0.735   4.201  1.0203 -1.1834  0.0024
 4905SOL     OW26173   2.004   3.774   1.414  0.2335 -0.2421 -0.3579
 4905SOL    HW126174   1.912   3.754   1.403  0.2326 -0.8262  0.7010
 4905SOL    HW226175   2.015   3.774   1.509  0.8093  3.5237 -0.4454
 4906SOL     OW26176   1.618   4.385   3.496  0.4895 -0.0215 -0.6333
 4906SOL    HW126177   1.711   4.362   3.501  0.6769  0.2927 -2.5370
 4906SOL    HW226178   1.590   4.293   3.493  4.0355 -1.1812  1.4617
 4907SOL     OW26179   1.712   1.597   7.208  0.1891 -0.1538 -0.0385
 4907SOL    HW126180   1.800   1.629   7.192  0.0968  0.7683  1.3352
 4907SOL    HW226181   1.666   1.680   7.200 -0.0901 -0.5513 -2.5595
 4908SOL     OW26182   3.168   3.128   6.606 -0.6253 -0.0831  0.3549
 4908SOL    HW126183   3.185   3.220   6.587  2.0038 -0.4439  0.9185
 4908SOL    HW226184   3.163   3.093   6.517 -1.7983 -0.6852  0.6547
 4909SOL     OW26185   2.394   4.508   3.207  0.0408  0.3482  0.0407
 4909SOL    HW126186   2.415   4.571   3.138  1.9525 -0.8457 -0.4706
 4909SOL    HW226187   2.351   4.551   3.281 -1.7619 -0.3507 -0.5778
 4910SOL     OW26188   2.835   4.580   1.999 -0.6062 -0.4829 -0.0927
 4910SOL    HW126189   2.754   4.625   1.978  0.2671  1.8124  1.5050
 4910SOL    HW226190   2.874   4.645   2.057  0.5137  0.9152 -2.4554
 4911SOL     OW26191   0.523   1.924   6.855 -0.1793  0.6568  0.1144
 4911SOL    HW126192   0.447   1.872   6.831  0.2298  0.5525 -0.9575
 4911SOL    HW226193   0.515   1.997   6.795  0.9528 -0.9016 -1.9459
 4912SOL     OW26194   3.345   0.004   7.940 -0.1629 -0.4615  0.4534
 4912SOL    HW126195   3.399   4.709   7.865 -0.6154 -2.9860  0.8793
 4912SOL    HW226196   3.333   4.647   7.984 -0.1752 -1.2438 -1.0677
 4913SOL     OW26197   1.200   4.664   7.240  0.3228 -0.4656 -0.6898
 4913SOL    HW126198   1.238   4.591   7.290 -0.9916 -0.3871  0.4145
 4913SOL    HW226199   1.265   4.666   7.170  0.0673  0.4756 -0.8934
 4914SOL     OW26200   0.584   4.131   0.589 -0.2365 -0.3927 -0.4409
 4914SOL    HW126201   0.528   4.203   0.619 -0.7313 -1.3581  0.9684
 4914SOL    HW226202   0.665   4.138   0.639 -0.7391  0.5879  0.2582
 4915SOL     OW26203   1.453   2.747   7.257 -0.3787  0.3785  0.4646
 4915SOL    HW126204   1.439   2.829   7.211  0.0731  1.2611  1.8901
 4915SOL    HW226205   1.404   2.763   7.338 -2.3182 -1.7191 -0.3000
 4916SOL     OW26206   2.101   4.071   1.554  0.3312 -0.1583 -0.1379
 4916SOL    HW126207   2.084   4.057   1.460 -0.5077 -0.0806 -0.0029
 4916SOL    HW226208   2.090   3.989   1.601  0.8287  0.1624  0.5433
 4917SOL     OW26209   2.490   0.237   7.296 -0.3327 -0.3756 -0.6632
 4917SOL    HW126210   2.472   0.320   7.253  1.2803  0.7933  0.8936
 4917SOL    HW226211   2.405   0.198   7.279 -1.9329  2.3477  1.1504
 4918SOL     OW26212   0.302   2.641   3.686  1.1218  0.1263 -0.0528
 4918SOL    HW126213   0.258   2.706   3.631 -0.6334 -0.2637  0.9061
 4918SOL    HW226214   0.283   2.556   3.646 -0.3536  0.7474 -0.6672
 4919SOL     OW26215   4.658   3.762   2.114 -0.6100  0.0588  0.1223
 4919SOL    HW126216   4.691   3.726   2.032  0.1200  0.9612  0.0199
 4919SOL    HW226217   0.002   3.729   2.168 -0.7669 -2.3572 -1.1767
 4920SOL     OW26218   1.633   4.380   9.609 -0.0658  0.1586  0.1775
 4920SOL    HW126219   1.696   4.337   9.667  0.8288  3.4732  1.6820
 4920SOL    HW226220   1.648   4.471   9.633 -0.9007  0.3815 -0.1584
 4921SOL     OW26221   1.390   2.052   4.109  0.3170  0.4476  0.3577
 4921SOL    HW126222   1.401   2.032   4.202  1.6297  0.1463  0.1290
 4921SOL    HW226223   1.295   2.038   4.103  0.0728  1.3593  2.0743
 4922SOL     OW26224   0.346   3.473   4.439 -0.1227  0.6292  0.2790
 4922SOL    HW126225   0.317   3.406   4.500 -1.2220  0.1803 -0.7489
 4922SOL    HW226226   0.282   3.494   4.371 -2.3278  1.7489  2.6871
 4923SOL     OW26227   0.832   3.310  16.160  0.1924 -0.2466  0.0813
 4923SOL    HW126228   0.921   3.344  16.174  0.0834  0.7455 -1.7215
 4923SOL    HW226229   0.774   3.376  16.200 -0.0086 -0.7325  0.5999
 4924SOL     OW26230   3.113   0.858  14.331 -0.1177  0.2889 -0.7392
 4924SOL    HW126231   3.159   0.804  14.395 -1.5608  1.2204  1.0908
 4924SOL    HW226232   3.189   0.886  14.280 -0.4777 -0.5635 -1.7679
 4925SOL     OW26233   2.968   3.313   7.248  0.8072  0.1209 -0.3112
 4925SOL    HW126234   3.051   3.279   7.214 -0.2930  0.2322 -3.1748
 4925SOL    HW226235   2.997   3.404   7.242  0.1182  0.3294 -0.5102
 4926SOL     OW26236   3.114   2.528   6.813 -0.3338  0.3244  0.5824
 4926SOL    HW126237   3.146   2.603   6.764 -0.2037 -0.1971 -0.1283
 4926SOL    HW226238   3.098   2.477   6.733 -0.9799  0.9231  0.3305
 4927SOL     OW26239   1.283   2.419   2.653  0.5030  0.4216  0.3029
 4927SOL    HW126240   1.347   2.469   2.703  0.2787  0.4222  0.5928
 4927SOL    HW226241   1.282   2.334   2.697 -1.7722  0.8563  1.1089
 4928SOL     OW26242   0.958   0.337   1.490  0.3400  0.1422 -0.3998
 4928SOL    HW126243   0.877   0.297   1.522 -0.6056  2.3684 -0.0084
 4928SOL    HW226244   0.919   0.383   1.416 -2.1698  0.4656  1.1401
 4929SOL     OW26245   3.373   1.947  13.391  0.0053 -0.1727  0.6143
 4929SOL    HW126246   3.394   1.913  13.479  2.0060 -3.7715 -1.2491
 4929SOL    HW226247   3.290   1.902  13.376 -0.3188  0.7989 -0.4644
 4930SOL     OW26248   4.349   3.764  11.607 -0.0670 -0.7210 -0.6269
 4930SOL    HW126249   4.441   3.786  11.588 -0.4708  0.7233 -0.9444
 4930SOL    HW226250   4.300   3.834  11.563 -1.6568 -1.1724  0.4342
 4931SOL     OW26251   4.691   3.061  13.482 -0.5005  0.0405 -0.1250
 4931SOL    HW126252   4.678   3.129  13.415  1.9895  0.1368 -0.5246
 4931SOL    HW226253   4.622   2.997  13.464 -0.8086  0.1784  0.5774
 4932SOL     OW26254   3.358   0.356   4.706  0.3550 -0.1839 -0.5575
 4932SOL    HW126255   3.266   0.352   4.734  0.3714 -1.2748 -0.6870
 4932SOL    HW226256   3.344   0.403   4.623 -2.1829  2.0270  1.1213
 4933SOL     OW26257   1.033   3.766   4.357 -0.2461  0.2737  0.1072
 4933SOL    HW126258   0.955   3.714   4.378 -0.1126  0.0455  0.0424
 4933SOL    HW226259   1.013   3.853   4.391  2.5669  1.7528 -1.9898
 4934SOL     OW26260   3.312   2.980   5.379 -0.3234  0.3988  0.0194
 4934SOL    HW126261   3.223   2.946   5.387  0.2670 -1.2106 -0.3040
 4934SOL    HW226262   3.351   2.968   5.466  0.0231  1.3579 -0.0110
 4935SOL     OW26263   4.152   1.536   3.962  0.0604  0.2735 -0.7303
 4935SOL    HW126264   4.115   1.617   3.927 -1.5730  0.1016  0.5755
 4935SOL    HW226265   4.244   1.553   3.943 -0.0301  0.4718 -1.0012
 4936SOL     OW26266   1.015   4.657   1.062 -0.2296  0.1061  0.3873
 4936SOL    HW126267   0.974   4.683   1.145 -2.6950 -1.0871 -0.4584
 4936SOL    HW226268   0.936   4.638   1.011 -0.8688  1.8574  0.7170
 4937SOL     OW26269   4.468   1.195   4.208 -1.2167 -0.3272 -0.0951
 4937SOL    HW126270   4.539   1.186   4.272 -0.6273  0.9775 -0.5658
 4937SOL    HW226271   4.505   1.270   4.161  0.1274 -0.6894  0.3814
 4938SOL     OW26272   2.646   0.200   3.573 -0.4435 -0.0835 -0.2138
 4938SOL    HW126273   2.636   0.191   3.478 -0.4113 -1.9537 -0.0255
 4938SOL    HW226274   2.669   0.112   3.603  2.6486  1.2445  1.2820
 4939SOL     OW26275   4.104   1.602   7.244 -0.3167 -0.4692 -0.4898
 4939SOL    HW126276   4.144   1.568   7.164  1.6301  0.4204  0.1233
 4939SOL    HW226277   4.035   1.539   7.266 -1.2756  1.2719  1.4610
 4940SOL     OW26278   2.802   2.585   3.704  0.2195 -0.0755  0.3944
 4940SOL    HW126279   2.738   2.514   3.710  2.0401 -1.6611  1.2998
 4940SOL    HW226280   2.810   2.595   3.609 -0.9022  1.2665  0.4429
 4941SOL     OW26281   1.653   0.954   6.396  0.4546  0.0460 -0.4350
 4941SOL    HW126282   1.642   0.998   6.311  1.9349 -1.7846 -1.5752
 4941SOL    HW226283   1.654   1.029   6.455 -1.0719  1.6996 -2.5107
 4942SOL     OW26284   1.395   0.908   0.915 -0.1907 -0.0969  0.0250
 4942SOL    HW126285   1.417   0.864   0.833 -1.0588  0.2280 -0.3803
 4942SOL    HW226286   1.383   0.994   0.874 -0.5493 -0.3947 -0.4900
 4943SOL     OW26287   4.345   4.191  17.653 -0.2508  0.4932 -0.2107
 4943SOL    HW126288   4.251   4.193  17.669 -0.4198  3.9768 -1.7765
 4943SOL    HW226289   4.374   4.106  17.688  0.9321  0.9206 -0.1483
 4944SOL     OW26290   1.241   1.373   0.456  0.0803  0.3790 -0.1829
 4944SOL    HW126291   1.221   1.330   0.539  0.4490 -1.4610 -1.0271
 4944SOL    HW226292   1.250   1.464   0.483 -0.5965  0.9331 -1.7687
 4945SOL     OW26293   3.444   4.231  14.532 -0.3104 -0.4137  0.2005
 4945SOL    HW126294   3.459   4.230  14.626 -1.7023 -0.2356  0.4349
 4945SOL    HW226295   3.443   4.139  14.503  0.2759 -0.3694  0.0495
 4946SOL     OW26296   2.085   2.669   9.425 -0.3793 -0.0985 -0.1637
 4946SOL    HW126297   2.029   2.726   9.372  0.7230 -1.2692 -2.5807
 4946SOL    HW226298   2.152   2.727   9.464 -0.0564  0.0518 -0.9504
 4947SOL     OW26299   2.638   1.427   6.458 -0.2770  0.0052 -0.0546
 4947SOL    HW126300   2.684   1.456   6.379 -0.5923 -1.0757 -0.6377
 4947SOL    HW226301   2.558   1.474   6.431  0.3050  0.9345 -0.1862
 4948SOL     OW26302   3.041   1.437   5.690  0.7318  0.3734  0.0195
 4948SOL    HW126303   3.050   1.472   5.601  1.1682  0.4181  0.0821
 4948SOL    HW226304   2.965   1.379   5.680  0.2199  0.8878  0.9865
 4949SOL     OW26305   1.608   1.956   8.504 -0.0929  0.4527  0.5449
 4949SOL    HW126306   1.583   2.047   8.520 -2.3839  0.1448 -1.2731
 4949SOL    HW226307   1.524   1.912   8.489  1.6756 -2.3485 -1.0074
 4950SOL     OW26308   4.457   0.768   0.651 -0.0145  0.7085  0.1499
 4950SOL    HW126309   4.550   0.789   0.656  0.6493 -1.7332 -1.8669
 4950SOL    HW226310   4.448   0.683   0.694 -3.5529  1.7590  1.5633
 4951SOL     OW26311   1.588   3.528   7.658 -0.7658  0.3895 -0.6541
 4951SOL    HW126312   1.505   3.513   7.613 -1.4087  0.8564  0.3700
 4951SOL    HW226313   1.658   3.543   7.594  0.1095 -1.8182 -0.1971
 4952SOL     OW26314   0.983   4.613   8.734 -0.0847  0.0908  0.1418
 4952SOL    HW126315   0.897   4.597   8.697  0.4719 -1.2514 -0.5486
 4952SOL    HW226316   1.004   4.524   8.760  1.7137 -0.1160 -1.9372
 4953SOL     OW26317   2.679   0.463   7.270  0.5562  0.0331  0.3777
 4953SOL    HW126318   2.649   0.538   7.220 -1.5166 -0.0472  1.5250
 4953SOL    HW226319   2.704   0.404   7.199  0.1008  0.8396 -0.4393
 4954SOL     OW26320   0.057   3.442   8.453 -0.5050 -0.4908  0.4064
 4954SOL    HW126321   0.068   3.375   8.386  0.1977 -0.3652  0.3938
 4954SOL    HW226322   0.114   3.407   8.522  1.5963 -1.7726 -2.0097
 4955SOL     OW26323   3.942   0.223   1.036  0.2707 -0.0361  0.2017
 4955SOL    HW126324   3.917   0.236   0.944  2.7056 -1.7472 -0.7042
 4955SOL    HW226325   4.027   0.180   1.030  2.7048  4.5748  2.2219
 4956SOL     OW26326   3.915   3.449   6.757  0.2720  0.5243  0.5068
 4956SOL    HW126327   3.945   3.363   6.785 -0.3613  1.0311  2.7608
 4956SOL    HW226328   3.944   3.501   6.832  1.4286 -1.0591  1.1423
 4957SOL     OW26329   3.926   1.877  10.412 -0.9730  0.6146 -0.2179
 4957SOL    HW126330   3.898   1.915  10.495 -0.4130  0.7784 -0.1024
 4957SOL    HW226331   3.975   1.949  10.374  1.1511  0.0052  1.3408
 4958SOL     OW26332   3.010   4.660   6.304  0.1434  0.2902  0.4343
 4958SOL    HW126333   3.024   4.673   6.398 -1.1426  1.3659  0.4677
 4958SOL    HW226334   3.088   4.608   6.282 -0.5678  0.6873 -3.0094
 4959SOL     OW26335   1.395   1.170  16.158 -0.5007 -0.3700 -0.1900
 4959SOL    HW126336   1.356   1.212  16.234 -1.9189  0.9872 -1.6467
 4959SOL    HW226337   1.475   1.128  16.189 -0.3125  0.4603  0.4565
 4960SOL     OW26338   0.897   2.073   5.797  0.0647 -0.5715 -0.4080
 4960SOL    HW126339   0.920   2.044   5.885  0.0199 -1.2694 -0.6256
 4960SOL    HW226340   0.813   2.119   5.810 -1.5132 -2.7487 -2.9008
 4961SOL     OW26341   0.878   0.227  11.481  0.2331  0.2860  0.0979
 4961SOL    HW126342   0.932   0.296  11.443 -3.6888  3.7486  0.8175
 4961SOL    HW226343   0.948   0.169  11.510 -2.4199 -4.4014 -2.8492
 4962SOL     OW26344   3.199   2.381   7.510 -0.0061  0.5099  0.3596
 4962SOL    HW126345   3.193   2.321   7.436 -1.6297 -0.4248  1.2526
 4962SOL    HW226346   3.213   2.466   7.467  1.7787 -0.8692 -1.7852
 4963SOL     OW26347   3.428   2.661   4.385 -0.0206  0.5000 -0.1321
 4963SOL    HW126348   3.480   2.735   4.416 -0.3032  0.0125  1.5024
 4963SOL    HW226349   3.369   2.654   4.461 -1.2062  1.7870 -0.9480
 4964SOL     OW26350   1.526   1.493  11.756 -0.0594  0.3374 -0.3613
 4964SOL    HW126351   1.560   1.437  11.826 -1.2710  0.7897  0.5878
 4964SOL    HW226352   1.446   1.526  11.797  1.6005  3.3481  0.5275
 4965SOL     OW26353   2.852   0.775   2.971  0.4534 -0.1537 -0.2405
 4965SOL    HW126354   2.859   0.768   3.066  0.0478  0.2087 -0.1837
 4965SOL    HW226355   2.871   0.684   2.950 -1.8076 -0.7405  0.3967
 4966SOL     OW26356   0.704   1.082   0.164 -0.0429 -0.3587 -0.1981
 4966SOL    HW126357   0.744   1.045   0.085  0.3679 -0.0138 -0.1554
 4966SOL    HW226358   0.666   1.159   0.123  0.0009  1.1119  2.5887
 4967SOL     OW26359   2.793   3.697   5.564  0.1438 -0.1483  0.5474
 4967SOL    HW126360   2.803   3.610   5.602  3.5886 -0.6855 -1.5557
 4967SOL    HW226361   2.701   3.713   5.585  0.9115 -0.0465  3.7080
 4968SOL     OW26362   0.488   2.035  15.028  0.1410  0.0294 -0.1442
 4968SOL    HW126363   0.454   2.123  15.018 -1.3926 -0.5631 -0.1798
 4968SOL    HW226364   0.489   2.032  15.124  1.1690  1.2279 -0.1371
 4969SOL     OW26365   3.605   3.786   7.843  0.3011  0.1962  0.5373
 4969SOL    HW126366   3.525   3.793   7.896 -1.9715 -0.4728 -2.7480
 4969SOL    HW226367   3.592   3.863   7.788 -1.9634 -1.8120 -1.7582
 4970SOL     OW26368   3.949   1.509   3.703  0.0704  0.2008 -0.4644
 4970SOL    HW126369   3.911   1.490   3.789  0.6162  0.8696 -0.0809
 4970SOL    HW226370   3.909   1.435   3.657 -0.9271  0.2279  0.3449
 4971SOL     OW26371   3.469   3.679  13.875  0.1298  0.0358 -0.3960
 4971SOL    HW126372   3.380   3.709  13.858 -1.3021 -2.4324  2.9426
 4971SOL    HW226373   3.507   3.758  13.915 -1.5728 -0.0646  1.3695
 4972SOL     OW26374   1.845   2.237   8.141 -0.8704  0.1736 -0.1043
 4972SOL    HW126375   1.923   2.259   8.193  0.1257 -1.4793 -0.9049
 4972SOL    HW226376   1.903   2.198   8.075 -0.6325  0.2812  0.0414
 4973SOL     OW26377   0.065   2.700  13.087 -0.4886  0.0118  0.3368
 4973SOL    HW126378   0.108   2.762  13.145 -0.2489 -1.7316  2.0524
 4973SOL    HW226379   4.701   2.713  13.113 -0.0912  0.0495  1.7363
 4974SOL     OW26380   1.192   0.032   8.890  0.2769  0.4076 -0.0573
 4974SOL    HW126381   1.223   0.015   8.979  0.4840 -1.7008 -0.5331
 4974SOL    HW226382   1.200   4.671   8.854  1.9399 -0.4978  2.5896
 4975SOL     OW26383   4.603   3.504   5.143 -0.3810  0.4086  0.4588
 4975SOL    HW126384   4.602   3.588   5.187  1.4581  1.5658 -1.7467
 4975SOL    HW226385   4.508   3.491   5.152 -0.3205 -0.0284  0.4926
 4976SOL     OW26386   3.505   3.921   5.943  0.0094  0.2981  0.8874
 4976SOL    HW126387   3.581   3.911   6.001  0.6376 -2.3555 -0.3833
 4976SOL    HW226388   3.489   4.015   5.948  0.1288  0.3916 -0.5243
 4977SOL     OW26389   3.509   1.560   7.994 -0.7166 -0.2532  0.4198
 4977SOL    HW126390   3.430   1.509   7.976  1.3369 -2.4647 -2.2934
 4977SOL    HW226391   3.570   1.525   7.929 -0.2893  2.9637 -0.9211
 4978SOL     OW26392   0.723   0.902   0.608 -0.2043  0.0806  0.0816
 4978SOL    HW126393   0.746   0.822   0.655  0.4730  1.1779  1.6451
 4978SOL    HW226394   0.789   0.969   0.627  0.7480 -0.8579  0.0811
 4979SOL     OW26395   0.841   3.988  15.439  0.0659  0.0269 -0.0113
 4979SOL    HW126396   0.830   3.953  15.350 -0.9290  2.0419 -0.6928
 4979SOL    HW226397   0.822   4.080  15.421  1.8547  0.5572  0.8465
 4980SOL     OW26398   0.813   0.022   5.481  0.2899 -0.0993 -0.0057
 4980SOL    HW126399   0.828   4.715   5.393  0.9592  0.1113  0.0239
 4980SOL    HW226400   0.810   0.117   5.472  0.8406 -0.0075  0.8169
 4981SOL     OW26401   0.435   1.739   2.826  0.3515 -0.1798 -0.1834
 4981SOL    HW126402   0.377   1.679   2.874  0.1084 -0.0815 -0.3569
 4981SOL    HW226403   0.464   1.796   2.898  0.2107  0.2585 -0.4764
 4982SOL     OW26404   3.215   0.590   5.219  0.8737  0.4837 -0.2511
 4982SOL    HW126405   3.283   0.525   5.206  1.1421  0.3716  1.7107
 4982SOL    HW226406   3.149   0.532   5.256  1.7771 -0.5507 -0.2745
 4983SOL     OW26407   0.388   0.484   4.473  0.2167  0.2593  0.6480
 4983SOL    HW126408   0.464   0.426   4.467 -0.5774 -0.5720 -1.2510
 4983SOL    HW226409   0.379   0.512   4.382 -1.9408 -0.4515  0.6403
 4984SOL     OW26410   0.102   2.176   7.743 -0.1371  0.3938 -0.2625
 4984SOL    HW126411   0.056   2.258   7.724  1.2738  1.1287 -0.5909
 4984SOL    HW226412   0.062   2.118   7.679 -0.7600  0.0657  0.4359
 4985SOL     OW26413   0.414   1.693   9.772 -0.3661 -0.3826  0.0863
 4985SOL    HW126414   0.435   1.629   9.839  1.3570 -0.2711 -0.3494
 4985SOL    HW226415   0.488   1.754   9.779 -0.3412 -0.2080 -1.5946
 4986SOL     OW26416   2.201   1.826   0.913 -0.4887 -0.3406  0.5385
 4986SOL    HW126417   2.126   1.878   0.942  0.7335  3.1030 -2.5380
 4986SOL    HW226418   2.264   1.882   0.959 -0.9084 -0.6197  1.4629
 4987SOL     OW26419   1.221   2.076   3.636  0.1866 -0.1918 -0.4233
 4987SOL    HW126420   1.247   2.144   3.699 -1.8235  0.9464 -0.8417
 4987SOL    HW226421   1.258   2.108   3.554 -1.0079 -0.5667 -1.0993
 4988SOL     OW26422   0.399   1.943   5.096  0.1795  0.1662 -0.4452
 4988SOL    HW126423   0.489   1.914   5.115  0.9239  1.5828 -1.7963
 4988SOL    HW226424   0.392   1.941   5.001  0.0731  0.2862 -0.4395
 4989SOL     OW26425   2.869   2.247   6.183  0.0738  0.2468  0.1482
 4989SOL    HW126426   2.795   2.300   6.154  0.6286  0.7140 -0.3972
 4989SOL    HW226427   2.932   2.311   6.215 -1.1295  1.2133  0.5575
 4990SOL     OW26428   4.172   3.229   9.443 -0.4853 -0.2106 -0.2581
 4990SOL    HW126429   4.137   3.164   9.504  0.0147 -0.7751 -0.5717
 4990SOL    HW226430   4.125   3.202   9.364  1.5476  0.2963 -1.6200
 4991SOL     OW26431   0.877   0.342   7.294  0.0781  0.4535 -0.2716
 4991SOL    HW126432   0.951   0.376   7.243  0.1180  0.0614 -0.4765
 4991SOL    HW226433   0.904   0.251   7.305  1.5394  0.6866 -1.9699
 4992SOL     OW26434   4.269   1.639   5.896 -0.0035 -0.2426 -0.6841
 4992SOL    HW126435   4.243   1.662   5.807  0.8654  0.6970 -0.6890
 4992SOL    HW226436   4.201   1.574   5.915 -0.3597  1.0301  2.4028
 4993SOL     OW26437   0.756   2.749   1.606  0.7900  0.0631  0.5402
 4993SOL    HW126438   0.750   2.687   1.533 -2.9066 -0.7904  1.5313
 4993SOL    HW226439   0.716   2.826   1.567 -0.8312 -0.2692  1.5259
 4994SOL     OW26440   4.018   2.096  16.874 -0.2904 -0.4378 -0.5344
 4994SOL    HW126441   4.017   2.174  16.819  2.1941  0.5538  0.8310
 4994SOL    HW226442   3.974   2.134  16.950  3.8812 -0.2840  1.8503
 4995SOL     OW26443   2.021   0.039   1.606  0.0667 -0.2352  0.1144
 4995SOL    HW126444   2.067   0.102   1.661 -1.0871  0.6068  0.0937
 4995SOL    HW226445   1.950   0.018   1.666 -0.8577  1.1654 -0.4782
 4996SOL     OW26446   3.852   1.234   6.586  0.3864 -0.1754  0.7187
 4996SOL    HW126447   3.906   1.301   6.544  2.3858 -1.2323  1.5858
 4996SOL    HW226448   3.759   1.256   6.577  0.8055  0.1288 -2.7799
 4997SOL     OW26449   0.458   4.052   4.492 -0.4723  0.5546 -0.1424
 4997SOL    HW126450   0.391   3.984   4.500  0.2556 -0.3667 -1.7030
 4997SOL    HW226451   0.520   4.027   4.560 -0.2782 -0.5675 -0.7174
 4998SOL     OW26452   2.006   1.718   4.094  0.3043 -0.1791  0.0693
 4998SOL    HW126453   2.091   1.674   4.088  0.7264  0.5860  0.4251
 4998SOL    HW226454   2.026   1.797   4.145  2.5583 -1.0811  0.5684
 4999SOL     OW26455   3.535   0.403   5.571  0.2451 -0.4943  0.0986
 4999SOL    HW126456   3.546   0.321   5.618 -0.0221 -0.6186 -0.0569
 4999SOL    HW226457   3.458   0.381   5.519  0.2031  0.0401 -0.0666
 5000SOL     OW26458   4.005   4.225   4.855  0.1949  0.3236  0.6187
 5000SOL    HW126459   4.073   4.204   4.920  0.8135 -0.8229 -0.3831
 5000SOL    HW226460   4.058   4.266   4.787  0.0078 -0.8893 -0.2579
 5001SOL     OW26461   2.145   1.177   3.938  0.2788  0.2171 -0.1116
 5001SOL    HW126462   2.090   1.233   3.883 -1.0756  0.2209  1.2418
 5001SOL    HW226463   2.083   1.158   4.008 -0.3897 -0.4303 -0.8761
 5002SOL     OW26464   2.995   4.434  15.032  0.2282 -0.3187  0.1748
 5002SOL    HW126465   3.088   4.436  15.009  1.0089  0.4736  3.4435
 5002SOL    HW226466   2.983   4.507  15.092 -0.3257 -0.8065  0.6568
 5003SOL     OW26467   4.192   1.570   1.921  0.5363  1.0731  0.6757
 5003SOL    HW126468   4.131   1.535   1.986 -0.2077 -0.8613 -1.0690
 5003SOL    HW226469   4.222   1.646   1.972  1.1685  1.3411 -0.0973
 5004SOL     OW26470   0.226   0.553   7.137 -0.1735  0.0618  0.1777
 5004SOL    HW126471   0.277   0.474   7.157 -1.4081 -0.7265  0.2532
 5004SOL    HW226472   0.280   0.624   7.172 -0.2048  0.1496  0.0459
 5005SOL     OW26473   4.528   4.706   0.011  0.0945  0.3288  0.6890
 5005SOL    HW126474   4.487   0.032   0.080 -2.2960 -1.9070  0.9865
 5005SOL    HW226475   4.499   4.617   0.034  0.4040 -0.3348 -1.5817
 5006SOL     OW26476   4.608   0.122   8.867 -0.3782  0.1951 -0.3822
 5006SOL    HW126477   4.519   0.157   8.876 -0.0205  1.3203 -1.1992
 5006SOL    HW226478   4.656   0.196   8.830 -0.9348  1.1382  0.7745
 5007SOL     OW26479   3.698   2.539   2.383 -0.1967 -0.6412  0.1065
 5007SOL    HW126480   3.759   2.491   2.326 -0.1731 -0.1335 -0.2904
 5007SOL    HW226481   3.621   2.484   2.373  1.2722 -3.0966  2.2539
 5008SOL     OW26482   2.490   4.460   4.505 -0.0720 -0.3819  0.2595
 5008SOL    HW126483   2.504   4.366   4.491 -1.5304 -0.6496  0.5907
 5008SOL    HW226484   2.560   4.483   4.564 -0.5422  0.1750  0.5984
 5009SOL     OW26485   4.274   3.001   8.804  0.1896 -0.0604 -0.2049
 5009SOL    HW126486   4.325   3.054   8.742 -2.5851  0.6537 -1.8687
 5009SOL    HW226487   4.334   2.962   8.867 -1.0508 -1.3945  0.1281
 5010SOL     OW26488   1.521   3.523   7.923 -0.0334  0.3207 -0.3031
 5010SOL    HW126489   1.532   3.502   7.831 -1.2562 -0.3290 -0.2956
 5010SOL    HW226490   1.426   3.513   7.928 -0.1359  0.9943 -0.8974
 5011SOL     OW26491   0.399   1.771   0.438  0.0863 -0.4590 -0.2286
 5011SOL    HW126492   0.307   1.798   0.439 -0.0497 -0.9105 -1.2217
 5011SOL    HW226493   0.424   1.766   0.346 -3.3368  3.2883 -1.3572
 5012SOL     OW26494   3.159   4.159   2.274 -0.0632 -0.3067  0.1011
 5012SOL    HW126495   3.225   4.094   2.250 -0.3092 -1.1642  1.7484
 5012SOL    HW226496   3.109   4.159   2.192 -0.5196 -0.5374  0.3740
 5013SOL     OW26497   4.350   2.884   7.441  0.3940  0.2552 -1.1164
 5013SOL    HW126498   4.378   2.929   7.520  2.0384 -1.8550 -0.4984
 5013SOL    HW226499   4.435   2.865   7.402  0.8720 -2.0834  1.0837
 5014SOL     OW26500   1.865   0.534  13.883 -0.5712  0.1357  0.0089
 5014SOL    HW126501   1.934   0.593  13.915 -2.0077  1.4372  0.7256
 5014SOL    HW226502   1.884   0.528  13.789 -0.6610 -0.4941  0.0301
 5015SOL     OW26503   4.351   1.066   6.171 -0.4614 -0.0539 -0.3612
 5015SOL    HW126504   4.279   1.002   6.170 -0.0136 -0.5388 -1.5718
 5015SOL    HW226505   4.383   1.064   6.261  2.6603  0.6717 -1.4603
 5016SOL     OW26506   1.107   0.982   6.627 -0.0956  0.4923  0.9596
 5016SOL    HW126507   1.088   1.061   6.678  4.6414  2.8071 -0.8442
 5016SOL    HW226508   1.020   0.942   6.628  0.6108 -1.0545 -0.1601
 5017SOL     OW26509   3.345   3.392   2.193  0.1127  0.3081  0.1708
 5017SOL    HW126510   3.394   3.474   2.194  1.3309 -0.4313 -0.2150
 5017SOL    HW226511   3.401   3.338   2.249 -0.7184 -1.8677 -1.0963
 5018SOL     OW26512   1.318   3.143   6.511 -0.2960  0.1171  0.2437
 5018SOL    HW126513   1.229   3.175   6.501 -0.8889 -2.1590 -1.8027
 5018SOL    HW226514   1.309   3.070   6.450 -1.0779 -1.3335  2.1200
 5019SOL     OW26515   0.600   3.144   4.185 -0.0744  0.1749 -0.1165
 5019SOL    HW126516   0.574   3.207   4.118 -0.0852  0.2178 -0.0718
 5019SOL    HW226517   0.588   3.062   4.136  1.5503 -0.5118  0.6484
 5020SOL     OW26518   0.467   2.249   5.277  1.0464 -0.7317 -0.3401
 5020SOL    HW126519   0.484   2.173   5.333  1.1473 -1.4522 -1.3447
 5020SOL    HW226520   0.555   2.286   5.285 -0.1243  2.1569 -1.1052
 5021SOL     OW26521   1.556   3.919   6.786 -0.3764  0.0111  0.3361
 5021SOL    HW126522   1.578   3.996   6.734 -0.5918 -1.0356 -1.3165
 5021SOL    HW226523   1.545   3.847   6.723  2.3195 -0.3485  0.2557
 5022SOL     OW26524   0.413   0.140  11.191  0.2991 -0.0596 -0.4360
 5022SOL    HW126525   0.464   0.191  11.253  0.2956  2.7235 -2.7185
 5022SOL    HW226526   0.403   0.055  11.234 -2.1322  0.7454  0.6014
 5023SOL     OW26527   2.210   1.046   5.411  0.7670 -0.4343 -0.1254
 5023SOL    HW126528   2.143   0.983   5.437  0.8295  0.2236  1.6368
 5023SOL    HW226529   2.286   0.993   5.388 -0.0195 -1.2483 -0.8360
 5024SOL     OW26530   4.176   0.658  17.043 -0.3548  0.0005  0.1917
 5024SOL    HW126531   4.119   0.650  17.119 -1.3547  1.3839 -0.3944
 5024SOL    HW226532   4.159   0.749  17.015  0.1391 -0.1934 -0.7476
 5025SOL     OW26533   3.851   4.384   2.521  0.0268 -0.2317 -0.1926
 5025SOL    HW126534   3.808   4.300   2.533 -1.8036  0.7018 -0.2071
 5025SOL    HW226535   3.818   4.406   2.434  0.0797 -2.5004 -0.7705
 5026SOL     OW26536   0.838   2.050   9.691  0.1705 -0.3935 -0.7098
 5026SOL    HW126537   0.847   2.144   9.675 -0.0398  0.0026  1.4492
 5026SOL    HW226538   0.901   2.036   9.762 -0.4032 -0.0093 -0.1185
 5027SOL     OW26539   3.438   0.469   0.132 -0.0788  0.5347  0.0068
 5027SOL    HW126540   3.468   0.556   0.160  2.2173 -0.3400  0.2322
 5027SOL    HW226541   3.515   0.441   0.084 -0.2120 -0.3873  0.3335
 5028SOL     OW26542   3.045   3.046   8.962  0.6135  0.2379  0.0365
 5028SOL    HW126543   3.058   2.961   8.919  2.6984 -0.6315  2.3376
 5028SOL    HW226544   3.044   3.103   8.886  1.3963  0.1835 -0.0187
 5029SOL     OW26545   4.363   2.436  17.189 -0.2537 -0.7602 -0.0060
 5029SOL    HW126546   4.381   2.522  17.150  1.7634 -0.7262  1.0082
 5029SOL    HW226547   4.282   2.449  17.239 -0.7909 -0.8498 -0.8572
 5030SOL     OW26548   0.379   2.980  10.156 -0.4268 -0.2467 -0.0352
 5030SOL    HW126549   0.396   2.968  10.062  1.1680  2.6550 -0.1221
 5030SOL    HW226550   0.313   3.048  10.149  0.7802  0.8738 -0.5024
 5031SOL     OW26551   3.162   3.105   7.824  0.6013  0.0381  0.1783
 5031SOL    HW126552   3.070   3.080   7.810  0.4201 -0.3182  2.0291
 5031SOL    HW226553   3.194   3.090   7.735  2.8081 -0.0346  0.9934
 5032SOL     OW26554   3.463   0.207  10.285  0.0499 -0.2468 -0.5668
 5032SOL    HW126555   3.528   0.239  10.222  1.6201 -0.9840  0.6876
 5032SOL    HW226556   3.480   0.265  10.359  2.7676 -0.2382 -1.2243
 5033SOL     OW26557   3.035   3.836   7.710  0.8088 -0.2592  0.6819
 5033SOL    HW126558   2.955   3.819   7.661 -0.2423  1.4158  1.8237
 5033SOL    HW226559   3.072   3.749   7.697  1.3769  0.1214 -0.2843
 5034SOL     OW26560   1.550   4.402   8.916  0.0453  0.2898 -0.2218
 5034SOL    HW126561   1.556   4.401   9.011  0.0207  0.4085 -0.2184
 5034SOL    HW226562   1.642   4.422   8.902  0.0303 -0.4853 -1.4007
 5035SOL     OW26563   0.891   3.679  15.274  0.7167 -0.2529 -0.1265
 5035SOL    HW126564   0.869   3.747  15.211  1.9997  0.6183  0.3746
 5035SOL    HW226565   0.826   3.609  15.264 -1.8434  2.4262 -2.1193
 5036SOL     OW26566   0.641   2.648   4.507 -0.1395  0.5536  0.4215
 5036SOL    HW126567   0.664   2.729   4.461 -1.7147  0.2243 -0.9404
 5036SOL    HW226568   0.557   2.629   4.466 -0.8332 -0.2550  2.2253
 5037SOL     OW26569   3.655   1.036   7.910  0.1578 -0.5724 -0.1642
 5037SOL    HW126570   3.607   1.106   7.866  2.0353  2.6816  3.0455
 5037SOL    HW226571   3.586   0.969   7.902 -0.4743  0.0727 -0.1212
 5038SOL     OW26572   2.713   1.148   9.498  0.3681  0.5452 -0.6320
 5038SOL    HW126573   2.700   1.062   9.456 -0.7557  0.2120  0.4143
 5038SOL    HW226574   2.805   1.140   9.522  0.5131  1.2260 -0.9634
 5039SOL     OW26575   0.202   4.586   3.651  0.3271  0.2339 -0.1442
 5039SOL    HW126576   0.279   4.607   3.703  0.4381 -3.3511  1.1264
 5039SOL    HW226577   0.156   4.543   3.723  2.0670 -0.0021  0.8063
 5040SOL     OW26578   2.139   0.334   7.689  0.2509  0.4160  0.0449
 5040SOL    HW126579   2.153   0.247   7.726  1.3221  1.1596  1.3765
 5040SOL    HW226580   2.104   0.389   7.759 -1.3373  0.5428 -0.8444
 5041SOL     OW26581   3.884   2.165   1.613  0.5057 -0.1332  0.4082
 5041SOL    HW126582   3.924   2.099   1.557 -2.4765 -2.1208  0.6151
 5041SOL    HW226583   3.846   2.229   1.552  1.2209 -0.3089 -0.2086
 5042SOL     OW26584   2.502   0.403   0.814  0.1252  0.2602  0.0119
 5042SOL    HW126585   2.569   0.429   0.751  1.4374 -2.5931  0.2441
 5042SOL    HW226586   2.561   0.382   0.887  0.8350  0.8302 -0.4024
 5043SOL     OW26587   1.160   2.892  15.882  0.0839 -0.4770 -0.8409
 5043SOL    HW126588   1.162   2.931  15.970 -1.0853 -2.2436 -0.0346
 5043SOL    HW226589   1.065   2.884  15.872  0.1707 -0.5951 -1.5885
 5044SOL     OW26590   2.994   2.409   7.681 -0.3174  0.2317 -0.7480
 5044SOL    HW126591   3.058   2.420   7.610  1.6833  0.5293  1.1054
 5044SOL    HW226592   3.038   2.362   7.751  0.1611  1.3642 -0.2876
 5045SOL     OW26593   4.482   4.512   1.943 -0.1712  0.9789  0.6241
 5045SOL    HW126594   4.398   4.559   1.942 -0.0467  1.2269  1.5806
 5045SOL    HW226595   4.456   4.424   1.969  0.8360  1.1150  2.0921
 5046SOL     OW26596   2.290   0.059   5.870  0.1198  0.2350  0.3320
 5046SOL    HW126597   2.304   0.114   5.947  0.5226 -1.2746  1.3401
 5046SOL    HW226598   2.239   4.714   5.906 -1.3955 -0.0812 -2.4443
 5047SOL     OW26599   1.413   0.157   0.429  0.5129  0.7243  0.6411
 5047SOL    HW126600   1.459   0.111   0.499  0.2312  0.4719  0.6624
 5047SOL    HW226601   1.434   0.118   0.344  2.5207  0.9495  1.0368
 5048SOL     OW26602   4.047   1.757   9.642  0.3324 -0.1686  0.0191
 5048SOL    HW126603   4.142   1.759   9.653  0.4726  0.2477 -1.3259
 5048SOL    HW226604   4.034   1.826   9.577 -0.8009 -1.4777 -1.1416
 5049SOL     OW26605   4.624   0.698   8.828  0.2422  0.3002  0.0148
 5049SOL    HW126606   4.626   0.692   8.733 -1.9888  0.2662 -0.0280
 5049SOL    HW226607   4.717   0.676   8.839 -0.1890 -1.1386  0.7487
 5050SOL     OW26608   2.177   0.271   0.867  0.0094  0.2232  0.0655
 5050SOL    HW126609   2.190   0.331   0.941  1.1446  0.1084 -0.0414
 5050SOL    HW226610   2.115   0.209   0.906  0.3081 -0.4859 -0.5917
 5051SOL     OW26611   2.500   2.848   7.350 -0.1636  0.0412 -0.7264
 5051SOL    HW126612   2.508   2.936   7.386  2.6545 -0.4465 -0.1901
 5051SOL    HW226613   2.579   2.860   7.298  1.2098 -1.1190  1.1070
 5052SOL     OW26614   1.019   0.633   8.430  0.0759 -0.0416 -0.4365
 5052SOL    HW126615   0.942   0.689   8.419  1.6543  1.9588 -1.2382
 5052SOL    HW226616   0.977   0.550   8.454  0.8610  0.0427  1.2435
 5053SOL     OW26617   1.086   2.219   3.363  0.5270 -0.5963 -0.2283
 5053SOL    HW126618   1.049   2.230   3.450 -2.9286 -2.2414 -1.4467
 5053SOL    HW226619   1.179   2.228   3.384 -0.0939 -0.9879  2.6539
 5054SOL     OW26620   4.439   2.883   1.141 -0.1821  0.0535  0.2359
 5054SOL    HW126621   4.356   2.931   1.133 -0.0233  0.3138  0.1625
 5054SOL    HW226622   4.495   2.941   1.193  2.0241 -2.6467  0.8471
 5055SOL     OW26623   2.673   3.648   6.886  0.4412 -0.3295  0.0804
 5055SOL    HW126624   2.600   3.696   6.924  0.5504 -0.7698  0.8602
 5055SOL    HW226625   2.640   3.563   6.858 -0.5223 -0.5162  1.7682
 5056SOL     OW26626   0.483   0.476  11.343 -0.5088 -0.4828  0.5676
 5056SOL    HW126627   0.467   0.478  11.248 -0.1951 -1.0305  0.5004
 5056SOL    HW226628   0.519   0.388  11.356 -2.8662 -1.8715 -2.2216
 5057SOL     OW26629   2.957   3.172   9.979 -0.3781 -0.0461 -0.1896
 5057SOL    HW126630   2.937   3.210  10.064 -0.1982  0.9921 -0.6056
 5057SOL    HW226631   3.027   3.235   9.958 -0.4027 -0.3591 -1.2177
 5058SOL     OW26632   3.810   2.182   9.749  0.5402 -0.7198  0.2920
 5058SOL    HW126633   3.854   2.227   9.821 -0.5279 -2.0839  1.8012
 5058SOL    HW226634   3.784   2.103   9.797  0.3187 -0.2501  0.9404
 5059SOL     OW26635   2.383   2.927  16.603  0.0614  0.2159  0.0299
 5059SOL    HW126636   2.423   2.929  16.516  1.8753 -0.7060  0.8572
 5059SOL    HW226637   2.405   3.015  16.632 -0.1659  0.6861 -1.2217
 5060SOL     OW26638   0.244   0.178   6.545 -0.2424 -0.0983  0.1276
 5060SOL    HW126639   0.274   0.206   6.631  0.3007 -3.5081  1.0653
 5060SOL    HW226640   0.235   0.083   6.554  1.5960 -0.0108  2.7687
 5061SOL     OW26641   3.727   3.074   6.832  0.1968 -0.9306 -0.3893
 5061SOL    HW126642   3.763   2.985   6.837 -0.3554 -1.0655  1.0952
 5061SOL    HW226643   3.672   3.073   6.754 -0.0132 -1.6855 -0.2347
 5062SOL     OW26644   3.641   0.421   0.859 -0.0387  0.2131 -0.4678
 5062SOL    HW126645   3.723   0.374   0.847  0.4555  0.3756  2.3309
 5062SOL    HW226646   3.582   0.365   0.809  0.7895 -0.1739 -1.0062
 5063SOL     OW26647   4.354   4.255  15.055 -0.8541 -0.1426 -0.0459
 5063SOL    HW126648   4.276   4.200  15.047 -0.6732  0.0453 -2.9121
 5063SOL    HW226649   4.325   4.329  15.002 -1.4208  0.3548  0.9502
 5064SOL     OW26650   3.024   1.560   9.937  0.8843 -0.1103  0.3066
 5064SOL    HW126651   2.966   1.504   9.989  1.4885 -1.1184 -0.0949
 5064SOL    HW226652   3.053   1.627   9.999 -0.6182  0.1083  0.7604
 5065SOL     OW26653   0.052   4.707   9.020  0.0504 -0.1971 -0.4960
 5065SOL    HW126654   0.019   4.617   9.015 -3.0499  1.0515 -2.1301
 5065SOL    HW226655   4.721   0.038   8.972  1.2421  2.3299  1.1162
 5066SOL     OW26656   1.477   1.006   5.112  0.2242  0.9457 -0.1525
 5066SOL    HW126657   1.418   0.966   5.176  0.0451  1.3091 -0.0859
 5066SOL    HW226658   1.482   0.934   5.049  1.4131  3.0218 -2.4586
 5067SOL     OW26659   0.568   3.870  16.421 -0.5239  0.4189 -0.5045
 5067SOL    HW126660   0.542   3.780  16.443  0.9179 -0.9809 -4.4706
 5067SOL    HW226661   0.655   3.855  16.384 -0.6256 -0.4205 -0.4235
 5068SOL     OW26662   0.050   3.567  14.070 -0.4577  0.7701  0.5983
 5068SOL    HW126663   0.142   3.550  14.052 -0.8167 -1.0872  0.5173
 5068SOL    HW226664   0.045   3.557  14.165 -2.9401 -0.8163  0.3178
 5069SOL     OW26665   2.356   4.519  11.455  0.4207 -0.2405  0.1345
 5069SOL    HW126666   2.304   4.595  11.426 -0.2969 -0.3278  1.1869
 5069SOL    HW226667   2.389   4.549  11.540  0.3193 -0.1897  0.1564
 5070SOL     OW26668   4.441   2.397  15.538 -0.1656 -0.4192 -0.2217
 5070SOL    HW126669   4.469   2.353  15.619 -1.4125  1.5680  1.3052
 5070SOL    HW226670   4.383   2.465  15.572  0.7994 -0.6466  1.8767
 5071SOL     OW26671   1.898   0.278   6.994  0.2879  0.0675  0.0560
 5071SOL    HW126672   1.819   0.225   6.981  0.5918  0.2238 -2.3894
 5071SOL    HW226673   1.887   0.309   7.084 -2.3808 -1.9967  0.4806
 5072SOL     OW26674   4.395   0.037   2.839  0.4406  0.0131  0.2629
 5072SOL    HW126675   4.444   0.078   2.768 -0.0511 -0.6063 -0.4336
 5072SOL    HW226676   4.448   4.686   2.849 -2.1766 -1.6671  1.0116
 5073SOL     OW26677   0.443   4.630   7.933 -0.3890 -0.3541  0.5053
 5073SOL    HW126678   0.385   4.557   7.954 -1.1181  0.3162  0.7952
 5073SOL    HW226679   0.423   4.643   7.841 -0.9705  1.8932  0.9602
 5074SOL     OW26680   0.910   1.737   3.488 -0.4119  0.2748  0.0483
 5074SOL    HW126681   0.938   1.758   3.400  0.3949 -1.4437 -0.1145
 5074SOL    HW226682   0.892   1.826   3.518  1.1564  0.8737 -0.8079
 5075SOL     OW26683   0.715   0.372   5.787  0.0082 -0.0145  0.6108
 5075SOL    HW126684   0.661   0.447   5.761  3.0971  2.0308  0.1540
 5075SOL    HW226685   0.655   0.297   5.782 -0.0510 -0.1399  3.1946
 5076SOL     OW26686   2.563   2.415   7.443  0.0306 -0.1841  0.6283
 5076SOL    HW126687   2.656   2.434   7.446 -0.3986  1.8433  1.0578
 5076SOL    HW226688   2.562   2.336   7.498  0.2746 -0.4694  0.2238
 5077SOL     OW26689   2.851   0.149   3.132 -0.0431 -0.0621  0.1380
 5077SOL    HW126690   2.817   0.060   3.134 -0.1205 -0.0699 -1.6392
 5077SOL    HW226691   2.888   0.144   3.044  1.6620 -0.3731  0.8706
 5078SOL     OW26692   2.917   1.789   3.496  0.1029  0.0822  0.0099
 5078SOL    HW126693   2.993   1.736   3.472 -1.8465 -2.7137 -0.0119
 5078SOL    HW226694   2.845   1.730   3.473 -0.1694  0.3897  0.0841
 5079SOL     OW26695   2.516   3.856  11.389 -0.4812 -0.3956  0.0097
 5079SOL    HW126696   2.527   3.838  11.482  1.1678  0.4879 -0.0052
 5079SOL    HW226697   2.435   3.906  11.387 -0.7385 -0.8655 -1.5078
 5080SOL     OW26698   0.738   3.946  15.175  0.1311 -0.2101  0.0989
 5080SOL    HW126699   0.707   4.031  15.145  0.1280 -0.7321 -1.3658
 5080SOL    HW226700   0.832   3.962  15.160  0.5707 -0.3728  2.6513
 5081SOL     OW26701   4.321   0.162   8.546  0.5666  0.2058  0.4668
 5081SOL    HW126702   4.257   0.217   8.500 -0.9731 -0.8529  1.3403
 5081SOL    HW226703   4.323   0.200   8.633 -1.5754 -1.6131  1.3282
 5082SOL     OW26704   3.254   1.031  15.712  0.2242 -0.0519 -0.0622
 5082SOL    HW126705   3.258   1.048  15.617 -0.3271  0.7748  0.0611
 5082SOL    HW226706   3.344   1.004  15.730  0.0291 -1.1788 -0.7697
 5083SOL     OW26707   4.620   3.353  17.090  0.2139 -0.0805 -0.3248
 5083SOL    HW126708   4.572   3.433  17.069  0.9433 -0.5554 -3.8085
 5083SOL    HW226709   4.639   3.320  17.003 -0.0346 -0.7006 -0.1444
 5084SOL     OW26710   1.559   1.102   4.395 -0.1231  0.4695 -0.1320
 5084SOL    HW126711   1.619   1.163   4.437  1.1898 -0.7213 -0.3089
 5084SOL    HW226712   1.472   1.142   4.400 -0.6360 -0.4463 -1.5414
 5085SOL     OW26713   2.224   4.669   0.805  0.4583  1.0484 -0.6069
 5085SOL    HW126714   2.267   0.021   0.771  0.9350  1.0586  0.0252
 5085SOL    HW226715   2.304   4.632   0.843  1.0196  2.3700 -0.4977
 5086SOL     OW26716   4.343   1.316   7.762 -0.1103 -0.2085  0.3077
 5086SOL    HW126717   4.288   1.239   7.779 -2.5840  1.1862 -1.5019
 5086SOL    HW226718   4.429   1.275   7.763  0.1294  0.2622 -1.6243
 5087SOL     OW26719   3.861   1.812   0.017 -0.2502 -0.2178 -0.2496
 5087SOL    HW126720   3.813   1.895   0.010  2.7247  1.4767 -0.6412
 5087SOL    HW226721   3.837   1.764  17.648  1.7137 -2.4809  0.5469
 5088SOL     OW26722   4.259   3.220   3.964  0.2329 -0.4998 -0.1102
 5088SOL    HW126723   4.289   3.145   3.912  2.0253  0.1256 -0.0030
 5088SOL    HW226724   4.262   3.290   3.899  0.2969  0.8150  1.2936
 5089SOL     OW26725   3.571   4.673  17.639  0.3715 -0.3809 -0.1537
 5089SOL    HW126726   3.494   4.616  17.637 -0.3408  0.5520 -0.0154
 5089SOL    HW226727   3.517   0.021  17.667 -0.9837 -0.8997 -1.3633
 5090SOL     OW26728   0.544   2.971   2.178 -0.2232 -0.2110 -0.3905
 5090SOL    HW126729   0.465   2.945   2.226 -1.2738  0.3612 -1.8207
 5090SOL    HW226730   0.602   2.901   2.209  0.8757  1.6088  1.7246
 5091SOL     OW26731   3.818   4.485   1.972  0.3866  0.2689 -0.3735
 5091SOL    HW126732   3.876   4.551   2.011  0.1376  0.1484  0.1979
 5091SOL    HW226733   3.776   4.446   2.048 -1.1190  2.4682 -0.0906
 5092SOL     OW26734   1.159   4.088   3.936 -0.1866 -0.0761 -0.0616
 5092SOL    HW126735   1.221   4.107   4.007 -0.8075 -0.9878  0.7299
 5092SOL    HW226736   1.197   4.132   3.860 -0.0086 -0.7112 -0.3354
 5093SOL     OW26737   0.263   3.048   8.706 -0.1606  0.0133 -0.0750
 5093SOL    HW126738   0.193   3.114   8.705  0.3919  0.6060  0.3533
 5093SOL    HW226739   0.277   3.025   8.615 -0.6141 -0.0489 -0.1313
 5094SOL     OW26740   0.899   4.610   8.327 -0.1264  0.0487  0.2281
 5094SOL    HW126741   0.886   4.518   8.347 -0.3143 -0.1725 -0.8849
 5094SOL    HW226742   0.818   4.644   8.365 -0.1694  2.8769 -2.3080
 5095SOL     OW26743   3.178   1.298  15.910 -0.2537 -0.1786 -0.2923
 5095SOL    HW126744   3.178   1.249  15.992  2.2051  1.8044  0.8550
 5095SOL    HW226745   3.105   1.262  15.859 -1.4036 -0.1240  1.3070
 5096SOL     OW26746   2.228   2.560   6.825 -0.2240  0.9968 -0.3562
 5096SOL    HW126747   2.194   2.582   6.911 -0.1402 -0.7238  0.1105
 5096SOL    HW226748   2.151   2.521   6.783  0.8077  0.0290 -1.3807
 5097SOL     OW26749   3.630   0.193  15.722 -0.0157 -0.3318 -0.2494
 5097SOL    HW126750   3.693   0.220  15.655  0.5314  3.4260  1.7714
 5097SOL    HW226751   3.557   0.246  15.691 -0.3902 -1.6910 -1.6781
 5098SOL     OW26752   1.573   2.802   3.537  0.0399  0.1278 -0.1921
 5098SOL    HW126753   1.619   2.866   3.483 -1.1554  0.9566 -0.2345
 5098SOL    HW226754   1.482   2.832   3.526  0.8268  2.2712 -0.8937
 5099SOL     OW26755   0.976   4.580  13.203  0.3529 -0.4235  0.2928
 5099SOL    HW126756   0.898   4.580  13.148  1.1977 -1.5867 -0.9037
 5099SOL    HW226757   0.939   4.615  13.284  1.8432 -0.0555  0.8196
 5100SOL     OW26758   3.428   0.523   2.611 -0.0855  0.0198 -0.4901
 5100SOL    HW126759   3.348   0.576   2.611 -0.7249 -0.9231 -1.7388
 5100SOL    HW226760   3.501   0.584   2.611 -0.8454  0.9407 -3.1462
 5101SOL     OW26761   2.561   0.317   6.092  0.3051  0.0596 -0.1204
 5101SOL    HW126762   2.648   0.357   6.088  0.5550 -0.4618  0.1791
 5101SOL    HW226763   2.501   0.386   6.061  3.5992  2.0029 -2.1780
 5102SOL     OW26764   2.667   1.501   6.137 -0.2623 -0.1198  0.4556
 5102SOL    HW126765   2.665   1.477   6.045  2.3118 -1.2630  0.6967
 5102SOL    HW226766   2.576   1.525   6.152 -0.6084 -0.5117 -1.0874
 5103SOL     OW26767   2.581   1.409  13.432 -0.2300  0.1428  0.4104
 5103SOL    HW126768   2.578   1.493  13.387 -0.0650 -0.2572 -0.3676
 5103SOL    HW226769   2.648   1.426  13.498 -1.0959  0.6507  1.1557
 5104SOL     OW26770   2.698   0.107  12.549  0.0744 -0.4140 -0.6389
 5104SOL    HW126771   2.629   0.053  12.588  0.5267 -0.1160  0.5699
 5104SOL    HW226772   2.662   0.144  12.469 -3.3669 -2.5155 -0.0697
 5105SOL     OW26773   2.114   0.139   8.308  0.2565  0.2003 -0.3568
 5105SOL    HW126774   2.154   0.130   8.395 -2.1633 -0.9035  0.6599
 5105SOL    HW226775   2.174   0.194   8.258 -1.3100 -0.0695 -2.5276
 5106SOL     OW26776   4.292   2.094   1.617  0.1652 -0.0078  0.7696
 5106SOL    HW126777   4.222   2.080   1.553 -1.4907  0.1618  2.5459
 5106SOL    HW226778   4.324   2.179   1.589  1.1211 -0.6414 -0.0720
 5107SOL     OW26779   1.864   2.019   7.201 -0.1717 -0.3677  0.1156
 5107SOL    HW126780   1.926   2.035   7.272 -2.0605 -0.1016  1.7003
 5107SOL    HW226781   1.856   2.106   7.161 -1.9627 -2.0139 -3.0960
 5108SOL     OW26782   1.138   3.512   1.647  0.3666 -0.2284  0.2237
 5108SOL    HW126783   1.181   3.517   1.732 -2.7863 -2.5052  1.9410
 5108SOL    HW226784   1.100   3.597   1.629  1.1145 -0.0220 -0.3725
 5109SOL     OW26785   3.753   4.427   5.167  0.0771  0.0080  0.0143
 5109SOL    HW126786   3.789   4.376   5.239  0.0139  0.1109  0.1189
 5109SOL    HW226787   3.661   4.420   5.193 -0.1136 -0.9671 -0.9233
 5110SOL     OW26788   0.473   1.969   9.573  0.4339  0.4181  0.3164
 5110SOL    HW126789   0.509   1.912   9.641  0.1533 -0.0079  0.1037
 5110SOL    HW226790   0.398   2.002   9.622 -0.3530 -0.6656 -0.1639
 5111SOL     OW26791   0.591   4.036   3.012  0.4214  0.0577 -0.4544
 5111SOL    HW126792   0.547   3.975   2.953 -3.5757  2.4729  0.0021
 5111SOL    HW226793   0.605   4.101   2.943 -1.9792 -0.3155 -1.2987
 5112SOL     OW26794   0.253   0.166   2.238 -0.5843  0.3814  0.3503
 5112SOL    HW126795   0.170   0.183   2.194 -0.4929  3.1222  1.1983
 5112SOL    HW226796   0.229   0.206   2.322  1.4965 -0.9778  1.5934
 5113SOL     OW26797   1.538   1.600   6.854  0.4263 -0.8434  0.0779
 5113SOL    HW126798   1.484   1.638   6.923 -1.4697 -0.5427 -1.5846
 5113SOL    HW226799   1.501   1.512   6.857  0.3384 -0.7296  2.1929
 5114SOL     OW26800   3.519   1.776   0.013 -0.4530 -0.0864 -0.3643
 5114SOL    HW126801   3.429   1.803   0.033 -0.8659 -1.3897 -0.5197
 5114SOL    HW226802   3.552   1.729   0.090 -0.5629 -1.5310 -1.2041
 5115SOL     OW26803   2.264   4.229  15.213  0.0635  0.0218  0.3665
 5115SOL    HW126804   2.233   4.181  15.135 -2.1317  1.4161  0.3681
 5115SOL    HW226805   2.299   4.155  15.261 -1.1904  0.8891  2.6061
 5116SOL     OW26806   2.619   2.116   2.329  0.3269 -0.5803  0.2487
 5116SOL    HW126807   2.532   2.089   2.301  0.9184 -1.0428 -1.1285
 5116SOL    HW226808   2.675   2.067   2.268 -0.6260 -1.3183 -0.0361
 5117SOL     OW26809   0.426   4.517   6.673  0.2053  0.8015 -0.3064
 5117SOL    HW126810   0.347   4.557   6.635 -0.4303  0.6088  0.8241
 5117SOL    HW226811   0.385   4.481   6.751  1.7626  0.7153  0.4710
 5118SOL     OW26812   2.311   3.007   5.853 -0.6802 -0.5667 -0.5228
 5118SOL    HW126813   2.352   2.924   5.880 -0.7966 -0.3113  0.4539
 5118SOL    HW226814   2.314   3.060   5.933  0.0844 -2.1577  0.4997
 5119SOL     OW26815   1.331   4.537   3.067  0.1904 -0.7602  0.1038
 5119SOL    HW126816   1.302   4.594   3.138  0.4799 -1.0750  0.4762
 5119SOL    HW226817   1.424   4.530   3.088 -0.4116 -2.3569  2.2860
 5120SOL     OW26818   1.490   0.620  13.275  0.0703  0.0335  0.6409
 5120SOL    HW126819   1.485   0.531  13.240  1.6279 -1.1803  3.4959
 5120SOL    HW226820   1.409   0.655  13.239 -0.1342  0.0702  1.1321
 5121SOL     OW26821   4.660   1.388   7.476 -0.5259 -0.1798 -0.0336
 5121SOL    HW126822   4.704   1.317   7.428  1.7157  1.5137 -0.4625
 5121SOL    HW226823   0.003   1.453   7.485  0.6355 -1.4306 -0.0551
 5122SOL     OW26824   2.663   0.390  13.547  0.8971 -0.0603  0.2202
 5122SOL    HW126825   2.702   0.438  13.620 -0.1321  1.9529 -0.5555
 5122SOL    HW226826   2.620   0.322  13.598  0.6403 -0.3595 -0.3989
 5123SOL     OW26827   2.587   1.304  16.777  0.5245 -0.1853 -0.0542
 5123SOL    HW126828   2.563   1.371  16.840  0.3227 -0.6045  0.3159
 5123SOL    HW226829   2.529   1.330  16.705 -0.2750 -0.8893  0.3383
 5124SOL     OW26830   3.358   0.521  11.664 -0.5437 -0.2006 -0.0217
 5124SOL    HW126831   3.355   0.464  11.741  0.5920  0.0752  0.2390
 5124SOL    HW226832   3.290   0.487  11.607 -0.4581  1.3754 -1.0514
 5125SOL     OW26833   3.977   0.355   2.332 -0.6071  0.3254 -0.0800
 5125SOL    HW126834   3.916   0.396   2.270 -0.7039 -0.2113 -0.3409
 5125SOL    HW226835   3.912   0.315   2.389 -0.0765  2.0736  1.7487
 5126SOL     OW26836   4.349   4.352   9.211  0.1349  0.2583  0.3492
 5126SOL    HW126837   4.404   4.279   9.182 -2.1841 -0.6610 -1.6663
 5126SOL    HW226838   4.378   4.363   9.302  1.2447  0.7659 -0.0597
 5127SOL     OW26839   0.282   3.247   7.256 -0.1112  0.3356 -0.4019
 5127SOL    HW126840   0.254   3.292   7.336 -1.0201 -0.0893 -0.4703
 5127SOL    HW226841   0.248   3.312   7.194 -1.6639 -2.1320 -2.1598
 5128SOL     OW26842   1.824   0.079   0.939 -0.2288  0.0403 -0.2161
 5128SOL    HW126843   1.793   0.170   0.942  1.5845  0.6292  0.6329
 5128SOL    HW226844   1.748   0.022   0.950 -0.3616  0.2267 -0.1606
 5129SOL     OW26845   1.602   2.545   9.293  0.0572  0.6557 -0.1516
 5129SOL    HW126846   1.617   2.631   9.254  0.1936  0.8453  0.3244
 5129SOL    HW226847   1.683   2.530   9.341 -0.6440 -1.1489  0.4776
 5130SOL     OW26848   3.167   1.500   4.836 -0.1204  0.0869 -0.3045
 5130SOL    HW126849   3.111   1.527   4.909  0.7238 -1.5935  0.9605
 5130SOL    HW226850   3.163   1.584   4.792  0.6919  2.0880  3.4747
 5131SOL     OW26851   0.353   0.112  14.924  0.0191  0.6369  0.3956
 5131SOL    HW126852   0.274   0.068  14.956  0.5504 -1.4230 -1.1652
 5131SOL    HW226853   0.321   0.203  14.916  0.8582  1.0635  1.8190
 5132SOL     OW26854   1.833   2.490   0.575 -0.0155 -0.1300  0.1841
 5132SOL    HW126855   1.868   2.439   0.502 -1.6093  1.6473 -1.8125
 5132SOL    HW226856   1.891   2.565   0.561 -3.5695  2.2271 -1.5895
 5133SOL     OW26857   3.732   0.075   8.243 -0.1899 -0.1946 -0.3272
 5133SOL    HW126858   3.696   0.088   8.155 -0.5146  3.2865  0.3198
 5133SOL    HW226859   3.727   0.158   8.289  0.0001  1.2775 -2.9580
 5134SOL     OW26860   3.295   1.101   2.499 -0.1096 -0.6481 -0.0675
 5134SOL    HW126861   3.367   1.145   2.454  0.5834 -0.0530  1.5837
 5134SOL    HW226862   3.255   1.178   2.539 -1.3270 -1.7227  0.8103
 5135SOL     OW26863   4.081   3.037  12.707  0.5367 -0.5080 -0.2447
 5135SOL    HW126864   4.147   3.083  12.655  0.4998 -0.2570 -0.0709
 5135SOL    HW226865   4.028   3.016  12.631  4.0592 -1.5028 -2.4016
 5136SOL     OW26866   3.430   0.475   7.379 -0.5752 -0.4664 -0.2986
 5136SOL    HW126867   3.454   0.512   7.294  1.4530  0.2152  0.5724
 5136SOL    HW226868   3.385   0.554   7.408  0.1742 -0.1429 -0.0154
 5137SOL     OW26869   0.600   0.286   0.291  0.3625 -0.0725  0.1281
 5137SOL    HW126870   0.615   0.274   0.385  1.7083  0.5687 -0.0095
 5137SOL    HW226871   0.556   0.204   0.267 -0.6965 -0.0699  2.0757
 5138SOL     OW26872   1.881   3.603   5.189 -0.0258  0.0092 -0.1681
 5138SOL    HW126873   1.857   3.688   5.225 -0.1236 -0.1112  0.0476
 5138SOL    HW226874   1.876   3.628   5.096 -0.2786 -0.5934 -0.3113
 5139SOL     OW26875   1.046   4.471   3.817 -0.0436  0.2144 -0.1191
 5139SOL    HW126876   1.036   4.385   3.775 -2.6851  0.1721  0.5949
 5139SOL    HW226877   1.003   4.453   3.900 -2.6925  0.6337 -1.3947
 5140SOL     OW26878   4.374   1.044   4.442 -0.9551  0.7671  0.5641
 5140SOL    HW126879   4.351   1.120   4.495 -1.7977  0.3226  0.8297
 5140SOL    HW226880   4.298   1.049   4.383 -2.6607  1.1419  2.8115
 5141SOL     OW26881   0.303   0.376   9.775  0.3078 -0.1059 -0.2251
 5141SOL    HW126882   0.273   0.385   9.685  1.5061  1.6716 -0.4409
 5141SOL    HW226883   0.253   0.440   9.827 -0.2591 -1.7671  1.2980
 5142SOL     OW26884   4.650   3.655   6.383  0.0634 -0.0805 -0.9459
 5142SOL    HW126885   4.626   3.700   6.464 -4.1466 -2.0296 -1.1297
 5142SOL    HW226886   0.002   3.618   6.419 -0.4149  0.1550  0.3641
 5143SOL     OW26887   1.183   4.430   7.886  0.0978 -0.4796 -0.5129
 5143SOL    HW126888   1.175   4.411   7.792  0.0031 -0.0751 -0.5874
 5143SOL    HW226889   1.261   4.376   7.899  1.3824  1.3325 -0.7541
 5144SOL     OW26890   0.644   1.120   5.933  0.1401  0.8307 -0.5888
 5144SOL    HW126891   0.641   1.027   5.911 -1.1075  0.2364  2.1201
 5144SOL    HW226892   0.572   1.126   5.995 -0.3778  1.4797 -1.2608
 5145SOL     OW26893   2.504   1.702   4.872 -0.6194 -0.0483  0.7584
 5145SOL    HW126894   2.497   1.796   4.886 -0.0852  0.2637 -1.0766
 5145SOL    HW226895   2.487   1.700   4.778 -2.1534 -1.6954  1.0721
 5146SOL     OW26896   1.197   4.075   9.577 -0.0610  0.3469  0.1144
 5146SOL    HW126897   1.266   4.010   9.591  0.0960  0.2946 -0.8708
 5146SOL    HW226898   1.151   4.027   9.508  1.8463  0.0672 -0.9819
 5147SOL     OW26899   3.272   0.501   0.463 -0.5567  0.7531  0.2192
 5147SOL    HW126900   3.303   0.567   0.525  2.5937  0.5611 -1.1280
 5147SOL    HW226901   3.180   0.493   0.487  0.2107  0.7441  3.2361
 5148SOL     OW26902   4.077   0.331   2.667  0.6350  0.9578 -0.5676
 5148SOL    HW126903   4.001   0.338   2.725  2.0274  1.5447  1.1622
 5148SOL    HW226904   4.043   0.251   2.627  1.0436 -0.1913  1.3696
 5149SOL     OW26905   3.998   4.508  13.842  0.4820  0.0261  1.1815
 5149SOL    HW126906   3.919   4.530  13.792  1.0032 -1.3799 -0.2612
 5149SOL    HW226907   4.015   4.587  13.893  1.3241  1.6254 -1.5397
 5150SOL     OW26908   2.631   3.978   9.185  0.5621 -0.2539  0.0865
 5150SOL    HW126909   2.562   4.036   9.219  0.2096 -1.3904  1.3011
 5150SOL    HW226910   2.574   3.920   9.134 -0.4018  1.9372 -1.3717
 5151SOL     OW26911   1.223   2.866  12.179 -0.6609 -0.6587 -0.7842
 5151SOL    HW126912   1.155   2.857  12.245  0.5323 -0.6216  0.4573
 5151SOL    HW226913   1.174   2.896  12.102 -1.6293 -0.7040 -0.1824
 5152SOL     OW26914   3.658   3.231  13.494 -0.0639 -0.4338  0.5638
 5152SOL    HW126915   3.647   3.221  13.589  2.1179  1.5645  1.0274
 5152SOL    HW226916   3.634   3.146  13.457  1.6033 -0.8205  0.3564
 5153SOL     OW26917   1.090   4.545   1.836  0.1287  0.0157 -0.2101
 5153SOL    HW126918   1.050   4.628   1.864  0.4278  0.7403 -1.9357
 5153SOL    HW226919   1.135   4.561   1.753 -0.3326  0.2136 -0.4231
 5154SOL     OW26920   2.633   0.722   4.333  0.5969  0.5386 -0.3806
 5154SOL    HW126921   2.611   0.687   4.419 -0.5886 -0.0700 -0.9361
 5154SOL    HW226922   2.553   0.690   4.292  1.2243 -1.4901 -0.0537
 5155SOL     OW26923   0.361   1.455   3.914  0.1773 -0.5627  0.2532
 5155SOL    HW126924   0.327   1.464   3.825 -2.2582  0.0942  1.2325
 5155SOL    HW226925   0.444   1.412   3.898  0.6900 -0.4157  2.5204
 5156SOL     OW26926   4.321   2.880  11.811 -0.5940  0.2581 -0.4650
 5156SOL    HW126927   4.371   2.931  11.875  0.2296  0.1173 -1.0024
 5156SOL    HW226928   4.271   2.952  11.771 -0.5695  0.2311 -0.5429
 5157SOL     OW26929   3.805   1.772   8.052  0.3715  0.1201  0.6149
 5157SOL    HW126930   3.794   1.753   8.146 -0.1088  1.8072  0.9039
 5157SOL    HW226931   3.877   1.714   8.030 -0.5564 -0.8338  0.1249
 5158SOL     OW26932   0.710   2.495   7.435  0.0478 -0.4498  0.4022
 5158SOL    HW126933   0.629   2.475   7.388 -0.3968  1.4842  0.3142
 5158SOL    HW226934   0.692   2.466   7.525  0.1645 -1.9796 -0.0742
 5159SOL     OW26935   1.766   2.069  11.152 -0.5682  0.2863 -0.0782
 5159SOL    HW126936   1.781   1.984  11.111  1.2793 -0.7224  2.6850
 5159SOL    HW226937   1.803   2.044  11.237 -0.0021 -3.0325 -1.3108
 5160SOL     OW26938   2.865   3.084   8.183  0.0156  0.3996  0.0754
 5160SOL    HW126939   2.866   3.138   8.104 -0.9503  0.0727 -0.1704
 5160SOL    HW226940   2.818   3.135   8.249 -1.3260  1.2370 -1.5227
 5161SOL     OW26941   2.910   2.595  15.917  0.5315 -0.2012 -0.0429
 5161SOL    HW126942   2.929   2.527  15.853  0.0054  0.0976 -0.5195
 5161SOL    HW226943   2.977   2.660  15.901  0.9699 -0.9992 -1.3984
 5162SOL     OW26944   1.980   2.836  14.214 -0.2963  0.2942 -0.4750
 5162SOL    HW126945   1.890   2.855  14.240 -0.3082 -0.7615  0.2329
 5162SOL    HW226946   1.989   2.862  14.122 -1.5501  1.6452 -0.2232
 5163SOL     OW26947   1.590   2.187  11.315  0.4081 -0.1856  0.6631
 5163SOL    HW126948   1.616   2.279  11.315 -1.1173  0.2530 -1.2234
 5163SOL    HW226949   1.646   2.164  11.241 -2.3153  0.0954 -1.4879
 5164SOL     OW26950   3.932   1.138   1.694 -0.0784  0.0610 -0.6365
 5164SOL    HW126951   3.906   1.215   1.745 -0.2279  1.0515 -2.1974
 5164SOL    HW226952   3.929   1.181   1.608  0.6578  0.1086 -0.6388
 5165SOL     OW26953   1.651   1.556   9.225  0.2576 -0.7782  0.8888
 5165SOL    HW126954   1.558   1.555   9.201  0.0050  0.4673  1.8288
 5165SOL    HW226955   1.688   1.515   9.147 -0.8623  0.2354 -0.1763
 5166SOL     OW26956   2.426   3.099   6.802 -0.4517 -0.1420  1.2657
 5166SOL    HW126957   2.502   3.100   6.744 -0.9776  0.0865  0.5846
 5166SOL    HW226958   2.387   3.012   6.793  0.5728 -0.0980 -3.2249
 5167SOL     OW26959   1.987   1.337  14.363 -0.5227  0.0083 -0.2152
 5167SOL    HW126960   1.999   1.252  14.405 -0.7391 -0.8568 -1.8937
 5167SOL    HW226961   1.958   1.388  14.439 -0.5756  0.0340 -0.2525
 5168SOL     OW26962   0.172   4.347   5.013  0.2819 -0.0516  0.6436
 5168SOL    HW126963   0.169   4.413   5.082 -2.4635 -1.9789  2.3608
 5168SOL    HW226964   0.205   4.276   5.068  2.7880 -1.4807 -2.6417
 5169SOL     OW26965   1.756   3.705   4.631  0.3975 -0.3606 -0.2062
 5169SOL    HW126966   1.665   3.730   4.614  1.0462  4.6142  3.5270
 5169SOL    HW226967   1.802   3.788   4.644  0.1548 -0.0956 -1.0052
 5170SOL     OW26968   3.245   4.355   4.822  0.2071  0.1268 -0.1438
 5170SOL    HW126969   3.330   4.313   4.807  0.3035  0.0740  0.5211
 5170SOL    HW226970   3.191   4.276   4.833 -0.3985  0.7315  1.2872
 5171SOL     OW26971   0.737   4.521  11.590 -0.6255  0.5394 -0.0346
 5171SOL    HW126972   0.779   4.464  11.525 -0.1749  0.1043  0.6460
 5171SOL    HW226973   0.670   4.460  11.622  1.4772 -1.0953  1.1925
 5172SOL     OW26974   0.127   2.791   8.091  0.0951  0.0369  0.0612
 5172SOL    HW126975   0.045   2.753   8.122  0.1262  0.7281  1.0081
 5172SOL    HW226976   0.173   2.827   8.167 -0.6257  0.8640  0.1160
 5173SOL     OW26977   0.735   1.781   8.429  0.1239  0.0443  0.7685
 5173SOL    HW126978   0.817   1.742   8.401  0.1010  0.3765  0.2518
 5173SOL    HW226979   0.724   1.723   8.505 -0.5118  0.0178  0.6586
 5174SOL     OW26980   2.183   1.883   2.910 -0.7178 -0.2883  0.5991
 5174SOL    HW126981   2.168   1.789   2.912  0.8641 -0.5774 -1.0152
 5174SOL    HW226982   2.262   1.895   2.962  0.2781 -2.7620 -0.3736
 5175SOL     OW26983   2.991   0.944   6.030 -0.0840  0.2614 -0.6752
 5175SOL    HW126984   3.035   0.906   6.106 -0.8389 -0.9756 -0.8522
 5175SOL    HW226985   3.055   0.921   5.962  2.9566  0.7940  2.0081
 5176SOL     OW26986   3.010   0.927   4.529 -0.2388 -0.2135 -0.0890
 5176SOL    HW126987   2.982   0.860   4.592  2.6768 -1.2782  0.0892
 5176SOL    HW226988   2.938   0.922   4.465  0.4745 -1.0536 -0.8220
 5177SOL     OW26989   0.644   3.373  11.351 -0.4582  0.2746  0.6646
 5177SOL    HW126990   0.687   3.350  11.434  0.0643  0.6883  0.5070
 5177SOL    HW226991   0.583   3.299  11.347 -2.2155  1.7414  0.2333
 5178SOL     OW26992   4.187   2.933  15.359  0.2356  0.0227  0.4041
 5178SOL    HW126993   4.236   2.904  15.435  0.5662  2.3145  1.0710
 5178SOL    HW226994   4.250   2.907  15.291  1.1206  0.7151  0.9573
 5179SOL     OW26995   3.915   2.442  14.500  0.1270  0.2527  0.0049
 5179SOL    HW126996   3.906   2.369  14.562 -2.3851 -0.6880 -1.4489
 5179SOL    HW226997   3.837   2.421  14.448  0.3278  1.4351 -0.7823
 5180SOL     OW26998   2.847   2.814  14.742  0.1377 -0.1316 -0.0760
 5180SOL    HW126999   2.922   2.754  14.735  0.8203  0.5797  1.0843
 5180SOL    HW227000   2.874   2.865  14.819 -1.2811  0.8326 -0.2326
 5181SOL     OW27001   2.041   2.273   6.941  0.1344 -0.2650  0.1036
 5181SOL    HW127002   2.013   2.330   6.869 -2.4031  0.0094  1.3184
 5181SOL    HW227003   1.966   2.274   7.000  0.1305  0.5739  0.0815
 5182SOL     OW27004   0.398   0.506  10.103 -0.5954  0.2305 -0.1950
 5182SOL    HW127005   0.397   0.582  10.160  0.5091 -0.9966  1.4907
 5182SOL    HW227006   0.444   0.542  10.027 -0.4671  0.1192 -0.1704
 5183SOL     OW27007   2.092   2.771   2.650 -0.2916 -0.0748 -0.3023
 5183SOL    HW127008   2.146   2.810   2.581 -1.0710  2.8176  0.7208
 5183SOL    HW227009   2.159   2.745   2.713  1.3521  3.5272 -0.5767
 5184SOL     OW27010   3.531   1.930  16.686  0.0096  1.0581 -0.0977
 5184SOL    HW127011   3.591   2.004  16.696 -1.6684  2.2669  0.9120
 5184SOL    HW227012   3.490   1.929  16.772 -1.6191  0.8018 -0.8689
 5185SOL     OW27013   4.668   2.927   7.712  0.6505 -0.6105 -0.1748
 5185SOL    HW127014   4.674   2.998   7.648  0.0686 -0.0661  0.3746
 5185SOL    HW227015   0.012   2.954   7.769  2.7406 -0.5170 -2.8306
 5186SOL     OW27016   3.006   0.111   5.593 -0.0447 -0.1098  0.0386
 5186SOL    HW127017   2.933   0.073   5.642 -0.0066 -0.7754 -0.4249
 5186SOL    HW227018   2.956   0.147   5.520  2.5786  0.8789 -1.2468
 5187SOL     OW27019   3.840   3.683   7.419 -0.0771 -0.0629  0.4353
 5187SOL    HW127020   3.891   3.631   7.357  0.1385 -0.0658  0.6144
 5187SOL    HW227021   3.897   3.667   7.494  1.9447 -2.1537 -1.5293
 5188SOL     OW27022   1.824   3.478   8.366 -0.0108 -0.2046 -0.1957
 5188SOL    HW127023   1.803   3.500   8.276  0.1532 -0.2369 -0.2422
 5188SOL    HW227024   1.831   3.563   8.409 -0.3388  0.5708 -1.6839
 5189SOL     OW27025   1.750   0.812   8.401 -0.4633 -0.5094 -0.1570
 5189SOL    HW127026   1.735   0.813   8.496 -1.1999  1.2154 -0.2936
 5189SOL    HW227027   1.698   0.885   8.368  1.2220  0.6042 -0.3682
 5190SOL     OW27028   0.139   1.121   9.626 -0.5236 -0.4056  0.0126
 5190SOL    HW127029   0.117   1.108   9.534 -1.2445 -0.0210  0.1326
 5190SOL    HW227030   0.196   1.198   9.625 -1.0862 -0.0001 -0.8859
 5191SOL     OW27031   0.688   3.471   8.162  0.3121  0.2193 -0.1127
 5191SOL    HW127032   0.602   3.449   8.195  0.5905 -3.0308 -1.6404
 5191SOL    HW227033   0.734   3.497   8.242  1.9139 -1.6767 -0.4369
 5192SOL     OW27034   3.210   4.303   9.131 -0.1736 -0.1325 -0.1068
 5192SOL    HW127035   3.117   4.287   9.147  0.0232 -1.7520 -0.5781
 5192SOL    HW227036   3.214   4.397   9.112  0.1626 -0.0185  0.5352
 5193SOL     OW27037   2.350   1.726   2.323 -0.0536  0.4272 -0.2692
 5193SOL    HW127038   2.280   1.790   2.309  0.3909  1.7275  3.4957
 5193SOL    HW227039   2.294   1.652   2.297 -0.4210  0.2869  0.8987
 5194SOL     OW27040   4.000   3.953   6.495  0.3390  0.3543 -0.2351
 5194SOL    HW127041   3.927   4.013   6.507  0.2164 -0.4732  3.1566
 5194SOL    HW227042   4.009   3.967   6.401 -2.2148  2.9631 -0.0847
 5195SOL     OW27043   4.392   0.304  12.953 -0.3163  0.5415 -0.3421
 5195SOL    HW127044   4.351   0.389  12.934 -0.0955  0.7554  0.1263
 5195SOL    HW227045   4.353   0.293  13.040  2.5718 -1.8267  0.6407
 5196SOL     OW27046   1.744   3.709   1.401  0.2082 -0.2119 -0.3139
 5196SOL    HW127047   1.680   3.766   1.358 -0.3705 -0.7893 -0.2103
 5196SOL    HW227048   1.761   3.641   1.336  0.1256 -0.4050 -0.1319
 5197SOL     OW27049   3.122   3.909   8.027 -0.2872  0.0909  0.2648
 5197SOL    HW127050   3.093   3.990   7.984 -0.6946 -0.9659 -1.4661
 5197SOL    HW227051   3.179   3.875   7.959 -1.6459 -2.8265  0.6137
 5198SOL     OW27052   3.744   3.279   1.946  0.2864  0.5792 -0.4711
 5198SOL    HW127053   3.809   3.216   1.914 -0.5274  0.0845 -1.1468
 5198SOL    HW227054   3.666   3.230   1.919 -1.0245  2.6714 -0.4591
 5199SOL     OW27055   2.104   2.207   2.065  0.0231  0.7255 -0.2608
 5199SOL    HW127056   2.106   2.219   1.970  0.8161  4.0376  0.1474
 5199SOL    HW227057   2.046   2.276   2.096 -0.4486  0.8660 -1.4444
 5200SOL     OW27058   3.250   3.492  12.190 -0.0826 -0.1343  0.5166
 5200SOL    HW127059   3.187   3.564  12.184 -0.3732 -0.3884  0.5873
 5200SOL    HW227060   3.206   3.438  12.255 -0.4155  0.3707  0.7171
 5201SOL     OW27061   2.173   3.559   2.274 -0.1934  0.6809 -0.3028
 5201SOL    HW127062   2.235   3.632   2.270 -0.3601  0.8655  0.6054
 5201SOL    HW227063   2.192   3.521   2.188 -0.6455  0.7309 -0.4239
 5202SOL     OW27064   0.560   1.569   6.883  0.0627  0.1106 -0.1000
 5202SOL    HW127065   0.532   1.619   6.959  0.1671  1.4927 -0.9648
 5202SOL    HW227066   0.538   1.634   6.816  0.0668 -0.0247 -0.2339
 5203SOL     OW27067   3.553   0.340   8.916  0.1781 -0.3170 -0.1708
 5203SOL    HW127068   3.583   0.429   8.898 -1.6831  0.8044  2.2857
 5203SOL    HW227069   3.465   0.353   8.881 -0.0616  3.5169  1.8195
 5204SOL     OW27070   3.085   1.805  17.178 -0.1367 -0.6505  0.1034
 5204SOL    HW127071   3.069   1.745  17.251 -2.3290  1.4525  1.3429
 5204SOL    HW227072   3.008   1.791  17.124  0.8809 -3.8194 -0.5187
 5205SOL     OW27073   2.526   0.250   0.303 -0.4856 -0.3617  0.1861
 5205SOL    HW127074   2.562   0.226   0.218  0.6674 -2.8260  1.3588
 5205SOL    HW227075   2.468   0.319   0.270 -1.6697  0.4323  3.8698
 5206SOL     OW27076   2.247   1.666  16.323  0.1350 -0.2416  0.4571
 5206SOL    HW127077   2.220   1.610  16.396  1.0299 -1.3370 -0.0563
 5206SOL    HW227078   2.343   1.672  16.327  0.1497 -0.6349  0.6889
 5207SOL     OW27079   0.036   4.007  17.407 -0.3033 -0.3769  0.1664
 5207SOL    HW127080   0.014   4.087  17.455  0.0699 -2.3454  3.5712
 5207SOL    HW227081   0.025   3.930  17.462  1.0186 -1.6773 -1.3933
 5208SOL     OW27082   4.660   3.467   1.215 -0.2751 -0.6015 -0.3216
 5208SOL    HW127083   4.686   3.531   1.281  0.1814  0.0297 -1.1219
 5208SOL    HW227084   4.570   3.449   1.240 -0.6519  1.7380 -0.0039
 5209SOL     OW27085   0.962   4.177   5.126 -0.5525  0.2273  0.2267
 5209SOL    HW127086   0.881   4.143   5.164 -0.9823 -0.1660 -1.0346
 5209SOL    HW227087   0.938   4.206   5.038  1.4260  0.8288 -0.1181
 5210SOL     OW27088   3.138   2.556  16.525 -0.5698 -0.0995 -1.0307
 5210SOL    HW127089   3.115   2.641  16.486 -1.3904  0.5410  0.8495
 5210SOL    HW227090   3.229   2.569  16.551 -0.6956 -0.8725 -0.2010
 5211SOL     OW27091   2.045   1.795  12.486 -0.3536  0.6015 -0.0002
 5211SOL    HW127092   2.140   1.783  12.485 -0.4106  0.0719  0.8605
 5211SOL    HW227093   2.037   1.862  12.554 -0.0392 -1.5953  2.2049
 5212SOL     OW27094   1.362   1.583   5.553 -0.0516  0.0092 -0.2182
 5212SOL    HW127095   1.415   1.549   5.481 -0.0107  0.7171 -0.5140
 5212SOL    HW227096   1.350   1.501   5.601 -3.0986  2.2150  2.7563
 5213SOL     OW27097   2.577   2.907  15.015 -0.0569 -0.4940 -0.0570
 5213SOL    HW127098   2.636   2.894  15.089  1.1314  0.1260 -0.8951
 5213SOL    HW227099   2.509   2.843  15.033 -1.2146 -0.0031 -2.7131
 5214SOL     OW27100   1.796   4.282   9.810 -0.5338 -0.0436  0.4758
 5214SOL    HW127101   1.753   4.311   9.891 -0.1388  0.9761  0.3155
 5214SOL    HW227102   1.845   4.204   9.836 -2.7852 -1.7132 -0.3598
 5215SOL     OW27103   3.677   3.776   3.400  0.3154 -0.1424  0.4948
 5215SOL    HW127104   3.593   3.821   3.404 -0.7062 -1.9844  0.0088
 5215SOL    HW227105   3.643   3.687   3.408 -0.8801  0.2946  0.2567
 5216SOL     OW27106   4.402   1.435   4.947 -0.1770  0.0421  0.1616
 5216SOL    HW127107   4.490   1.430   4.984 -0.8896 -0.6822  1.7285
 5216SOL    HW227108   4.390   1.341   4.938 -0.7096 -0.0598  2.0656
 5217SOL     OW27109   0.337   1.732   3.646 -0.5659  0.5088  0.9635
 5217SOL    HW127110   0.275   1.776   3.588  0.3124  1.4247  0.7234
 5217SOL    HW227111   0.304   1.776   3.725  1.4446  2.4336  0.7324
 5218SOL     OW27112   3.426   3.822  14.766 -0.3065 -0.1569 -0.2770
 5218SOL    HW127113   3.424   3.801  14.859 -1.6232 -0.8068 -0.4580
 5218SOL    HW227114   3.500   3.884  14.770 -0.1760 -0.2988 -0.4834
 5219SOL     OW27115   1.813   1.751   3.454 -0.7353 -0.4004  0.4417
 5219SOL    HW127116   1.873   1.779   3.386  0.2225 -4.0044 -0.2233
 5219SOL    HW227117   1.731   1.795   3.433  0.8939  2.1982 -0.3864
 5220SOL     OW27118   4.435   4.249   4.628  0.5556 -0.1972 -0.2613
 5220SOL    HW127119   4.479   4.334   4.634  1.4515 -0.5124 -2.4381
 5220SOL    HW227120   4.501   4.194   4.585  0.6301 -0.6715  0.4594
 5221SOL     OW27121   2.254   0.029   7.506  0.0407 -0.3191  0.0767
 5221SOL    HW127122   2.349   0.026   7.508  0.0376  0.0448  0.9546
 5221SOL    HW227123   2.229   0.060   7.593  2.1881  0.5995  0.3639
 5222SOL     OW27124   2.953   0.616   0.231  0.1088  0.5279 -0.8985
 5222SOL    HW127125   2.993   0.703   0.233 -0.4549  0.8010 -1.5184
 5222SOL    HW227126   2.971   0.592   0.140  2.9395 -1.3830  0.1801
 5223SOL     OW27127   1.843   2.384   3.423  0.2619 -0.6087 -0.6419
 5223SOL    HW127128   1.914   2.440   3.454  0.3889 -0.9120 -0.3797
 5223SOL    HW227129   1.874   2.357   3.337  1.9781 -1.4257  0.2152
 5224SOL     OW27130   2.019   2.905   2.891 -0.0493 -0.1145 -0.2287
 5224SOL    HW127131   2.013   2.848   2.814  0.3344  0.2192 -0.5043
 5224SOL    HW227132   2.037   2.846   2.964 -0.2944 -0.8084 -0.7259
 5225SOL     OW27133   0.270   0.458   2.055  0.0234 -0.6056  0.1297
 5225SOL    HW127134   0.200   0.395   2.071 -1.4605  0.7570 -0.8898
 5225SOL    HW227135   0.226   0.541   2.077 -0.1001  0.1686 -3.0543
 5226SOL     OW27136   3.660   0.306   0.075 -0.6464 -0.2703  0.0653
 5226SOL    HW127137   3.719   0.310  17.710 -0.3255 -0.4179  0.3105
 5226SOL    HW227138   3.722   0.309   0.147 -2.0364 -0.5311  1.2824
 5227SOL     OW27139   2.833   4.371   5.712  0.4022 -0.4701 -0.1042
 5227SOL    HW127140   2.752   4.415   5.687  1.3182  0.3717 -1.5800
 5227SOL    HW227141   2.793   4.304   5.767  0.9820 -0.6603  0.0842
 5228SOL     OW27142   1.184   0.744  14.045 -0.6193  0.0124  0.1833
 5228SOL    HW127143   1.166   0.653  14.069  1.0848  0.1195  1.8402
 5228SOL    HW227144   1.139   0.794  14.112  0.4819  1.0134  0.1594
 5229SOL     OW27145   0.623   1.912   8.246 -0.7812 -0.2815  0.5859
 5229SOL    HW127146   0.549   1.936   8.302 -0.5310  0.2841  0.6730
 5229SOL    HW227147   0.670   1.864   8.314 -0.8814  0.5506  1.2480
 5230SOL     OW27148   3.006   1.775   2.094  0.2964 -0.1931 -0.3029
 5230SOL    HW127149   3.097   1.748   2.105  0.6125  0.2296 -1.8557
 5230SOL    HW227150   2.995   1.742   2.005 -0.1362  0.1893 -0.3890
 5231SOL     OW27151   1.328   1.104   5.680 -0.5376 -0.4432  0.2200
 5231SOL    HW127152   1.361   1.067   5.598  0.3147 -1.8088  1.1873
 5231SOL    HW227153   1.325   1.025   5.734  1.3171  1.7003  3.5299
 5232SOL     OW27154   0.544   2.536  14.544  0.2453 -0.5686 -0.4490
 5232SOL    HW127155   0.533   2.502  14.633 -0.4302 -2.0900 -1.1161
 5232SOL    HW227156   0.452   2.558  14.530 -0.5370 -1.8748  2.5318
 5233SOL     OW27157   2.616   4.480   4.760  0.2829 -0.4362  0.3764
 5233SOL    HW127158   2.687   4.541   4.776  0.0652  0.2738 -1.3266
 5233SOL    HW227159   2.572   4.484   4.845  0.4260 -1.3256  0.4992
 5234SOL     OW27160   4.485   0.230   5.078 -0.5668 -0.0238  0.0818
 5234SOL    HW127161   4.529   0.145   5.077  1.5352  1.0524 -0.5210
 5234SOL    HW227162   4.432   0.228   4.998  1.3914 -0.1252 -1.2308
 5235SOL     OW27163   4.445   0.778  10.658  0.2744 -0.1919 -0.0919
 5235SOL    HW127164   4.466   0.725  10.581  1.5722 -0.6843  0.5947
 5235SOL    HW227165   4.360   0.746  10.688 -1.1488  2.9105 -0.8615
 5236SOL     OW27166   2.093   0.645   4.112  0.5702 -0.1796  0.1571
 5236SOL    HW127167   2.035   0.630   4.037 -1.1882  0.9870  1.2807
 5236SOL    HW227168   2.143   0.724   4.092 -0.1431 -0.1970 -1.7584
 5237SOL     OW27169   4.391   3.880   4.293 -0.8548 -0.4767  0.4689
 5237SOL    HW127170   4.364   3.799   4.250  2.1208 -0.9897 -0.4263
 5237SOL    HW227171   4.303   3.915   4.290 -0.1941  1.1582  0.3619
 5238SOL     OW27172   4.281   4.002   9.342 -0.0446  0.2943 -0.1160
 5238SOL    HW127173   4.368   4.020   9.307 -0.7751 -0.0536 -2.0899
 5238SOL    HW227174   4.280   4.039   9.431  0.0738  1.3662 -0.5541
 5239SOL     OW27175   3.516   3.293   6.981 -0.6676  0.1231 -0.4441
 5239SOL    HW127176   3.590   3.319   7.036 -0.7321 -1.1907  0.2885
 5239SOL    HW227177   3.530   3.201   6.958  1.5692  0.1864  0.5911
 5240SOL     OW27178   1.833   1.323  15.807  0.3635  0.4100 -0.2400
 5240SOL    HW127179   1.809   1.338  15.716 -0.0516 -2.4660 -0.6233
 5240SOL    HW227180   1.744   1.310  15.840  1.2972 -2.3414  1.2309
 5241SOL     OW27181   1.640   0.722   0.069  0.2228 -0.2930  0.1117
 5241SOL    HW127182   1.559   0.674   0.052  1.0775 -1.8091  0.3146
 5241SOL    HW227183   1.596   0.799   0.104  0.7806 -0.0849  0.3500
 5242SOL     OW27184   1.554   0.801   2.667  0.4641 -0.1254 -0.0859
 5242SOL    HW127185   1.517   0.889   2.672  1.9467  0.6309 -2.5053
 5242SOL    HW227186   1.564   0.787   2.573 -1.4679 -0.8423 -0.1845
 5243SOL     OW27187   1.596   0.338  10.529 -0.1658 -0.4816 -0.6139
 5243SOL    HW127188   1.565   0.247  10.525 -0.9152 -0.2064 -0.9814
 5243SOL    HW227189   1.680   0.330  10.575 -0.8649  0.4614  0.8406
 5244SOL     OW27190   4.624   2.635   8.138 -0.5728  0.3664 -0.3254
 5244SOL    HW127191   4.666   2.550   8.152  1.5226  1.4206 -0.2383
 5244SOL    HW227192   4.533   2.604   8.140  0.4774 -2.8786 -2.0977
 5245SOL     OW27193   1.388   3.427   8.478 -0.0085 -0.7142  1.2666
 5245SOL    HW127194   1.419   3.513   8.452 -1.4941 -0.8446 -0.9485
 5245SOL    HW227195   1.457   3.387   8.424 -1.2857  1.6404 -2.1081
 5246SOL     OW27196   0.671   3.507   1.008  0.2048 -0.2203  0.1162
 5246SOL    HW127197   0.688   3.594   1.045 -0.4768 -0.0622  0.0667
 5246SOL    HW227198   0.575   3.501   1.016  0.0912  2.3102  0.7335
 5247SOL     OW27199   2.208   3.738  12.271  0.3653  0.2525  0.0218
 5247SOL    HW127200   2.302   3.749  12.287  0.7460 -2.3617 -0.4302
 5247SOL    HW227201   2.205   3.645  12.247 -1.5399  0.3737 -0.2119
 5248SOL     OW27202   0.291   1.231  11.433 -0.3088  0.1233  0.2871
 5248SOL    HW127203   0.303   1.183  11.351  0.3857 -1.0681  1.0939
 5248SOL    HW227204   0.196   1.223  11.447 -0.1124 -0.5386  1.2308
 5249SOL     OW27205   1.424   0.267   2.097  0.2492 -0.3023  0.4337
 5249SOL    HW127206   1.362   0.334   2.069  1.2833 -0.3452 -1.9615
 5249SOL    HW227207   1.508   0.313   2.098  0.7538 -1.2472  1.4543
 5250SOL     OW27208   1.121   0.651  17.157  0.0440 -0.4616 -0.0072
 5250SOL    HW127209   1.171   0.623  17.234  0.3626 -0.0640 -0.0695
 5250SOL    HW227210   1.079   0.570  17.130 -2.2953  0.4921  0.7881
 5251SOL     OW27211   1.983   3.229   5.595  0.1370 -0.3954  0.1336
 5251SOL    HW127212   1.951   3.149   5.553  0.9060 -0.1014 -0.9884
 5251SOL    HW227213   1.976   3.290   5.521 -1.5411 -1.2225 -0.3910
 5252SOL     OW27214   4.538   3.876   5.019  0.2011 -0.1655  0.2376
 5252SOL    HW127215   4.632   3.866   5.005  0.1057  1.6319 -1.6344
 5252SOL    HW227216   4.511   3.912   4.935 -1.1069 -1.7057  0.0001
 5253SOL     OW27217   4.428   0.314  11.598  0.4232  0.5213 -0.1088
 5253SOL    HW127218   4.334   0.296  11.586  0.3408 -0.1050  1.4892
 5253SOL    HW227219   4.418   0.408  11.614  0.9759  0.9513 -2.3026
 5254SOL     OW27220   1.212   1.861   2.997  0.5067 -0.1223  0.3658
 5254SOL    HW127221   1.265   1.941   3.003 -0.7928  0.8539 -0.9871
 5254SOL    HW227222   1.257   1.804   2.935 -1.9874 -1.9862  0.2468
 5255SOL     OW27223   1.394   4.494   4.064  0.5001 -0.3127  0.1315
 5255SOL    HW127224   1.459   4.423   4.065  0.3775 -0.4258  0.0967
 5255SOL    HW227225   1.376   4.495   3.970  0.7681 -0.0813  0.0806
 5256SOL     OW27226   4.475   3.897   5.456  0.2921  0.5005 -0.0313
 5256SOL    HW127227   4.406   3.851   5.503 -1.0442  0.6385 -1.8753
 5256SOL    HW227228   4.511   3.956   5.522  1.7294 -1.8222  1.2642
 5257SOL     OW27229   1.480   3.157   8.895  0.3802 -0.3202  0.2303
 5257SOL    HW127230   1.502   3.069   8.864  1.9072  1.0818 -2.6076
 5257SOL    HW227231   1.434   3.196   8.821 -0.4770 -1.0130  0.4004
 5258SOL     OW27232   0.795   3.359   6.375 -0.4121 -0.0833  0.3994
 5258SOL    HW127233   0.789   3.384   6.468 -1.2216  1.8902 -0.1821
 5258SOL    HW227234   0.700   3.369   6.366 -0.2660  1.7558  0.9162
 5259SOL     OW27235   3.780   4.196   5.347  0.7238  0.4866 -0.1314
 5259SOL    HW127236   3.737   4.110   5.350  0.5297  0.6659  2.3174
 5259SOL    HW227237   3.865   4.168   5.381  0.3949 -0.8205 -0.3631
 5260SOL     OW27238   1.723   2.288   6.446 -0.3128  0.0836 -0.1043
 5260SOL    HW127239   1.720   2.199   6.409 -0.7510  0.5491 -1.2102
 5260SOL    HW227240   1.675   2.345   6.386  0.9747  0.2562 -0.9734
 5261SOL     OW27241   2.331   1.362   4.529 -0.0481 -0.2430  0.4467
 5261SOL    HW127242   2.291   1.276   4.526  0.1198 -0.2778 -0.8076
 5261SOL    HW227243   2.375   1.362   4.614  0.1788  0.9806  0.3428
 5262SOL     OW27244   3.409   0.042   4.049 -0.4138  0.1997 -0.0344
 5262SOL    HW127245   3.388   0.067   4.139  0.3606  0.3862  0.0927
 5262SOL    HW227246   3.496   0.082   4.052 -0.8306  1.0569  0.4099
 5263SOL     OW27247   0.025   3.875   8.251 -0.4373 -0.4519  0.3714
 5263SOL    HW127248   4.704   3.945   8.295  0.9371  0.5595  0.2501
 5263SOL    HW227249   0.029   3.903   8.160 -0.0105  1.2794  0.9295
 5264SOL     OW27250   0.901   4.219   4.220  0.3364  0.0389 -0.0703
 5264SOL    HW127251   0.985   4.173   4.222 -0.1949 -1.0022 -1.8267
 5264SOL    HW227252   0.881   4.222   4.314 -1.3433 -2.6778 -0.3305
 5265SOL     OW27253   2.006   1.676  11.251 -0.4015 -0.4612  0.1890
 5265SOL    HW127254   1.971   1.591  11.224  0.4777 -0.2821 -1.5286
 5265SOL    HW227255   2.096   1.653  11.274  0.5766  2.4090 -0.7565
 5266SOL     OW27256   1.686   1.687   8.142 -0.3048 -0.2257  0.6810
 5266SOL    HW127257   1.718   1.764   8.189 -1.0294  0.4420  0.0776
 5266SOL    HW227258   1.626   1.653   8.209 -1.2269  1.5245  0.7377
 5267SOL     OW27259   3.455   4.727   9.666 -0.4367 -0.5037 -0.2365
 5267SOL    HW127260   3.478   4.643   9.706 -0.5506  0.6080  2.1637
 5267SOL    HW227261   3.397   0.034   9.734  2.3989 -1.5535  2.6995
 5268SOL     OW27262   4.579   3.279   5.605  0.0467  0.2445  0.4142
 5268SOL    HW127263   4.599   3.346   5.540  0.0614  0.3216  0.4968
 5268SOL    HW227264   4.491   3.247   5.583 -1.0738  3.8174 -0.2946
 5269SOL     OW27265   1.472   4.022   1.827 -0.5101  0.6000  0.3412
 5269SOL    HW127266   1.479   3.927   1.836 -0.4708  0.4862 -0.7768
 5269SOL    HW227267   1.385   4.038   1.864 -0.0762  2.8452  0.3786
 5270SOL     OW27268   2.282   1.145  11.447 -1.1202  0.0824 -0.4216
 5270SOL    HW127269   2.307   1.052  11.450  1.0179  0.7003  0.6735
 5270SOL    HW227270   2.281   1.167  11.540 -1.3102 -0.6473 -0.2465
 5271SOL     OW27271   3.300   3.247   4.974 -0.5381 -0.5185  0.3200
 5271SOL    HW127272   3.382   3.215   4.936 -1.2624 -1.2330 -0.6239
 5271SOL    HW227273   3.313   3.229   5.067 -0.1657  0.4844  0.4694
 5272SOL     OW27274   3.796   0.796   7.236 -0.0640  0.4540  0.4142
 5272SOL    HW127275   3.715   0.765   7.195  0.3700 -1.8676  1.2934
 5272SOL    HW227276   3.785   0.764   7.326 -2.1093  1.5693  0.5667
 5273SOL     OW27277   0.164   0.580  11.088 -0.4284 -0.1259  0.6956
 5273SOL    HW127278   0.151   0.674  11.097  1.1964 -0.1212  2.9432
 5273SOL    HW227279   0.079   0.552  11.123 -0.8795 -0.4597 -0.6210
 5274SOL     OW27280   1.167   3.699   6.815  0.2933 -0.3458 -0.0647
 5274SOL    HW127281   1.141   3.712   6.724 -0.7229 -2.1423 -0.0085
 5274SOL    HW227282   1.214   3.782   6.827 -1.4200  0.4362  1.3017
 5275SOL     OW27283   2.060   3.681  17.086  0.1407  0.0286  0.0165
 5275SOL    HW127284   1.998   3.716  17.023 -0.9395  1.4299  1.8761
 5275SOL    HW227285   2.003   3.689  17.162  1.4972 -0.8159  1.1185
 5276SOL     OW27286   1.439   4.236   2.725 -0.5516  0.2501  0.0517
 5276SOL    HW127287   1.369   4.289   2.764 -2.2182 -0.6580 -1.6778
 5276SOL    HW227288   1.497   4.219   2.798  0.5393 -0.0459 -0.8926
 5277SOL     OW27289   2.740   0.272   8.989 -0.0465 -0.0287  0.0689
 5277SOL    HW127290   2.761   0.336   9.057 -2.2885 -1.0997  1.7455
 5277SOL    HW227291   2.786   0.196   9.024  1.7130  1.3750  0.7908
 5278SOL     OW27292   2.248   0.714   1.235 -0.3638  0.1732  0.1942
 5278SOL    HW127293   2.322   0.718   1.174 -3.1671  1.8631 -3.0906
 5278SOL    HW227294   2.263   0.786   1.296  2.0717  0.5788 -0.8570
 5279SOL     OW27295   1.656   0.415   2.082  0.5392 -0.0470 -0.3965
 5279SOL    HW127296   1.695   0.462   2.155 -0.7330  0.7704 -0.2436
 5279SOL    HW227297   1.612   0.492   2.045  2.7436  0.0356 -2.8652
 5280SOL     OW27298   2.907   1.084  16.899 -0.0476  0.2242  0.1788
 5280SOL    HW127299   2.847   1.010  16.884  1.8048 -1.2806  0.2052
 5280SOL    HW227300   2.979   1.034  16.938 -0.2542  0.3330  0.7051
 5281SOL     OW27301   0.770   4.131  10.725  0.2525  0.4667 -0.0060
 5281SOL    HW127302   0.763   4.100  10.815  0.9218  0.8793  0.1836
 5281SOL    HW227303   0.789   4.224  10.737 -0.5075  0.4922  0.9356
 5282SOL     OW27304   4.220   0.031   6.594 -0.3638 -0.3907  0.5369
 5282SOL    HW127305   4.289   4.699   6.562  1.8184  2.3862  0.0544
 5282SOL    HW227306   4.169   0.048   6.515 -3.3526  0.2083  2.6266
 5283SOL     OW27307   2.727   1.161  10.814  0.7623 -0.0342  0.1459
 5283SOL    HW127308   2.792   1.110  10.863 -0.0540 -1.5130 -0.3113
 5283SOL    HW227309   2.713   1.093  10.748  1.4938 -0.8747  0.8730
 5284SOL     OW27310   3.075   3.439   2.215 -0.0944 -0.1936 -0.1768
 5284SOL    HW127311   3.085   3.471   2.126 -1.1328  0.6033 -0.0111
 5284SOL    HW227312   3.166   3.414   2.231 -0.1056  0.0144  0.2183
 5285SOL     OW27313   1.619   0.348   5.858 -0.5537 -0.1532 -0.3219
 5285SOL    HW127314   1.589   0.277   5.914  0.1433  0.0243  0.2739
 5285SOL    HW227315   1.705   0.314   5.833  0.2634  0.6482  1.4425
 5286SOL     OW27316   3.899   1.690  13.243  0.3680 -0.0803  0.0347
 5286SOL    HW127317   3.918   1.784  13.250 -2.0401  0.4292 -0.4488
 5286SOL    HW227318   3.904   1.684  13.147  0.4956  2.5025 -0.1165
 5287SOL     OW27319   3.694   1.693   0.190  0.1290  0.5921  0.2211
 5287SOL    HW127320   3.764   1.730   0.137 -0.6506 -1.1339 -2.0069
 5287SOL    HW227321   3.735   1.608   0.208 -0.0202  1.2249  3.5838
 5288SOL     OW27322   0.762   4.624   3.768 -0.8859  0.1796  0.4333
 5288SOL    HW127323   0.708   4.638   3.846 -3.1142  0.6996 -1.1880
 5288SOL    HW227324   0.844   4.663   3.798 -0.6473  0.4320 -0.5525
 5289SOL     OW27325   4.429   2.142   2.824  0.4960 -0.3945  0.4492
 5289SOL    HW127326   4.508   2.125   2.773  0.3076 -1.5098  0.5265
 5289SOL    HW227327   4.396   2.052   2.822  1.3384 -0.6778 -0.5134
 5290SOL     OW27328   3.771   0.892  16.166  0.5442 -0.3206  0.2876
 5290SOL    HW127329   3.829   0.946  16.219 -1.6329 -0.1150  2.4399
 5290SOL    HW227330   3.684   0.902  16.205 -0.2896 -1.5549 -1.2075
 5291SOL     OW27331   4.328   2.113   6.654  0.1866  0.9998  0.6957
 5291SOL    HW127332   4.308   2.055   6.581  2.1130  0.6079  0.4851
 5291SOL    HW227333   4.371   2.047   6.708  1.0312  0.5112 -0.5827
 5292SOL     OW27334   0.076   0.386  15.048 -0.2852  0.7596  0.2387
 5292SOL    HW127335   0.103   0.368  15.138  3.1846  0.3476 -0.8836
 5292SOL    HW227336   0.139   0.333  14.999 -1.9458 -0.1974 -0.8543
 5293SOL     OW27337   0.448   0.897   5.128  0.3902  0.1186 -0.2529
 5293SOL    HW127338   0.480   0.810   5.152  1.1001  0.1438 -1.1124
 5293SOL    HW227339   0.388   0.869   5.059  0.7061  0.7779 -0.7949
 5294SOL     OW27340   1.772   0.874  14.998 -0.3730  0.5185 -0.0151
 5294SOL    HW127341   1.740   0.860  14.908  0.7456 -0.5936 -0.2414
 5294SOL    HW227342   1.746   0.964  15.016 -0.6867  0.7901 -1.7643
 5295SOL     OW27343   4.056   0.739   2.544  0.2092 -0.6333  0.7763
 5295SOL    HW127344   3.995   0.687   2.595  2.9468 -4.0940  0.5040
 5295SOL    HW227345   4.107   0.673   2.496 -0.0987  0.7306 -1.4398
 5296SOL     OW27346   3.911   2.597   1.740 -0.5642  0.3169 -0.0557
 5296SOL    HW127347   3.966   2.530   1.780 -1.6304  0.1276  1.1187
 5296SOL    HW227348   3.976   2.659   1.707 -0.5085  0.1451 -0.2662
 5297SOL     OW27349   4.275   3.301   8.581  0.7189  0.2193  0.0344
 5297SOL    HW127350   4.279   3.393   8.555 -0.7814  0.9427  2.3150
 5297SOL    HW227351   4.193   3.270   8.542  0.9480 -0.3723  0.0186
 5298SOL     OW27352   1.820   1.043   1.321  0.1886 -0.2403  0.4760
 5298SOL    HW127353   1.840   0.950   1.306  0.7090  0.4075 -2.8055
 5298SOL    HW227354   1.749   1.063   1.261  1.7951 -0.5542 -1.5496
 5299SOL     OW27355   4.328   4.354   8.935  0.5896 -0.5493  0.3303
 5299SOL    HW127356   4.393   4.384   8.999 -0.0108  0.9853  0.2326
 5299SOL    HW227357   4.245   4.366   8.981 -0.2642  1.1181 -1.6677
 5300SOL     OW27358   3.593   2.978   3.680  0.2502 -0.2321 -0.0620
 5300SOL    HW127359   3.647   2.945   3.753 -0.1596 -0.9671 -0.0999
 5300SOL    HW227360   3.648   2.946   3.609  0.2467 -0.4148  0.0179
 5301SOL     OW27361   1.720   3.757  10.824 -0.0156 -0.4875 -0.0256
 5301SOL    HW127362   1.801   3.802  10.799 -0.6830  0.9196  0.3814
 5301SOL    HW227363   1.738   3.728  10.913 -0.6590 -1.5239 -0.2359
 5302SOL     OW27364   3.234   1.369   2.345 -0.3467 -0.4379  0.2636
 5302SOL    HW127365   3.161   1.416   2.303  1.8810  3.0794  0.3528
 5302SOL    HW227366   3.260   1.309   2.275 -3.1552 -0.5406 -0.7239
 5303SOL     OW27367   2.173   0.813  15.398  0.5792  0.1002 -0.1921
 5303SOL    HW127368   2.254   0.804  15.348  2.1633  0.9114  2.1875
 5303SOL    HW227369   2.206   0.809  15.488  1.6261  0.5956 -0.5598
 5304SOL     OW27370   3.697   4.719   2.632 -0.6021  0.0398 -0.0794
 5304SOL    HW127371   3.624   4.676   2.586 -0.7532  0.1110  0.0971
 5304SOL    HW227372   3.707   0.063   2.569 -0.2508 -0.5597 -0.7108
 5305SOL     OW27373   2.372   0.880   2.333  0.2469 -0.4092 -0.6601
 5305SOL    HW127374   2.412   0.953   2.286  2.5120 -0.4807  1.1586
 5305SOL    HW227375   2.385   0.889   2.428 -1.6596 -0.8733 -0.3483
 5306SOL     OW27376   2.933   2.568   8.371  0.1243 -0.0922 -0.4334
 5306SOL    HW127377   3.009   2.602   8.418  0.1818 -1.0525  0.1719
 5306SOL    HW227378   2.878   2.647   8.375 -1.4441 -1.1964 -0.0984
 5307SOL     OW27379   3.542   2.689   0.624 -0.0161  0.5380 -0.4057
 5307SOL    HW127380   3.532   2.699   0.530 -0.0816  0.0692 -0.4523
 5307SOL    HW227381   3.628   2.646   0.631 -0.7478 -1.4363 -3.5058
 5308SOL     OW27382   0.038   3.108   9.092 -0.2424 -0.0947 -0.0780
 5308SOL    HW127383   0.102   3.140   9.155 -1.1008 -0.1866  0.8410
 5308SOL    HW227384   0.079   3.036   9.044  0.1463  0.7482 -1.0329
 5309SOL     OW27385   3.954   3.071   7.531 -0.0399 -0.0795 -0.2850
 5309SOL    HW127386   3.999   2.989   7.511  0.6855 -0.3305  2.3374
 5309SOL    HW227387   3.912   3.100   7.451 -1.1346 -0.3323  0.1910
 5310SOL     OW27388   1.719   1.139   7.086 -0.3301 -0.0679  0.1237
 5310SOL    HW127389   1.798   1.087   7.070  0.8141  1.6750  0.0559
 5310SOL    HW227390   1.758   1.225   7.068  0.7796 -0.5819  0.0546
 5311SOL     OW27391   4.484   2.587   4.014 -0.2836 -0.4196  0.1784
 5311SOL    HW127392   4.491   2.523   4.085 -1.3847 -1.0802 -0.3013
 5311SOL    HW227393   4.407   2.555   3.966  1.0312 -1.1967 -1.4257
 5312SOL     OW27394   4.333   0.677   3.553 -0.5713  0.7349 -0.6610
 5312SOL    HW127395   4.426   0.698   3.562 -0.6192  0.8593 -0.4571
 5312SOL    HW227396   4.337   0.586   3.525 -1.3229  0.7254 -0.7425
 5313SOL     OW27397   1.001   2.895   5.312  0.1571  0.1515  0.1401
 5313SOL    HW127398   0.976   2.864   5.225  1.4742  1.6887 -0.7855
 5313SOL    HW227399   1.002   2.990   5.299  1.5013 -0.0298 -0.9581
 5314SOL     OW27400   2.076   2.539  16.288  0.0181 -0.4504  0.2322
 5314SOL    HW127401   2.014   2.605  16.318  1.5036  1.0009  0.0690
 5314SOL    HW227402   2.024   2.459  16.292 -0.7702  0.0138 -0.6670
 5315SOL     OW27403   1.303   4.555   4.775  0.2333 -0.0805  0.4065
 5315SOL    HW127404   1.248   4.595   4.707  2.0335 -3.1067 -2.8273
 5315SOL    HW227405   1.330   4.476   4.728  1.0522  1.7208 -2.0834
 5316SOL     OW27406   1.407   4.134   9.817 -0.5992 -0.5601 -0.0446
 5316SOL    HW127407   1.477   4.133   9.752 -0.8379  0.7777 -0.3286
 5316SOL    HW227408   1.399   4.043   9.847  1.1451  0.1929  2.7308
 5317SOL     OW27409   3.517   0.330  16.651  0.0799  0.1338 -0.1196
 5317SOL    HW127410   3.551   0.392  16.588  1.0291  0.3830  0.6381
 5317SOL    HW227411   3.449   0.281  16.605 -2.4775  3.5926  0.0483
 5318SOL     OW27412   4.440   1.853  12.746 -0.3480  0.6133  0.4698
 5318SOL    HW127413   4.348   1.880  12.751 -0.3563  1.0076 -1.7839
 5318SOL    HW227414   4.492   1.912  12.801  2.3220 -1.1376 -0.1931
 5319SOL     OW27415   2.255   3.994   2.283 -0.6937  0.2505  0.3628
 5319SOL    HW127416   2.268   3.903   2.258  2.6455  0.7743  0.1749
 5319SOL    HW227417   2.339   4.032   2.312  0.1424 -1.0539 -0.3633
 5320SOL     OW27418   3.089   3.966   7.043 -0.0851  0.0701  0.3199
 5320SOL    HW127419   3.008   3.938   7.000 -0.5915 -0.8921  1.9089
 5320SOL    HW227420   3.141   3.991   6.967  0.0305 -2.1601 -0.3210
 5321SOL     OW27421   2.020   1.021   7.815  0.1914 -0.1118  0.4406
 5321SOL    HW127422   2.087   1.018   7.746 -0.7790  1.3938 -0.5817
 5321SOL    HW227423   2.066   1.068   7.884  0.5368  0.6341 -0.2961
 5322SOL     OW27424   4.693   3.717  10.630  0.2149 -0.1065 -0.2737
 5322SOL    HW127425   4.691   3.643  10.569 -0.3210  0.3271 -0.7869
 5322SOL    HW227426   0.048   3.762  10.615  0.9978 -1.2367  0.6459
 5323SOL     OW27427   2.334   2.782   1.662  0.0252  0.2590 -0.4035
 5323SOL    HW127428   2.404   2.724   1.692 -0.8750 -0.2180  0.7270
 5323SOL    HW227429   2.265   2.725   1.627 -0.6240  0.3016  0.8146
 5324SOL     OW27430   0.169   3.440   6.731 -0.3729  0.0627 -0.3918
 5324SOL    HW127431   0.087   3.397   6.703 -0.1400  0.9419 -2.4468
 5324SOL    HW227432   0.196   3.373   6.794  0.6678  2.3624  1.5614
 5325SOL     OW27433   2.165   1.793   7.677  0.0321 -0.3216 -0.1591
 5325SOL    HW127434   2.127   1.744   7.604  1.0728  0.1470 -1.0128
 5325SOL    HW227435   2.096   1.765   7.737 -0.2023 -2.3402 -1.3865
 5326SOL     OW27436   1.516   2.079   6.095  0.1147 -0.1833  0.7308
 5326SOL    HW127437   1.453   2.032   6.149 -1.0436  1.7475  1.0673
 5326SOL    HW227438   1.500   2.169   6.125  1.8452 -0.1290  1.5005
 5327SOL     OW27439   2.842   0.977   1.930  0.5159  0.2709 -0.8365
 5327SOL    HW127440   2.804   0.981   2.017  1.0241  0.8682 -0.6417
 5327SOL    HW227441   2.793   1.052   1.897 -0.8852 -0.0414  0.5338
 5328SOL     OW27442   4.462   4.075   3.968 -0.1887 -0.5405  1.0309
 5328SOL    HW127443   4.554   4.074   3.995  0.8449 -1.8852 -2.3988
 5328SOL    HW227444   4.414   4.031   4.038 -2.4555  1.5524  0.7895
 5329SOL     OW27445   1.087   1.179   5.048  0.4721  0.2451 -0.1945
 5329SOL    HW127446   1.033   1.256   5.030 -1.0033 -0.2483  2.1041
 5329SOL    HW227447   1.169   1.196   5.004  1.1693 -0.1466  0.9467
 5330SOL     OW27448   2.401   0.448   5.903 -0.3104  0.4876 -0.0158
 5330SOL    HW127449   2.470   0.409   5.849 -0.3958 -0.9998  0.9408
 5330SOL    HW227450   2.328   0.418   5.849 -0.3942 -0.1807  0.4678
 5331SOL     OW27451   0.098   2.800   0.089  0.2860  0.0597  0.6486
 5331SOL    HW127452   0.141   2.774   0.170  0.3272  0.1987  0.6715
 5331SOL    HW227453   0.084   2.711   0.056  1.5382  0.0811  0.0480
 5332SOL     OW27454   1.962   4.679   9.771 -0.1837 -0.2862  0.3203
 5332SOL    HW127455   1.921   4.694   9.856 -1.4805  3.2327 -0.9669
 5332SOL    HW227456   2.051   4.703   9.798 -0.1220 -0.8451  0.6246
 5333SOL     OW27457   4.061   3.797  11.232  0.8675 -0.1575  0.1366
 5333SOL    HW127458   4.083   3.808  11.139 -0.6095  2.4417  0.0969
 5333SOL    HW227459   3.965   3.789  11.225  0.9559 -2.0756  0.9309
 5334SOL     OW27460   1.794   3.417   1.810  0.0487 -0.4583 -0.1303
 5334SOL    HW127461   1.705   3.384   1.821  0.1037 -0.5887 -0.0687
 5334SOL    HW227462   1.776   3.487   1.747 -0.3946  1.0237  1.6502
 5335SOL     OW27463   1.592   2.097  13.623 -0.0021 -0.6363  0.0230
 5335SOL    HW127464   1.627   2.158  13.558  0.2228  1.5697  2.2059
 5335SOL    HW227465   1.601   2.011  13.582 -3.4684 -0.5260 -0.9872
 5336SOL     OW27466   1.013   1.658  14.249 -0.5421 -0.3059  0.2680
 5336SOL    HW127467   0.976   1.598  14.314 -1.2348 -0.5244 -0.3308
 5336SOL    HW227468   0.957   1.736  14.254 -0.1831 -0.0149 -0.3598
 5337SOL     OW27469   3.110   0.620   4.043  0.2755  0.5306  0.0215
 5337SOL    HW127470   3.072   0.566   3.973 -0.4722 -1.4313  1.9540
 5337SOL    HW227471   3.042   0.613   4.110 -1.4764  0.6741 -1.7135
 5338SOL     OW27472   4.470   0.004   7.800 -0.3936  0.3280  0.5470
 5338SOL    HW127473   4.459   4.706   7.708  0.4400  0.0775  0.5182
 5338SOL    HW227474   4.391   0.057   7.811 -1.6888 -1.4423 -0.1092
 5339SOL     OW27475   0.537   2.124  10.437 -0.1027  1.0227 -0.1338
 5339SOL    HW127476   0.467   2.106  10.375  0.3397  3.9259 -1.4621
 5339SOL    HW227477   0.599   2.051  10.425 -1.1308 -0.0897  1.3902
 5340SOL     OW27478   3.106   2.159   5.573  0.5438  0.1344 -0.3187
 5340SOL    HW127479   3.150   2.089   5.525  1.4620  0.4790  0.0193
 5340SOL    HW227480   3.039   2.182   5.508  1.5313  3.2129 -0.2777
 5341SOL     OW27481   3.876   0.639   3.677  0.5745  0.0545  0.2309
 5341SOL    HW127482   3.955   0.671   3.721  1.5749  0.9886 -2.2609
 5341SOL    HW227483   3.907   0.605   3.593  0.3868 -1.6412  0.8501
 5342SOL     OW27484   1.577   1.275   2.124  0.1177  0.1638 -0.0340
 5342SOL    HW127485   1.667   1.291   2.153 -0.2362  0.2381  1.0439
 5342SOL    HW227486   1.537   1.362   2.128  1.6667  0.7785  2.1670
 5343SOL     OW27487   3.812   1.943   9.211 -0.0901  0.3487  0.4809
 5343SOL    HW127488   3.829   1.850   9.198  1.6492  0.5392  1.2869
 5343SOL    HW227489   3.717   1.949   9.203  0.0722  4.7264  1.6716
 5344SOL     OW27490   1.810   0.940  15.389  0.2607 -0.0700 -0.0164
 5344SOL    HW127491   1.883   0.990  15.353  0.6170 -0.4428  0.1803
 5344SOL    HW227492   1.741   0.980  15.337 -1.1044 -2.1772  0.1691
 5345SOL     OW27493   4.509   3.944   2.463  0.4098  0.1236  0.1450
 5345SOL    HW127494   4.552   4.029   2.476  0.0755  0.2158  0.6574
 5345SOL    HW227495   4.567   3.886   2.511 -0.1940  1.3619  2.4088
 5346SOL     OW27496   1.975   0.760  13.416  0.3517 -0.0974 -0.3684
 5346SOL    HW127497   2.033   0.800  13.481 -0.1069 -2.5187  1.5318
 5346SOL    HW227498   2.029   0.693  13.373  0.2330 -0.4973  0.0988
 5347SOL     OW27499   1.775   3.148   6.822 -0.6344 -0.4396  0.4645
 5347SOL    HW127500   1.705   3.201   6.861 -1.9350  0.4064 -2.9914
 5347SOL    HW227501   1.813   3.111   6.901  1.9560  1.8350  0.2713
 5348SOL     OW27502   3.206   3.794   5.066 -0.2293 -0.4798  0.2275
 5348SOL    HW127503   3.282   3.798   5.124  2.2086  0.8742 -3.0767
 5348SOL    HW227504   3.151   3.871   5.082  1.6763 -0.0171  4.5257
 5349SOL     OW27505   1.799   4.416   1.369 -0.4016 -0.5259 -0.8675
 5349SOL    HW127506   1.888   4.394   1.343 -0.4139 -1.5593 -0.0771
 5349SOL    HW227507   1.761   4.337   1.408 -0.0495 -0.9241 -1.3287
 5350SOL     OW27508   2.695   3.351   1.446 -0.5812 -0.6901 -0.1761
 5350SOL    HW127509   2.666   3.362   1.536  1.1917 -0.5881  0.3866
 5350SOL    HW227510   2.651   3.268   1.430 -1.2400 -0.2701 -0.5556
 5351SOL     OW27511   2.014   2.992   7.586  0.6425  0.3367  0.2104
 5351SOL    HW127512   2.026   3.077   7.544  1.5645 -0.3956 -0.9975
 5351SOL    HW227513   1.985   2.945   7.508 -1.8776 -1.5192  2.2448
 5352SOL     OW27514   3.930   4.033   1.692  0.6373 -0.5799  0.1227
 5352SOL    HW127515   4.021   4.062   1.693  1.2488 -2.4602 -2.5520
 5352SOL    HW227516   3.943   3.938   1.683  1.1673 -0.3802 -1.1301
 5353SOL     OW27517   1.394   3.927  11.570 -0.2408  0.4237 -0.5664
 5353SOL    HW127518   1.346   3.913  11.489 -2.0508  2.4611  0.1563
 5353SOL    HW227519   1.474   3.879  11.553  1.1142  1.6720  2.2367
 5354SOL     OW27520   0.595   2.859   8.173 -0.6803 -0.2140  0.0851
 5354SOL    HW127521   0.598   2.809   8.254  1.7808 -0.2882 -0.0508
 5354SOL    HW227522   0.589   2.793   8.104 -0.0081 -0.0671 -0.1086
 5355SOL     OW27523   3.437   2.743   5.299 -0.0005  0.1383  0.1593
 5355SOL    HW127524   3.366   2.712   5.244  1.8444 -0.7332 -1.7404
 5355SOL    HW227525   3.409   2.832   5.322 -0.8170 -0.0367 -0.1680
 5356SOL     OW27526   2.067   3.274   4.813 -0.4597  0.5504 -0.1466
 5356SOL    HW127527   2.084   3.328   4.891  1.8445  0.9041 -0.8850
 5356SOL    HW227528   2.019   3.335   4.758  0.7449  1.7538  0.1305
 5357SOL     OW27529   1.590   3.748  13.749 -0.4551 -0.2309 -0.1393
 5357SOL    HW127530   1.670   3.710  13.785  0.0177  0.4741 -0.4326
 5357SOL    HW227531   1.602   3.832  13.795 -1.1029  0.3832 -1.0955
 5358SOL     OW27532   4.478   0.580   5.819 -0.5335  0.3532  0.3896
 5358SOL    HW127533   4.520   0.665   5.833 -1.7307  0.7829  1.3364
 5358SOL    HW227534   4.436   0.607   5.738  0.0423  1.3025  0.4020
 5359SOL     OW27535   1.503   2.018  13.869  0.4140  0.0703  0.0045
 5359SOL    HW127536   1.421   1.975  13.842 -0.8771  1.6837  1.4412
 5359SOL    HW227537   1.541   2.053  13.788  2.4758 -0.9082  0.5465
 5360SOL     OW27538   0.945   3.790   9.200  0.1263  0.2186 -0.1490
 5360SOL    HW127539   0.953   3.730   9.125 -0.5564 -0.6372  0.4705
 5360SOL    HW227540   0.851   3.797   9.209  0.0792  1.3153 -1.5061
 5361SOL     OW27541   0.854   2.322  13.204  0.2593 -0.4248  0.7008
 5361SOL    HW127542   0.916   2.395  13.198  0.4624 -0.6081  0.5663
 5361SOL    HW227543   0.913   2.248  13.191  1.0111  0.4948 -1.0286
 5362SOL     OW27544   4.640   2.035   4.639 -0.7248 -0.0996  0.2713
 5362SOL    HW127545   4.583   2.111   4.650  1.3139  1.2946  1.3625
 5362SOL    HW227546   4.719   2.073   4.677 -0.0150 -0.7784 -0.5292
 5363SOL     OW27547   4.417   0.997   5.928 -0.2325 -0.1453 -0.2943
 5363SOL    HW127548   4.411   1.009   6.023  0.4576  0.5953 -0.3431
 5363SOL    HW227549   4.324   1.005   5.907  0.5016 -0.7017 -3.7566
 5364SOL     OW27550   3.127   3.898   6.287  0.5411  0.0469 -0.4600
 5364SOL    HW127551   3.161   3.973   6.335  1.6020 -0.0322 -1.0925
 5364SOL    HW227552   3.183   3.891   6.210  1.9123 -1.6985  0.7009
 5365SOL     OW27553   0.060   2.794   4.267 -0.8241 -0.5705  0.0657
 5365SOL    HW127554   0.072   2.754   4.181 -3.7315 -0.6791 -0.2802
 5365SOL    HW227555   0.010   2.874   4.254  1.9822  1.0088 -0.8629
 5366SOL     OW27556   0.484   3.605   7.025 -0.0105  0.2503 -0.3336
 5366SOL    HW127557   0.517   3.544   7.091  2.1040  1.3348 -0.3724
 5366SOL    HW227558   0.465   3.686   7.072 -0.3944  1.1146 -1.9711
 5367SOL     OW27559   3.718   0.801   8.556  0.6164  0.0393 -0.1295
 5367SOL    HW127560   3.788   0.866   8.562 -0.1356  0.8055  0.3237
 5367SOL    HW227561   3.665   0.852   8.496 -1.1790 -1.6618  0.0187
 5368SOL     OW27562   0.751   1.186   3.118  0.6346  0.4508 -0.2171
 5368SOL    HW127563   0.797   1.270   3.111  1.3999 -0.0458 -1.1282
 5368SOL    HW227564   0.701   1.203   3.197 -0.3233  0.1646 -0.7675
 5369SOL     OW27565   0.358   0.523   3.471  0.2529 -0.1953  0.0360
 5369SOL    HW127566   0.262   0.523   3.469  0.2333 -0.0207  1.0936
 5369SOL    HW227567   0.363   0.438   3.427 -2.9244 -0.1881 -0.3690
 5370SOL     OW27568   1.870   1.964   9.716 -0.3392 -0.2068 -0.2160
 5370SOL    HW127569   1.914   2.002   9.792 -0.9549  0.3625 -0.1401
 5370SOL    HW227570   1.845   2.045   9.673 -0.9344 -0.4972 -0.4247
 5371SOL     OW27571   1.458   1.582   0.634  0.0597 -0.1885 -0.9299
 5371SOL    HW127572   1.488   1.518   0.698 -1.7853 -1.9952 -1.8817
 5371SOL    HW227573   1.506   1.658   0.668 -0.3703 -1.2308  1.9826
 5372SOL     OW27574   0.773   3.763  17.383 -0.2032  0.2921  0.5823
 5372SOL    HW127575   0.746   3.841  17.336 -0.0491 -0.7930 -1.2977
 5372SOL    HW227576   0.779   3.799  17.471  0.5766  2.4375 -0.3708
 5373SOL     OW27577   0.714   3.839   8.507  0.3843  0.7649  0.7916
 5373SOL    HW127578   0.797   3.874   8.536  0.2751  0.5322  1.3831
 5373SOL    HW227579   0.658   3.902   8.552  2.3018  3.0325 -0.0139
 5374SOL     OW27580   2.860   1.152   2.733  0.0313  0.5136  0.4371
 5374SOL    HW127581   2.795   1.179   2.799 -0.6087  2.3628 -0.9395
 5374SOL    HW227582   2.794   1.137   2.665  1.7073 -0.7503 -0.8841
 5375SOL     OW27583   1.088   2.931   1.924  0.6651  0.3094  0.3119
 5375SOL    HW127584   1.049   2.978   1.850 -0.8016 -0.6437  0.4794
 5375SOL    HW227585   1.018   2.953   1.986  0.3097 -0.9050  0.3420
 5376SOL     OW27586   1.297   3.920   9.175 -0.3854  0.0868 -0.0016
 5376SOL    HW127587   1.263   3.831   9.176 -0.4422  0.1270  1.4096
 5376SOL    HW227588   1.387   3.902   9.147 -0.1705  1.2753 -0.0760
 5377SOL     OW27589   3.473   0.816  14.362 -0.1799  0.4826 -0.1126
 5377SOL    HW127590   3.553   0.771  14.391  0.1683 -0.0981 -1.9760
 5377SOL    HW227591   3.413   0.775  14.424  0.8010 -0.5924  0.1260
 5378SOL     OW27592   1.590   4.639   3.370  0.5616 -0.3657  0.1740
 5378SOL    HW127593   1.594   4.556   3.416 -0.5721 -1.6801 -2.0900
 5378SOL    HW227594   1.604   4.691   3.449 -2.8950  0.8153  0.0173
 5379SOL     OW27595   0.781   1.648   5.513  0.1787  0.1582  0.0396
 5379SOL    HW127596   0.853   1.709   5.528 -1.9493  2.3871  1.1821
 5379SOL    HW227597   0.785   1.652   5.418 -0.3119 -0.9666 -0.0303
 5380SOL     OW27598   1.227   2.950   6.088 -0.0394  0.4026 -0.2698
 5380SOL    HW127599   1.242   2.959   5.994  1.8915  0.7529  0.0879
 5380SOL    HW227600   1.131   2.957   6.090 -0.0545  0.4609 -1.5186
 5381SOL     OW27601   0.698   3.955   3.908 -0.0481  0.2043 -0.0283
 5381SOL    HW127602   0.735   3.867   3.891 -0.1216  0.1778 -0.0488
 5381SOL    HW227603   0.611   3.948   3.869  0.2116  1.6539 -0.8499
 5382SOL     OW27604   2.268   0.863  15.658  0.5371  0.7108  1.1820
 5382SOL    HW127605   2.190   0.849  15.711  0.5352 -1.1083  0.7051
 5382SOL    HW227606   2.281   0.957  15.667  1.0317  0.4682  2.9661
 5383SOL     OW27607   4.724   1.432   8.964  0.5098  0.1627  0.4573
 5383SOL    HW127608   4.670   1.446   9.041 -1.2340 -0.3827 -0.6760
 5383SOL    HW227609   4.648   1.415   8.909  0.4769 -0.3250  0.6507
 5384SOL     OW27610   3.700   1.735  13.441 -0.0923 -0.3135  0.0742
 5384SOL    HW127611   3.765   1.730  13.371  1.3472  0.1752  1.3772
 5384SOL    HW227612   3.714   1.645  13.471  3.3693  0.0068 -0.5951
 5385SOL     OW27613   0.991   0.239  11.050  0.0539  0.0158 -0.9095
 5385SOL    HW127614   0.896   0.241  11.048  0.0503  0.5571 -0.2242
 5385SOL    HW227615   1.009   0.324  11.089 -0.3913 -0.1022 -0.4565
 5386SOL     OW27616   2.460   1.707   4.604 -0.5082  0.1582 -0.0165
 5386SOL    HW127617   2.534   1.699   4.544 -0.1885  0.0367  0.3931
 5386SOL    HW227618   2.429   1.794   4.576 -0.4949 -0.3573 -1.5984
 5387SOL     OW27619   1.789   0.899   5.724 -0.2172  0.3826  0.1172
 5387SOL    HW127620   1.747   0.821   5.687  1.3240 -0.5003  0.2062
 5387SOL    HW227621   1.750   0.900   5.811 -1.9131  1.7745 -0.6553
 5388SOL     OW27622   2.047   2.973   8.108  0.2003 -0.2497 -0.4698
 5388SOL    HW127623   1.964   2.929   8.088  0.2009 -0.7535  0.6326
 5388SOL    HW227624   2.071   3.015   8.026 -1.1433 -2.0132 -1.7617
 5389SOL     OW27625   2.325   2.610  15.983  0.3319 -0.0302  0.7241
 5389SOL    HW127626   2.253   2.649  16.032  1.7982 -0.0894  2.9005
 5389SOL    HW227627   2.334   2.528  16.030  0.8753  0.0236  0.7122
 5390SOL     OW27628   1.343   4.509   8.798  0.1271 -0.3880  0.3532
 5390SOL    HW127629   1.387   4.576   8.747 -2.3139  1.2079  0.3770
 5390SOL    HW227630   1.424   4.466   8.827  0.6333 -1.0667 -2.1251
 5391SOL     OW27631   4.648   3.646   3.947 -0.2356  0.1839 -0.2688
 5391SOL    HW127632   4.602   3.627   3.866 -1.8047 -1.1450  0.9196
 5391SOL    HW227633   4.687   3.731   3.928 -2.2327  1.5158  1.6131
 5392SOL     OW27634   4.549   0.293   1.544  0.0903  0.4539 -0.3877
 5392SOL    HW127635   4.472   0.251   1.505  0.4249  0.8065 -1.4339
 5392SOL    HW227636   4.496   0.357   1.591  1.9069 -0.5468  3.0016
 5393SOL     OW27637   0.408   2.065   8.154 -0.0112  0.1727 -0.0353
 5393SOL    HW127638   0.419   2.097   8.243  0.4466 -2.1961  0.7579
 5393SOL    HW227639   0.480   2.110   8.110 -0.1517  0.3681 -0.0639
 5394SOL     OW27640   1.509   3.499  14.926 -0.1735 -0.2414 -0.2998
 5394SOL    HW127641   1.417   3.485  14.901 -1.5130  5.3533  1.5100
 5394SOL    HW227642   1.533   3.407  14.922  2.2644  0.3279  1.1344
 5395SOL     OW27643   0.804   1.699   6.144 -0.6805  0.3787 -0.3218
 5395SOL    HW127644   0.727   1.725   6.194  1.6224 -0.2965  3.5781
 5395SOL    HW227645   0.771   1.678   6.056  0.1879  1.3041 -0.8697
 5396SOL     OW27646   0.359   1.815   5.339  0.1387  0.0291  0.8022
 5396SOL    HW127647   0.347   1.902   5.377  0.4407 -0.3834  1.8520
 5396SOL    HW227648   0.354   1.844   5.248 -3.6936  1.5082  1.4875
 5397SOL     OW27649   3.480   1.519  13.412  0.4252 -0.4127  0.4228
 5397SOL    HW127650   3.452   1.552  13.498 -0.8451 -0.2401 -0.0546
 5397SOL    HW227651   3.573   1.505  13.426  0.5894 -2.5670 -2.7764
 5398SOL     OW27652   4.166   4.467   5.666 -0.4112 -0.6204 -0.0896
 5398SOL    HW127653   4.101   4.398   5.677 -2.1199  1.1581  1.1622
 5398SOL    HW227654   4.242   4.412   5.650 -0.8733 -1.4765  0.6276
 5399SOL     OW27655   0.353   0.538  11.559  0.2201 -0.0630  0.3980
 5399SOL    HW127656   0.378   0.518  11.469 -1.4139  0.5363 -0.1961
 5399SOL    HW227657   0.404   0.468  11.600 -0.3284  0.2258  1.5654
 5400SOL     OW27658   3.761   3.737  10.298  0.1068 -0.2891 -0.2557
 5400SOL    HW127659   3.771   3.825  10.334  0.2359 -0.8022  0.9701
 5400SOL    HW227660   3.781   3.672  10.366 -2.2992 -0.1338  0.6186
 5401SOL     OW27661   2.856   1.838   2.854 -0.0266 -0.1619 -0.5642
 5401SOL    HW127662   2.823   1.761   2.900 -0.1068  0.9594  1.2568
 5401SOL    HW227663   2.941   1.806   2.824  0.2247  0.7232 -0.7821
 5402SOL     OW27664   1.039   2.418   6.534  0.3180  0.2040 -0.4707
 5402SOL    HW127665   0.991   2.446   6.611 -1.1273  1.4341 -1.8146
 5402SOL    HW227666   1.063   2.327   6.555  3.1995  1.6453  2.3277
 5403SOL     OW27667   3.662   4.516   3.700  0.4612 -0.2176 -0.7542
 5403SOL    HW127668   3.663   4.526   3.795 -0.7067  0.3321 -0.8003
 5403SOL    HW227669   3.688   4.602   3.667  1.0542 -0.4035 -0.7660
 5404SOL     OW27670   0.599   3.138   8.233  0.4139  0.4201  0.1825
 5404SOL    HW127671   0.594   3.194   8.156  0.8616 -1.2169 -1.0176
 5404SOL    HW227672   0.578   3.051   8.201  1.2904 -1.2961  4.1942
 5405SOL     OW27673   1.746   4.477   6.838  0.1780  0.1388  0.4327
 5405SOL    HW127674   1.752   4.524   6.755 -1.2969 -0.6001 -0.1025
 5405SOL    HW227675   1.815   4.411   6.831  2.3980  2.9567 -3.8538
 5406SOL     OW27676   0.327   0.877   6.282 -0.6198 -0.0054 -0.1821
 5406SOL    HW127677   0.255   0.829   6.242 -2.9153  2.2666  1.2410
 5406SOL    HW227678   0.365   0.802   6.328 -1.8321 -0.6029 -0.1461
 5407SOL     OW27679   4.028   4.519   3.814 -0.3366  0.4191  0.2565
 5407SOL    HW127680   3.975   4.516   3.894  1.5183 -2.2081  1.4303
 5407SOL    HW227681   4.121   4.529   3.836 -0.3288  2.3131 -0.6858
 5408SOL     OW27682   3.450   1.521   7.547 -0.0957 -0.4049  0.0026
 5408SOL    HW127683   3.532   1.564   7.568 -0.4684  1.5235 -2.5459
 5408SOL    HW227684   3.479   1.450   7.490  0.5873  0.3547 -0.5830
 5409SOL     OW27685   1.855   2.604   2.854 -0.3766  0.4223 -0.2144
 5409SOL    HW127686   1.915   2.535   2.829  0.2237 -0.1115  2.6643
 5409SOL    HW227687   1.847   2.580   2.946 -1.8021 -0.5518 -0.5962
 5410SOL     OW27688   3.609   4.596   7.322 -0.5536  0.0321  0.0582
 5410SOL    HW127689   3.536   4.567   7.267 -0.7397 -0.1040  0.3756
 5410SOL    HW227690   3.645   4.514   7.356  0.4262  1.0737  1.5343
 5411SOL     OW27691   0.740   4.303   6.147 -0.1904  0.2177  0.3053
 5411SOL    HW127692   0.781   4.221   6.119 -2.7759 -1.2938  0.8914
 5411SOL    HW227693   0.653   4.272   6.174  0.4546 -1.2026  0.7750
 5412SOL     OW27694   2.550   1.275   1.441 -0.2545 -0.3876 -0.1068
 5412SOL    HW127695   2.531   1.361   1.402  0.0248 -1.4630 -2.6244
 5412SOL    HW227696   2.638   1.300   1.469  0.2360 -0.5155 -1.5074
 5413SOL     OW27697   1.021   3.473   6.288 -0.1425  0.1567  0.7139
 5413SOL    HW127698   0.943   3.423   6.310  0.7549 -2.2260 -1.4511
 5413SOL    HW227699   0.985   3.553   6.250 -0.7521 -0.6358 -0.3951
 5414SOL     OW27700   1.959   3.780   8.838 -0.4492 -0.3581  0.4842
 5414SOL    HW127701   2.045   3.797   8.799  0.0838 -0.5293  1.5728
 5414SOL    HW227702   1.909   3.838   8.781 -1.0977  1.1688  2.6384
 5415SOL     OW27703   1.057   4.106   8.055 -0.2654  0.3381  0.0352
 5415SOL    HW127704   0.984   4.126   8.114 -1.1462 -1.5285 -0.4178
 5415SOL    HW227705   1.028   4.158   7.980 -0.2970  0.6273  0.2491
 5416SOL     OW27706   2.346   1.839   3.620 -0.3059  0.4624 -0.1461
 5416SOL    HW127707   2.252   1.827   3.604 -0.2413  2.2906 -1.8426
 5416SOL    HW227708   2.384   1.753   3.600  0.0607  1.2282 -2.6415
 5417SOL     OW27709   1.463   0.758   3.824 -0.0521 -0.0272 -0.4116
 5417SOL    HW127710   1.375   0.794   3.831  1.0215  2.3402  1.3939
 5417SOL    HW227711   1.459   0.696   3.752  0.2275 -0.2245 -0.2585
 5418SOL     OW27712   2.879   3.758   3.976  0.1309 -0.5107 -0.4091
 5418SOL    HW127713   2.954   3.698   3.974  0.6395  0.1729 -1.8534
 5418SOL    HW227714   2.811   3.694   3.957  0.8167 -1.6043  0.7751
 5419SOL     OW27715   0.574   1.678   5.664  0.0175 -0.1276  0.1550
 5419SOL    HW127716   0.609   1.643   5.746 -0.6999 -1.9110 -0.3164
 5419SOL    HW227717   0.655   1.701   5.618  0.8208 -4.9694 -0.7846
 5420SOL     OW27718   3.256   1.072   1.924  0.5223 -0.2731  0.2509
 5420SOL    HW127719   3.185   1.013   1.897  0.7232 -0.3764 -0.0560
 5420SOL    HW227720   3.328   1.050   1.866  0.5565 -1.6569  0.8128
 5421SOL     OW27721   3.786   2.076   7.230  0.2401  0.1234  0.3418
 5421SOL    HW127722   3.762   2.151   7.283  1.0118 -1.1753  2.5608
 5421SOL    HW227723   3.870   2.109   7.198  1.2925 -2.0864  0.7494
 5422SOL     OW27724   3.599   1.998   4.709  0.0729  0.2472  0.3615
 5422SOL    HW127725   3.540   2.073   4.709  1.5590  1.4129 -0.4721
 5422SOL    HW227726   3.668   2.024   4.648 -0.3692  2.7366  0.9124
 5423SOL     OW27727   3.301   3.044   4.457  0.0230 -0.1012 -0.5478
 5423SOL    HW127728   3.254   2.961   4.459 -1.4495  0.7577  1.0751
 5423SOL    HW227729   3.239   3.112   4.482 -2.3075 -2.4077 -0.0042
 5424SOL     OW27730   3.017   3.256  15.332 -0.6064  0.8852  0.8959
 5424SOL    HW127731   2.925   3.267  15.357 -0.9006  0.2274  0.1103
 5424SOL    HW227732   3.022   3.160  15.335 -1.5600  0.7659 -1.3427
 5425SOL     OW27733   3.253   3.979   0.294  0.0131  0.0986 -0.1742
 5425SOL    HW127734   3.255   3.884   0.291 -0.3885  0.0929 -0.3356
 5425SOL    HW227735   3.182   3.992   0.230  0.0201  0.0031 -0.2005
 5426SOL     OW27736   2.999   3.574  14.621  0.3229 -0.5435 -0.8295
 5426SOL    HW127737   3.061   3.585  14.693 -1.5505  0.6002  0.5812
 5426SOL    HW227738   2.943   3.650  14.629  1.5640  0.0444  2.3626
 5427SOL     OW27739   0.433   1.703   4.294  0.7173 -0.1251 -0.3458
 5427SOL    HW127740   0.416   1.610   4.276 -0.7618  0.1421 -0.3222
 5427SOL    HW227741   0.450   1.741   4.207 -0.7437 -2.0609 -1.4792
 5428SOL     OW27742   0.902   1.377  15.227 -0.4127 -0.1843 -0.1448
 5428SOL    HW127743   0.942   1.427  15.299 -2.1207  1.1665 -0.1449
 5428SOL    HW227744   0.815   1.416  15.228  0.2537  1.2994  0.7409
 5429SOL     OW27745   0.205   4.632  13.172  0.0857 -0.0454  0.4429
 5429SOL    HW127746   0.159   4.714  13.155 -1.0355 -0.7791 -0.0621
 5429SOL    HW227747   0.193   4.581  13.092  0.5038  2.1002 -0.9743
 5430SOL     OW27748   4.295   1.709   5.362 -0.2997 -0.5640 -0.6910
 5430SOL    HW127749   4.364   1.771   5.383 -1.5945  0.4541  0.5708
 5430SOL    HW227750   4.228   1.769   5.331 -0.1146 -0.6411 -1.2296
 5431SOL     OW27751   4.621   4.088   8.374  0.1702  0.1844 -0.7132
 5431SOL    HW127752   4.626   4.114   8.466 -0.4460 -0.8850 -0.3821
 5431SOL    HW227753   4.590   4.165   8.327  0.3560 -0.5770 -2.0818
 5432SOL     OW27754   1.171   3.639  14.327  0.0826 -0.1555 -0.4181
 5432SOL    HW127755   1.106   3.685  14.274  0.5758  0.6289 -0.3519
 5432SOL    HW227756   1.240   3.617  14.264  0.3301 -2.0764  0.5321
 5433SOL     OW27757   1.837   3.016  14.598  0.4915  0.9695  0.2456
 5433SOL    HW127758   1.837   3.068  14.678  1.4670 -0.9137  1.4563
 5433SOL    HW227759   1.744   3.021  14.576  1.0550  1.6473 -1.9691
 5434SOL     OW27760   1.721   1.195  12.329 -0.2369 -0.8233 -0.0306
 5434SOL    HW127761   1.720   1.143  12.409 -0.7510 -0.5659  0.1339
 5434SOL    HW227762   1.787   1.262  12.350  0.2841 -1.2233 -0.4133
 5435SOL     OW27763   0.985   0.218   6.799 -0.8958  0.6341 -0.7025
 5435SOL    HW127764   0.977   0.133   6.842  0.8973  1.1546  0.6377
 5435SOL    HW227765   1.059   0.255   6.847  0.1705 -2.4332  0.0462
 5436SOL     OW27766   2.085   3.856   7.937 -0.1249  0.0320  0.4272
 5436SOL    HW127767   2.168   3.851   7.889 -0.1922 -0.8338  0.3936
 5436SOL    HW227768   2.020   3.826   7.874 -1.8741 -1.3658  2.8896
 5437SOL     OW27769   3.396   3.840   7.531 -0.3859  0.3390 -0.2528
 5437SOL    HW127770   3.402   3.860   7.438 -0.8640 -1.4506 -0.6726
 5437SOL    HW227771   3.479   3.876   7.562 -1.0367  1.3982  0.2472
 5438SOL     OW27772   4.124   2.274   7.427 -0.5562 -0.0558  0.0793
 5438SOL    HW127773   4.196   2.333   7.447 -1.4918  1.5495 -1.3030
 5438SOL    HW227774   4.069   2.289   7.504 -2.2247 -0.6866 -1.0065
 5439SOL     OW27775   4.513   1.840   1.259 -0.0757  0.8274 -0.1355
 5439SOL    HW127776   4.585   1.779   1.278 -0.8662 -0.2429 -0.5596
 5439SOL    HW227777   4.560   1.923   1.270  0.0904  0.8955 -1.3977
 5440SOL     OW27778   2.811   0.451  11.585  0.0610  0.0732 -0.7287
 5440SOL    HW127779   2.750   0.461  11.512 -0.4879 -1.7429 -0.5077
 5440SOL    HW227780   2.757   0.470  11.663  0.4091 -1.3195 -0.1526
 5441SOL     OW27781   1.125   0.129  11.557 -0.0648  0.0762  0.1876
 5441SOL    HW127782   1.169   0.213  11.543  0.3456 -0.6474 -2.8187
 5441SOL    HW227783   1.131   0.113  11.652 -3.2913  0.8740  0.4943
 5442SOL     OW27784   2.335   2.972  15.802 -0.5483 -0.1028 -0.4003
 5442SOL    HW127785   2.308   2.997  15.714 -1.6977 -0.7977 -0.2402
 5442SOL    HW227786   2.349   2.879  15.784  0.8854 -0.2477  1.4914
 5443SOL     OW27787   2.483   0.573  10.012  0.2772  0.2849 -0.1666
 5443SOL    HW127788   2.420   0.504  10.032  1.1122  0.7829  4.3609
 5443SOL    HW227789   2.559   0.519   9.991 -1.0687 -0.9575 -1.8023
 5444SOL     OW27790   4.403   0.155   3.356 -0.2544  0.3239  0.1808
 5444SOL    HW127791   4.312   0.127   3.349  0.1136 -0.3655 -1.9849
 5444SOL    HW227792   4.417   0.095   3.429 -1.0597  0.3215  0.3343
 5445SOL     OW27793   1.904   1.263  12.589  0.1020 -0.0036  0.3296
 5445SOL    HW127794   1.915   1.257  12.683  0.1648  1.9398  0.4461
 5445SOL    HW227795   1.979   1.317  12.564 -0.5188  0.6313 -0.1943
 5446SOL     OW27796   3.833   3.611   9.126 -0.0954  0.1992  0.4870
 5446SOL    HW127797   3.842   3.531   9.178 -0.3680  0.8408  1.5198
 5446SOL    HW227798   3.925   3.630   9.109  0.2205  0.6466  2.7268
 5447SOL     OW27799   0.302   2.231   1.211  0.2705 -0.1225 -0.1803
 5447SOL    HW127800   0.301   2.211   1.305 -2.3823 -1.1061 -0.4085
 5447SOL    HW227801   0.208   2.250   1.204  0.7065  1.4748 -1.5863
 5448SOL     OW27802   2.764   3.209   0.526  0.2779 -0.0357 -0.2145
 5448SOL    HW127803   2.701   3.173   0.464 -1.1350  3.6941 -0.9076
 5448SOL    HW227804   2.812   3.131   0.553  0.9841  0.3384 -0.3909
 5449SOL     OW27805   3.421   0.732   8.431  0.1351  0.2902 -0.2779
 5449SOL    HW127806   3.475   0.674   8.484 -1.2479  0.4506  1.3060
 5449SOL    HW227807   3.391   0.803   8.487 -0.1157 -0.6824  0.8340
 5450SOL     OW27808   4.066   2.177   8.575 -0.5831  0.0553  0.3333
 5450SOL    HW127809   4.127   2.249   8.592 -2.9512  1.5164  2.8263
 5450SOL    HW227810   3.981   2.221   8.566 -0.4300  0.3155  0.1608
 5451SOL     OW27811   3.695   4.616   9.145 -0.3525  0.1613 -0.3673
 5451SOL    HW127812   3.749   4.557   9.093 -1.7248 -1.0116 -0.4648
 5451SOL    HW227813   3.679   4.681   9.076  0.3188  0.9804  0.2533
 5452SOL     OW27814   3.816   0.923   3.402  0.6566 -0.3433 -0.3455
 5452SOL    HW127815   3.895   0.950   3.356  0.3722  1.8018  0.4226
 5452SOL    HW227816   3.838   0.942   3.493 -1.1833 -0.9765  0.2291
 5453SOL     OW27817   1.124   4.469   2.662 -0.0991  0.3585 -0.0171
 5453SOL    HW127818   1.129   4.445   2.755  0.2841  0.7706  0.0698
 5453SOL    HW227819   1.132   4.386   2.615 -0.6994  1.1815 -1.5714
 5454SOL     OW27820   2.187   0.780   6.413  0.0382 -0.2805  0.0809
 5454SOL    HW127821   2.274   0.797   6.376 -0.2320 -0.3660 -0.5938
 5454SOL    HW227822   2.156   0.864   6.380  0.1118 -0.2033  0.2072
 5455SOL     OW27823   2.061   3.535   1.731 -0.1940 -0.3730  0.4063
 5455SOL    HW127824   1.969   3.531   1.757  0.1441  0.0418  1.7057
 5455SOL    HW227825   2.068   3.457   1.676  0.5314 -0.7619  1.0436
 5456SOL     OW27826   4.468   2.946   9.034 -0.0777  0.0527  0.1562
 5456SOL    HW127827   4.426   2.966   9.117 -1.1327 -0.0920 -0.3347
 5456SOL    HW227828   4.503   3.030   9.004  0.8099  0.5300  2.5626
 5457SOL     OW27829   2.296   0.462   2.935 -0.4189  0.1587  0.1342
 5457SOL    HW127830   2.225   0.474   2.872  0.2805  0.2104 -0.6356
 5457SOL    HW227831   2.370   0.445   2.878 -0.8354 -0.3259 -0.2577
 5458SOL     OW27832   0.343   1.892   2.223 -0.1649  0.0632 -0.1415
 5458SOL    HW127833   0.249   1.883   2.205 -0.2309  0.1799  0.1471
 5458SOL    HW227834   0.378   1.813   2.182  1.7427 -0.3437  2.2139
 5459SOL     OW27835   1.352   2.732  14.526 -0.6571 -0.2632 -0.0181
 5459SOL    HW127836   1.343   2.747  14.620  3.2034 -4.1667  0.9201
 5459SOL    HW227837   1.292   2.658  14.517 -1.5771  0.4107  0.4845
 5460SOL     OW27838   0.337   2.921   4.333  0.0153 -0.8774 -0.4861
 5460SOL    HW127839   0.273   2.983   4.298 -0.5777 -1.9711 -1.3452
 5460SOL    HW227840   0.286   2.852   4.375 -0.8474 -0.1895 -0.3979
 5461SOL     OW27841   1.377   4.288   5.027  0.3601  0.4853  0.0083
 5461SOL    HW127842   1.387   4.380   5.003  0.2729  1.1964  2.6986
 5461SOL    HW227843   1.362   4.292   5.122 -1.1670 -1.4596 -0.1725
 5462SOL     OW27844   2.983   2.079  16.268 -0.1801  0.2022 -0.3607
 5462SOL    HW127845   2.963   2.015  16.199  1.3031  0.5358 -1.1228
 5462SOL    HW227846   3.067   2.043  16.297 -0.0270 -0.1074 -1.1750
 5463SOL     OW27847   4.642   0.659   6.859 -0.1032 -0.2561 -0.1394
 5463SOL    HW127848   4.690   0.620   6.786  0.4710 -1.2911  0.7850
 5463SOL    HW227849   4.717   0.680   6.915 -0.7483  2.8945 -0.4817
 5464SOL     OW27850   0.359   4.724   9.460  0.0242  0.5145 -0.3178
 5464SOL    HW127851   0.412   0.003   9.381 -0.7184  0.7375 -0.7998
 5464SOL    HW227852   0.418   0.033   9.526  0.6482  0.7996 -1.0326
 5465SOL     OW27853   0.272   3.829   6.602 -0.7711 -0.4245  0.0339
 5465SOL    HW127854   0.199   3.855   6.658 -0.1608  2.9790 -0.7517
 5465SOL    HW227855   0.310   3.768   6.664  0.2216 -0.8307 -0.9870
 5466SOL     OW27856   3.718   3.359  12.522 -0.0146 -0.7063 -0.0522
 5466SOL    HW127857   3.801   3.355  12.473  0.5094  1.2950  0.6795
 5466SOL    HW227858   3.713   3.273  12.563 -1.7808  0.0098  1.2558
 5467SOL     OW27859   2.121   3.697  15.639 -0.1609 -0.4221 -0.3832
 5467SOL    HW127860   2.158   3.612  15.613  0.3752 -0.2928 -0.0427
 5467SOL    HW227861   2.036   3.686  15.598 -0.4648 -0.5821  0.2955
 5468SOL     OW27862   1.648   0.311   9.339  0.0972 -0.7579 -0.3080
 5468SOL    HW127863   1.606   0.396   9.350 -0.5921 -1.0474 -0.6500
 5468SOL    HW227864   1.732   0.343   9.307  0.2443  0.8703  1.7082
 5469SOL     OW27865   2.700   1.119   0.074 -0.1184 -0.7361  0.1238
 5469SOL    HW127866   2.752   1.093   0.150  1.6664 -0.4936 -1.0196
 5469SOL    HW227867   2.759   1.110  17.710 -0.9206 -0.3205 -0.5633
 5470SOL     OW27868   2.802   3.680  11.728  0.5978 -0.0422  0.1117
 5470SOL    HW127869   2.890   3.644  11.738  1.1817  1.3579  0.1137
 5470SOL    HW227870   2.778   3.671  11.820 -0.0198  2.1577  0.1783
 5471SOL     OW27871   0.661   0.697   7.777  0.4205  0.0683  0.5120
 5471SOL    HW127872   0.739   0.643   7.767 -1.4383 -2.9700  2.1250
 5471SOL    HW227873   0.668   0.759   7.704  3.2407 -3.3445 -2.0811
 5472SOL     OW27874   4.472   4.409   3.111  0.1413 -0.1136  0.3511
 5472SOL    HW127875   4.526   4.460   3.172  1.6999 -0.2287 -0.8998
 5472SOL    HW227876   4.389   4.413   3.158 -0.6296  1.1226 -1.1035
 5473SOL     OW27877   0.808   0.878   6.276 -0.5983  0.1379  0.4434
 5473SOL    HW127878   0.850   0.837   6.352 -1.3262 -0.6578  0.4149
 5473SOL    HW227879   0.800   0.797   6.225 -0.8750 -0.7244  1.8431
 5474SOL     OW27880   4.437   2.017  14.258  0.2204  0.4242  0.3276
 5474SOL    HW127881   4.377   2.014  14.183  1.2218 -0.9274 -0.4212
 5474SOL    HW227882   4.472   2.105  14.247  0.0217  0.5117  0.4018
 5475SOL     OW27883   0.059   3.237   8.771  0.1555 -0.0007  0.7521
 5475SOL    HW127884   0.113   3.309   8.804 -0.3599  0.8224 -0.2295
 5475SOL    HW227885   4.702   3.283   8.773 -0.6538 -1.4670  0.3201
 5476SOL     OW27886   3.152   1.566  16.019 -0.1130 -0.3478 -0.1936
 5476SOL    HW127887   3.178   1.492  15.964 -0.1298 -0.3273 -0.2296
 5476SOL    HW227888   3.241   1.594  16.041 -1.0253  0.4491  2.4385
 5477SOL     OW27889   3.905   3.279  15.451 -0.0610 -0.4284 -0.0667
 5477SOL    HW127890   3.915   3.245  15.362 -0.9827  0.1947 -0.4129
 5477SOL    HW227891   3.942   3.203  15.496  0.5240 -2.2138 -3.5510
 5478SOL     OW27892   0.310   4.521   1.794 -0.3488  0.1144  0.1115
 5478SOL    HW127893   0.400   4.553   1.795 -0.1613 -0.4374  0.6614
 5478SOL    HW227894   0.264   4.568   1.864  2.1965  2.5314  0.1688
 5479SOL     OW27895   0.842   0.200   0.461 -0.3277  0.4147 -1.0233
 5479SOL    HW127896   0.786   0.123   0.463  2.1645 -1.3389  1.7060
 5479SOL    HW227897   0.809   0.258   0.530 -0.0780  0.6292 -1.0845
 5480SOL     OW27898   3.098   1.298   1.031  0.5124  0.4264  0.6074
 5480SOL    HW127899   3.017   1.331   1.069 -1.0144 -3.0985  0.4546
 5480SOL    HW227900   3.148   1.273   1.109  0.1529 -0.8678  0.4268
 5481SOL     OW27901   3.331   4.645  12.723 -0.4054  0.7884  0.1651
 5481SOL    HW127902   3.285   4.629  12.806 -1.8359  0.0807 -0.7833
 5481SOL    HW227903   3.313   4.561  12.681 -0.6347  0.6056  0.6244
 5482SOL     OW27904   3.378   0.029   1.939  0.1497  0.1711 -0.4847
 5482SOL    HW127905   3.402   4.667   1.964  0.2296 -0.3609 -2.4580
 5482SOL    HW227906   3.461   0.074   1.953 -1.1696  2.4657 -0.1125
 5483SOL     OW27907   1.678   0.113   8.107  0.6567 -0.4247  0.0619
 5483SOL    HW127908   1.737   0.188   8.118  0.5110 -0.2633 -0.2580
 5483SOL    HW227909   1.611   0.134   8.041  0.4483 -2.1706 -0.2835
 5484SOL     OW27910   4.064   3.927  14.267  0.4870 -0.0003 -0.1938
 5484SOL    HW127911   4.062   3.946  14.361 -2.7825 -1.3857  0.0221
 5484SOL    HW227912   4.152   3.959  14.248  0.3083 -0.0272 -1.0882
 5485SOL     OW27913   1.231   4.335   2.924  0.3443 -0.2803  0.0681
 5485SOL    HW127914   1.248   4.414   2.976 -0.4181 -1.0032  1.4243
 5485SOL    HW227915   1.230   4.269   2.993  2.3789 -3.5611 -3.0334
 5486SOL     OW27916   4.233   3.613   6.368 -0.6682 -0.3917 -0.0075
 5486SOL    HW127917   4.150   3.624   6.414 -0.8773  0.5397 -0.6076
 5486SOL    HW227918   4.216   3.523   6.337 -0.5971 -0.9860  1.6815
 5487SOL     OW27919   1.692   0.680  15.643  0.4630 -0.0838  0.4770
 5487SOL    HW127920   1.700   0.775  15.654  0.9202 -0.1822  0.9497
 5487SOL    HW227921   1.777   0.639  15.658  0.6167 -0.2870 -0.8792
 5488SOL     OW27922   1.622   1.158  14.965 -0.4892 -0.4695  0.2247
 5488SOL    HW127923   1.580   1.118  14.889  1.5471  0.5157 -1.4151
 5488SOL    HW227924   1.617   1.251  14.944  1.6779 -0.7204 -1.4219
 5489SOL     OW27925   1.873   2.490   3.702  0.3854  0.7384  0.2426
 5489SOL    HW127926   1.787   2.533   3.699  1.2902  2.4045 -2.5970
 5489SOL    HW227927   1.837   2.417   3.752 -0.0433 -1.2146 -2.9261
 5490SOL     OW27928   4.576   3.736   8.650 -0.2752 -0.3749 -0.3617
 5490SOL    HW127929   4.585   3.700   8.562 -2.2467 -0.9941 -0.2963
 5490SOL    HW227930   4.516   3.808   8.632 -0.6661 -1.5939 -3.9393
 5491SOL     OW27931   0.126   3.131  16.151 -0.5278  0.6046  0.5874
 5491SOL    HW127932   0.173   3.059  16.110  0.1113  0.5374  1.4487
 5491SOL    HW227933   0.096   3.187  16.079  1.3224  2.0259  0.9180
 5492SOL     OW27934   2.817   3.790   1.548  0.3412  0.7404  0.4305
 5492SOL    HW127935   2.889   3.839   1.587 -1.6356  1.8400  2.6915
 5492SOL    HW227936   2.857   3.727   1.489 -0.8266 -0.6080  1.0942
 5493SOL     OW27937   0.328   4.000   7.372  0.1612 -0.0235 -0.2679
 5493SOL    HW127938   0.283   4.049   7.441 -0.7140 -2.1965  0.7253
 5493SOL    HW227939   0.278   4.029   7.297 -1.2188  0.3364  0.7972
 5494SOL     OW27940   0.053   1.281   2.560  0.4319 -0.3250 -0.0358
 5494SOL    HW127941   0.018   1.368   2.543  0.7062  0.2552  2.4238
 5494SOL    HW227942   0.005   1.218   2.505 -0.5138 -0.8949  1.4174
 5495SOL     OW27943   3.499   0.042   3.055 -0.2419  0.5260  0.5119
 5495SOL    HW127944   3.469   4.715   3.128  0.5035  2.0054  1.9293
 5495SOL    HW227945   3.453   0.000   2.983  0.8049 -0.3053  0.3297
 5496SOL     OW27946   1.108   1.845   9.715 -0.3063  0.0306  0.2773
 5496SOL    HW127947   1.083   1.929   9.755  0.8237  0.8693 -0.7708
 5496SOL    HW227948   1.193   1.864   9.674  0.6092 -0.3135  1.9987
 5497SOL     OW27949   2.681   1.367   7.275  0.7005 -0.2599  0.0650
 5497SOL    HW127950   2.648   1.456   7.286 -1.0343 -0.6132 -2.2925
 5497SOL    HW227951   2.770   1.392   7.249 -0.3478  1.3547 -2.0010
 5498SOL     OW27952   3.185   0.891   3.027  0.0139  0.1320  0.0440
 5498SOL    HW127953   3.247   0.875   2.956 -0.3141 -0.7630 -0.0435
 5498SOL    HW227954   3.117   0.931   2.972  0.4952 -0.9729 -1.3754
 5499SOL     OW27955   0.754   0.625   0.153  0.4954  0.1700 -0.6150
 5499SOL    HW127956   0.667   0.587   0.165  0.1622  1.1055 -0.1106
 5499SOL    HW227957   0.763   0.692   0.221  0.0414 -2.8780  2.4455
 5500SOL     OW27958   3.952   1.958  16.639  0.1684  0.7811  0.1952
 5500SOL    HW127959   3.909   1.879  16.672 -0.3369  0.6217 -0.8650
 5500SOL    HW227960   3.966   2.001  16.724  1.3880  2.9682 -1.1017
 5501SOL     OW27961   0.861   2.094   8.710 -0.4820 -0.5705  0.3988
 5501SOL    HW127962   0.836   2.132   8.794 -1.3015  1.8616 -0.9544
 5501SOL    HW227963   0.956   2.085   8.726 -0.2978  0.0224 -0.3833
 5502SOL     OW27964   2.672   1.457  15.813 -1.0722  0.3346  0.2133
 5502SOL    HW127965   2.651   1.394  15.744 -0.2569  3.3365 -2.7936
 5502SOL    HW227966   2.709   1.528  15.762 -0.7252 -0.9079 -1.2637
 5503SOL     OW27967   3.145   0.050  15.089  0.1289 -0.0186  0.0697
 5503SOL    HW127968   3.214   0.004  15.138 -0.1135  1.8111  2.1233
 5503SOL    HW227969   3.068   0.010  15.128 -0.9090  1.3250 -0.5863
 5504SOL     OW27970   3.373   0.889   0.279  0.0125  0.5422  0.6399
 5504SOL    HW127971   3.356   0.981   0.299 -1.1792 -0.0761  2.4163
 5504SOL    HW227972   3.285   0.854   0.274 -0.3513  1.5892 -0.5645
 5505SOL     OW27973   4.598   2.084   2.623  0.2910  0.3962 -0.1878
 5505SOL    HW127974   4.595   2.012   2.560 -0.8120 -0.5876  1.0194
 5505SOL    HW227975   4.549   2.147   2.570 -0.5796  1.7103  2.1769
 5506SOL     OW27976   3.668   0.221   8.016 -0.3647  0.4240 -0.3277
 5506SOL    HW127977   3.622   0.302   8.041 -1.5174  0.0260 -1.1572
 5506SOL    HW227978   3.732   0.237   7.948 -0.5758  0.1931 -0.5802
 5507SOL     OW27979   0.975   0.361   5.697 -0.0089  0.1375  0.2559
 5507SOL    HW127980   0.972   0.432   5.633 -1.2669 -1.7194 -1.7166
 5507SOL    HW227981   0.886   0.357   5.734 -0.2155  0.6457 -0.1822
 5508SOL     OW27982   2.453   1.423   5.898 -0.6477 -0.3501  0.3389
 5508SOL    HW127983   2.429   1.345   5.847  4.0822 -1.6906  0.1444
 5508SOL    HW227984   2.547   1.408   5.889 -0.0770  3.7694 -0.6327
 5509SOL     OW27985   0.061   1.448   6.745  0.2396  0.2634 -0.1002
 5509SOL    HW127986   0.123   1.387   6.707 -1.5090 -0.3044 -1.9972
 5509SOL    HW227987   0.096   1.439   6.834 -1.4366 -2.9335  0.2271
 5510SOL     OW27988   1.932   0.872   6.194 -0.0341 -0.4211 -0.0784
 5510SOL    HW127989   1.935   0.788   6.148 -0.0629  0.2073 -1.2306
 5510SOL    HW227990   1.943   0.930   6.118  0.1867 -1.5434 -0.8915
 5511SOL     OW27991   2.200   3.932   9.114 -0.0120  0.0005 -0.5095
 5511SOL    HW127992   2.114   3.912   9.077  1.0824 -0.8582 -2.5578
 5511SOL    HW227993   2.204   4.028   9.111  0.5400  0.0261  0.9801
 5512SOL     OW27994   2.729   3.509   2.460 -0.0684 -0.3049 -0.5129
 5512SOL    HW127995   2.791   3.480   2.393  2.4860  0.7226  1.4292
 5512SOL    HW227996   2.729   3.431   2.516 -1.1940 -0.4480 -0.7136
 5513SOL     OW27997   0.680   0.390   3.840 -0.1110 -0.2962 -0.0423
 5513SOL    HW127998   0.758   0.357   3.794  0.7712 -0.2624  1.4308
 5513SOL    HW227999   0.619   0.371   3.768 -0.5739 -0.9189  0.5108
 5514SOL     OW28000   1.732   3.072   2.160  0.4877 -0.3634  0.2642
 5514SOL    HW128001   1.652   3.124   2.170  0.2740 -0.5285 -0.5921
 5514SOL    HW228002   1.758   3.071   2.252  1.2761  0.8429  0.0635
 5515SOL     OW28003   2.016   1.590  11.832  0.0896 -0.2765 -0.2313
 5515SOL    HW128004   2.043   1.557  11.918 -1.4651  1.2041  0.8284
 5515SOL    HW228005   1.959   1.520  11.801  0.0474 -0.1814 -0.3680
 5516SOL     OW28006   0.853   3.779   6.471  0.1598 -0.4209 -0.0952
 5516SOL    HW128007   0.761   3.756   6.458  0.5329 -1.8734 -0.1558
 5516SOL    HW228008   0.867   3.779   6.566 -1.0928  2.4896  0.0797
 5517SOL     OW28009   1.894   3.562  15.229 -0.5040  0.3689 -0.3229
 5517SOL    HW128010   1.966   3.593  15.174  1.0743  0.4805  1.8409
 5517SOL    HW228011   1.823   3.612  15.188  0.2645  0.5118 -1.4852
 5518SOL     OW28012   3.990   0.436   4.280 -0.4229 -0.3690  0.2058
 5518SOL    HW128013   3.930   0.381   4.330 -1.1094  0.8061  0.6703
 5518SOL    HW228014   4.075   0.395   4.298 -1.1079 -1.7998  0.1754
 5519SOL     OW28015   4.589   0.340   3.938  0.0724  0.3721 -0.3313
 5519SOL    HW128016   4.607   0.262   3.990 -0.3262  1.2921  1.1722
 5519SOL    HW228017   4.529   0.394   3.989 -1.1143 -1.4991  0.2520
 5520SOL     OW28018   3.606   1.746   3.718 -0.0228 -0.2073  0.2246
 5520SOL    HW128019   3.637   1.700   3.640  1.7061 -0.6223  1.1715
 5520SOL    HW228020   3.601   1.675   3.781  0.7695 -0.2048  0.2863
 5521SOL     OW28021   4.317   4.249   8.682  0.3477  0.2880  0.2577
 5521SOL    HW128022   4.352   4.326   8.638 -1.5154  1.5326  0.9785
 5521SOL    HW228023   4.325   4.277   8.773 -2.7992 -2.0085  1.2462
 5522SOL     OW28024   1.680   0.231   1.788 -0.0816 -0.2270  0.1159
 5522SOL    HW128025   1.692   0.255   1.880 -2.3409  2.8500 -0.3795
 5522SOL    HW228026   1.739   0.156   1.783  0.7702  0.5503 -1.6628
 5523SOL     OW28027   2.155   2.565   3.716  0.0939 -0.4623  0.5470
 5523SOL    HW128028   2.063   2.543   3.699 -1.0303  3.0441  2.0230
 5523SOL    HW228029   2.147   2.657   3.690 -0.8321 -0.7880 -0.2887
 5524SOL     OW28030   2.068   4.430  12.949 -0.2896  0.1255  0.0426
 5524SOL    HW128031   2.002   4.375  12.992 -0.7168  1.6566  1.3226
 5524SOL    HW228032   2.137   4.425  13.015  0.0112  2.1548 -0.1250
 5525SOL     OW28033   2.332   4.642   8.975  0.3788  0.4250  0.5836
 5525SOL    HW128034   2.251   4.631   9.025  0.8323  1.1373  1.4961
 5525SOL    HW228035   2.316   0.008   8.958 -1.4471 -0.0429 -0.2689
 5526SOL     OW28036   3.182   1.863   5.265  0.2280  0.1604 -0.3020
 5526SOL    HW128037   3.272   1.831   5.270  0.0914 -0.1778 -0.0401
 5526SOL    HW228038   3.180   1.926   5.337 -1.5426  0.9573 -1.0402
 5527SOL     OW28039   0.870   1.425  11.884 -0.6819  0.4275 -0.3554
 5527SOL    HW128040   0.921   1.431  11.804  1.3833 -2.8327  0.7228
 5527SOL    HW228041   0.785   1.397  11.851 -0.5211 -0.8296  0.2903
 5528SOL     OW28042   0.476   1.485   7.291  0.2721  0.0838 -0.5724
 5528SOL    HW128043   0.549   1.512   7.348 -1.5358  0.3285  1.6277
 5528SOL    HW228044   0.411   1.439   7.343  0.9992  0.1162  0.3700
 5529SOL     OW28045   3.802   4.354   8.120  0.8733 -0.0446  0.3062
 5529SOL    HW128046   3.740   4.387   8.056 -0.0911  0.4084  1.4606
 5529SOL    HW228047   3.853   4.294   8.066  1.0513  0.0385  0.3797
 5530SOL     OW28048   2.831   4.067   8.994  0.6518 -0.0643  0.3067
 5530SOL    HW128049   2.767   4.014   9.042  0.4176  1.1428  1.3157
 5530SOL    HW228050   2.816   4.018   8.913  0.0653  1.7898 -0.7178
 5531SOL     OW28051   1.186   1.647  14.035 -0.2280  0.7671 -0.1151
 5531SOL    HW128052   1.117   1.633  14.099  0.6302 -0.1177  0.6284
 5531SOL    HW228053   1.188   1.742  14.045 -0.8891  0.7318  0.3372
 5532SOL     OW28054   3.585   2.211   1.843 -0.1278 -0.3995 -0.5408
 5532SOL    HW128055   3.552   2.160   1.770  1.8602 -1.4550 -0.7162
 5532SOL    HW228056   3.680   2.199   1.831  0.4389  1.3689  2.1751
 5533SOL     OW28057   0.004   3.230  13.686  0.0630 -0.2024 -0.3380
 5533SOL    HW128058   4.649   3.198  13.722 -0.2517  2.7949  1.6383
 5533SOL    HW228059   0.001   3.186  13.602 -1.1181 -0.1286 -0.3385
 5534SOL     OW28060   0.120   3.059   5.412 -0.7364  0.2128 -0.4561
 5534SOL    HW128061   0.075   2.990   5.363 -0.5946 -0.0065 -0.2771
 5534SOL    HW228062   0.210   3.030   5.427 -0.4879  1.9085  1.2855
 5535SOL     OW28063   4.627   1.448   1.519  0.2417  0.2656  0.3929
 5535SOL    HW128064   4.648   1.373   1.575 -0.3276  1.1449  1.7944
 5535SOL    HW228065   4.546   1.477   1.561  0.3117  0.6108  0.2887
 5536SOL     OW28066   3.690   0.697   0.923  0.8237  0.1659  0.2532
 5536SOL    HW128067   3.704   0.681   1.016 -1.1910 -0.2768  0.4802
 5536SOL    HW228068   3.664   0.608   0.896  0.9388  0.1298  0.2609
 5537SOL     OW28069   4.514   2.641  17.411 -0.6027  0.0862  0.2266
 5537SOL    HW128070   4.487   2.706  17.347  1.0575 -0.4599 -1.0026
 5537SOL    HW228071   4.571   2.687  17.472 -1.8353 -0.7850  2.0647
 5538SOL     OW28072   3.059   1.236   9.364  0.2211  0.0138  0.3991
 5538SOL    HW128073   3.038   1.161   9.419  1.0018 -0.1321  0.4909
 5538SOL    HW228074   3.151   1.251   9.386  0.4092 -0.6738  0.0605
 5539SOL     OW28075   3.030   4.228  10.674 -0.2117 -0.5663  0.0573
 5539SOL    HW128076   2.991   4.161  10.617  0.5384 -1.8857  1.0837
 5539SOL    HW228077   2.977   4.304  10.650  1.3117  0.4473 -0.1095
 5540SOL     OW28078   1.193   3.637   5.340 -0.3583  0.1358 -0.4873
 5540SOL    HW128079   1.111   3.672   5.306 -0.4288  1.1156  0.6992
 5540SOL    HW228080   1.167   3.631   5.432  0.0763 -0.5833 -0.4131
 5541SOL     OW28081   3.013   4.403   3.939 -0.1049  0.3443  0.4280
 5541SOL    HW128082   3.059   4.381   3.857 -1.7451 -2.4075  0.2343
 5541SOL    HW228083   2.980   4.492   3.923 -2.5622 -0.8811 -1.3320
 5542SOL     OW28084   0.058   4.704   1.712 -0.2382  0.3133 -0.6515
 5542SOL    HW128085   0.023   4.618   1.734 -0.3250  1.0961  2.2393
 5542SOL    HW228086   4.702   0.022   1.701 -0.2789  1.0510  2.8255
 5543SOL     OW28087   2.891   2.079  12.866  0.3476 -0.2578  0.1660
 5543SOL    HW128088   2.879   2.000  12.919  1.4989  0.4921  1.5735
 5543SOL    HW228089   2.850   2.053  12.784  0.3287  0.5956 -0.0990
 5544SOL     OW28090   1.830   1.292   2.268 -0.2713 -0.5922 -0.3693
 5544SOL    HW128091   1.855   1.266   2.357  0.8486  0.3359 -0.4041
 5544SOL    HW228092   1.905   1.253   2.223  1.6540  0.8384  1.6157
 5545SOL     OW28093   2.200   3.530   1.977 -0.1401 -0.0543  1.0700
 5545SOL    HW128094   2.230   3.490   1.896 -0.0545 -0.6927  1.4157
 5545SOL    HW228095   2.125   3.579   1.942 -0.0943 -0.5826  0.2343
 5546SOL     OW28096   3.787   3.016   7.757 -0.3085  0.2472 -0.3087
 5546SOL    HW128097   3.814   2.996   7.667 -1.7701  1.5881 -1.0399
 5546SOL    HW228098   3.851   2.966   7.807 -1.5669 -1.6235 -0.5165
 5547SOL     OW28099   2.407   0.871  10.890  0.0978 -0.4790  0.4305
 5547SOL    HW128100   2.479   0.894  10.949  1.2332  0.0519 -1.1566
 5547SOL    HW228101   2.378   0.787  10.925  1.8580  0.2778  3.6611
 5548SOL     OW28102   1.858   2.186   4.204 -0.6846  0.4262 -0.1896
 5548SOL    HW128103   1.833   2.264   4.253  2.9827  1.0023  0.7217
 5548SOL    HW228104   1.933   2.208   4.149 -0.5463  0.6772  0.1032
 5549SOL     OW28105   0.787   0.924   8.829 -0.6746  0.0958 -1.0141
 5549SOL    HW128106   0.718   0.879   8.877  0.8438 -0.2784  0.8340
 5549SOL    HW228107   0.765   1.009   8.867  0.7873 -1.1308  2.5327
 5550SOL     OW28108   3.676   2.172   8.603  0.4064 -0.0033  0.8707
 5550SOL    HW128109   3.659   2.191   8.696  1.7018  1.2040  0.8746
 5550SOL    HW228110   3.750   2.232   8.591 -0.5361  0.4556 -2.5532
 5551SOL     OW28111   4.208   1.441   5.350  0.0244 -0.6495  0.4690
 5551SOL    HW128112   4.283   1.389   5.319 -0.3421 -0.4239 -0.8014
 5551SOL    HW228113   4.252   1.524   5.368 -1.4294  0.7944 -2.6584
 5552SOL     OW28114   4.443   0.424   8.018 -0.3853 -0.0408  0.3344
 5552SOL    HW128115   4.381   0.393   8.084  2.9581 -2.6146  2.2889
 5552SOL    HW228116   4.392   0.493   7.975  1.3332  1.2689  0.3944
 5553SOL     OW28117   4.587   2.364   8.905  0.4008 -0.2167  0.5191
 5553SOL    HW128118   4.580   2.308   8.828 -1.7476 -1.1508  1.3970
 5553SOL    HW228119   4.499   2.358   8.942 -0.0044  0.0722 -0.4150
 5554SOL     OW28120   2.380   4.290   7.358  0.0970 -0.1545  0.3594
 5554SOL    HW128121   2.391   4.259   7.448  0.4549 -1.1620 -0.0298
 5554SOL    HW228122   2.337   4.375   7.370  2.1403  0.8526  0.5013
 5555SOL     OW28123   1.111   4.532   4.990 -0.2346 -0.6812  0.1585
 5555SOL    HW128124   1.185   4.550   4.932 -0.3129  1.5710  0.7646
 5555SOL    HW228125   1.037   4.576   4.948 -0.5643 -2.2621 -0.9067
 5556SOL     OW28126   2.269   2.120   9.511 -0.2764  0.5501  0.3832
 5556SOL    HW128127   2.262   2.032   9.548  1.9275 -0.7074 -2.2271
 5556SOL    HW228128   2.256   2.103   9.417 -2.6505  0.5189  0.7185
 5557SOL     OW28129   1.995   4.057  15.846  0.3002  1.6236  0.2290
 5557SOL    HW128130   2.017   4.099  15.763  0.3214  0.5542 -0.3039
 5557SOL    HW228131   2.037   4.119  15.906  0.3946  0.8592  0.9462
 5558SOL     OW28132   3.868   0.400   8.589 -0.2814  0.2112 -0.5530
 5558SOL    HW128133   3.902   0.488   8.572  1.8353 -0.9407 -2.2493
 5558SOL    HW228134   3.843   0.395   8.681 -0.2277  0.7213 -0.5116
 5559SOL     OW28135   0.438   4.471   4.429 -0.3907  0.0205 -0.1012
 5559SOL    HW128136   0.364   4.412   4.440 -0.9649  1.2699  2.7355
 5559SOL    HW228137   0.440   4.466   4.333 -0.4912 -0.6085 -0.0713
 5560SOL     OW28138   3.543   1.827  13.213  0.7085  0.2221 -0.3117
 5560SOL    HW128139   3.492   1.903  13.241  0.2052 -0.1632 -0.1858
 5560SOL    HW228140   3.562   1.780  13.294 -0.5997 -0.8605 -0.6395
 5561SOL     OW28141   3.201   1.590   1.637  0.7601 -0.4905  0.0636
 5561SOL    HW128142   3.211   1.633   1.552  3.2767 -0.9071  0.1328
 5561SOL    HW228143   3.228   1.660   1.696  0.9551  0.9126 -1.6968
 5562SOL     OW28144   0.938   0.366   8.480 -0.0786 -0.0055 -0.2411
 5562SOL    HW128145   0.858   0.351   8.530  1.4430 -0.5191  2.0318
 5562SOL    HW228146   0.996   0.297   8.512  0.5990 -0.0583 -1.5556
 5563SOL     OW28147   0.697   1.973   2.372 -0.4767 -0.4393 -0.3148
 5563SOL    HW128148   0.767   2.033   2.350 -0.5867 -1.0208 -2.2806
 5563SOL    HW228149   0.679   2.010   2.458 -0.5547 -0.7103 -0.2136
 5564SOL     OW28150   1.581   2.989   7.956 -0.2337 -0.6687  0.1426
 5564SOL    HW128151   1.504   2.979   8.011 -0.5186  1.2405  0.0993
 5564SOL    HW228152   1.636   3.042   8.014 -0.3975 -0.9921  0.5891
 5565SOL     OW28153   0.379   3.242   9.155  0.0148 -0.4535 -0.2532
 5565SOL    HW128154   0.337   3.179   9.214  0.6608  0.5762  1.3054
 5565SOL    HW228155   0.385   3.197   9.071 -1.3344  1.2377 -1.2538
 5566SOL     OW28156   0.893   1.043  16.685 -0.9936  0.1154  0.2963
 5566SOL    HW128157   0.842   1.064  16.763 -2.0012 -0.8335 -0.0999
 5566SOL    HW228158   0.980   1.034  16.723 -1.2169  0.5837  0.9183
 5567SOL     OW28159   2.009   0.430   1.248 -0.0224  0.3547 -0.0533
 5567SOL    HW128160   1.977   0.342   1.271 -0.6652  0.0573 -2.1195
 5567SOL    HW228161   2.010   0.473   1.333 -1.8302 -1.5257  0.9328
 5568SOL     OW28162   3.478   4.415  12.545  0.2154  0.1645 -0.2031
 5568SOL    HW128163   3.501   4.394  12.636  2.5990  1.1090 -0.5809
 5568SOL    HW228164   3.384   4.403  12.559  0.7165 -3.1050  0.2551
 5569SOL     OW28165   4.064   1.960   5.601 -0.0498  0.1660  0.0180
 5569SOL    HW128166   4.143   1.995   5.560  0.0291 -1.0387 -0.8414
 5569SOL    HW228167   4.022   2.037   5.641  1.3323  0.0991  1.5691
 5570SOL     OW28168   3.925   1.498   6.455 -0.1197  0.1330 -0.7717
 5570SOL    HW128169   3.992   1.551   6.498  0.5268 -1.6208  0.4331
 5570SOL    HW228170   3.851   1.557   6.458 -0.2691 -0.0265 -1.3871
 5571SOL     OW28171   2.609   0.933   6.171 -0.3940 -0.1097  0.5490
 5571SOL    HW128172   2.634   0.892   6.089 -1.3372  0.8234 -0.1957
 5571SOL    HW228173   2.680   0.997   6.179 -0.6670  0.2666 -0.0277
 5572SOL     OW28174   3.725   0.646   6.952 -0.3730 -0.1085  0.3075
 5572SOL    HW128175   3.657   0.639   7.019 -0.4387  3.0095  0.5350
 5572SOL    HW228176   3.668   0.668   6.878  0.9291  2.3646  0.0578
 5573SOL     OW28177   0.705   0.463   8.554  0.7733  0.2766 -0.0388
 5573SOL    HW128178   0.691   0.530   8.487  0.7071  0.1167 -0.1838
 5573SOL    HW228179   0.634   0.409   8.519 -0.0795  2.0417 -1.0728
 5574SOL     OW28180   4.485   2.825  15.844 -0.2225  0.0985 -0.3369
 5574SOL    HW128181   4.431   2.890  15.889  1.6835  1.1011  0.5291
 5574SOL    HW228182   4.526   2.784  15.921  1.4051  2.2801 -0.0364
 5575SOL     OW28183   4.640   4.528   7.322 -0.2111  0.0237 -0.1377
 5575SOL    HW128184   4.553   4.548   7.287 -0.2906 -0.3294 -0.1437
 5575SOL    HW228185   4.636   4.600   7.384 -1.6857  0.1501 -0.3780
 5576SOL     OW28186   3.534   3.590   2.149  0.4714 -0.3885  0.4315
 5576SOL    HW128187   3.566   3.589   2.240  1.1966 -0.9450  0.1738
 5576SOL    HW228188   3.606   3.543   2.108 -0.7263 -2.2106  0.4093
 5577SOL     OW28189   1.607   4.094   6.580 -0.4992  0.2419  0.3590
 5577SOL    HW128190   1.687   4.063   6.537 -0.5016  0.5117  0.1569
 5577SOL    HW228191   1.599   4.186   6.553  1.2759  0.9160  2.0894
 5578SOL     OW28192   3.900   3.359   0.028  0.2318 -0.1023 -0.2974
 5578SOL    HW128193   3.919   3.447  17.707  2.7278  0.7508  3.5291
 5578SOL    HW228194   3.804   3.357   0.030  0.2849 -0.5135  1.7018
 5579SOL     OW28195   4.399   0.228  11.893  0.3061 -0.2517  0.1253
 5579SOL    HW128196   4.478   0.236  11.839  0.5643  0.4476  0.6067
 5579SOL    HW228197   4.411   0.134  11.905  1.5221 -0.1744 -0.4601
 5580SOL     OW28198   2.051   0.999  17.685  0.0250 -0.0822  0.8423
 5580SOL    HW128199   1.977   0.941  17.668  1.0246 -0.4070 -2.4461
 5580SOL    HW228200   2.087   1.003  17.596  0.1060  1.9418  0.9642
 5581SOL     OW28201   1.366   1.983   9.177 -0.2403 -0.0266  0.0040
 5581SOL    HW128202   1.365   2.030   9.260  0.6416 -0.2187  0.1231
 5581SOL    HW228203   1.442   1.924   9.180 -0.1780 -0.0591 -1.9455
 5582SOL     OW28204   1.019   3.518   8.010  1.3283 -0.1472  0.1762
 5582SOL    HW128205   0.937   3.471   8.026  0.6488  1.3548  1.0847
 5582SOL    HW228206   0.994   3.565   7.931  0.2443 -1.8531 -0.4973
 5583SOL     OW28207   3.250   1.654   5.989  0.0787 -0.8719 -0.5877
 5583SOL    HW128208   3.340   1.628   6.008  0.7125 -0.2614 -2.8821
 5583SOL    HW228209   3.246   1.735   6.040  1.7126 -1.6193  0.7337
 5584SOL     OW28210   0.264   2.533   5.835 -0.1420 -0.2744  0.4583
 5584SOL    HW128211   0.347   2.494   5.807 -1.3225 -4.5049  2.8530
 5584SOL    HW228212   0.307   2.610   5.871  1.8593 -1.5924  0.9022
 5585SOL     OW28213   2.910   3.651   2.072 -0.0685 -0.0595  0.1166
 5585SOL    HW128214   2.851   3.576   2.064 -0.0877 -0.1627  1.2670
 5585SOL    HW228215   2.938   3.636   1.982  0.0240  0.3563  0.0762
 5586SOL     OW28216   1.963   0.086   0.220 -0.5773  0.6682 -0.0332
 5586SOL    HW128217   2.040   0.084   0.163  1.3407  2.2201  2.4945
 5586SOL    HW228218   1.981   0.173   0.257 -2.0525 -0.5928  3.6199
 5587SOL     OW28219   4.072   1.641  10.407 -0.8364 -1.3308  0.1618
 5587SOL    HW128220   3.999   1.580  10.403  0.5795 -2.9998 -0.3601
 5587SOL    HW228221   4.028   1.726  10.412  0.3790 -0.8560  2.4034
 5588SOL     OW28222   1.851   2.658   1.327 -0.1621 -0.7222 -0.6375
 5588SOL    HW128223   1.862   2.724   1.396 -0.3441 -0.8260 -0.5079
 5588SOL    HW228224   1.904   2.587   1.363  0.6636  0.4442  0.4501
 5589SOL     OW28225   0.892   0.817  17.677 -0.1472 -0.5688  0.1248
 5589SOL    HW128226   0.884   0.795  17.584 -0.5271  1.0229 -0.2265
 5589SOL    HW228227   0.826   0.760   0.005 -0.7956  1.2536  1.7118
 5590SOL     OW28228   0.455   2.277   2.353 -0.3283 -0.6968  0.4997
 5590SOL    HW128229   0.491   2.275   2.264 -0.3811 -0.4945  0.4735
 5590SOL    HW228230   0.410   2.361   2.349  1.1489  0.1599  1.6919
 5591SOL     OW28231   2.066   4.533   4.108  0.1962  0.0261  0.0298
 5591SOL    HW128232   2.100   4.499   4.025 -1.3056 -1.6793  0.1181
 5591SOL    HW228233   2.123   4.605   4.132 -1.2967  1.6856 -1.4271
 5592SOL     OW28234   4.226   3.813  14.027 -0.4013 -0.2122  0.4514
 5592SOL    HW128235   4.314   3.781  14.007 -0.3160 -0.1592  0.7275
 5592SOL    HW228236   4.238   3.862  14.109  1.0284 -0.6441  0.5008
 5593SOL     OW28237   4.652   1.638  17.043  0.1626  0.0743  0.1389
 5593SOL    HW128238   4.640   1.661  16.951  1.1234 -1.0800 -0.2643
 5593SOL    HW228239   0.004   1.585  17.046 -0.7941 -1.3909 -0.2514
 5594SOL     OW28240   3.641   3.611   2.396 -0.4200 -0.1108 -0.5277
 5594SOL    HW128241   3.726   3.587   2.432 -0.7111 -3.0605 -1.8039
 5594SOL    HW228242   3.617   3.676   2.461 -1.2510 -0.8643 -0.0835
 5595SOL     OW28243   3.255   4.303   1.818 -0.6427  0.0142 -0.4464
 5595SOL    HW128244   3.337   4.301   1.867 -0.4998  1.1782 -0.6335
 5595SOL    HW228245   3.209   4.365   1.876  0.4132 -0.5476  0.9965
 5596SOL     OW28246   0.837   0.244   2.675 -0.2442  0.6655 -0.3822
 5596SOL    HW128247   0.834   0.339   2.688 -1.5559  0.6168 -0.3155
 5596SOL    HW228248   0.927   0.237   2.642 -0.9318 -0.2320 -2.0552
 5597SOL     OW28249   4.304   3.332   7.585  0.6178  0.0426 -0.2932
 5597SOL    HW128250   4.332   3.241   7.594  0.7178  0.1425  0.4039
 5597SOL    HW228251   4.242   3.327   7.657 -1.1326 -1.9436 -1.9713
 5598SOL     OW28252   3.281   3.984   8.239 -0.5849 -0.0034  0.2024
 5598SOL    HW128253   3.193   4.019   8.247 -0.0836  0.8314  2.2090
 5598SOL    HW228254   3.283   3.927   8.316  0.0081  3.2087  2.5864
 5599SOL     OW28255   2.720   2.998   2.619  0.5855 -0.2454 -0.5012
 5599SOL    HW128256   2.712   2.904   2.604  3.4764 -0.1474 -2.6785
 5599SOL    HW228257   2.810   3.008   2.588  0.6173  1.5943  0.1556
 5600SOL     OW28258   3.563   2.294   7.482  0.1550  0.1587 -0.2432
 5600SOL    HW128259   3.507   2.370   7.496 -0.4026 -0.3533  0.3204
 5600SOL    HW228260   3.565   2.257   7.570  0.5712 -0.3273 -0.4509
 5601SOL     OW28261   2.727   2.682   3.184 -0.6383  0.2812 -0.0063
 5601SOL    HW128262   2.818   2.656   3.201 -0.5343  0.7480  0.1587
 5601SOL    HW228263   2.740   2.777   3.190  0.6240  0.0925  0.3501
 5602SOL     OW28264   4.037   0.882   9.836 -0.5728 -0.2019  0.5110
 5602SOL    HW128265   4.084   0.964   9.846  1.1287 -1.2499  1.0916
 5602SOL    HW228266   4.090   0.845   9.765 -1.4804 -0.0862 -0.2322
 5603SOL     OW28267   2.555   1.043   1.263 -0.0976  0.6797 -0.1992
 5603SOL    HW128268   2.477   1.075   1.217 -0.5057 -0.6383 -0.4046
 5603SOL    HW228269   2.565   1.116   1.324 -0.0348  0.6077 -0.1235
 5604SOL     OW28270   4.209   4.635   6.194  0.0970 -0.1464  0.1200
 5604SOL    HW128271   4.205   4.694   6.269  2.1579  0.5709 -0.3308
 5604SOL    HW228272   4.257   4.556   6.218 -0.0088 -0.4138 -0.5393
 5605SOL     OW28273   0.996   4.495   2.278 -0.7681 -0.5093 -0.3046
 5605SOL    HW128274   0.982   4.446   2.198 -1.6594 -1.5669  0.4974
 5605SOL    HW228275   0.995   4.586   2.249  0.4409 -0.8936 -1.5364
 5606SOL     OW28276   1.173   1.069   2.849 -0.4067  0.4078 -0.7690
 5606SOL    HW128277   1.092   1.026   2.819 -0.5619  1.6154 -2.0909
 5606SOL    HW228278   1.216   1.079   2.764  0.5415  1.3953 -0.1612
 5607SOL     OW28279   3.323   0.933  14.178  0.1725  0.1452 -0.7141
 5607SOL    HW128280   3.387   0.876  14.221 -1.2688 -1.6224 -0.9229
 5607SOL    HW228281   3.332   0.900  14.089  0.8552 -0.5925 -0.3643
 5608SOL     OW28282   3.733   0.912   3.773  0.1405  0.4724  0.0018
 5608SOL    HW128283   3.803   0.915   3.708 -0.6118  0.7065 -0.7980
 5608SOL    HW228284   3.771   0.935   3.858  0.8884  2.4225 -0.8516
 5609SOL     OW28285   3.321   3.583  15.025 -0.0674  0.3271  0.1983
 5609SOL    HW128286   3.310   3.635  15.105  3.1929  0.2388  0.7037
 5609SOL    HW228287   3.408   3.548  15.042 -0.4693 -0.4653  0.6505
 5610SOL     OW28288   2.819   4.260  11.005  0.0722 -0.5850 -0.0533
 5610SOL    HW128289   2.903   4.218  10.986 -0.2316 -1.0280 -0.4127
 5610SOL    HW228290   2.798   4.303  10.922 -1.6024  1.8351  1.6212
 5611SOL     OW28291   1.182   2.648   7.407  0.3026 -0.0496 -0.4651
 5611SOL    HW128292   1.099   2.692   7.429 -0.6352 -1.4077 -1.3329
 5611SOL    HW228293   1.241   2.713   7.447 -0.1610  0.7273 -1.0426
 5612SOL     OW28294   0.268   0.359   8.775  0.2598  0.2854 -0.0680
 5612SOL    HW128295   0.217   0.336   8.852  1.0942  0.2365  0.4676
 5612SOL    HW228296   0.248   0.453   8.778 -2.3026 -0.2212 -1.4087
 5613SOL     OW28297   0.703   0.915   6.662  0.2167 -0.5191  0.2264
 5613SOL    HW128298   0.724   0.956   6.746  0.9778  1.3256 -0.8577
 5613SOL    HW228299   0.712   0.992   6.606  0.5929 -1.0355 -0.4206
 5614SOL     OW28300   0.412   2.235   4.301  0.0820 -0.0288  0.3066
 5614SOL    HW128301   0.367   2.305   4.253 -1.6653 -1.2095  0.2414
 5614SOL    HW228302   0.480   2.296   4.330 -0.2646  0.9243 -0.9039
 5615SOL     OW28303   4.436   4.594   2.586  0.2126 -0.1831 -0.2835
 5615SOL    HW128304   4.356   4.553   2.620 -0.1744 -0.4302 -1.4904
 5615SOL    HW228305   4.489   4.574   2.662  0.7523  3.3550  0.3017
 5616SOL     OW28306   2.267   1.451   0.672 -0.0991  0.3063  0.2473
 5616SOL    HW128307   2.221   1.466   0.754 -0.0547  2.0981 -0.0418
 5616SOL    HW228308   2.353   1.429   0.708 -0.1178  0.6281  0.4958
 5617SOL     OW28309   1.318   4.672   3.863  0.2503 -0.3801  0.7630
 5617SOL    HW128310   1.347   4.623   3.786  0.7295 -0.4433  0.9824
 5617SOL    HW228311   1.223   4.657   3.864  0.2773 -0.5317  1.1479
 5618SOL     OW28312   2.710   2.505  10.446  0.2488 -0.2655  0.7249
 5618SOL    HW128313   2.749   2.592  10.456  0.8575 -0.6278  1.5311
 5618SOL    HW228314   2.789   2.454  10.426  0.5876  1.1544 -1.5813
 5619SOL     OW28315   1.548   4.368   2.307 -0.4203  0.1303 -0.4009
 5619SOL    HW128316   1.608   4.386   2.236  0.8139  0.8888  0.8364
 5619SOL    HW228317   1.497   4.298   2.266 -0.9390  1.2822 -1.7062
 5620SOL     OW28318   1.548   0.659   2.143 -0.1463 -0.0705  0.2640
 5620SOL    HW128319   1.610   0.685   2.212  0.3548 -3.3485  1.0202
 5620SOL    HW228320   1.569   0.723   2.074 -2.2121 -0.3106 -0.5720
 5621SOL     OW28321   1.665   2.445   2.572  0.2948  0.1044 -0.2525
 5621SOL    HW128322   1.672   2.506   2.646 -2.9111  0.0169  0.1287
 5621SOL    HW228323   1.681   2.502   2.497  1.6076  0.2215  0.1347
 5622SOL     OW28324   2.874   1.303   4.747  0.4250 -0.3888 -0.1674
 5622SOL    HW128325   2.843   1.390   4.720 -0.8284 -0.2181  1.9073
 5622SOL    HW228326   2.816   1.288   4.821 -0.4208  3.5083 -0.0029
 5623SOL     OW28327   4.424   1.498   7.585  0.3970 -0.7290 -0.6177
 5623SOL    HW128328   4.511   1.468   7.560  0.6335  0.1479 -0.8278
 5623SOL    HW228329   4.392   1.429   7.644 -0.6297  0.2225 -0.0571
 5624SOL     OW28330   1.704   3.932   5.491  0.0217 -0.1939  0.9216
 5624SOL    HW128331   1.648   3.987   5.546  0.1658  1.0781 -0.2201
 5624SOL    HW228332   1.672   3.959   5.405  0.5756 -1.2346  0.3964
 5625SOL     OW28333   1.370   2.641   4.160  0.2317  0.2627  0.3576
 5625SOL    HW128334   1.394   2.734   4.153 -0.8291  0.6536  1.9544
 5625SOL    HW228335   1.290   2.647   4.211 -0.0042  0.5513 -0.0531
 5626SOL     OW28336   2.588   4.373   6.263 -0.5488  0.0390  0.0483
 5626SOL    HW128337   2.643   4.312   6.213 -0.5574  0.8108 -0.8995
 5626SOL    HW228338   2.540   4.310   6.317 -0.0648  0.5617  1.1031
 5627SOL     OW28339   2.534   3.578   7.168 -0.3821  0.3972 -0.0482
 5627SOL    HW128340   2.508   3.550   7.256 -0.5832 -2.7466 -1.0974
 5627SOL    HW228341   2.618   3.533   7.164 -1.0810 -0.9013  0.0798
 5628SOL     OW28342   4.390   2.288  17.576 -0.2851  0.3099 -0.0096
 5628SOL    HW128343   4.390   2.352  17.504 -1.0826 -1.2575 -1.4087
 5628SOL    HW228344   4.373   2.344  17.652 -1.9671 -0.5524  0.2654
 5629SOL     OW28345   4.478   2.722  15.270  0.3174  0.3402  0.0932
 5629SOL    HW128346   4.496   2.815  15.282 -0.7149  0.3735  1.2264
 5629SOL    HW228347   4.410   2.734  15.204  0.4076 -1.4283 -0.3298
 5630SOL     OW28348   0.146   2.393   6.891 -0.6056 -0.0532  0.2869
 5630SOL    HW128349   0.090   2.316   6.895  0.6902 -1.0238 -0.1162
 5630SOL    HW228350   0.094   2.459   6.845 -0.1799  0.5879  0.7230
 5631SOL     OW28351   3.270   2.260   5.182 -0.2287  0.8311 -0.6414
 5631SOL    HW128352   3.304   2.171   5.187 -0.0449  0.9439  0.2297
 5631SOL    HW228353   3.351   2.309   5.197  1.6012 -2.0726 -1.0216
 5632SOL     OW28354   3.709   3.953   9.682  0.0346  0.0894 -0.1895
 5632SOL    HW128355   3.651   3.947   9.758  3.2895 -0.8285  2.2078
 5632SOL    HW228356   3.766   4.025   9.708  0.7038 -0.0764 -1.1928
 5633SOL     OW28357   3.394   3.814   8.027 -0.6657 -0.2439 -0.2766
 5633SOL    HW128358   3.362   3.723   8.033 -1.2232  0.1114  2.0820
 5633SOL    HW228359   3.330   3.867   8.075  2.2369  1.2541  1.9301
 5634SOL     OW28360   3.267   3.623  12.453 -0.3450 -0.0351  0.7685
 5634SOL    HW128361   3.248   3.544  12.402  1.6374 -0.5037  0.7661
 5634SOL    HW228362   3.360   3.612  12.473 -0.1335  0.4831  0.0550
 5635SOL     OW28363   2.906   1.287  16.111 -0.2286  0.5460 -0.0375
 5635SOL    HW128364   2.896   1.197  16.080 -0.3250  0.4737  0.2023
 5635SOL    HW228365   2.998   1.312  16.106  0.5140 -2.4647 -1.3319
 5636SOL     OW28366   0.847   0.207  13.896  0.2158 -0.3864 -0.1063
 5636SOL    HW128367   0.829   0.259  13.974  0.9139  0.6685 -0.6562
 5636SOL    HW228368   0.808   0.266  13.832  1.2169  0.1755 -0.1828
 5637SOL     OW28369   1.860   4.302  11.864 -0.3912  0.4487 -0.7490
 5637SOL    HW128370   1.852   4.277  11.772 -0.3413 -1.3015 -0.2623
 5637SOL    HW228371   1.923   4.241  11.900 -0.4398  0.1969 -1.0852
 5638SOL     OW28372   2.441   3.660  17.647  0.3588 -0.0628 -0.1636
 5638SOL    HW128373   2.408   3.660  17.557 -2.1099  0.4644  0.7502
 5638SOL    HW228374   2.410   3.581  17.690  0.8737 -1.3015 -2.0974
 5639SOL     OW28375   3.727   2.699   1.914  0.1154  0.3205  0.3229
 5639SOL    HW128376   3.666   2.631   1.943 -0.9001  1.4274  0.7406
 5639SOL    HW228377   3.785   2.643   1.861 -1.5509 -0.7761 -0.3516
 5640SOL     OW28378   2.856   1.914  15.147 -0.0582 -0.4946  0.3099
 5640SOL    HW128379   2.801   1.881  15.218  0.0637 -1.7132 -0.1547
 5640SOL    HW228380   2.792   1.944  15.083 -0.8662  1.0867  1.8783
 5641SOL     OW28381   3.349   3.812  14.510  0.0920  0.1666 -0.1620
 5641SOL    HW128382   3.385   3.815  14.599 -0.7224 -0.1233  0.1739
 5641SOL    HW228383   3.396   3.878  14.458 -0.4112  3.0542  3.0284
 5642SOL     OW28384   3.515   1.938  15.531  0.0793 -0.2956 -0.3641
 5642SOL    HW128385   3.494   1.854  15.574 -1.3018  0.4866  0.4869
 5642SOL    HW228386   3.555   1.987  15.603  2.8089 -1.0205 -1.4022
 5643SOL     OW28387   3.244   4.162  12.077  0.4144 -0.5698 -0.3670
 5643SOL    HW128388   3.181   4.125  12.015 -0.3772  0.4466 -0.1560
 5643SOL    HW228389   3.314   4.096  12.076  2.6512  1.8163  1.2478
 5644SOL     OW28390   3.940   4.473   9.598 -0.4758 -0.0360 -0.0894
 5644SOL    HW128391   3.943   4.551   9.543 -2.6402 -0.0106 -0.1922
 5644SOL    HW228392   3.870   4.491   9.662 -0.6805 -1.6957  0.1552
 5645SOL     OW28393   0.466   0.637   2.101 -0.7123  0.5173 -0.0546
 5645SOL    HW128394   0.413   0.561   2.077 -0.0243 -1.5288  4.8044
 5645SOL    HW228395   0.432   0.648   2.190 -1.5891  1.5354 -0.5318
 5646SOL     OW28396   2.874   3.813   2.321 -1.0612  0.0666  0.0659
 5646SOL    HW128397   2.861   3.774   2.235 -0.3420 -0.6003  0.2610
 5646SOL    HW228398   2.965   3.836   2.301 -0.6542 -2.1680 -0.5959
 5647SOL     OW28399   0.776   0.927   3.763  0.2738 -0.5174  0.1991
 5647SOL    HW128400   0.818   0.984   3.699  1.7134 -2.4529 -0.5881
 5647SOL    HW228401   0.688   0.940   3.728  0.3114  0.5890  0.5311
 5648SOL     OW28402   3.052   2.715  11.052 -0.4223  0.1376 -0.4602
 5648SOL    HW128403   3.030   2.785  10.991 -1.0306  1.3046  1.0957
 5648SOL    HW228404   2.988   2.649  11.025 -1.0895  0.5081  0.2177
 5649SOL     OW28405   2.778   2.470   6.867  0.6154  0.0230 -0.4688
 5649SOL    HW128406   2.817   2.401   6.814  3.3071  0.5064  0.9137
 5649SOL    HW228407   2.775   2.418   6.948 -0.2209 -1.1005 -1.2240
 5650SOL     OW28408   1.531   2.379   7.027  0.1661 -0.4079  0.3288
 5650SOL    HW128409   1.452   2.332   7.003  1.1166 -0.1511 -3.3801
 5650SOL    HW228410   1.525   2.385   7.122 -0.6485  0.9785  0.1941
 5651SOL     OW28411   1.432   1.733   5.804  0.5061  0.1609 -0.4507
 5651SOL    HW128412   1.391   1.656   5.843  1.6972 -0.0436  0.3893
 5651SOL    HW228413   1.489   1.686   5.743 -0.9285 -2.8206  0.5062
 5652SOL     OW28414   2.892   4.544   8.465 -0.5185 -0.3069  0.6072
 5652SOL    HW128415   2.912   4.637   8.474  0.4707 -0.3411 -1.2473
 5652SOL    HW228416   2.879   4.536   8.371 -1.8723 -2.7611  1.0017
 5653SOL     OW28417   2.895   4.234  16.922 -0.1202 -0.1561 -0.0031
 5653SOL    HW128418   2.829   4.165  16.916  1.2433 -1.9217  5.1785
 5653SOL    HW228419   2.974   4.182  16.933 -0.2806 -0.5273 -0.5844
 5654SOL     OW28420   1.554   3.375   4.838 -0.3626 -0.6084  0.3336
 5654SOL    HW128421   1.464   3.371   4.872  0.6231 -2.1946  2.7223
 5654SOL    HW228422   1.598   3.353   4.920  0.9819 -0.9630 -0.4967
 5655SOL     OW28423   1.853   1.415   8.281 -0.4012 -0.2341 -0.1937
 5655SOL    HW128424   1.763   1.381   8.281 -0.5772  0.2417  0.1180
 5655SOL    HW228425   1.917   1.348   8.255  1.7194  1.1426  1.5020
 5656SOL     OW28426   4.017   2.126  10.334  0.0437  0.5401  0.4202
 5656SOL    HW128427   3.985   2.203  10.287  2.0951  1.0166 -0.2211
 5656SOL    HW228428   3.998   2.132  10.427  2.1735  0.9635  0.8444
 5657SOL     OW28429   2.079   4.032   4.787 -0.1168  0.6670  0.5020
 5657SOL    HW128430   2.094   3.954   4.839  0.9933  0.3356 -0.3217
 5657SOL    HW228431   2.075   3.987   4.703  1.9011  0.0130  0.7619
 5658SOL     OW28432   2.461   3.955   8.357 -0.4201  0.0031 -0.0217
 5658SOL    HW128433   2.487   3.874   8.401  1.0140  0.8216  0.6271
 5658SOL    HW228434   2.366   3.958   8.363 -0.4901  0.4671 -1.3462
 5659SOL     OW28435   0.656   0.724   8.982 -0.1401  0.1502 -0.0503
 5659SOL    HW128436   0.597   0.727   9.057  0.3866  1.0292  0.3262
 5659SOL    HW228437   0.710   0.647   8.998 -1.6324 -1.3958 -2.4977
 5660SOL     OW28438   1.984   4.230   8.903  0.1462  0.0655  0.4107
 5660SOL    HW128439   2.078   4.224   8.884  0.5027 -1.7624  2.7835
 5660SOL    HW228440   1.967   4.136   8.901 -2.4951  0.5482  1.0311
 5661SOL     OW28441   1.886   3.094   9.227 -0.0409  0.4127  0.1792
 5661SOL    HW128442   1.796   3.089   9.195  0.1283 -1.7259  0.0020
 5661SOL    HW228443   1.927   3.138   9.152  0.2099 -0.7114 -0.3449
 5662SOL     OW28444   3.870   2.366  10.821  0.2229  0.2964  0.3558
 5662SOL    HW128445   3.860   2.440  10.881  2.1474  0.2975  0.6633
 5662SOL    HW228446   3.827   2.294  10.867  2.1940  0.8946  3.1803
 5663SOL     OW28447   0.200   2.294  17.285  0.1736 -0.1557  0.4125
 5663SOL    HW128448   0.105   2.300  17.273  0.0227  0.6518  1.9960
 5663SOL    HW228449   0.203   2.247  17.368  1.4706 -0.0454  0.4310
 5664SOL     OW28450   1.342   3.219   0.923 -0.1359  0.1813  0.5388
 5664SOL    HW128451   1.367   3.311   0.923  1.8036 -0.3379  0.0379
 5664SOL    HW228452   1.412   3.192   0.863 -2.3127 -1.0392 -1.4746
 5665SOL     OW28453   3.790   0.435  14.402 -0.2770 -0.1120  0.1284
 5665SOL    HW128454   3.842   0.466  14.329 -0.6301  1.8783  0.7126
 5665SOL    HW228455   3.734   0.370  14.360  0.8545 -1.6005  0.9034
 5666SOL     OW28456   3.436   3.169   8.083 -1.1228 -0.0589 -0.0964
 5666SOL    HW128457   3.344   3.143   8.075 -0.9425 -0.4767 -0.7827
 5666SOL    HW228458   3.454   3.149   8.175  3.5275  0.3823 -0.8894
 5667SOL     OW28459   4.507   0.710   7.285  0.3580 -0.2135  0.1464
 5667SOL    HW128460   4.493   0.649   7.212  0.7406 -1.3964  1.0669
 5667SOL    HW228461   4.512   0.796   7.243 -1.1938 -1.6002 -2.8545
 5668SOL     OW28462   0.571   0.670  10.279  0.1257  0.6404  0.3794
 5668SOL    HW128463   0.615   0.670  10.194 -0.1032 -0.9001  0.2672
 5668SOL    HW228464   0.644   0.653  10.338  1.6503 -0.8961 -1.9989
 5669SOL     OW28465   3.460   0.992   6.873  0.7829  0.2773 -0.8728
 5669SOL    HW128466   3.496   0.910   6.840  0.5779 -0.2908  0.3152
 5669SOL    HW228467   3.536   1.050   6.872  0.1092  1.1657 -0.4614
 5670SOL     OW28468   4.562   4.615   5.551 -0.5371 -0.6626 -0.1414
 5670SOL    HW128469   4.471   4.642   5.539 -0.2559  1.2826  2.0963
 5670SOL    HW228470   4.552   4.542   5.612 -1.7173 -1.1816 -0.9419
 5671SOL     OW28471   0.998   3.276  12.260 -0.3286  0.1088  0.5714
 5671SOL    HW128472   0.959   3.362  12.274  2.3176  1.0539  2.2023
 5671SOL    HW228473   1.023   3.261  12.351  0.7817  0.5927  0.3449
 5672SOL     OW28474   0.471   3.123   4.450  0.1437 -0.1525  0.5924
 5672SOL    HW128475   0.517   3.153   4.371  0.7665 -2.6079  0.0289
 5672SOL    HW228476   0.416   3.048   4.428  0.2442  0.4239 -1.6933
 5673SOL     OW28477   3.875   3.468   3.236 -0.0992  0.0812  0.2045
 5673SOL    HW128478   3.931   3.408   3.186  0.8176  2.1162 -1.1870
 5673SOL    HW228479   3.814   3.488   3.166  0.3407  1.5142  0.2203
 5674SOL     OW28480   4.716   4.597  15.180  0.2786 -0.3367  0.2505
 5674SOL    HW128481   4.631   4.602  15.137 -0.6269  2.3871  2.3295
 5674SOL    HW228482   0.025   4.680  15.150 -2.7504  0.6007 -0.7837
 5675SOL     OW28483   4.686   4.416   8.465  0.1007 -0.3532 -0.0776
 5675SOL    HW128484   0.015   4.389   8.536  0.9636  1.2855 -0.1380
 5675SOL    HW228485   4.610   4.450   8.512  1.9784  1.5711  1.5791
 5676SOL     OW28486   0.422   0.746   1.314 -0.4166  0.1511 -0.8720
 5676SOL    HW128487   0.390   0.738   1.404  1.1356 -2.5390 -0.5301
 5676SOL    HW228488   0.431   0.839   1.294 -1.4770 -0.2127 -3.0309
 5677SOL     OW28489   0.637   0.696   8.685 -0.0687  0.2047 -0.3529
 5677SOL    HW128490   0.649   0.601   8.680 -0.0944  0.1823  0.0210
 5677SOL    HW228491   0.637   0.712   8.779 -0.9302 -0.6622 -0.2044
 5678SOL     OW28492   2.727   4.405   0.604  0.5153  0.0485 -0.3009
 5678SOL    HW128493   2.808   4.456   0.603  0.3315  0.3331 -0.6363
 5678SOL    HW228494   2.660   4.465   0.635  1.5976  2.0108 -1.8017
 5679SOL     OW28495   0.150   4.722   1.350  0.1703 -0.0611  0.2002
 5679SOL    HW128496   0.166   4.635   1.313 -0.4328 -0.4160  0.7705
 5679SOL    HW228497   0.055   4.721   1.346  0.1448  1.0599  0.3959
 5680SOL     OW28498   0.337   2.751  14.732 -0.1222  0.2859  0.2936
 5680SOL    HW128499   0.311   2.715  14.647 -1.0274  0.8772  0.3185
 5680SOL    HW228500   0.250   2.776  14.764 -0.5504 -1.3635  0.4174
 5681SOL     OW28501   1.978   4.228  14.107 -0.4446  0.4422  0.9821
 5681SOL    HW128502   1.916   4.236  14.179 -0.1504  0.8566  1.1877
 5681SOL    HW228503   2.059   4.245  14.155  0.7071  0.4796 -0.9508
 5682SOL     OW28504   4.507   3.065  12.529  0.1233  0.1812 -0.0280
 5682SOL    HW128505   4.575   3.132  12.541  0.4646  0.0988 -1.4589
 5682SOL    HW228506   4.475   3.070  12.619 -1.3258 -0.6237 -0.4909
 5683SOL     OW28507   4.543   0.308  16.469 -0.2606 -0.2456  0.0606
 5683SOL    HW128508   4.567   0.335  16.558  0.4162  0.5169 -0.3544
 5683SOL    HW228509   4.450   0.290  16.481  0.0464 -2.2717 -0.5920
 5684SOL     OW28510   4.347   1.735   1.446 -0.0987  0.1724 -0.3959
 5684SOL    HW128511   4.281   1.798   1.416  0.8509  1.9160  1.2071
 5684SOL    HW228512   4.421   1.756   1.388 -1.3403  0.0095 -2.0472
 5685SOL     OW28513   1.840   3.841  15.910  0.2394 -0.2553  0.1819
 5685SOL    HW128514   1.904   3.906  15.881 -0.6144  0.4815 -0.0556
 5685SOL    HW228515   1.778   3.894  15.960 -2.4754 -1.0547 -2.3847
 5686SOL     OW28516   1.689   1.436   3.185 -0.3189 -0.1320  0.2668
 5686SOL    HW128517   1.678   1.365   3.121  1.6007 -1.2008  1.1241
 5686SOL    HW228518   1.757   1.418   3.250  0.3956  1.3753 -0.0693
 5687SOL     OW28519   1.982   1.634   6.003  0.1919 -0.0097  0.1764
 5687SOL    HW128520   2.052   1.597   5.949 -0.6669 -0.4771 -0.6193
 5687SOL    HW228521   1.915   1.565   5.998  0.3326 -0.1373  0.0487
 5688SOL     OW28522   1.758   0.358   0.471  0.2262 -0.4753  0.1538
 5688SOL    HW128523   1.816   0.409   0.528  1.7472  0.3027 -2.1225
 5688SOL    HW228524   1.776   0.399   0.387 -0.1029  3.2079  1.8722
 5689SOL     OW28525   2.881   3.276   7.505 -0.1753  0.3559 -0.0926
 5689SOL    HW128526   2.911   3.300   7.418 -0.4812  1.4507  0.1031
 5689SOL    HW228527   2.952   3.298   7.564  0.1074 -0.3954 -0.1467
 5690SOL     OW28528   0.957   1.312   1.862  0.0079  0.0051  0.1888
 5690SOL    HW128529   0.916   1.254   1.927  0.6774 -2.8147 -1.9263
 5690SOL    HW228530   0.879   1.357   1.830 -0.3887  2.0867  4.0926
 5691SOL     OW28531   2.406   0.321  17.466 -0.1004  0.1076 -0.6658
 5691SOL    HW128532   2.369   0.338  17.380  1.2374 -0.3813 -1.3482
 5691SOL    HW228533   2.329   0.324  17.522  3.5407 -1.1457  4.4520
 5692SOL     OW28534   1.616   0.367   6.202  0.6079  0.0120  0.3407
 5692SOL    HW128535   1.625   0.461   6.221  1.6242 -0.5438  2.6076
 5692SOL    HW228536   1.531   0.358   6.160  1.0267  2.2048 -1.0064
 5693SOL     OW28537   0.507   3.532   9.122 -0.3829  0.4003  0.2194
 5693SOL    HW128538   0.518   3.498   9.034  0.4594  0.5082  0.2854
 5693SOL    HW228539   0.435   3.477   9.153 -0.3002 -0.9416 -2.0101
 5694SOL     OW28540   0.252   3.008   4.699  0.5556  0.5102  0.6759
 5694SOL    HW128541   0.230   2.931   4.647 -0.3678  0.3147  1.3461
 5694SOL    HW228542   0.170   3.032   4.742 -0.5265 -1.1388 -0.5015
 5695SOL     OW28543   2.534   2.029   1.624 -0.6633 -0.1957 -0.1590
 5695SOL    HW128544   2.489   1.944   1.618 -0.5698 -0.1139 -1.9971
 5695SOL    HW228545   2.586   2.013   1.703  0.3547 -0.0725 -0.8029
 5696SOL     OW28546   2.483   1.413   2.495  0.5201  0.8495 -0.2332
 5696SOL    HW128547   2.556   1.474   2.496  0.5976  0.7241  1.3064
 5696SOL    HW228548   2.407   1.464   2.524  0.1757  0.5683 -0.6357
 5697SOL     OW28549   1.776   2.065   3.405 -0.3781  0.4483  0.5996
 5697SOL    HW128550   1.723   2.113   3.341  2.2168 -0.0437 -1.9422
 5697SOL    HW228551   1.714   1.994   3.419  0.8399 -1.4669 -3.6573
 5698SOL     OW28552   2.480   0.479   8.118 -0.4388 -0.3713  0.5643
 5698SOL    HW128553   2.526   0.432   8.187 -0.5590  0.8566  1.4864
 5698SOL    HW228554   2.420   0.540   8.161 -0.5729 -0.1838  0.1197
 5699SOL     OW28555   4.408   3.629   4.686  0.1434  0.6420  0.1934
 5699SOL    HW128556   4.481   3.687   4.665  0.4460  0.1414 -0.1243
 5699SOL    HW228557   4.447   3.550   4.723 -0.0592  1.2258  1.6316
 5700SOL     OW28558   0.486   2.391   6.299 -0.1125 -0.0250  0.2685
 5700SOL    HW128559   0.521   2.468   6.343  0.9533 -1.1193  1.3640
 5700SOL    HW228560   0.430   2.437   6.237  1.8914  0.9055 -0.8776
 5701SOL     OW28561   0.929   0.751  11.754 -0.1479  0.1981 -0.4050
 5701SOL    HW128562   0.895   0.829  11.710 -1.1291 -0.3098 -0.5496
 5701SOL    HW228563   0.979   0.794  11.823 -2.5811 -2.4844  3.0578
 5702SOL     OW28564   2.719   3.646  17.484  0.4287  0.0352  0.3345
 5702SOL    HW128565   2.805   3.683  17.467  0.4356 -0.6438 -1.0787
 5702SOL    HW228566   2.684   3.650  17.395  2.6942  1.4301 -0.4832
 5703SOL     OW28567   3.016   1.182  15.246  0.1684  0.6889 -0.0824
 5703SOL    HW128568   2.970   1.251  15.200 -0.3316  0.9513  0.8278
 5703SOL    HW228569   2.946   1.176  15.311 -0.8717  0.4569 -1.2161
 5704SOL     OW28570   3.802   0.185  12.299  0.2982 -0.2900 -0.0967
 5704SOL    HW128571   3.840   0.098  12.312  2.0714  0.6362  0.7773
 5704SOL    HW228572   3.799   0.212  12.390  1.6775  0.1944 -0.2060
 5705SOL     OW28573   0.115   0.905   3.261 -0.0036  0.2751  0.2044
 5705SOL    HW128574   0.054   0.948   3.200 -0.9555 -1.8120 -0.3105
 5705SOL    HW228575   0.140   0.974   3.323  0.1122 -1.9863  2.6878
 5706SOL     OW28576   1.924   0.980   6.720 -0.3697  0.3326 -0.2450
 5706SOL    HW128577   1.898   1.071   6.721  1.4873  0.8705  0.8712
 5706SOL    HW228578   1.910   0.946   6.632 -2.1271  0.3775  0.0326
 5707SOL     OW28579   3.038   1.013  16.555 -0.2175  0.7832  0.4072
 5707SOL    HW128580   2.994   0.940  16.512 -0.8423  0.8369  0.9635
 5707SOL    HW228581   3.128   0.995  16.527  0.2468  0.4829  2.1328
 5708SOL     OW28582   4.429   3.901   6.979 -0.3419  0.1176 -0.4003
 5708SOL    HW128583   4.386   3.856   7.052 -0.6436  0.7767 -0.1737
 5708SOL    HW228584   4.405   3.992   6.999  0.6207  0.6011 -1.4415
 5709SOL     OW28585   2.846   3.121   8.521  0.1628 -0.1118 -0.2628
 5709SOL    HW128586   2.866   3.151   8.610 -1.2865  0.2325 -0.0559
 5709SOL    HW228587   2.935   3.095   8.496 -1.3038 -2.2208 -3.2434
 5710SOL     OW28588   1.447   3.567   4.635  0.0691  0.3673  0.3356
 5710SOL    HW128589   1.484   3.502   4.695  0.9682  1.9734  1.5221
 5710SOL    HW228590   1.367   3.530   4.598  0.0966  0.4901  0.1564
 5711SOL     OW28591   4.561   0.954  13.103 -0.3928  0.0499 -0.5055
 5711SOL    HW128592   4.592   0.950  13.013  0.9598 -1.2906  0.0119
 5711SOL    HW228593   4.566   0.861  13.121 -0.5064  0.5751  2.2571
 5712SOL     OW28594   3.382   2.319   7.701  0.1795  0.1794 -0.4893
 5712SOL    HW128595   3.336   2.349   7.780  0.4696  2.1439 -1.0506
 5712SOL    HW228596   3.314   2.335   7.636  1.1560 -0.6218 -1.7151
 5713SOL     OW28597   3.411   0.443   3.177 -0.4739 -0.1574  0.0567
 5713SOL    HW128598   3.352   0.372   3.202 -0.4411 -0.1790  0.0730
 5713SOL    HW228599   3.441   0.458   3.267 -0.8851 -0.5656  0.2591
 5714SOL     OW28600   0.563   0.987  11.237 -0.2617  0.4205  0.2612
 5714SOL    HW128601   0.606   1.071  11.228 -2.4741  1.3010 -2.2149
 5714SOL    HW228602   0.618   0.924  11.191  0.5630  1.0825  0.3453
 5715SOL     OW28603   1.620   3.423  11.906  0.0164 -0.3168 -0.1305
 5715SOL    HW128604   1.709   3.427  11.871 -0.3288  1.3360 -0.8069
 5715SOL    HW228605   1.595   3.331  11.902 -1.6619  0.2040 -1.1515
 5716SOL     OW28606   3.819   2.940  12.157 -0.2342  0.1893 -0.2050
 5716SOL    HW128607   3.777   2.969  12.076 -0.1712 -3.4980 -1.5642
 5716SOL    HW228608   3.769   2.997  12.215 -0.3002  0.0256 -0.1007
 5717SOL     OW28609   2.635   1.249  17.049 -0.5413  0.5059  0.9416
 5717SOL    HW128610   2.559   1.295  17.085 -1.2610 -0.3400  0.5002
 5717SOL    HW228611   2.583   1.186  16.999  3.1558 -0.6130 -1.4692
 5718SOL     OW28612   2.455   2.029  13.412 -0.0263  0.1167 -0.0622
 5718SOL    HW128613   2.361   2.011  13.415  0.4039 -2.1401 -0.2198
 5718SOL    HW228614   2.471   2.071  13.496 -0.4826  0.2770 -0.0556
 5719SOL     OW28615   1.913   2.966   5.082 -0.3246 -0.5398 -0.0175
 5719SOL    HW128616   2.008   2.953   5.091 -0.4969 -1.9240 -0.1942
 5719SOL    HW228617   1.903   3.010   4.997  2.5757  1.8106  0.8396
 5720SOL     OW28618   4.311   1.251  12.608  0.5040 -0.3103  0.2510
 5720SOL    HW128619   4.288   1.239  12.516 -2.5502  0.2423  0.9376
 5720SOL    HW228620   4.350   1.166  12.626  1.0988  0.0352  0.6215
 5721SOL     OW28621   0.313   2.632  14.219 -0.1121 -0.9507  0.3321
 5721SOL    HW128622   0.258   2.586  14.156  0.6162  0.2006 -1.1537
 5721SOL    HW228623   0.386   2.665  14.166 -1.2062  0.7194 -0.1080
 5722SOL     OW28624   1.785   1.493  10.583  0.5524  0.0744  0.4029
 5722SOL    HW128625   1.880   1.495  10.593  0.7787  1.2191 -1.8978
 5722SOL    HW228626   1.767   1.575  10.538  0.1701 -1.0479 -1.4931
 5723SOL     OW28627   1.118   3.442   8.411  0.1935 -0.0194  0.1255
 5723SOL    HW128628   1.087   3.455   8.501  2.2486  1.0543  0.6709
 5723SOL    HW228629   1.212   3.441   8.426  0.0636 -0.0264  0.9406
 5724SOL     OW28630   4.630   0.074   4.071 -0.3883 -0.1324 -0.0271
 5724SOL    HW128631   4.567   0.018   4.118  0.8185 -1.8320 -0.4149
 5724SOL    HW228632   4.648   0.144   4.132 -1.3049  0.0149  0.0838
 5725SOL     OW28633   3.119   4.129   0.782  0.1030  0.0839 -0.1785
 5725SOL    HW128634   3.115   4.220   0.809  1.2548  0.0174  0.2129
 5725SOL    HW228635   3.040   4.089   0.818 -1.4652  1.2535 -2.3359
 5726SOL     OW28636   3.464   3.552   3.666 -0.0939  0.4158 -0.3943
 5726SOL    HW128637   3.491   3.466   3.699 -1.1901 -0.3968 -1.6402
 5726SOL    HW228638   3.509   3.547   3.582  0.2808 -0.9250 -0.1267
 5727SOL     OW28639   3.386   2.840  16.828 -0.4936  0.0819  0.6547
 5727SOL    HW128640   3.379   2.761  16.775 -1.7076  0.6511 -0.0477
 5727SOL    HW228641   3.301   2.831  16.873 -0.4592 -0.6376  0.5718
 5728SOL     OW28642   1.888   4.603  16.658  0.7031  0.3150  0.3452
 5728SOL    HW128643   1.963   4.653  16.626  0.2451  1.5436  1.2123
 5728SOL    HW228644   1.886   4.526  16.600  4.7718 -1.1816  2.1873
 5729SOL     OW28645   1.133   3.712   6.544  0.0568 -0.0416  0.1433
 5729SOL    HW128646   1.186   3.729   6.466 -2.4788  0.7630 -1.4224
 5729SOL    HW228647   1.050   3.744   6.507 -0.8622 -0.4658  1.8529
 5730SOL     OW28648   3.904   4.518   8.986  0.1288 -0.0863 -0.3586
 5730SOL    HW128649   3.959   4.592   8.960  0.1205  0.2284  0.5345
 5730SOL    HW228650   3.962   4.465   9.041 -1.1475 -0.3089  0.7697
 5731SOL     OW28651   2.388   4.245   0.456 -0.1599 -0.0227 -0.4462
 5731SOL    HW128652   2.451   4.300   0.409 -0.2734 -0.3737 -1.0114
 5731SOL    HW228653   2.452   4.217   0.522  0.6824 -0.5215 -1.4645
 5732SOL     OW28654   4.459   1.671   8.439  0.1905 -0.2922 -0.1790
 5732SOL    HW128655   4.480   1.764   8.440 -2.8609  0.3922  0.2129
 5732SOL    HW228656   4.410   1.677   8.357 -1.4546 -0.3406  0.7904
 5733SOL     OW28657   1.717   1.733   4.231  0.3604  0.4682 -0.2483
 5733SOL    HW128658   1.806   1.739   4.198  0.2051  0.7079 -0.6242
 5733SOL    HW228659   1.672   1.804   4.186 -0.6964  0.3682  0.6583
 5734SOL     OW28660   0.047   1.387   3.245  0.6879 -0.5790  0.1041
 5734SOL    HW128661   0.016   1.444   3.315 -0.1515 -0.4495 -0.3681
 5734SOL    HW228662   4.715   1.412   3.174 -0.9850  0.3068  1.8072
 5735SOL     OW28663   3.950   0.003   3.695  0.0353 -0.2250 -0.1152
 5735SOL    HW128664   3.973   4.653   3.746  2.8138 -0.6352 -1.9384
 5735SOL    HW228665   3.968   4.691   3.609 -2.8519 -1.2816 -0.2063
 5736SOL     OW28666   3.560   1.210   0.133  0.3280  0.4332  0.4027
 5736SOL    HW128667   3.479   1.248   0.100 -0.3158 -1.0928  0.2243
 5736SOL    HW228668   3.564   1.233   0.225  1.7924 -0.0307  0.4596
 5737SOL     OW28669   3.786   4.315   3.056  0.2208  0.6616  0.1469
 5737SOL    HW128670   3.871   4.337   3.018 -0.1013 -0.1643 -1.0520
 5737SOL    HW228671   3.818   4.272   3.135  0.3152  2.2504  0.9717
 5738SOL     OW28672   2.444   1.294   8.218 -0.3561 -0.0349  0.2318
 5738SOL    HW128673   2.379   1.348   8.262 -1.4587 -1.0199 -0.1872
 5738SOL    HW228674   2.396   1.212   8.212  2.9033 -1.7747 -2.1532
 5739SOL     OW28675   4.694   3.625   1.441  0.3544  0.3055  0.2193
 5739SOL    HW128676   4.665   3.543   1.481 -3.0778  1.4524  0.1308
 5739SOL    HW228677   4.655   3.681   1.509 -0.9539  0.5467 -0.7212
 5740SOL     OW28678   4.636   2.670   6.465 -0.4453  0.1822  0.8326
 5740SOL    HW128679   4.568   2.624   6.416  0.9148 -0.9459  0.0206
 5740SOL    HW228680   4.698   2.604   6.495  0.2081  0.2006 -0.4896
 5741SOL     OW28681   2.624   2.577  13.551  0.3770 -0.3102  0.3040
 5741SOL    HW128682   2.689   2.629  13.503  0.8109 -0.1618  1.0412
 5741SOL    HW228683   2.675   2.541  13.624 -0.6392  2.3113  2.2883
 5742SOL     OW28684   4.128   4.113  15.032  0.0190 -0.1281 -0.1051
 5742SOL    HW128685   4.093   4.105  14.943  1.6784  1.5977 -0.9051
 5742SOL    HW228686   4.140   4.019  15.049 -1.5649 -0.8323 -2.8203
 5743SOL     OW28687   0.631   0.645   9.460  0.3960  0.1102 -0.4462
 5743SOL    HW128688   0.663   0.584   9.394  1.7506  0.8220 -0.4369
 5743SOL    HW228689   0.576   0.698   9.403  0.1517  0.5534  0.1988
 5744SOL     OW28690   2.488   3.516   9.328  0.1974 -0.5354  0.9424
 5744SOL    HW128691   2.441   3.597   9.309  1.0488 -0.4456 -0.7829
 5744SOL    HW228692   2.576   3.551   9.337  1.1665 -2.9935  1.0506
 5745SOL     OW28693   1.826   0.294   7.813 -0.2402  0.0932  0.3146
 5745SOL    HW128694   1.773   0.372   7.794  2.6788  1.9753 -0.2300
 5745SOL    HW228695   1.909   0.330   7.845 -0.3388  0.7571 -0.1711
 5746SOL     OW28696   0.111   0.675   2.109  0.1065 -0.0277 -0.2166
 5746SOL    HW128697   0.141   0.764   2.089  1.4828 -0.4142  0.1180
 5746SOL    HW228698   0.033   0.669   2.054 -0.5616 -0.0308  0.7293
 5747SOL     OW28699   4.466   0.103  15.980 -0.1674  0.2258  0.4622
 5747SOL    HW128700   4.402   0.170  16.004  2.2118  2.3424  0.8973
 5747SOL    HW228701   4.539   0.159  15.952 -0.9499  1.5504  1.1019
 5748SOL     OW28702   1.826   3.358   2.092  0.3963 -0.4073  0.2372
 5748SOL    HW128703   1.837   3.367   1.998 -0.6417 -0.4807  0.1129
 5748SOL    HW228704   1.731   3.356   2.098  0.3507 -0.8855 -0.7364
 5749SOL     OW28705   3.112   4.304   7.054  0.2225 -0.2356 -0.3510
 5749SOL    HW128706   3.154   4.388   7.037 -0.0207 -0.1257 -0.4106
 5749SOL    HW228707   3.054   4.276   6.984  0.4138 -0.7105 -0.3179
 5750SOL     OW28708   1.947   2.501   6.744 -0.1831  0.4193  0.0907
 5750SOL    HW128709   1.940   2.512   6.650  0.0322  1.3542  0.1814
 5750SOL    HW228710   1.868   2.449   6.760  1.0966 -2.4502 -2.9044
 5751SOL     OW28711   2.998   3.960  13.898  0.0155 -0.0541 -0.3495
 5751SOL    HW128712   3.007   3.998  13.985 -0.2664 -4.6534  1.7067
 5751SOL    HW228713   2.945   4.031  13.863 -0.8745 -0.3846  0.3244
 5752SOL     OW28714   0.437   1.452  11.496 -0.6074  0.0618  0.5098
 5752SOL    HW128715   0.374   1.515  11.531 -1.1973  0.4827 -1.2799
 5752SOL    HW228716   0.384   1.373  11.493 -1.3685  0.5859 -0.1370
 5753SOL     OW28717   4.356   0.570   1.433 -0.3197  0.1212  0.0461
 5753SOL    HW128718   4.296   0.634   1.472  1.6058  0.7519  1.9706
 5753SOL    HW228719   4.381   0.525   1.514  0.2989  0.1096 -0.1475
 5754SOL     OW28720   3.749   3.710   6.104  0.3037  0.0349 -0.0511
 5754SOL    HW128721   3.704   3.629   6.080 -1.4941  0.9787  0.1641
 5754SOL    HW228722   3.816   3.686   6.168  1.0179  0.6728 -0.5582
 5755SOL     OW28723   0.099   0.350   4.801 -0.0413  0.2068 -0.4232
 5755SOL    HW128724   0.154   0.421   4.768 -0.9410  2.2349  2.4666
 5755SOL    HW228725   0.021   0.399   4.829  1.9184  3.1240 -0.1184
 5756SOL     OW28726   1.474   2.670   4.428  0.1974  0.0800 -0.3437
 5756SOL    HW128727   1.465   2.599   4.491  0.3957 -0.8092 -1.3116
 5756SOL    HW228728   1.432   2.650   4.345 -0.3512 -0.0408 -0.0361
 5757SOL     OW28729   0.910   1.902   9.222 -0.5283 -0.0436  0.4262
 5757SOL    HW128730   0.986   1.960   9.218  0.4129 -1.2942  0.2411
 5757SOL    HW228731   0.926   1.857   9.304 -1.6092 -2.0758 -0.4858
 5758SOL     OW28732   3.307   0.482   4.458  0.0197 -0.5521  0.3984
 5758SOL    HW128733   3.255   0.457   4.382 -0.2623  0.1041  0.3694
 5758SOL    HW228734   3.381   0.520   4.412  0.2195 -0.2373  0.9763
 5759SOL     OW28735   0.485   0.797   9.295 -0.3772 -0.4405 -0.0782
 5759SOL    HW128736   0.413   0.859   9.310  0.5459  0.6083 -0.0173
 5759SOL    HW228737   0.445   0.735   9.234 -1.6665  1.0123 -0.7056
 5760SOL     OW28738   2.245   3.816  11.295 -0.0912  0.0412 -1.6423
 5760SOL    HW128739   2.231   3.904  11.329  0.2355 -0.7922  0.6519
 5760SOL    HW228740   2.232   3.809  11.200 -0.0161 -0.5974 -1.6093
 5761SOL     OW28741   0.529   0.500   3.227  0.7449  0.0069  0.8468
 5761SOL    HW128742   0.479   0.581   3.224  1.8976  0.6772 -0.1323
 5761SOL    HW228743   0.485   0.437   3.170 -1.3677  0.4550  1.9940
 5762SOL     OW28744   1.571   0.864   9.215  0.0116 -0.0657 -0.3620
 5762SOL    HW128745   1.611   0.803   9.277 -4.4435 -1.3685  1.2171
 5762SOL    HW228746   1.553   0.802   9.144  0.7636  0.0431 -0.6551
 5763SOL     OW28747   0.969   1.640   3.881 -0.3990 -0.2450  0.0048
 5763SOL    HW128748   0.882   1.673   3.858 -0.6958 -0.3640  0.9573
 5763SOL    HW228749   0.972   1.551   3.846 -1.6496 -0.1689 -0.2952
 5764SOL     OW28750   3.691   0.471   4.148  0.4453 -0.2141 -0.2407
 5764SOL    HW128751   3.739   0.535   4.096  1.0983 -1.6350 -1.4146
 5764SOL    HW228752   3.616   0.524   4.173  2.1044  1.3582  1.3976
 5765SOL     OW28753   1.543   0.703   5.554 -0.3847  0.3326 -0.5526
 5765SOL    HW128754   1.532   0.685   5.647 -0.3928  0.6030 -0.5005
 5765SOL    HW228755   1.474   0.644   5.524  0.4209 -1.0570  0.3000
 5766SOL     OW28756   1.032   0.565   7.969 -0.0741 -0.2978 -0.2431
 5766SOL    HW128757   1.044   0.512   7.890 -0.2607 -2.5372  1.2283
 5766SOL    HW228758   1.026   0.494   8.033 -0.7236 -0.8207 -0.8750
 5767SOL     OW28759   0.206   0.232   4.105  0.1950  0.4133 -0.3011
 5767SOL    HW128760   0.261   0.171   4.155  1.5106  2.4982  0.7864
 5767SOL    HW228761   0.129   0.248   4.161 -1.2432  0.5724 -2.3416
 5768SOL     OW28762   2.957   4.334   5.304  0.1544 -0.6185 -0.0164
 5768SOL    HW128763   2.983   4.301   5.218  0.4483  1.3954 -0.7099
 5768SOL    HW228764   2.885   4.275   5.326 -1.9637  1.8669 -0.3328
 5769SOL     OW28765   3.739   0.962   1.672 -0.1016  0.2226  0.2981
 5769SOL    HW128766   3.716   0.986   1.582  2.4494 -0.5744 -0.5828
 5769SOL    HW228767   3.834   0.970   1.676 -0.0692 -0.1330  0.2229
 5770SOL     OW28768   0.652   2.493  12.194 -0.3530 -0.2241  0.7878
 5770SOL    HW128769   0.676   2.401  12.181 -0.1857  0.0862 -1.1256
 5770SOL    HW228770   0.660   2.535  12.108 -0.0325 -2.6079 -0.3463
 5771SOL     OW28771   1.584   2.899  11.457  0.2266  0.0515 -0.5495
 5771SOL    HW128772   1.566   2.909  11.551 -1.4258  3.9462 -1.2838
 5771SOL    HW228773   1.606   2.984  11.418  2.7386 -0.8712 -1.1208
 5772SOL     OW28774   2.775   2.430   4.499  0.1504  0.2242  0.0614
 5772SOL    HW128775   2.712   2.412   4.568  0.1829 -0.4180 -0.0740
 5772SOL    HW228776   2.755   2.520   4.476 -0.4022 -0.1969 -1.0887
 5773SOL     OW28777   3.767   1.375  13.799  0.3669 -0.2229 -0.0804
 5773SOL    HW128778   3.798   1.345  13.885 -1.2945 -0.3266  0.4799
 5773SOL    HW228779   3.774   1.471  13.799  3.1037 -0.4151  0.7786
 5774SOL     OW28780   2.705   1.827  10.462 -0.5634  0.2286 -0.7769
 5774SOL    HW128781   2.768   1.817  10.391 -0.6607  1.9743 -1.1006
 5774SOL    HW228782   2.734   1.771  10.534 -0.2679  0.4108 -0.7552
 5775SOL     OW28783   0.335   4.707   2.869 -0.6003 -0.5505  0.3689
 5775SOL    HW128784   0.421   4.675   2.894 -1.5538 -1.7369  2.1156
 5775SOL    HW228785   0.284   4.628   2.883  0.6567 -0.9899  2.4965
 5776SOL     OW28786   0.863   0.874   7.044  0.3059 -0.1770  0.4725
 5776SOL    HW128787   0.872   0.859   7.139 -0.5212 -3.7588 -0.0004
 5776SOL    HW228788   0.893   0.788   7.013  1.7796  0.8255 -0.8556
 5777SOL     OW28789   1.809   3.278  10.044 -0.1460  0.3237 -0.5098
 5777SOL    HW128790   1.729   3.260   9.994  0.0723 -0.7320 -0.4785
 5777SOL    HW228791   1.769   3.283  10.131  1.2402  3.0137 -0.0253
 5778SOL     OW28792   0.568   1.112  14.452  0.7085  0.1424  0.6843
 5778SOL    HW128793   0.654   1.133  14.486  1.0763 -0.5525  0.1862
 5778SOL    HW228794   0.580   1.167  14.374 -0.2025  0.1612  0.5486
 5779SOL     OW28795   1.521   3.230  12.847 -0.0413 -0.0763 -0.3549
 5779SOL    HW128796   1.527   3.138  12.820 -1.3198 -0.7904  1.7371
 5779SOL    HW228797   1.542   3.219  12.940  0.3274 -0.2901 -0.4596
 5780SOL     OW28798   4.318   3.650   9.453  0.6056 -0.1029 -0.3177
 5780SOL    HW128799   4.240   3.704   9.460  0.1901 -0.4212 -2.5626
 5780SOL    HW228800   4.352   3.673   9.539 -1.4939  1.8714 -0.0047
 5781SOL     OW28801   4.022   3.531   2.634 -0.5397 -0.3148 -0.4636
 5781SOL    HW128802   3.966   3.462   2.598 -0.2166 -1.1578  0.6373
 5781SOL    HW228803   4.100   3.520   2.578 -0.8393 -0.6350 -0.8181
 5782SOL     OW28804   0.820   3.733   3.867  0.3245  0.1362  0.0544
 5782SOL    HW128805   0.859   3.734   3.779  0.3980 -2.1271  0.0598
 5782SOL    HW228806   0.900   3.728   3.920 -0.2746 -0.0198  0.9361
 5783SOL     OW28807   0.357   0.529   4.221  0.1764 -0.1311  0.0733
 5783SOL    HW128808   0.294   0.587   4.178  0.5058  1.4284  1.7139
 5783SOL    HW228809   0.427   0.511   4.158 -0.3947  0.6527 -0.8010
 5784SOL     OW28810   1.342   1.556   9.635  0.2141  0.3716  0.1683
 5784SOL    HW128811   1.255   1.546   9.673  0.2079 -2.5249 -0.6210
 5784SOL    HW228812   1.401   1.535   9.708  0.8903  2.3965  0.2263
 5785SOL     OW28813   2.223   3.864   9.833  0.3667 -0.1033  0.4463
 5785SOL    HW128814   2.237   3.794   9.897 -1.9393 -0.3820  0.6683
 5785SOL    HW228815   2.127   3.866   9.837  0.2295  0.3965 -3.5206
 5786SOL     OW28816   1.409   4.470   3.658 -0.4209  0.6317 -0.1051
 5786SOL    HW128817   1.475   4.436   3.597 -1.2495  0.2752 -0.8051
 5786SOL    HW228818   1.329   4.489   3.610 -0.9917 -2.1998 -0.2921
 5787SOL     OW28819   2.898   3.339  14.577  0.3089 -0.0382 -0.0934
 5787SOL    HW128820   2.932   3.425  14.553 -0.8393 -0.0352 -1.7191
 5787SOL    HW228821   2.853   3.353  14.661 -0.2943  2.0663 -0.7613
 5788SOL     OW28822   2.281   0.954   2.594  0.1865 -0.1812 -0.0461
 5788SOL    HW128823   2.224   0.976   2.521  0.2135 -0.8033 -0.2527
 5788SOL    HW228824   2.236   0.879   2.634 -0.6699  0.1398 -0.4363
 5789SOL     OW28825   3.704   4.634  17.395  0.3626 -0.4369 -0.4134
 5789SOL    HW128826   3.658   4.646  17.479  1.3672 -0.7696  0.1851
 5789SOL    HW228827   3.663   4.699  17.338  0.1937 -2.4392 -2.5620
 5790SOL     OW28828   0.172   3.007   0.341  0.4105  0.5100 -0.9581
 5790SOL    HW128829   0.136   3.078   0.394  1.0180 -0.0472  0.1948
 5790SOL    HW228830   0.240   3.047   0.286  1.3810  0.8492  0.4737
 5791SOL     OW28831   0.406   0.368   1.112 -0.0493 -0.3557  0.4080
 5791SOL    HW128832   0.375   0.280   1.089 -0.5864 -0.1695  0.4140
 5791SOL    HW228833   0.492   0.371   1.070 -1.0518  2.6777 -1.4456
 5792SOL     OW28834   3.263   1.875   1.520 -0.1098  0.4788 -0.2279
 5792SOL    HW128835   3.301   1.913   1.599  0.5521 -1.9533  0.6392
 5792SOL    HW228836   3.205   1.948   1.498  0.2208  1.0701  0.8955
 5793SOL     OW28837   4.500   0.782  17.661  0.6784  0.0601 -0.1069
 5793SOL    HW128838   4.554   0.704  17.648  0.2288 -0.4559  1.1486
 5793SOL    HW228839   4.445   0.770   0.028  0.2134 -1.0295 -0.6234
 5794SOL     OW28840   1.285   0.616   2.239 -0.3705 -0.0947  0.0071
 5794SOL    HW128841   1.375   0.616   2.205 -0.5692  0.9388 -0.5102
 5794SOL    HW228842   1.251   0.549   2.179  1.2706 -0.7305 -0.2325
 5795SOL     OW28843   1.656   2.241   9.237  0.3424  0.3876 -0.1900
 5795SOL    HW128844   1.689   2.313   9.291  2.7564 -0.4261 -0.5597
 5795SOL    HW228845   1.675   2.268   9.147  0.5989 -0.4833 -0.3952
 5796SOL     OW28846   1.851   2.385  10.279  0.0429 -0.2436  0.4517
 5796SOL    HW128847   1.769   2.350  10.245  0.0124  0.4561 -0.1990
 5796SOL    HW228848   1.840   2.480  10.283 -0.8406 -0.2645 -1.3962
 5797SOL     OW28849   3.853   2.199   6.263 -0.1161  0.0372 -0.1199
 5797SOL    HW128850   3.864   2.141   6.188 -1.5424 -0.3807 -0.0095
 5797SOL    HW228851   3.890   2.141   6.330  2.7327 -0.1865 -1.8867
 5798SOL     OW28852   2.460   2.515   4.589  0.0504 -0.2864  0.0396
 5798SOL    HW128853   2.499   2.446   4.643 -0.2068  0.6187  1.3758
 5798SOL    HW228854   2.475   2.586   4.651  0.5014 -0.4509  0.1150
 5799SOL     OW28855   1.318   1.152   8.229 -0.3199  0.3239  0.5846
 5799SOL    HW128856   1.256   1.152   8.302 -2.4864  0.2108 -1.2731
 5799SOL    HW228857   1.346   1.243   8.223 -2.9634  0.9952 -1.1823
 5800SOL     OW28858   1.139   0.330   0.977  0.2500 -0.1897 -0.4748
 5800SOL    HW128859   1.219   0.379   0.959  0.2247  0.5458  1.4332
 5800SOL    HW228860   1.164   0.244   0.944  0.6380  0.2076 -1.2123
 5801SOL     OW28861   3.720   3.668   4.964  0.3545 -0.4401  0.1042
 5801SOL    HW128862   3.707   3.613   5.042  1.4486 -0.4736  0.2545
 5801SOL    HW228863   3.635   3.675   4.920 -0.1446 -2.3469  0.7501
 5802SOL     OW28864   0.112   0.665   9.093  0.3220 -0.5767  0.2411
 5802SOL    HW128865   0.035   0.613   9.118  0.4382 -0.9950 -0.2670
 5802SOL    HW228866   0.086   0.756   9.108  0.4659 -0.5336  0.2225
 5803SOL     OW28867   1.882   4.030  13.295  0.0029 -0.0570 -0.4007
 5803SOL    HW128868   1.799   3.985  13.309 -0.3448  0.0491 -2.1370
 5803SOL    HW228869   1.921   3.974  13.228 -0.8673  0.5741 -1.4407
 5804SOL     OW28870   3.411   2.517  15.462 -0.1295  0.5015  0.2271
 5804SOL    HW128871   3.468   2.543  15.535  1.0509 -1.4387  0.0177
 5804SOL    HW228872   3.478   2.476  15.407 -1.8057  0.0299 -1.4571
 5805SOL     OW28873   4.316   0.375   1.228  0.0784 -0.1879 -0.7507
 5805SOL    HW128874   4.342   0.434   1.299 -0.5604  0.0864 -0.7355
 5805SOL    HW228875   4.287   0.302   1.282 -0.9926 -1.2466 -2.7627
 5806SOL     OW28876   1.212   0.910   5.882  0.8952 -0.4056 -0.0464
 5806SOL    HW128877   1.133   0.875   5.923  1.4332 -2.2392 -0.6040
 5806SOL    HW228878   1.266   0.926   5.960 -0.1048  0.3374  0.4968
 5807SOL     OW28879   1.370   3.279   7.210  0.2340  0.0452 -0.3694
 5807SOL    HW128880   1.306   3.304   7.144  1.1574 -1.7515 -1.9317
 5807SOL    HW228881   1.445   3.331   7.179 -1.0536  1.6603 -0.7719
 5808SOL     OW28882   2.102   2.712   5.409  0.0005 -0.4475 -0.0180
 5808SOL    HW128883   2.154   2.689   5.486  0.0686 -2.0753 -0.5561
 5808SOL    HW228884   2.130   2.642   5.351  0.4689  0.9476 -1.4728
 5809SOL     OW28885   2.221   2.561  15.738 -0.2868 -0.1694 -0.8011
 5809SOL    HW128886   2.247   2.641  15.691  1.8144 -1.7426 -2.3557
 5809SOL    HW228887   2.248   2.573  15.829 -0.3563  0.0348 -0.8058
 5810SOL     OW28888   4.238   1.212   4.614 -0.0851  0.2269 -0.5917
 5810SOL    HW128889   4.227   1.288   4.557 -0.7173  1.9502  1.8236
 5810SOL    HW228890   4.154   1.166   4.613 -0.5622  1.1115 -1.0351
 5811SOL     OW28891   3.056   2.134   8.710  0.6687  0.5178 -0.1165
 5811SOL    HW128892   2.965   2.163   8.720  0.1375 -0.7291 -1.2674
 5811SOL    HW228893   3.097   2.209   8.668  0.9514  1.4852  1.9158
 5812SOL     OW28894   3.042   3.040  10.444  0.0600  0.0346  0.3618
 5812SOL    HW128895   2.957   3.024  10.402 -0.1962  0.8076  0.5833
 5812SOL    HW228896   3.097   3.097  10.390  1.1447  0.2428  1.6702
 5813SOL     OW28897   1.613   2.921   4.460 -0.5555  0.3126  0.7314
 5813SOL    HW128898   1.592   2.828   4.453  0.1023  0.2435 -0.2783
 5813SOL    HW228899   1.705   2.926   4.435 -0.9607  1.1631 -0.6109
 5814SOL     OW28900   2.484   0.635  16.523 -0.3239  0.3469  0.7895
 5814SOL    HW128901   2.494   0.634  16.428  1.3763  2.1601  0.9372
 5814SOL    HW228902   2.390   0.654  16.527 -0.5889 -0.9525  0.6677
 5815SOL     OW28903   3.467   4.525   8.155  0.3674  0.1451  0.5972
 5815SOL    HW128904   3.514   4.547   8.236  2.3453 -0.5142 -0.3774
 5815SOL    HW228905   3.377   4.545   8.182  0.3771  0.3253  0.4974
 5816SOL     OW28906   2.677   4.683   3.647  0.1652 -0.0856  0.3028
 5816SOL    HW128907   2.639   4.621   3.710  0.8831  0.3024  1.1174
 5816SOL    HW228908   2.691   4.620   3.577  1.2471  0.5120 -0.0194
 5817SOL     OW28909   3.905   2.852   6.736 -0.3980  0.1598  0.6742
 5817SOL    HW128910   3.931   2.924   6.679 -0.0926  0.3052  0.9974
 5817SOL    HW228911   3.992   2.820   6.760 -0.5884 -0.8622  0.0052
 5818SOL     OW28912   0.540   0.445   6.544 -0.3404  0.7693 -0.1624
 5818SOL    HW128913   0.491   0.476   6.620 -1.2650 -0.7729 -0.1336
 5818SOL    HW228914   0.592   0.376   6.584  0.0469 -0.4705 -2.7673
 5819SOL     OW28915   2.346   2.220   1.650  0.3999 -0.1417  0.0235
 5819SOL    HW128916   2.311   2.260   1.570 -0.2836 -2.6822 -0.9773
 5819SOL    HW228917   2.409   2.159   1.610 -0.7082 -0.1046 -1.8012
 5820SOL     OW28918   3.209   1.379  16.421 -0.6588  0.0354 -0.1245
 5820SOL    HW128919   3.187   1.385  16.514  1.9933 -3.0180  0.6828
 5820SOL    HW228920   3.210   1.467  16.383 -1.7056  0.3332  0.5392
 5821SOL     OW28921   1.558   4.249   6.129  0.0770  0.0771  0.0061
 5821SOL    HW128922   1.546   4.344   6.118  1.1030  0.3183  0.8302
 5821SOL    HW228923   1.561   4.246   6.225 -2.3744 -3.0588 -0.0374
 5822SOL     OW28924   4.042   0.909  17.030  0.1379  0.2452  0.2168
 5822SOL    HW128925   3.962   0.946  17.065  1.7747  3.9884 -0.0406
 5822SOL    HW228926   4.071   0.973  16.965  2.3592 -0.2037  0.7473
 5823SOL     OW28927   1.297   1.080   1.170 -0.3042  0.2947  0.4146
 5823SOL    HW128928   1.242   1.158   1.183  0.2034  0.2888  2.6313
 5823SOL    HW228929   1.242   1.027   1.113 -0.2457  0.3964  0.2640
 5824SOL     OW28930   2.781   2.393   0.225 -0.1740  0.5749  0.1177
 5824SOL    HW128931   2.803   2.300   0.219 -1.4750  0.1375  2.0845
 5824SOL    HW228932   2.721   2.410   0.153  2.1757 -1.4598 -2.3072
 5825SOL     OW28933   4.578   2.675   8.647 -0.1046  0.5003 -0.2137
 5825SOL    HW128934   4.609   2.766   8.639  1.8097 -0.3435 -2.3437
 5825SOL    HW228935   4.552   2.676   8.739 -1.0282 -0.0145 -0.4651
 5826SOL     OW28936   0.435   0.289   6.774 -0.1274 -0.2356 -0.0874
 5826SOL    HW128937   0.368   0.234   6.815 -0.1322 -0.5754 -0.5568
 5826SOL    HW228938   0.516   0.256   6.813  0.4168 -3.1726 -3.6557
 5827SOL     OW28939   2.153   3.475   7.548  0.2068  0.4800  0.0752
 5827SOL    HW128940   2.192   3.491   7.462 -1.4661 -0.1336 -0.8088
 5827SOL    HW228941   2.140   3.566   7.573 -0.1580  0.8521 -1.4358
 5828SOL     OW28942   4.702   4.026  13.942 -0.1145 -0.3000  0.2036
 5828SOL    HW128943   0.003   4.109  13.905 -0.0844  0.3110  1.6219
 5828SOL    HW228944   4.656   4.048  14.023  2.2853  0.9407  1.2163
 5829SOL     OW28945   4.062   4.314   2.981 -0.1333 -0.1346 -0.2239
 5829SOL    HW128946   4.146   4.271   2.997  0.2768  0.8379  0.2412
 5829SOL    HW228947   4.038   4.264   2.902  2.5549  0.8979 -1.6736
 5830SOL     OW28948   1.594   1.242  15.951 -0.4569  0.1087 -0.0604
 5830SOL    HW128949   1.665   1.217  16.010  0.7585  2.4268 -0.5192
 5830SOL    HW228950   1.533   1.192  16.004  0.1871 -0.2167  0.3766
 5831SOL     OW28951   3.914   0.761   6.129  0.2248  0.0812 -0.2035
 5831SOL    HW128952   3.852   0.700   6.168 -1.4565  1.2448 -1.0264
 5831SOL    HW228953   3.991   0.705   6.124  0.0734 -0.2532  1.4926
 5832SOL     OW28954   3.563   2.669  13.453 -0.3491 -0.2101 -0.1769
 5832SOL    HW128955   3.644   2.629  13.485  0.0009  0.9218  0.3604
 5832SOL    HW228956   3.518   2.596  13.411 -1.3917  0.1244  0.3379
 5833SOL     OW28957   4.493   0.455  13.799  0.2132 -0.9286 -0.1610
 5833SOL    HW128958   4.588   0.449  13.797  0.4783  2.1831  3.3773
 5833SOL    HW228959   4.470   0.486  13.711  1.6212 -1.3738 -0.6809
 5834SOL     OW28960   2.255   3.312  16.110 -0.2356 -0.6097  0.2306
 5834SOL    HW128961   2.250   3.339  16.202  0.1259  2.0347 -0.5297
 5834SOL    HW228962   2.341   3.270  16.116 -0.0954 -0.1273  1.5438
 5835SOL     OW28963   3.333   2.176   4.713 -0.3757  0.1613 -0.0321
 5835SOL    HW128964   3.340   2.179   4.618 -0.6092 -0.1533 -0.0604
 5835SOL    HW228965   3.305   2.263   4.740 -0.2293 -0.3094  1.7102
 5836SOL     OW28966   1.497   3.716   1.880  0.1093  0.0548 -0.8594
 5836SOL    HW128967   1.425   3.679   1.931 -0.3550  2.1589 -0.0119
 5836SOL    HW228968   1.574   3.698   1.934 -1.3501  1.3671  1.6222
 5837SOL     OW28969   4.196   4.515   6.828 -0.2156 -0.3759  0.0526
 5837SOL    HW128970   4.242   4.435   6.854 -0.5661 -1.0690 -1.4359
 5837SOL    HW228971   4.132   4.484   6.764  0.7774 -1.9424 -0.1839
 5838SOL     OW28972   1.714   3.442  11.538  0.1892 -0.2083 -0.5832
 5838SOL    HW128973   1.750   3.407  11.620 -1.5214  1.7567  1.0066
 5838SOL    HW228974   1.621   3.428  11.552  0.0712  1.7108  0.5204
 5839SOL     OW28975   2.309   3.951  15.589  0.5808  0.0349 -0.0301
 5839SOL    HW128976   2.240   4.017  15.586 -1.1730 -1.8184 -0.5516
 5839SOL    HW228977   2.353   3.955  15.674 -0.2123  1.4214  0.3058
 5840SOL     OW28978   1.959   3.267  15.187  0.5782  0.3936  0.0721
 5840SOL    HW128979   1.890   3.202  15.177  1.1163 -0.5189  2.2381
 5840SOL    HW228980   1.914   3.350  15.204 -1.7855 -0.8791  0.0132
 5841SOL     OW28981   0.756   1.146   1.702 -0.7500  0.6345  0.1664
 5841SOL    HW128982   0.824   1.100   1.652 -2.4034  0.2533 -1.7161
 5841SOL    HW228983   0.773   1.126   1.794  0.7647 -1.0879 -0.5006
 5842SOL     OW28984   3.945   2.771   5.549  0.2755  0.0557  0.9552
 5842SOL    HW128985   3.971   2.680   5.535 -1.7565 -0.6203  1.6360
 5842SOL    HW228986   3.910   2.782   5.460  0.5140 -1.1680  0.7084
 5843SOL     OW28987   3.588   2.534  13.916  0.3974  0.6986 -0.3212
 5843SOL    HW128988   3.526   2.603  13.939  0.3724 -0.4182  2.8128
 5843SOL    HW228989   3.628   2.533  14.002 -1.5259  0.8773  0.5654
 5844SOL     OW28990   1.803   3.702   8.533 -0.1631  0.3940 -0.0755
 5844SOL    HW128991   1.814   3.791   8.568  2.6822 -0.2595  0.7235
 5844SOL    HW228992   1.756   3.664   8.607  1.0345  1.6063  1.3102
 5845SOL     OW28993   3.742   1.192   4.393  0.0270 -0.1846  0.4392
 5845SOL    HW128994   3.776   1.150   4.472 -1.4064 -0.5339  0.8621
 5845SOL    HW228995   3.727   1.118   4.334 -0.2945  0.3586 -0.1557
 5846SOL     OW28996   2.452   2.606   3.803 -0.0264 -0.6206  0.3335
 5846SOL    HW128997   2.405   2.606   3.719  1.3107  2.1780 -0.4463
 5846SOL    HW228998   2.543   2.594   3.776 -0.0645 -0.0727 -0.0393
 5847SOL     OW28999   0.255   3.235  10.017 -0.1598 -0.3130 -0.3415
 5847SOL    HW129000   0.241   3.315   9.967  2.7320 -1.2194 -2.6501
 5847SOL    HW229001   0.348   3.247  10.039 -0.7298  1.1523  1.2404
 5848SOL     OW29002   0.971   3.951  10.269 -0.0137 -0.1645 -0.0053
 5848SOL    HW129003   0.949   4.028  10.320  0.5687 -0.9347  1.3914
 5848SOL    HW229004   1.048   3.981  10.219 -0.0536  0.6509  0.4315
 5849SOL     OW29005   2.212   2.175   4.902  0.1828  0.2800  0.0828
 5849SOL    HW129006   2.151   2.246   4.884  1.6135  0.8550 -2.5052
 5849SOL    HW229007   2.213   2.168   4.997  0.1901 -2.0595 -0.0675
 5850SOL     OW29008   0.848   2.987   4.326  0.0525 -0.2193 -0.4368
 5850SOL    HW129009   0.775   2.927   4.312 -0.0606  0.1762 -1.5719
 5850SOL    HW229010   0.881   2.959   4.411  2.1402  0.8142 -0.9192
 5851SOL     OW29011   3.760   0.861   2.025  0.0738  0.1484 -0.8045
 5851SOL    HW129012   3.830   0.925   2.028 -0.3620  0.5639  0.2992
 5851SOL    HW229013   3.802   0.777   2.005  0.6425  0.3650 -0.5057
 5852SOL     OW29014   2.715   0.967   3.491 -0.4560  0.1154 -0.6580
 5852SOL    HW129015   2.745   0.937   3.577  1.5107  0.8819 -1.0792
 5852SOL    HW229016   2.624   0.969   3.519 -0.4941 -3.0445 -0.5249
 5853SOL     OW29017   3.389   3.621  11.802 -0.7660 -0.0203  0.9120
 5853SOL    HW129018   3.436   3.659  11.876 -0.6811  2.4093 -0.4047
 5853SOL    HW229019   3.377   3.690  11.737 -1.0285 -1.4125 -0.5187
 5854SOL     OW29020   1.355   1.612   7.312 -0.0117 -0.3754  0.1873
 5854SOL    HW129021   1.343   1.520   7.336 -1.8549 -0.2086 -0.0394
 5854SOL    HW229022   1.425   1.642   7.368  2.9617 -1.6852 -2.7955
 5855SOL     OW29023   1.491   4.431  15.976  0.2711 -0.3122  0.4809
 5855SOL    HW129024   1.440   4.350  15.968 -0.6379  0.4123 -1.2004
 5855SOL    HW229025   1.579   4.395  15.963 -0.0610 -0.6024 -1.0412
 5856SOL     OW29026   1.899   0.198   4.020  0.5618  0.0730 -0.1187
 5856SOL    HW129027   1.835   0.137   3.982  0.5766  1.0858 -1.7930
 5856SOL    HW229028   1.896   0.185   4.114 -1.2431  1.0836 -0.0358
 5857SOL     OW29029   0.275   1.868  13.028 -0.0771 -0.2265 -0.1148
 5857SOL    HW129030   0.235   1.953  13.005 -2.7651 -0.4983  3.6308
 5857SOL    HW229031   0.355   1.883  12.978  0.9105 -1.9872  0.9779
 5858SOL     OW29032   4.095   4.662   5.954  0.1128  0.1537  0.6753
 5858SOL    HW129033   4.050   4.578   5.951 -0.3420  0.5738 -3.4109
 5858SOL    HW229034   4.147   4.645   6.033 -0.0023  0.4777  0.8217
 5859SOL     OW29035   1.738   2.237  15.184  0.4947 -0.0791  0.4009
 5859SOL    HW129036   1.708   2.150  15.210 -1.2356  0.0214 -1.2957
 5859SOL    HW229037   1.802   2.247  15.255  0.4060 -0.4569  0.5361
 5860SOL     OW29038   3.526   2.507   7.038 -0.4616  0.1512 -0.2686
 5860SOL    HW129039   3.533   2.472   7.127  2.1548  0.8913 -0.1821
 5860SOL    HW229040   3.563   2.439   6.982 -0.4567  0.8613 -1.1332
 5861SOL     OW29041   1.212   3.202   7.409 -0.1335  0.2785  0.4496
 5861SOL    HW129042   1.270   3.128   7.431 -0.0578  0.1006 -0.3512
 5861SOL    HW229043   1.270   3.253   7.353 -1.4201  1.1906 -0.0455
 5862SOL     OW29044   4.336   2.381   5.477  0.5906 -0.5479  0.2122
 5862SOL    HW129045   4.373   2.433   5.549  1.1880 -1.5343  0.6143
 5862SOL    HW229046   4.272   2.331   5.527  2.7039 -2.3119  1.1605
 5863SOL     OW29047   0.203   4.520   1.536  0.2375  0.3683  0.8543
 5863SOL    HW129048   0.156   4.600   1.558  1.1654  1.0364  0.4223
 5863SOL    HW229049   0.240   4.496   1.621  4.1581 -0.8435 -1.1788
 5864SOL     OW29050   0.597   2.606  12.573  0.2412  0.2489  0.1133
 5864SOL    HW129051   0.540   2.683  12.574  1.1424  0.8870  2.0120
 5864SOL    HW229052   0.601   2.567  12.660  1.7068 -1.1662 -0.5870
 5865SOL     OW29053   4.318   0.439   1.705  0.9050  0.1812  0.0952
 5865SOL    HW129054   4.232   0.431   1.664  0.0691  2.5968  1.3905
 5865SOL    HW229055   4.299   0.379   1.777  3.6061  0.2585  0.8773
 5866SOL     OW29056   1.143   0.003   0.686 -0.0903  0.5657  0.4343
 5866SOL    HW129057   1.097   4.716   0.603  0.4882  1.5335 -0.0480
 5866SOL    HW229058   1.205   4.658   0.689 -1.0364 -0.2068  1.6310
 5867SOL     OW29059   1.633   1.636   9.578  0.3429  0.3456  0.5781
 5867SOL    HW129060   1.544   1.607   9.557  0.1580  0.5255  1.1304
 5867SOL    HW229061   1.692   1.564   9.556  1.1525  1.9068 -2.5304
 5868SOL     OW29062   3.973   0.819  11.995  0.4584  0.0252  0.1280
 5868SOL    HW129063   3.890   0.835  12.038  0.4360  0.6824 -0.1595
 5868SOL    HW229064   3.928   0.792  11.915  0.3540 -3.0021  1.2143
 5869SOL     OW29065   0.717   4.656  10.674 -0.1383 -0.4165 -0.3789
 5869SOL    HW129066   0.684   0.018  10.670  0.3893 -0.1314  1.5279
 5869SOL    HW229067   0.644   4.608  10.714  0.6492 -0.3679  1.1002
 5870SOL     OW29068   3.343   3.586   2.477  0.4240  0.4378  0.3389
 5870SOL    HW129069   3.416   3.525   2.466  0.7727  1.5348 -3.3355
 5870SOL    HW229070   3.391   3.648   2.532  0.5406  0.1759  0.5330
 5871SOL     OW29071   2.737   1.594   2.980 -0.3955  0.5703 -0.1051
 5871SOL    HW129072   2.676   1.559   2.915  0.9104 -2.0040  0.0570
 5871SOL    HW229073   2.795   1.532   3.023 -1.2211  0.2757  0.5735
 5872SOL     OW29074   2.123   0.947   2.385  0.0187 -0.1036  0.2224
 5872SOL    HW129075   2.056   0.955   2.318  1.6025 -0.9406 -1.4554
 5872SOL    HW229076   2.205   0.934   2.337  0.4176  0.0793  0.8521
 5873SOL     OW29077   1.914   2.035   8.988 -0.0454 -0.6004  0.3589
 5873SOL    HW129078   1.926   2.042   9.083  2.7062  2.8504 -0.2312
 5873SOL    HW229079   1.975   1.966   8.961  2.7927  1.1335  2.2577
 5874SOL     OW29080   2.580   1.871   7.167  0.1617 -0.2271 -0.2224
 5874SOL    HW129081   2.550   1.904   7.083 -0.2981  0.9059  0.3806
 5874SOL    HW229082   2.558   1.942   7.228 -2.2524 -1.5283  0.4362
 5875SOL     OW29083   2.809   1.773   2.557 -0.2480 -0.0308 -0.0037
 5875SOL    HW129084   2.811   1.824   2.638 -0.4450 -2.0533  1.2743
 5875SOL    HW229085   2.717   1.778   2.529 -0.4621 -2.2096  0.2740
 5876SOL     OW29086   4.074   2.148   4.905 -0.2604  0.4226  0.7458
 5876SOL    HW129087   4.087   2.139   4.811  0.4001 -0.7434  0.9393
 5876SOL    HW229088   4.059   2.057   4.933  2.3657  0.1731  1.4194
 5877SOL     OW29089   1.150   4.267   8.448  0.5926 -0.3357 -0.3423
 5877SOL    HW129090   1.161   4.184   8.494  2.6849  0.9656  1.5042
 5877SOL    HW229091   1.191   4.242   8.365  2.5250 -0.0818  0.5450
 5878SOL     OW29092   1.130   1.501   1.519  0.9513  0.3710  0.1936
 5878SOL    HW129093   1.119   1.470   1.609 -0.4154  0.8104  0.1715
 5878SOL    HW229094   1.099   1.418   1.482  0.1078  0.3887  0.8512
 5879SOL     OW29095   1.195   2.594  10.955  0.5897  0.0513 -0.1729
 5879SOL    HW129096   1.261   2.627  10.894 -0.3491  0.3214 -1.0559
 5879SOL    HW229097   1.210   2.653  11.029 -1.6404 -0.3393  0.6049
 5880SOL     OW29098   3.645   1.789   4.522  0.4739  0.0041  0.0312
 5880SOL    HW129099   3.608   1.829   4.601  0.4259 -1.0246  0.5422
 5880SOL    HW229100   3.644   1.694   4.537 -0.9286  0.3323  2.0087
 5881SOL     OW29101   1.217   3.241  15.099  0.0780 -0.4247 -0.1848
 5881SOL    HW129102   1.231   3.207  15.011  1.2459  0.1666 -0.2258
 5881SOL    HW229103   1.157   3.313  15.079  1.0881  0.2510 -0.7181
 5882SOL     OW29104   4.720   4.458   7.085 -0.4113  0.2746 -0.0803
 5882SOL    HW129105   4.687   4.483   7.172  0.9072  1.9094 -0.0589
 5882SOL    HW229106   0.054   4.387   7.102 -1.9409 -1.3414 -1.2800
 5883SOL     OW29107   2.562   3.162   0.361 -0.1333  0.3118 -0.1799
 5883SOL    HW129108   2.473   3.158   0.396  1.0093 -2.8719  2.3596
 5883SOL    HW229109   2.552   3.101   0.288 -1.0807  1.2075 -0.8039
 5884SOL     OW29110   3.683   4.255   8.541 -0.2931  0.1896 -0.2393
 5884SOL    HW129111   3.680   4.312   8.617 -0.8131 -0.3017  0.1030
 5884SOL    HW229112   3.704   4.175   8.588  0.3207  1.0439  0.9407
 5885SOL     OW29113   4.294   4.590   4.603 -0.1738  0.0423  0.0451
 5885SOL    HW129114   4.380   4.576   4.565 -1.3193  2.1471 -3.3515
 5885SOL    HW229115   4.302   4.681   4.633 -3.4002  0.7398 -1.1899
 5886SOL     OW29116   1.040   0.175   0.295  0.4381 -0.3207 -0.9188
 5886SOL    HW129117   1.066   0.085   0.317 -1.8579 -1.4510 -2.7002
 5886SOL    HW229118   0.967   0.189   0.356  1.8011  0.6568  0.4719
 5887SOL     OW29119   1.335   1.741   2.769 -0.6997 -0.2678  0.5578
 5887SOL    HW129120   1.312   1.653   2.737 -1.0611  1.0389 -2.8431
 5887SOL    HW229121   1.428   1.751   2.747 -0.3831 -0.4374  1.8668
 5888SOL     OW29122   3.598   3.592   1.041  0.2839  0.2201 -0.3722
 5888SOL    HW129123   3.584   3.500   1.019 -0.4894 -0.0280  1.1120
 5888SOL    HW229124   3.646   3.610   0.961 -0.1661  0.4433 -0.5933
 5889SOL     OW29125   0.831   1.274   7.338  0.1182 -0.5848 -0.4390
 5889SOL    HW129126   0.897   1.332   7.376 -1.4021  0.5003  0.5633
 5889SOL    HW229127   0.866   1.258   7.250 -1.9392 -0.9025 -1.2170
 5890SOL     OW29128   3.848   4.682   9.357  0.7447 -0.3030  0.2286
 5890SOL    HW129129   3.827   4.693   9.264  0.2877 -0.9441  0.2628
 5890SOL    HW229130   3.891   0.039   9.373  1.2561 -0.3393 -0.9191
 5891SOL     OW29131   0.893   0.539   5.502 -0.1943  0.4577 -0.1615
 5891SOL    HW129132   0.893   0.572   5.412  1.9309  0.8494 -0.0027
 5891SOL    HW229133   0.858   0.615   5.549  0.8965 -0.1788  1.6703
 5892SOL     OW29134   2.504   0.212   5.497  0.2980 -0.4915 -0.1132
 5892SOL    HW129135   2.498   0.135   5.553  0.7581  0.2461  0.9585
 5892SOL    HW229136   2.432   0.195   5.436 -0.4826  1.3965  0.2786
 5893SOL     OW29137   0.528   2.629  13.752 -0.0866 -0.4409  0.2022
 5893SOL    HW129138   0.436   2.605  13.752 -0.0486 -0.5284  1.7609
 5893SOL    HW229139   0.565   2.554  13.706  0.5321 -0.8162  1.3174
 5894SOL     OW29140   0.017   4.716   6.874  0.6171 -0.0641  0.4887
 5894SOL    HW129141   0.008   4.631   6.916 -1.5103  0.0586  0.2655
 5894SOL    HW229142   4.678   0.048   6.909 -0.0546 -0.9878  0.7492
 5895SOL     OW29143   2.856   1.205  16.620  0.0084 -0.5130  0.1570
 5895SOL    HW129144   2.825   1.237  16.536  1.8293  0.3666 -0.1730
 5895SOL    HW229145   2.923   1.142  16.594  1.2529  1.0771 -0.4857
 5896SOL     OW29146   2.002   3.981   3.052  0.5845 -0.5253 -0.1352
 5896SOL    HW129147   2.026   3.908   3.108 -1.8255  1.0412  2.9452
 5896SOL    HW229148   2.062   3.980   2.977 -0.4100  0.3838 -0.9593
 5897SOL     OW29149   2.309   2.758   7.145 -0.0083 -0.3034  0.3019
 5897SOL    HW129150   2.359   2.785   7.222  0.2902 -0.1539  0.0575
 5897SOL    HW229151   2.380   2.723   7.090  0.6709 -0.4604  1.2886
 5898SOL     OW29152   1.614   1.554   0.204  0.4709  0.2596  0.2554
 5898SOL    HW129153   1.706   1.579   0.205  0.8381 -1.0129 -1.2423
 5898SOL    HW229154   1.618   1.488   0.273 -1.6864  1.1714  1.2652
 5899SOL     OW29155   3.958   1.057  16.278  0.0754 -0.0232 -0.6198
 5899SOL    HW129156   3.905   1.137  16.273 -0.7186 -0.5802 -1.1321
 5899SOL    HW229157   4.048   1.075  16.253  0.6988 -0.8398  1.0429
 5900SOL     OW29158   2.233   2.874   9.859  0.4065  0.5179  0.3181
 5900SOL    HW129159   2.248   2.800   9.800 -2.8183  0.3613 -0.3459
 5900SOL    HW229160   2.315   2.922   9.856  0.1090  1.0924  1.3451
 5901SOL     OW29161   2.482   3.532  10.922  0.3007 -0.4640 -0.5840
 5901SOL    HW129162   2.511   3.442  10.907  1.5526  0.3071 -2.8664
 5901SOL    HW229163   2.473   3.564  10.832 -0.7822 -0.5114 -0.4944
 5902SOL     OW29164   1.467   4.068  14.106  0.5216 -0.3346 -0.1535
 5902SOL    HW129165   1.485   3.995  14.047  0.7696 -1.4168  1.2521
 5902SOL    HW229166   1.420   4.024  14.177 -0.9032  1.3477 -0.0812
 5903SOL     OW29167   2.187   4.483   7.451 -0.8273  0.4798 -0.1859
 5903SOL    HW129168   2.225   4.565   7.482 -1.6778  0.2135  1.5605
 5903SOL    HW229169   2.122   4.477   7.521 -1.7584  1.2095 -1.0043
 5904SOL     OW29170   1.164   0.240   3.609  0.0163  0.2617  0.0512
 5904SOL    HW129171   1.253   0.259   3.639 -0.2928 -0.7448  1.6162
 5904SOL    HW229172   1.142   0.166   3.665 -1.2106 -0.6076 -1.5828
 5905SOL     OW29173   2.151   1.197   4.333 -0.3530  0.1394  0.0661
 5905SOL    HW129174   2.080   1.228   4.277 -1.5124 -0.0626  1.4206
 5905SOL    HW229175   2.238   1.194   4.292  0.0291 -0.2084  0.8925
 5906SOL     OW29176   2.647   0.692   4.627  0.5425  0.0130  0.7038
 5906SOL    HW129177   2.572   0.727   4.675 -0.3819 -1.2764  0.2070
 5906SOL    HW229178   2.718   0.695   4.691 -0.4440 -0.8121  1.8446
 5907SOL     OW29179   1.632   4.596   9.863 -0.4077 -0.0950  0.5920
 5907SOL    HW129180   1.689   4.586   9.940 -0.4219 -0.6470  0.5310
 5907SOL    HW229181   1.574   4.520   9.874  0.7119 -1.1242 -0.6003
 5908SOL     OW29182   1.798   3.605  11.336  0.4459 -0.6680  0.3062
 5908SOL    HW129183   1.759   3.543  11.397 -1.0863  0.4681  0.4702
 5908SOL    HW229184   1.887   3.620  11.369  0.0775 -1.5111  1.6312
 5909SOL     OW29185   0.275   1.809   5.831 -0.3913  0.0214  0.2405
 5909SOL    HW129186   0.312   1.791   5.744 -1.6803 -0.3581 -0.2327
 5909SOL    HW229187   0.289   1.725   5.874  1.9693  0.0686 -0.4409
 5910SOL     OW29188   3.605   2.933   9.400  0.7457 -0.5672 -0.6301
 5910SOL    HW129189   3.626   2.921   9.307  1.3749 -0.9141 -0.4467
 5910SOL    HW229190   3.513   2.958   9.387  0.5024 -1.4294 -0.5980
 5911SOL     OW29191   0.531   4.139   6.167  0.2172  0.5670 -0.1710
 5911SOL    HW129192   0.480   4.064   6.135 -0.3484  0.6320  0.5698
 5911SOL    HW229193   0.545   4.109   6.257  3.1475 -2.1544 -1.5091
 5912SOL     OW29194   0.700   0.907   3.072  0.1180  0.9898 -0.4251
 5912SOL    HW129195   0.737   0.916   3.160  2.6787  0.2057 -1.4515
 5912SOL    HW229196   0.698   0.999   3.043 -1.4726  0.4124 -2.1589
 5913SOL     OW29197   2.017   0.487   7.915 -0.4250 -0.0962 -0.0789
 5913SOL    HW129198   2.062   0.480   7.999 -2.4709 -1.7917  0.8442
 5913SOL    HW229199   1.947   0.541   7.951 -1.4373 -0.0704 -2.0731
 5914SOL     OW29200   0.136   2.857   8.997 -0.5453 -0.4552 -0.1123
 5914SOL    HW129201   0.057   2.807   8.980 -0.8938 -0.1776  0.7104
 5914SOL    HW229202   0.204   2.790   8.996 -0.9275 -0.8314 -2.2242
 5915SOL     OW29203   0.171   3.406  14.923  0.4377  0.1561 -0.4402
 5915SOL    HW129204   0.169   3.500  14.903  0.1368  1.0340  3.5829
 5915SOL    HW229205   0.227   3.396  15.000  1.6959 -0.1128 -1.3971
 5916SOL     OW29206   2.135   2.608   3.382  0.0596 -0.0333 -0.1103
 5916SOL    HW129207   2.150   2.514   3.394 -1.1365 -0.1121  0.8555
 5916SOL    HW229208   2.222   2.636   3.355 -0.2473  1.5150  0.4691
 5917SOL     OW29209   0.650   2.967   7.740  0.2668 -0.0321  0.6451
 5917SOL    HW129210   0.615   3.016   7.666  0.3467 -0.2626  0.4549
 5917SOL    HW229211   0.577   2.907   7.755  0.0606  0.1572  0.3846
 5918SOL     OW29212   0.730   0.769   5.587  0.1143 -0.3338 -0.5703
 5918SOL    HW129213   0.719   0.841   5.649 -0.8203 -1.3975  0.4834
 5918SOL    HW229214   0.726   0.816   5.504  2.6051  0.1373 -0.4476
 5919SOL     OW29215   1.732   3.098  11.343  0.4890 -0.4153 -0.1005
 5919SOL    HW129216   1.820   3.126  11.369  0.5855 -0.1477 -0.7105
 5919SOL    HW229217   1.764   3.055  11.264  1.2279 -2.2167  1.1867
 5920SOL     OW29218   2.849   1.677  17.059 -0.2633  0.4609 -0.3923
 5920SOL    HW129219   2.780   1.731  17.096 -1.8893 -0.8563 -1.4730
 5920SOL    HW229220   2.844   1.607  17.124 -2.1951 -0.9204 -2.0433
 5921SOL     OW29221   0.036   1.522   6.370  0.2494  0.0263  0.3774
 5921SOL    HW129222   4.709   1.444   6.360 -0.9562  0.7661  1.2373
 5921SOL    HW229223   0.033   1.560   6.282 -2.6086 -2.1380 -0.4794
 5922SOL     OW29224   0.702   2.640   4.204 -0.1344 -0.7406  0.0577
 5922SOL    HW129225   0.792   2.620   4.178 -0.8364 -2.7412 -0.8640
 5922SOL    HW229226   0.667   2.560   4.164  2.2089 -0.2259 -3.0291
 5923SOL     OW29227   4.392   2.349  12.866  0.3861  0.2670 -0.6398
 5923SOL    HW129228   4.391   2.297  12.786  1.8181  0.4374 -0.7720
 5923SOL    HW229229   4.304   2.367  12.899  1.3064  0.9160  1.4656
 5924SOL     OW29230   1.402   4.642  17.474 -0.3790  0.1476 -0.2248
 5924SOL    HW129231   1.421   4.579  17.404 -2.6415  0.9282 -1.5314
 5924SOL    HW229232   1.367   4.588  17.545  0.2185  0.0118 -0.0347
 5925SOL     OW29233   2.158   2.087   7.680 -0.4665  0.3898 -0.6666
 5925SOL    HW129234   2.146   1.996   7.652  2.5862 -0.6277  1.2969
 5925SOL    HW229235   2.252   2.098   7.691 -0.5042 -0.2588  0.3087
 5926SOL     OW29236   0.010   1.909   1.645 -0.1906  0.1618 -0.0350
 5926SOL    HW129237   4.706   1.822   1.668 -0.7655  0.3640 -0.0520
 5926SOL    HW229238   0.056   1.944   1.721  1.2471 -1.8562  0.0209
 5927SOL     OW29239   3.308   0.442   8.069 -0.2673  0.2551  0.4180
 5927SOL    HW129240   3.213   0.436   8.083 -0.6646  0.8404 -1.9801
 5927SOL    HW229241   3.324   0.512   8.132 -2.3061  1.3003 -0.2295
 5928SOL     OW29242   3.339   4.484   3.008 -0.3809  0.3589  0.1144
 5928SOL    HW129243   3.428   4.484   2.972 -0.7739  0.6150 -0.8572
 5928SOL    HW229244   3.349   4.528   3.092 -1.2769 -0.5969  0.7168
 5929SOL     OW29245   3.516   0.542  15.538  0.0423  0.1232 -0.2950
 5929SOL    HW129246   3.581   0.569  15.603 -0.5971  1.5108 -0.2140
 5929SOL    HW229247   3.489   0.632  15.517  0.6121  0.8617  2.1648
 5930SOL     OW29248   4.615   2.594  14.441 -0.5218 -0.0587 -0.0637
 5930SOL    HW129249   4.666   2.644  14.378  2.0378 -0.0993  1.9743
 5930SOL    HW229250   4.634   2.625  14.530  2.0921 -2.1097  0.0819
 5931SOL     OW29251   2.331   3.809   6.043  0.1883 -0.4744 -0.2385
 5931SOL    HW129252   2.239   3.784   6.040  0.0244  0.0027  0.6906
 5931SOL    HW229253   2.313   3.902   6.060 -2.3621 -0.8093 -1.1783
 5932SOL     OW29254   3.270   1.540   6.847 -0.7429 -0.1710 -0.8819
 5932SOL    HW129255   3.314   1.480   6.787  1.5269 -0.6220  1.2140
 5932SOL    HW229256   3.181   1.506   6.850 -0.8469  0.0873 -1.0589
 5933SOL     OW29257   2.390   0.798  10.615 -0.3186  0.1644  0.6109
 5933SOL    HW129258   2.484   0.788  10.630 -0.5570  0.0200  1.9871
 5933SOL    HW229259   2.376   0.836  10.702 -0.9456  2.7762 -0.6485
 5934SOL     OW29260   3.842   0.670   2.749  0.1998  0.3137 -0.0828
 5934SOL    HW129261   3.928   0.681   2.791  0.3587  3.6270 -1.1963
 5934SOL    HW229262   3.812   0.588   2.786 -0.0916  0.3211 -0.3006
 5935SOL     OW29263   2.233   2.357  16.613  0.0611  0.1648  0.2996
 5935SOL    HW129264   2.322   2.331  16.588  1.1764  0.7745  3.6007
 5935SOL    HW229265   2.224   2.444  16.573  1.2677 -0.2371 -0.8163
 5936SOL     OW29266   2.024   3.399   5.384 -0.2868  0.4371  0.9081
 5936SOL    HW129267   2.116   3.412   5.364 -0.1047  1.5686  2.4814
 5936SOL    HW229268   1.980   3.472   5.339 -1.0186 -0.2837  0.4524
 5937SOL     OW29269   0.671   1.162   2.855 -0.2032 -0.0385  0.5397
 5937SOL    HW129270   0.653   1.251   2.824 -1.0116 -0.0287  1.0560
 5937SOL    HW229271   0.688   1.193   2.944 -3.1638 -2.6588  2.0140
 5938SOL     OW29272   1.316   1.623  14.748  0.4438 -0.4941  0.0955
 5938SOL    HW129273   1.384   1.689  14.733 -0.1036 -0.2980 -1.5242
 5938SOL    HW229274   1.262   1.638  14.670  0.0085 -2.0920  0.0834
 5939SOL     OW29275   3.230   1.349   3.550  0.1557 -0.6835 -0.0361
 5939SOL    HW129276   3.262   1.339   3.460 -0.9946  0.5951 -0.6000
 5939SOL    HW229277   3.290   1.418   3.577  0.2212 -0.9611  0.5273
 5940SOL     OW29278   1.892   3.770  16.876 -0.0339  0.4199  0.4109
 5940SOL    HW129279   1.805   3.747  16.909 -1.0958  2.2206 -1.1561
 5940SOL    HW229280   1.873   3.777  16.783  0.1634 -1.0788  0.2629
 5941SOL     OW29281   1.010   0.612   6.704 -0.0494 -0.2034  0.1653
 5941SOL    HW129282   0.972   0.570   6.781  1.9932 -0.3372  1.0916
 5941SOL    HW229283   1.102   0.620   6.730 -0.4706  2.0152  0.9302
 5942SOL     OW29284   2.802   3.218   0.087 -0.0744  0.2208 -0.2128
 5942SOL    HW129285   2.734   3.169   0.134  0.3427 -0.1624 -0.0066
 5942SOL    HW229286   2.788   3.303   0.128  0.6191  0.4771 -0.5141
 5943SOL     OW29287   1.465   3.896   7.511  0.4880  0.2295 -0.1497
 5943SOL    HW129288   1.386   3.843   7.526 -0.5847  1.3397 -1.7752
 5943SOL    HW229289   1.475   3.886   7.416  1.3647 -1.2092  0.1096
 5944SOL     OW29290   1.190   0.272   7.003  0.2498 -0.1512 -0.5346
 5944SOL    HW129291   1.285   0.274   6.993  0.3128 -0.7432 -0.0647
 5944SOL    HW229292   1.170   0.359   7.035  1.4426 -0.1225  0.1333
 5945SOL     OW29293   0.009   1.088  13.286 -0.2053  0.2571  0.0659
 5945SOL    HW129294   4.720   1.026  13.357  0.1795  1.4038  1.1481
 5945SOL    HW229295   4.680   1.035  13.230 -0.1062  0.9092 -0.6637
 5946SOL     OW29296   0.114   4.035   5.951  0.2359  0.1349  0.3464
 5946SOL    HW129297   0.036   3.981   5.941  0.9568 -1.3018  2.4472
 5946SOL    HW229298   0.179   3.965   5.951 -1.2741 -1.2670 -0.6375
 5947SOL     OW29299   1.982   4.123   9.371 -0.5052  0.3684  0.0045
 5947SOL    HW129300   2.023   4.117   9.457 -1.3954 -0.6373  0.3646
 5947SOL    HW229301   1.932   4.204   9.379  1.1085  1.4418 -0.8560
 5948SOL     OW29302   3.864   3.265   0.876  0.1564 -0.3686 -0.0895
 5948SOL    HW129303   3.854   3.317   0.796 -0.8344 -1.8460 -0.9417
 5948SOL    HW229304   3.958   3.266   0.892  0.2623 -2.1303 -0.5659
 5949SOL     OW29305   3.742   2.187   8.302 -0.3217  0.6770 -0.1442
 5949SOL    HW129306   3.837   2.178   8.289 -0.2950  1.1279 -0.2713
 5949SOL    HW229307   3.732   2.185   8.397  0.1682  0.9634 -0.0834
 5950SOL     OW29308   2.729   1.300  14.542 -0.1382 -0.1968 -0.0851
 5950SOL    HW129309   2.804   1.320  14.485 -0.2509  1.3679  0.3138
 5950SOL    HW229310   2.745   1.207  14.558 -1.2680 -0.7391 -2.1824
 5951SOL     OW29311   2.379   3.290   7.644 -0.2320 -0.2129  0.1720
 5951SOL    HW129312   2.289   3.319   7.627  0.2622  0.5079 -1.2289
 5951SOL    HW229313   2.389   3.278   7.738 -4.2615  2.3331  0.9674
 5952SOL     OW29314   4.660   2.425   3.139  0.5031 -0.0650  0.0657
 5952SOL    HW129315   0.009   2.368   3.139  0.8290  0.3970 -1.4836
 5952SOL    HW229316   4.708   2.491   3.089  0.5637  0.1621  0.4190
 5953SOL     OW29317   4.067   4.639  17.692 -0.2044  0.3634 -0.0986
 5953SOL    HW129318   4.108   4.725  17.685 -1.2288  0.7646 -1.1136
 5953SOL    HW229319   3.986   4.660   0.027 -0.4407  1.0903 -0.8655
 5954SOL     OW29320   2.910   3.765   9.113  0.0937  0.0729 -0.1910
 5954SOL    HW129321   2.902   3.812   9.195 -1.1303  0.1827 -0.3742
 5954SOL    HW229322   3.004   3.776   9.100 -0.1316  1.7752 -0.3518
 5955SOL     OW29323   3.568   1.050   2.049 -0.3702  0.0073 -0.4664
 5955SOL    HW129324   3.534   1.036   1.961 -0.5392 -1.0653 -0.2294
 5955SOL    HW229325   3.652   1.004   2.045 -0.1710  0.4967 -1.9043
 5956SOL     OW29326   3.066   0.439   5.427 -0.0910  0.7260  0.1670
 5956SOL    HW129327   3.066   0.495   5.505  0.5765  4.0064 -2.1951
 5956SOL    HW229328   2.976   0.407   5.433  1.2368 -2.6897  2.2040
 5957SOL     OW29329   2.566   3.390   1.690  0.6098 -0.1696 -0.0407
 5957SOL    HW129330   2.543   3.396   1.782 -0.6083  1.1821 -0.4341
 5957SOL    HW229331   2.606   3.476   1.687  0.6636 -0.2019 -0.2612
 5958SOL     OW29332   1.532   0.138  10.015 -0.2404  0.5708  0.0656
 5958SOL    HW129333   1.586   0.111   9.940 -1.3725 -1.2537 -0.0869
 5958SOL    HW229334   1.537   0.061  10.072 -1.5188  1.7904  1.7905
 5959SOL     OW29335   3.519   3.778   2.592 -0.2027  0.2483 -0.3642
 5959SOL    HW129336   3.472   3.861   2.598 -0.3896  0.1664 -0.6978
 5959SOL    HW229337   3.582   3.781   2.664  0.0275  0.2672 -0.5646
 5960SOL     OW29338   3.124   1.641   9.694 -0.8586  0.4583  0.1462
 5960SOL    HW129339   3.120   1.736   9.683 -2.2565  0.1945 -1.6380
 5960SOL    HW229340   3.099   1.630   9.786  0.0665  1.0620  0.4711
 5961SOL     OW29341   4.389   2.702   7.903 -0.0459 -0.1386  0.4584
 5961SOL    HW129342   4.391   2.791   7.870  0.5314 -0.3478 -0.0782
 5961SOL    HW229343   4.430   2.713   7.989 -0.4235  2.2332  0.3228
 5962SOL     OW29344   2.158   2.535   5.873  0.0073 -0.0958 -0.9304
 5962SOL    HW129345   2.131   2.451   5.911  0.1663 -0.2770 -1.2257
 5962SOL    HW229346   2.100   2.592   5.924 -0.5194 -1.7589  0.3381
 5963SOL     OW29347   0.414   2.554   2.455  0.0401 -0.1432 -0.2457
 5963SOL    HW129348   0.346   2.613   2.421  0.0831 -1.0370 -1.9095
 5963SOL    HW229349   0.484   2.573   2.392 -0.8330  1.3980 -0.7582
 5964SOL     OW29350   1.658   1.617   4.469 -0.5668  0.0177  0.1718
 5964SOL    HW129351   1.691   1.655   4.387  1.2026  0.8900  1.2667
 5964SOL    HW229352   1.645   1.527   4.440 -0.7502  0.9304 -2.6105
 5965SOL     OW29353   0.715   1.128   3.995  0.0635 -0.0798 -0.4196
 5965SOL    HW129354   0.637   1.176   3.968 -0.4331  0.9411  2.8075
 5965SOL    HW229355   0.748   1.085   3.916  1.2485 -0.6146  0.3679
 5966SOL     OW29356   2.964   3.866   5.716  0.6178 -0.3465  0.0841
 5966SOL    HW129357   3.028   3.795   5.712  1.8493  0.7874 -0.4785
 5966SOL    HW229358   2.951   3.865   5.621 -0.3943  0.9417  0.2143
 5967SOL     OW29359   3.747   4.350  12.096  0.5624 -0.1314 -0.2526
 5967SOL    HW129360   3.699   4.359  12.178 -0.7178  1.0146 -1.1336
 5967SOL    HW229361   3.799   4.430  12.095 -0.5283  0.5877  1.3500
 5968SOL     OW29362   2.365   4.399   5.864  0.1211 -0.3182 -0.1444
 5968SOL    HW129363   2.277   4.361   5.873 -0.4901  1.0495 -0.3641
 5968SOL    HW229364   2.365   4.460   5.938 -1.0330 -0.9199  0.3513
 5969SOL     OW29365   1.384   4.215  15.871  0.3307  0.5615  0.0889
 5969SOL    HW129366   1.470   4.199  15.834  0.1831  2.3946 -1.0608
 5969SOL    HW229367   1.344   4.130  15.852 -0.8291  1.2601 -0.6508
 5970SOL     OW29368   0.001   2.987  12.795 -0.3359 -0.3135 -0.6431
 5970SOL    HW129369   0.053   3.064  12.772 -0.8211 -0.7587 -3.1588
 5970SOL    HW229370   0.012   2.923  12.725 -1.3096 -0.7906 -0.3499
 5971SOL     OW29371   2.658   0.840   3.228  0.1176 -0.4225 -0.3747
 5971SOL    HW129372   2.575   0.843   3.274  0.9724  2.9431  0.9051
 5971SOL    HW229373   2.720   0.876   3.291 -2.3837  0.7891  1.3508
 5972SOL     OW29374   2.496   1.219   7.165 -0.1841  0.3339 -0.8920
 5972SOL    HW129375   2.472   1.245   7.077 -1.9245  0.6674 -0.3125
 5972SOL    HW229376   2.565   1.280   7.193 -0.2007  0.7785 -1.8303
 5973SOL     OW29377   2.879   0.052  11.169  0.3372  0.1841 -0.2895
 5973SOL    HW129378   2.843   4.702  11.126 -0.5055 -0.5985  1.8045
 5973SOL    HW229379   2.967   0.028  11.198  0.7882  3.4300  1.0161
 5974SOL     OW29380   1.628   2.626   3.741  0.1859  0.4676 -0.3895
 5974SOL    HW129381   1.630   2.682   3.818 -1.6699  0.9488 -0.6999
 5974SOL    HW229382   1.590   2.689   3.679 -0.7300 -1.6007 -1.9505
 5975SOL     OW29383   2.601   1.214   1.007  0.1628 -0.1037 -0.3591
 5975SOL    HW129384   2.599   1.118   1.015 -5.0354 -0.0337 -1.0387
 5975SOL    HW229385   2.515   1.230   1.045 -0.1065 -1.6334 -0.3200
 5976SOL     OW29386   0.306   2.434   4.144 -0.4862 -0.1052  0.3875
 5976SOL    HW129387   0.368   2.496   4.107 -0.7015  0.8551  1.6354
 5976SOL    HW229388   0.237   2.426   4.078 -1.3140  1.5235  1.0564
 5977SOL     OW29389   4.391   1.526   1.654 -0.0851 -0.4616  0.5056
 5977SOL    HW129390   4.373   1.570   1.570  2.9283 -0.6562 -0.2576
 5977SOL    HW229391   4.308   1.489   1.683 -0.6498 -0.0766 -0.6303
 5978SOL     OW29392   2.690   0.492   2.930  0.7506 -0.2944  0.0107
 5978SOL    HW129393   2.626   0.562   2.935  1.4987  0.2546  1.8322
 5978SOL    HW229394   2.665   0.435   3.003 -0.1048  0.4034  0.2540
 5979SOL     OW29395   3.354   4.394   4.309  0.6098 -0.6468 -0.5236
 5979SOL    HW129396   3.369   4.351   4.393 -0.7669  0.6396  0.3769
 5979SOL    HW229397   3.307   4.329   4.257 -1.5479  0.3777  0.1425
 5980SOL     OW29398   0.995   0.727   4.385 -0.3203 -0.1925  0.4014
 5980SOL    HW129399   0.915   0.712   4.435  0.8930 -1.6350  1.9172
 5980SOL    HW229400   0.968   0.810   4.347 -0.5803  0.2245  1.4990
 5981SOL     OW29401   2.239   2.634   8.467  0.1691  0.1908  0.1889
 5981SOL    HW129402   2.317   2.689   8.460  0.7937 -0.8412 -0.9133
 5981SOL    HW229403   2.197   2.683   8.396  0.1456 -0.6066 -0.3496
 5982SOL     OW29404   2.379   0.147   0.743 -0.0707  0.4135  0.4488
 5982SOL    HW129405   2.357   0.234   0.778 -2.7954 -0.6477  1.3519
 5982SOL    HW229406   2.448   0.163   0.679 -1.5957  0.3893 -1.2121
 5983SOL     OW29407   2.466   4.239  14.369 -0.2601  0.0744 -0.1593
 5983SOL    HW129408   2.450   4.330  14.394  1.1455  0.4075 -0.4966
 5983SOL    HW229409   2.533   4.202  14.426 -0.2753 -0.5459 -0.5542
 5984SOL     OW29410   4.672   2.313  12.966 -0.0955  0.1782 -0.2811
 5984SOL    HW129411   4.596   2.354  12.925 -0.2448 -1.1671 -1.3681
 5984SOL    HW229412   0.011   2.370  12.929  0.5724 -0.3990  0.0383
 5985SOL     OW29413   2.277   2.805   9.554  0.3803 -0.3811  0.2209
 5985SOL    HW129414   2.286   2.900   9.564  2.6362 -0.5572 -0.0539
 5985SOL    HW229415   2.357   2.765   9.588  0.9100  0.0140 -0.5583
 5986SOL     OW29416   4.497   2.861   5.151  0.6451  0.0049 -0.3704
 5986SOL    HW129417   4.556   2.848   5.225  1.8170 -0.3883 -1.3690
 5986SOL    HW229418   4.564   2.863   5.082  0.0620 -1.2539 -0.9878
 5987SOL     OW29419   4.167   1.403  13.140 -0.1403 -0.3404  0.0199
 5987SOL    HW129420   4.165   1.360  13.054  0.1758 -0.4308  0.0555
 5987SOL    HW229421   4.261   1.419  13.154 -0.6205  2.3793  0.1471
 5988SOL     OW29422   4.359   2.784   8.189 -0.2758 -0.4602  0.0299
 5988SOL    HW129423   4.402   2.863   8.222 -1.8630  0.3719  0.0876
 5988SOL    HW229424   4.364   2.735   8.271 -0.8648  1.4586  1.2108
 5989SOL     OW29425   1.671   0.642   3.613  0.1115 -0.3653 -0.3357
 5989SOL    HW129426   1.667   0.556   3.573  1.5769 -0.0902 -1.1119
 5989SOL    HW229427   1.590   0.683   3.585 -0.0724 -1.2613 -1.1055
 5990SOL     OW29428   3.805   1.572  10.575 -0.0733 -0.6339  0.3710
 5990SOL    HW129429   3.839   1.507  10.636  0.7532  0.0496  0.6433
 5990SOL    HW229430   3.787   1.642  10.637 -0.4323 -0.0137 -0.4318
 5991SOL     OW29431   2.433   1.109   4.227  0.9212  0.4303  0.0297
 5991SOL    HW129432   2.517   1.093   4.184  1.1910 -2.0117  1.5276
 5991SOL    HW229433   2.427   1.202   4.203  1.4697  0.1863 -1.0540
 5992SOL     OW29434   2.361   2.789   2.220 -0.4457  0.3385  0.8022
 5992SOL    HW129435   2.445   2.813   2.181 -2.0535 -0.0136 -2.8558
 5992SOL    HW229436   2.314   2.769   2.139  0.1989  0.5933  0.3675
 5993SOL     OW29437   0.716   2.674   0.918  0.0127  0.5951  0.0783
 5993SOL    HW129438   0.739   2.581   0.919 -0.3032  0.5260  1.8386
 5993SOL    HW229439   0.650   2.683   0.987  0.5389  0.6679  0.5672
 5994SOL     OW29440   3.173   3.796   9.066  0.4463 -0.1059  1.1194
 5994SOL    HW129441   3.261   3.758   9.057  0.6233  0.3369  0.9475
 5994SOL    HW229442   3.200   3.882   9.100  0.6415 -0.1029  0.9590
 5995SOL     OW29443   1.228   0.597   4.336  0.6472  0.4035 -0.6856
 5995SOL    HW129444   1.154   0.654   4.355 -0.0284 -0.2817 -1.3167
 5995SOL    HW229445   1.202   0.563   4.251 -2.4425  2.0513 -0.3759
 5996SOL     OW29446   4.551   2.859   4.136 -0.0302 -0.2699 -0.3837
 5996SOL    HW129447   4.540   2.772   4.097  0.5714  0.3835 -1.9946
 5996SOL    HW229448   4.471   2.870   4.188  0.2126  0.2229 -0.1151
 5997SOL     OW29449   3.133   0.800   4.919  0.2409 -0.0945  0.4565
 5997SOL    HW129450   3.220   0.833   4.894  1.0319 -0.4088  2.8500
 5997SOL    HW229451   3.087   0.882   4.903  1.1309  0.4462  0.6681
 5998SOL     OW29452   1.886   4.221   7.496 -0.1053 -0.3704  0.4852
 5998SOL    HW129453   1.879   4.230   7.401  0.0378 -0.6446  0.4501
 5998SOL    HW229454   1.970   4.178   7.512  0.5121  0.1527 -1.3133
 5999SOL     OW29455   2.002   0.843  15.795  0.1972 -0.1014 -0.1139
 5999SOL    HW129456   1.964   0.919  15.750 -0.0381 -0.0262  0.2117
 5999SOL    HW229457   1.963   0.771  15.746 -1.3417  1.3516 -1.0166
 6000SOL     OW29458   4.569   3.453   7.208 -0.5666  0.5543 -0.1941
 6000SOL    HW129459   4.477   3.454   7.234 -0.6223 -0.4559 -0.3455
 6000SOL    HW229460   4.573   3.379   7.148 -0.4379 -1.6019  2.4996
 6001SOL     OW29461   2.441   0.757  11.582 -0.5790 -0.0219  0.1301
 6001SOL    HW129462   2.421   0.668  11.612  2.0599  0.0207  2.0160
 6001SOL    HW229463   2.472   0.792  11.666 -0.4697 -1.8731  0.8725
 6002SOL     OW29464   0.715   4.685   1.556 -0.5290  0.4329 -0.2152
 6002SOL    HW129465   0.634   4.722   1.591 -1.8669 -2.3556 -0.3255
 6002SOL    HW229466   0.779   4.694   1.627 -0.7494  0.0259  0.0340
 6003SOL     OW29467   4.099   3.737   5.927  0.1734  0.4209 -0.1312
 6003SOL    HW129468   4.052   3.794   5.988  0.6000  0.9904 -0.3445
 6003SOL    HW229469   4.064   3.651   5.950 -0.2218  0.3805 -0.8873
 6004SOL     OW29470   2.234   4.587   8.645 -1.0133  0.0638  0.0817
 6004SOL    HW129471   2.317   4.557   8.609  0.5086  2.3213  1.7052
 6004SOL    HW229472   2.265   4.605   8.734  0.6458 -0.1204 -0.4637
 6005SOL     OW29473   2.140   4.412   9.462  1.0568 -0.5106 -0.0350
 6005SOL    HW129474   2.107   4.419   9.552  0.4432 -0.4365 -0.2634
 6005SOL    HW229475   2.053   4.395   9.425  2.0486 -3.0121 -1.1865
 6006SOL     OW29476   3.881   0.667   8.866  0.2369  0.3742 -0.0141
 6006SOL    HW129477   3.921   0.604   8.925  0.5723  0.8520  0.2674
 6006SOL    HW229478   3.953   0.684   8.805 -1.3234 -0.3998 -2.0979
 6007SOL     OW29479   4.441   3.129   2.017 -0.1420 -0.0760  0.0355
 6007SOL    HW129480   4.395   3.196   1.967 -0.0171 -0.3656 -0.4676
 6007SOL    HW229481   4.510   3.101   1.957 -0.4649  0.0360 -0.3874
 6008SOL     OW29482   0.535   2.359   8.494  0.2330 -0.4268  0.0724
 6008SOL    HW129483   0.445   2.377   8.523  1.0778  0.6559  1.9861
 6008SOL    HW229484   0.569   2.294   8.555 -0.1825  0.6001  1.4021
 6009SOL     OW29485   3.742   2.573   4.005  0.3867  0.5274  0.1058
 6009SOL    HW129486   3.776   2.650   4.052  2.3541 -0.1122 -0.2768
 6009SOL    HW229487   3.751   2.507   4.074  0.6156  1.3249  0.8370
 6010SOL     OW29488   2.710   1.138   4.166  0.2557  0.1464 -0.3934
 6010SOL    HW129489   2.736   1.147   4.075  1.0934  0.5875 -0.1072
 6010SOL    HW229490   2.729   1.221   4.209 -0.9892  0.1087  0.2317
 6011SOL     OW29491   0.793   4.722   5.215 -0.6106  0.3543  0.5452
 6011SOL    HW129492   0.725   0.058   5.192  1.1286  1.7000 -0.9478
 6011SOL    HW229493   0.845   4.706   5.136 -0.0199 -5.0324  2.0468
 6012SOL     OW29494   3.384   0.384  14.803 -0.4418 -0.4516  0.3146
 6012SOL    HW129495   3.440   0.307  14.791  0.7383  0.1562  1.9175
 6012SOL    HW229496   3.332   0.355  14.878 -1.9958 -0.3408 -0.7255
 6013SOL     OW29497   4.238   0.309   4.392 -0.4525 -0.3110  0.4202
 6013SOL    HW129498   4.326   0.280   4.367 -1.3673 -1.2982 -1.6378
 6013SOL    HW229499   4.262   0.380   4.452 -0.4550  0.7855 -0.8792
 6014SOL     OW29500   0.991   3.364   2.470  0.3645  0.4701  0.2866
 6014SOL    HW129501   1.001   3.349   2.376  0.1686 -1.0093  0.5031
 6014SOL    HW229502   1.080   3.382   2.500  0.6607  0.4487 -0.5920
 6015SOL     OW29503   3.694   4.053   1.965  0.2713  0.7083  0.2626
 6015SOL    HW129504   3.653   4.039   2.050  0.2163 -0.6476  0.0104
 6015SOL    HW229505   3.787   4.049   1.985  0.3892 -1.0825 -0.6204
 6016SOL     OW29506   4.646   3.396   1.627  0.0252  0.1402 -0.0234
 6016SOL    HW129507   4.660   3.374   1.719 -1.8511  0.4953  0.3548
 6016SOL    HW229508   4.559   3.358   1.610  0.1433 -0.7574  1.3635
 6017SOL     OW29509   3.786   4.400   4.908 -0.1340  0.3227 -0.0467
 6017SOL    HW129510   3.760   4.419   4.998 -2.3914  1.9991 -1.0349
 6017SOL    HW229511   3.862   4.342   4.907  0.8413  1.6069 -2.4621
 6018SOL     OW29512   4.145   2.291   5.642  0.3926  0.2002 -0.7057
 6018SOL    HW129513   4.073   2.335   5.688  1.5856  0.0349  1.2820
 6018SOL    HW229514   4.097   2.274   5.561 -0.1075  1.7439 -0.7403
 6019SOL     OW29515   0.774   4.695   2.133 -0.2865  0.4113  0.3129
 6019SOL    HW129516   0.777   4.638   2.056 -2.0313 -0.2526  0.7470
 6019SOL    HW229517   0.689   0.007   2.112  0.0647  0.8837 -0.2246
 6020SOL     OW29518   0.300   2.324   7.263  0.3325  0.2749  0.0505
 6020SOL    HW129519   0.307   2.248   7.320  1.2756  0.2357 -0.1207
 6020SOL    HW229520   0.214   2.313   7.222  1.1155 -0.0596 -1.5425
 6021SOL     OW29521   3.635   1.075  14.205  0.4184 -0.2111  0.0595
 6021SOL    HW129522   3.723   1.036  14.202  0.0244 -1.1522  0.5912
 6021SOL    HW229523   3.587   1.001  14.243 -2.4423  1.5292 -0.1563
 6022SOL     OW29524   1.557   1.651   7.494 -0.9987  0.1500  0.1808
 6022SOL    HW129525   1.597   1.626   7.577 -0.9933 -1.2268 -0.2360
 6022SOL    HW229526   1.638   1.682   7.455 -0.2625 -1.0283  0.7655
 6023SOL     OW29527   1.891   4.397  17.443  0.3513 -0.2392  0.0383
 6023SOL    HW129528   1.828   4.337  17.484 -0.1711  2.0436  2.6057
 6023SOL    HW229529   1.860   4.408  17.353  1.3325  0.0213 -0.2678
 6024SOL     OW29530   1.503   4.352   1.600 -0.4626  0.0297 -0.6214
 6024SOL    HW129531   1.462   4.436   1.617 -0.7276 -0.4976  1.3343
 6024SOL    HW229532   1.579   4.368   1.654 -0.1943 -0.7198 -0.7681
 6025SOL     OW29533   3.827   3.982   5.778  0.3336  0.0292 -0.0831
 6025SOL    HW129534   3.789   4.063   5.746 -0.5789 -0.2617  0.2684
 6025SOL    HW229535   3.760   3.930   5.733 -0.6499 -0.2818  1.7495
 6026SOL     OW29536   1.745   0.331   5.292  0.3959  0.1254 -0.3025
 6026SOL    HW129537   1.671   0.317   5.350  1.6119 -2.4390  0.6407
 6026SOL    HW229538   1.706   0.314   5.206 -2.3037 -0.4255  1.0331
 6027SOL     OW29539   3.669   1.170   7.225 -0.2434 -0.3868  0.1805
 6027SOL    HW129540   3.680   1.196   7.133 -1.3516  0.6139  0.3222
 6027SOL    HW229541   3.754   1.133   7.248 -0.0662  1.4909  2.5313
 6028SOL     OW29542   1.147   3.332  13.627  0.3411  0.2468 -0.5284
 6028SOL    HW129543   1.220   3.379  13.588  1.4417 -0.0268  1.2140
 6028SOL    HW229544   1.138   3.375  13.713 -0.7816 -1.7279  0.3542
 6029SOL     OW29545   0.873   4.014   2.881  0.0172  0.5474  0.0044
 6029SOL    HW129546   0.877   4.107   2.862  0.1750  0.5336 -0.0280
 6029SOL    HW229547   0.778   4.002   2.881  0.1852 -0.9690  2.0874
 6030SOL     OW29548   1.574   4.059   5.953 -0.3417 -0.2132 -0.3006
 6030SOL    HW129549   1.575   4.137   6.009 -2.5682 -0.2104 -0.2632
 6030SOL    HW229550   1.661   4.022   5.969  0.5447  2.1475  0.4113
 6031SOL     OW29551   2.533   3.054   5.647 -0.3883  0.7755 -0.8261
 6031SOL    HW129552   2.543   3.039   5.741 -2.4382 -2.0727 -1.0836
 6031SOL    HW229553   2.576   3.139   5.642  1.6377 -0.1536  0.7105
 6032SOL     OW29554   3.337   4.182   2.895 -0.1028  0.5937  0.0213
 6032SOL    HW129555   3.297   4.196   2.809  1.2094 -0.3633 -0.7472
 6032SOL    HW229556   3.392   4.261   2.891 -2.3560  2.1365 -0.0965
 6033SOL     OW29557   3.216   1.822  15.802 -0.3929 -0.6722 -0.4016
 6033SOL    HW129558   3.239   1.907  15.838  0.5294  0.3659 -3.5165
 6033SOL    HW229559   3.122   1.809  15.813 -0.5627  1.0057  0.1499
 6034SOL     OW29560   2.724   3.498   7.594 -0.1491 -0.8154 -0.5724
 6034SOL    HW129561   2.764   3.415   7.571 -0.7316 -1.3959  0.4987
 6034SOL    HW229562   2.704   3.482   7.686  0.6596  0.9817 -0.0740
 6035SOL     OW29563   1.981   0.489   3.524 -0.2351 -0.2474 -0.0014
 6035SOL    HW129564   1.897   0.459   3.560 -0.5092  1.7146  0.9885
 6035SOL    HW229565   1.955   0.548   3.453  0.8807 -1.8149 -1.7099
 6036SOL     OW29566   3.595   1.527   5.029  0.1429  0.0870  0.3751
 6036SOL    HW129567   3.657   1.513   4.958  0.7620  1.8855  0.5657
 6036SOL    HW229568   3.574   1.619   5.013 -0.4318  0.1935  1.7483
 6037SOL     OW29569   1.953   2.820   7.784  0.1126 -0.2946  0.1521
 6037SOL    HW129570   1.991   2.742   7.743 -1.7125 -1.1810  0.1495
 6037SOL    HW229571   1.952   2.876   7.707  0.4433  1.3855  1.3716
 6038SOL     OW29572   2.704   4.726   2.238  0.1719  0.1894  0.3893
 6038SOL    HW129573   2.782   0.047   2.210 -0.5405  0.0124 -1.9260
 6038SOL    HW229574   2.642   0.031   2.173  1.8896  2.5020 -0.0880
 6039SOL     OW29575   1.960   4.280   3.922  0.1154 -0.2330  0.0632
 6039SOL    HW129576   1.959   4.267   4.017 -1.1279 -0.9233 -0.0412
 6039SOL    HW229577   2.039   4.334   3.917 -0.4431  0.5602 -0.0640
 6040SOL     OW29578   0.790   2.377   4.849  0.3451 -0.8189  0.7534
 6040SOL    HW129579   0.834   2.417   4.774 -0.4051 -2.3583 -0.4934
 6040SOL    HW229580   0.835   2.426   4.918  1.9329  0.2866 -1.0474
 6041SOL     OW29581   2.590   3.998   3.055 -0.3610 -0.1339  0.8298
 6041SOL    HW129582   2.539   4.071   3.091 -2.0520 -1.3833  0.9466
 6041SOL    HW229583   2.657   4.006   3.124 -0.2819  0.3773  0.6912
 6042SOL     OW29584   0.492   2.783  16.810 -0.7221  0.2077 -0.3123
 6042SOL    HW129585   0.494   2.753  16.719 -2.6174 -1.8702  0.3426
 6042SOL    HW229586   0.460   2.704  16.854 -0.2883  0.0491 -0.2762
 6043SOL     OW29587   4.464   3.033   8.219 -0.1272 -0.1335  0.1277
 6043SOL    HW129588   4.516   3.033   8.300 -0.0513  0.7516  0.0742
 6043SOL    HW229589   4.493   3.106   8.165  2.0042 -1.8485 -1.0459
 6044SOL     OW29590   1.310   4.649   3.317 -0.8730 -0.1427 -0.1755
 6044SOL    HW129591   1.405   4.636   3.324 -1.2535 -2.5075  0.7749
 6044SOL    HW229592   1.278   4.585   3.381 -0.2542 -1.7898 -1.4943
 6045SOL     OW29593   2.953   1.473   3.428  0.1019  0.2222  0.6233
 6045SOL    HW129594   2.936   1.380   3.441  1.5092  0.1806  2.2517
 6045SOL    HW229595   3.048   1.481   3.442  0.1910 -0.9608  0.6319
 6046SOL     OW29596   2.930   1.870  11.095 -0.5236 -0.1344  0.0718
 6046SOL    HW129597   2.876   1.791  11.088  0.2049 -0.5812 -0.5841
 6046SOL    HW229598   2.882   1.916  11.162 -0.4257  0.1278 -0.0393
 6047SOL     OW29599   0.795   4.324   4.501  0.1113  0.3098 -0.0733
 6047SOL    HW129600   0.870   4.340   4.559  0.6426 -1.7381 -0.2018
 6047SOL    HW229601   0.720   4.361   4.549 -0.4771 -2.5184  1.1747
 6048SOL     OW29602   1.452   0.561   7.873 -0.8082 -0.3309  0.5391
 6048SOL    HW129603   1.435   0.541   7.965  0.4363  0.0809  0.8550
 6048SOL    HW229604   1.486   0.649   7.888 -0.6923  0.0284 -1.8554
 6049SOL     OW29605   3.251   4.363  10.908 -0.0362 -0.1295  0.3467
 6049SOL    HW129606   3.246   4.450  10.946  1.3697 -0.2464  0.8141
 6049SOL    HW229607   3.328   4.383  10.854 -0.1481 -0.1436  0.1802
 6050SOL     OW29608   0.378   0.191   6.277  0.2744  0.3684  0.5484
 6050SOL    HW129609   0.320   0.218   6.348  0.5820  0.6170  0.7052
 6050SOL    HW229610   0.314   0.187   6.206 -0.2769  1.1855  0.9937
 6051SOL     OW29611   3.843   1.316   8.119  0.3979 -0.1189  0.0848
 6051SOL    HW129612   3.754   1.286   8.101 -0.0592  0.2256  1.7219
 6051SOL    HW229613   3.854   1.299   8.213 -0.3005  1.2607  0.4167
 6052SOL     OW29614   1.019   0.323  10.701  0.4322  0.3160  0.1358
 6052SOL    HW129615   1.101   0.370  10.684  0.7828 -0.7672 -1.2013
 6052SOL    HW229616   0.975   0.389  10.754  1.7732  0.7764  0.6887
 6053SOL     OW29617   2.245   1.379   1.195 -0.0836  0.0327  0.1515
 6053SOL    HW129618   2.233   1.449   1.130 -1.6964  0.5987  1.0481
 6053SOL    HW229619   2.160   1.379   1.239  0.7846  1.1170  1.8308
 6054SOL     OW29620   2.329   2.736   4.156  0.1053 -0.4278  0.2505
 6054SOL    HW129621   2.327   2.662   4.217  2.1252  0.3608  1.2754
 6054SOL    HW229622   2.272   2.703   4.087 -1.7977  2.4549  0.4424
 6055SOL     OW29623   2.586   4.601   8.248  0.1598  1.1740 -0.3790
 6055SOL    HW129624   2.616   4.656   8.320  0.7886 -0.4766  0.6315
 6055SOL    HW229625   2.671   4.562   8.225 -1.0672 -2.2802  0.9825
 6056SOL     OW29626   1.740   3.570   2.601  0.0836 -1.0009 -0.3997
 6056SOL    HW129627   1.824   3.589   2.558 -0.2358 -0.2674 -0.6988
 6056SOL    HW229628   1.695   3.557   2.517 -1.4057 -0.6732  0.3683
 6057SOL     OW29629   0.305   3.309   6.462  0.1433 -0.0002 -0.1855
 6057SOL    HW129630   0.273   3.399   6.477  0.4566  0.1993 -0.7220
 6057SOL    HW229631   0.245   3.279   6.394  0.4854  2.4050 -1.5762
 6058SOL     OW29632   0.433   0.258  17.701 -0.0526 -0.1423  0.0955
 6058SOL    HW129633   0.519   0.227   0.019 -1.0139 -3.1739 -0.2692
 6058SOL    HW229634   0.449   0.321  17.631  1.4800 -1.8790 -1.0983
 6059SOL     OW29635   4.164   1.701   5.659  0.1898 -0.0433 -0.3971
 6059SOL    HW129636   4.153   1.793   5.635  0.4427  0.2462  0.5871
 6059SOL    HW229637   4.191   1.664   5.575 -1.1608 -0.1123 -0.7956
 6060SOL     OW29638   1.880   3.503  12.485 -0.3658 -0.0419 -0.0893
 6060SOL    HW129639   1.972   3.480  12.472 -0.2628  1.5903 -2.1623
 6060SOL    HW229640   1.861   3.450  12.563 -0.8453  0.8754  0.4155
 6061SOL     OW29641   2.863   4.175   4.610  0.2702 -0.5389  0.2130
 6061SOL    HW129642   2.777   4.158   4.647  0.5595 -0.6751  0.8293
 6061SOL    HW229643   2.892   4.210   4.694  3.4050  0.6067 -1.3393
 6062SOL     OW29644   4.216   2.764   4.948 -0.2823 -0.2937 -0.8057
 6062SOL    HW129645   4.283   2.701   4.973 -0.7609  0.1061  1.4667
 6062SOL    HW229646   4.150   2.713   4.901  0.0427 -2.1639  0.7673
 6063SOL     OW29647   4.201   0.804   7.254  0.0068  0.5008  0.4164
 6063SOL    HW129648   4.201   0.819   7.349  1.4916 -1.1880  0.6760
 6063SOL    HW229649   4.229   0.890   7.221  3.4478 -0.0081  1.9565
 6064SOL     OW29650   4.158   4.222   6.045  0.2059  0.1383  0.1158
 6064SOL    HW129651   4.095   4.288   6.016 -0.0821  0.5156  1.5978
 6064SOL    HW229652   4.207   4.198   5.966 -1.0246  1.2920 -1.0108
 6065SOL     OW29653   0.453   2.285  17.150  0.3542 -0.2939  0.2290
 6065SOL    HW129654   0.462   2.380  17.157  1.8436 -0.2723 -1.8153
 6065SOL    HW229655   0.364   2.267  17.182 -0.4690  1.0941 -1.2824
 6066SOL     OW29656   0.332   2.540   6.137 -0.1115  0.3263 -0.0642
 6066SOL    HW129657   0.363   2.615   6.086  0.2097  0.7232  0.6979
 6066SOL    HW229658   0.305   2.491   6.060 -1.1540  0.5136  0.1818
 6067SOL     OW29659   3.961   0.629  11.052 -0.0894  0.1316 -0.1988
 6067SOL    HW129660   3.901   0.557  11.072 -0.9361  0.5613 -1.2361
 6067SOL    HW229661   4.041   0.584  11.082 -1.8895 -2.8884  0.0534
 6068SOL     OW29662   2.958   2.090   2.766 -0.3186 -0.1801 -0.2850
 6068SOL    HW129663   2.927   2.005   2.795 -0.3181 -0.1188 -0.0994
 6068SOL    HW229664   2.877   2.121   2.726  0.4920  1.5537 -0.5817
 6069SOL     OW29665   0.178   1.803  12.770  0.0773 -0.4632  0.1318
 6069SOL    HW129666   0.091   1.768  12.752  0.0836  0.2444 -1.3371
 6069SOL    HW229667   0.197   1.768  12.857 -0.6675 -1.5522 -0.1411
 6070SOL     OW29668   4.487   2.397   4.247  0.3610  0.0450 -0.0395
 6070SOL    HW129669   4.515   2.312   4.280 -2.4831 -0.2972  1.5171
 6070SOL    HW229670   4.478   2.452   4.324 -3.1248  0.3324 -0.6367
 6071SOL     OW29671   1.056   2.204   7.594  0.0646  0.0730  0.0455
 6071SOL    HW129672   1.041   2.281   7.538  1.2136 -0.4718 -1.0097
 6071SOL    HW229673   1.012   2.224   7.677 -1.6387 -0.2954 -0.7596
 6072SOL     OW29674   0.738   4.714   6.119 -0.2424 -0.2241 -0.2011
 6072SOL    HW129675   0.702   4.718   6.207  0.1216 -0.9224 -0.0210
 6072SOL    HW229676   0.806   4.647   6.125 -2.0816 -1.9232  1.7551
 6073SOL     OW29677   4.501   1.169   6.561  0.2447 -0.2737  0.4016
 6073SOL    HW129678   4.427   1.124   6.520 -0.7850  2.0717 -0.3638
 6073SOL    HW229679   4.484   1.150   6.653  1.2704  0.5240  0.7518
 6074SOL     OW29680   2.286   0.955  12.271  0.4286  0.2160 -0.0269
 6074SOL    HW129681   2.192   0.938  12.273  0.0172  2.5177  0.3231
 6074SOL    HW229682   2.316   0.883  12.326  1.6312  0.1908 -0.7099
 6075SOL     OW29683   2.584   2.503   3.324  0.5546  0.1347  0.2827
 6075SOL    HW129684   2.627   2.558   3.258  0.5539 -0.1717  0.0244
 6075SOL    HW229685   2.578   2.566   3.396  0.5759  1.0121 -0.4689
 6076SOL     OW29686   3.017   4.576   5.386  0.2424  0.2552  0.1206
 6076SOL    HW129687   3.010   4.480   5.379 -1.0855  0.4678 -1.5913
 6076SOL    HW229688   2.924   4.600   5.391  0.0363 -0.6120  0.4825
 6077SOL     OW29689   2.623   2.789   2.161  0.4446 -0.1742 -0.1852
 6077SOL    HW129690   2.709   2.780   2.203 -0.0088 -1.7689  0.3957
 6077SOL    HW229691   2.642   2.857   2.097  0.9209 -1.0564 -0.9808
 6078SOL     OW29692   3.389   2.401  13.087 -0.2805 -0.2137 -0.3786
 6078SOL    HW129693   3.381   2.348  13.008 -1.3569  0.0659 -0.4537
 6078SOL    HW229694   3.325   2.466  13.058 -1.4600 -0.6752  1.1910
 6079SOL     OW29695   4.022   2.401   6.973  0.2536  0.1766  0.5812
 6079SOL    HW129696   4.047   2.416   6.882  1.1218  0.2655  0.8347
 6079SOL    HW229697   3.955   2.469   6.972 -1.0785 -1.1712 -1.3253
 6080SOL     OW29698   0.790   2.266   8.959 -0.5330  0.3401 -0.7111
 6080SOL    HW129699   0.869   2.300   9.000 -0.5214  0.5316 -0.8908
 6080SOL    HW229700   0.797   2.172   8.973  0.4042  0.3901 -0.8340
 6081SOL     OW29701   3.294   2.731  11.831  0.1587 -0.0809  0.0521
 6081SOL    HW129702   3.318   2.782  11.753  0.0478 -1.3423 -0.7984
 6081SOL    HW229703   3.349   2.654  11.820  0.5636  0.2120  0.0502
 6082SOL     OW29704   0.693   1.829   4.054 -0.3138 -0.0019  0.3821
 6082SOL    HW129705   0.606   1.792   4.066 -0.3015 -1.1998 -3.1652
 6082SOL    HW229706   0.707   1.805   3.962  0.3491 -1.1452  0.7804
 6083SOL     OW29707   1.981   1.392   6.266  0.1717 -0.1584 -0.1097
 6083SOL    HW129708   2.065   1.412   6.306  0.5031  2.1813 -1.9349
 6083SOL    HW229709   2.002   1.376   6.174  0.0690  3.2880 -0.7498
 6084SOL     OW29710   3.044   0.973   5.488 -0.1558  0.3435 -1.1078
 6084SOL    HW129711   2.983   0.993   5.417 -1.3756  0.6828  0.0316
 6084SOL    HW229712   3.122   1.010   5.447  0.2706  1.1059  0.3839
 6085SOL     OW29713   3.742   4.035   8.685  0.3798 -0.1326 -0.2423
 6085SOL    HW129714   3.796   4.044   8.763 -0.3769  0.9602  0.1595
 6085SOL    HW229715   3.768   3.947   8.661 -0.6769 -1.0311  1.8686
 6086SOL     OW29716   4.569   2.895   5.632  0.2064  0.0986  0.5304
 6086SOL    HW129717   4.503   2.926   5.693  0.5924  0.9897  0.4974
 6086SOL    HW229718   4.644   2.884   5.691  0.6476  0.4654  0.0463
 6087SOL     OW29719   2.373   3.359  11.755  0.2973 -0.1542  0.0158
 6087SOL    HW129720   2.391   3.269  11.731  0.7677  0.1149 -0.6580
 6087SOL    HW229721   2.445   3.402  11.708  1.0970 -1.5063  0.0043
 6088SOL     OW29722   3.961   4.342  13.615  0.2286 -0.2739  0.6810
 6088SOL    HW129723   3.866   4.340  13.604  0.3709 -0.3819 -0.5317
 6088SOL    HW229724   3.968   4.377  13.703  1.2234 -1.7607  1.1888
 6089SOL     OW29725   0.611   1.885  10.042 -0.6782  0.1818  0.5225
 6089SOL    HW129726   0.515   1.884  10.051 -0.6416 -0.0546  0.9100
 6089SOL    HW229727   0.638   1.942  10.114  2.8721 -0.2874 -0.4680
 6090SOL     OW29728   3.809   2.819   3.004 -0.2218 -0.0830  0.4489
 6090SOL    HW129729   3.867   2.811   2.928 -0.0400 -0.2803  0.6061
 6090SOL    HW229730   3.859   2.884   3.054 -0.5395  0.7690 -0.3538
 6091SOL     OW29731   1.832   4.129   3.695  0.1085 -0.2600 -0.0691
 6091SOL    HW129732   1.746   4.101   3.727  0.3772  0.5066  1.3086
 6091SOL    HW229733   1.859   4.192   3.762  1.4665 -1.0128  0.0773
 6092SOL     OW29734   3.117   0.930   6.788  0.4442 -0.2403 -0.4259
 6092SOL    HW129735   3.158   0.961   6.707 -2.8778  3.0237 -0.8750
 6092SOL    HW229736   3.033   0.975   6.781  0.1595 -0.1868  3.5668
 6093SOL     OW29737   1.410   1.006   3.583 -0.3668  0.1234  0.0276
 6093SOL    HW129738   1.323   1.046   3.587 -0.6349 -0.3837 -0.8808
 6093SOL    HW229739   1.380   0.915   3.583 -0.2670  0.0910 -0.2129
 6094SOL     OW29740   3.289   3.003  16.444  0.7189 -0.0395  0.1959
 6094SOL    HW129741   3.357   2.938  16.428  1.2926  0.5599  0.1857
 6094SOL    HW229742   3.205   2.957  16.442  0.3731  0.5072  1.5633
 6095SOL     OW29743   1.679   3.719  12.933  0.2584 -0.9221 -0.2371
 6095SOL    HW129744   1.688   3.652  13.002 -1.4929 -1.5439 -0.5943
 6095SOL    HW229745   1.607   3.774  12.965  1.2284  0.2637 -0.1459
 6096SOL     OW29746   3.436   0.302  13.154  0.1554 -0.1902 -0.4123
 6096SOL    HW129747   3.380   0.272  13.082  1.4759 -0.0433 -1.4903
 6096SOL    HW229748   3.375   0.356  13.204  0.3688  2.2138 -2.7442
 6097SOL     OW29749   4.120   0.780   3.697 -0.0410 -0.4872 -0.2262
 6097SOL    HW129750   4.130   0.768   3.791 -2.2590 -0.2199  0.0437
 6097SOL    HW229751   4.205   0.747   3.670  0.3918  1.1916 -0.9567
 6098SOL     OW29752   1.322   0.224   7.396  0.5310  0.0056 -0.8044
 6098SOL    HW129753   1.244   0.184   7.357 -1.7292  2.1571  1.5630
 6098SOL    HW229754   1.395   0.171   7.363  0.6842  0.3531 -1.0278
 6099SOL     OW29755   2.018   2.596  11.608  0.1544  0.5861 -0.0604
 6099SOL    HW129756   1.933   2.578  11.566 -0.0476  0.1229  0.5501
 6099SOL    HW229757   2.074   2.567  11.536 -0.7692 -1.3013 -0.0082
 6100SOL     OW29758   4.329   4.397   6.171  0.0496 -0.1255  0.5425
 6100SOL    HW129759   4.275   4.327   6.134  3.7107 -0.3084 -4.5079
 6100SOL    HW229760   4.413   4.385   6.127 -0.0164 -1.2586  0.7279
 6101SOL     OW29761   1.175   3.264  15.964 -0.0803  0.2633  0.4584
 6101SOL    HW129762   1.271   3.265  15.964 -0.0861  0.6495 -0.5600
 6101SOL    HW229763   1.165   3.233  15.873 -1.4053 -0.2798  0.7946
 6102SOL     OW29764   0.268   3.450   9.796  0.0027  0.8802  0.0488
 6102SOL    HW129765   0.184   3.491   9.775  0.0187  0.2329 -1.3349
 6102SOL    HW229766   0.302   3.416   9.713 -0.9881  1.0939 -0.4431
 6103SOL     OW29767   2.975   4.212   6.823 -0.2391 -0.2342 -0.2672
 6103SOL    HW129768   2.916   4.141   6.849 -0.6878 -0.1755 -1.1318
 6103SOL    HW229769   2.913   4.242   6.756  0.8842  0.1895 -1.1208
 6104SOL     OW29770   3.978   3.975  12.050  0.1900  0.2357  0.7981
 6104SOL    HW129771   4.074   3.971  12.044  0.0857  0.0006 -0.6277
 6104SOL    HW229772   3.956   3.914  12.120  0.7688 -0.4441  0.3921
 6105SOL     OW29773   3.806   0.973   6.298  0.5694  0.8712 -0.1057
 6105SOL    HW129774   3.841   0.906   6.240 -0.0225  0.5646 -0.1039
 6105SOL    HW229775   3.752   1.027   6.240  2.5682  0.9745 -1.8643
 6106SOL     OW29776   1.982   1.023   6.419  0.0360 -0.1816  0.1428
 6106SOL    HW129777   1.958   0.948   6.365  1.3333  0.1211 -0.8370
 6106SOL    HW229778   1.937   1.089   6.367 -0.6498 -0.2217  0.6763
 6107SOL     OW29779   3.110   3.380   7.647 -0.2816  0.3745 -0.3516
 6107SOL    HW129780   3.068   3.430   7.717 -1.0342 -1.8204  0.7746
 6107SOL    HW229781   3.137   3.455   7.595  1.4221 -0.0552 -0.0984
 6108SOL     OW29782   1.135   4.370   0.710 -0.1332  0.0199  0.8264
 6108SOL    HW129783   1.208   4.328   0.756  1.5222  2.4460  0.4314
 6108SOL    HW229784   1.181   4.422   0.645 -1.2662 -1.9667 -1.5451
 6109SOL     OW29785   0.865   3.702  10.520 -0.2307  0.4134  0.0406
 6109SOL    HW129786   0.842   3.611  10.537  0.0842  0.1879 -0.7304
 6109SOL    HW229787   0.883   3.700  10.426 -3.6735  1.4973 -0.6766
 6110SOL     OW29788   2.132   0.870   1.937  0.6320 -0.4326 -0.3763
 6110SOL    HW129789   2.220   0.832   1.943  0.3966 -0.9661 -0.2570
 6110SOL    HW229790   2.083   0.794   1.905 -2.0454  1.4031 -0.5613
 6111SOL     OW29791   1.620   3.232   5.720 -0.1810 -0.4779  0.0364
 6111SOL    HW129792   1.539   3.188   5.694  0.4301 -0.3258 -2.0779
 6111SOL    HW229793   1.686   3.187   5.668 -0.9022 -1.4207 -0.0645
 6112SOL     OW29794   0.253   4.257   3.312  0.3626  0.1794  0.5416
 6112SOL    HW129795   0.339   4.247   3.353 -0.0690 -1.0949  1.1208
 6112SOL    HW229796   0.210   4.185   3.358  1.5556 -1.4995 -0.9900
 6113SOL     OW29797   4.324   1.869   2.908 -0.0656 -0.4423 -0.4334
 6113SOL    HW129798   4.312   1.892   3.000  0.6549 -1.1478 -0.1683
 6113SOL    HW229799   4.233   1.869   2.878 -0.1852 -1.4429 -0.0624
 6114SOL     OW29800   3.149   1.242  16.208  0.4665 -0.3512  0.1669
 6114SOL    HW129801   3.095   1.182  16.260 -0.3479 -0.1925 -0.5029
 6114SOL    HW229802   3.181   1.301  16.277  2.4174 -2.5041  1.1481
 6115SOL     OW29803   1.519   1.168  15.668  0.2541  0.3107 -0.3028
 6115SOL    HW129804   1.554   1.083  15.695  0.0126  0.0823 -0.7066
 6115SOL    HW229805   1.525   1.221  15.747 -0.2956 -0.3928  0.2038
 6116SOL     OW29806   2.191   1.446   7.350 -0.6265  0.2232 -0.6219
 6116SOL    HW129807   2.258   1.395   7.396 -1.3492 -1.2347 -1.1854
 6116SOL    HW229808   2.146   1.380   7.297 -1.8479  0.9704 -0.4971
 6117SOL     OW29809   1.638   1.729  16.726  0.5972  0.0121  0.1447
 6117SOL    HW129810   1.707   1.715  16.792  0.0376 -2.4640  0.1964
 6117SOL    HW229811   1.562   1.688  16.767  0.5853 -0.1129 -0.0014
 6118SOL     OW29812   0.921   1.957   6.647  0.1230  0.3120  0.2869
 6118SOL    HW129813   0.880   2.006   6.576  0.6051  0.1132 -0.1281
 6118SOL    HW229814   1.014   1.974   6.635 -0.2268  1.1728 -1.1677
 6119SOL     OW29815   3.771   0.799   7.505  0.1162  0.3286 -0.6113
 6119SOL    HW129816   3.764   0.883   7.549  1.0358 -0.2566  0.6456
 6119SOL    HW229817   3.864   0.780   7.520 -0.0147 -0.9528 -1.3657
 6120SOL     OW29818   1.702   1.935   8.754 -0.8347  0.0208  0.1022
 6120SOL    HW129819   1.684   1.925   8.660 -1.8580  0.3664  0.2586
 6120SOL    HW229820   1.775   1.997   8.746 -0.7501  0.1142  1.5655
 6121SOL     OW29821   0.424   3.494  12.961  0.1075 -0.4607 -0.0938
 6121SOL    HW129822   0.510   3.453  12.952 -0.6074 -1.9562 -0.1009
 6121SOL    HW229823   0.423   3.559  12.891 -0.4065 -0.4521 -0.0818
 6122SOL     OW29824   3.115   0.420   1.956  0.5438 -0.0804 -0.4520
 6122SOL    HW129825   3.186   0.484   1.952  0.1417  0.3844 -0.2794
 6122SOL    HW229826   3.156   0.336   1.935  0.6340  0.8435 -3.9234
 6123SOL     OW29827   3.100   3.383   0.124 -0.2784 -0.2457  0.5744
 6123SOL    HW129828   3.042   3.397   0.048 -0.6332 -1.8296  0.5461
 6123SOL    HW229829   3.090   3.472   0.158  0.1749 -0.0110  0.0868
 6124SOL     OW29830   3.156   4.103   4.845 -0.3181 -0.5155 -0.2249
 6124SOL    HW129831   3.234   4.047   4.847 -1.2494 -1.8014 -0.2027
 6124SOL    HW229832   3.089   4.045   4.810 -2.0536  1.7813 -0.7109
 6125SOL     OW29833   4.021   1.465  13.576 -0.7251  0.1241  0.4820
 6125SOL    HW129834   4.028   1.560  13.579 -2.6088  0.2523  0.7844
 6125SOL    HW229835   4.100   1.440  13.623 -1.3344 -1.8055  0.4814
 6126SOL     OW29836   3.888   3.415   5.172  0.3185  0.0811  0.2956
 6126SOL    HW129837   3.834   3.336   5.164  0.5462 -0.0547  0.0851
 6126SOL    HW229838   3.820   3.483   5.173  1.0800  0.8526 -1.1172
 6127SOL     OW29839   3.005   0.010   8.215  0.3059  0.1165  0.6049
 6127SOL    HW129840   3.019   0.030   8.122  0.2307  0.0015  0.5689
 6127SOL    HW229841   2.949   0.081   8.247 -0.5700  0.3735 -1.5279
 6128SOL     OW29842   1.269   3.208   5.157  0.6104  0.6413 -0.2335
 6128SOL    HW129843   1.281   3.296   5.121  2.7177 -0.0073 -1.1317
 6128SOL    HW229844   1.327   3.165   5.095 -0.6452  1.9444 -2.2928
 6129SOL     OW29845   3.799   0.257   5.478  0.2641  0.1462 -0.1443
 6129SOL    HW129846   3.818   0.339   5.432 -2.5354  1.8326  1.7188
 6129SOL    HW229847   3.734   0.223   5.417 -1.7244  1.4613  1.2304
 6130SOL     OW29848   4.040   4.293   7.629  0.1980 -0.3789  0.2541
 6130SOL    HW129849   3.998   4.371   7.666  1.3872  0.0285  0.7261
 6130SOL    HW229850   4.026   4.318   7.537  1.2382 -1.6593 -0.2487
 6131SOL     OW29851   0.450   1.137   7.194  0.4811  0.0043  0.0266
 6131SOL    HW129852   0.459   1.073   7.123  0.2150  0.4647 -0.4252
 6131SOL    HW229853   0.469   1.218   7.146 -0.1494 -1.2683 -2.3526
 6132SOL     OW29854   4.165   3.690  13.382  0.3906  0.3198  0.2263
 6132SOL    HW129855   4.253   3.699  13.344  0.9402 -2.0861  0.9279
 6132SOL    HW229856   4.163   3.767  13.439  0.4499 -0.9720  1.9415
 6133SOL     OW29857   3.262   4.691   0.862 -0.5157  0.2409  0.5645
 6133SOL    HW129858   3.295   4.701   0.773 -3.0443  0.1238 -0.3763
 6133SOL    HW229859   3.329   0.016   0.906  1.2181 -1.8563  0.4381
 6134SOL     OW29860   0.061   2.571   8.937 -0.2547  0.3194  0.1028
 6134SOL    HW129861   0.007   2.508   8.888 -0.8233  1.2094 -0.4308
 6134SOL    HW229862   0.008   2.574   9.016 -1.9033 -0.3642 -0.9602
 6135SOL     OW29863   3.360   2.422   3.706 -0.4035 -0.0581 -0.4645
 6135SOL    HW129864   3.390   2.454   3.621 -1.8295  0.5767 -0.7388
 6135SOL    HW229865   3.410   2.485   3.757 -1.0760 -1.4988  2.0002
 6136SOL     OW29866   3.553   0.715   2.116  0.1742  0.1476 -0.2301
 6136SOL    HW129867   3.564   0.786   2.054 -0.6407  2.8016  2.6828
 6136SOL    HW229868   3.627   0.738   2.172  1.2953 -0.6258 -1.3900
 6137SOL     OW29869   0.960   2.681   6.924 -0.0392  0.0520  0.4191
 6137SOL    HW129870   0.998   2.769   6.926 -0.1501  0.1433 -1.3777
 6137SOL    HW229871   0.876   2.694   6.968 -0.8734  0.4332 -1.3260
 6138SOL     OW29872   0.631   4.477  12.514 -0.1882 -0.4675 -0.0924
 6138SOL    HW129873   0.720   4.447  12.498  0.5723  1.6884  0.1134
 6138SOL    HW229874   0.618   4.547  12.450 -1.5472 -2.2350 -1.7383
 6139SOL     OW29875   0.576   0.712  15.934  0.1395  0.9013 -0.2285
 6139SOL    HW129876   0.513   0.651  15.896 -0.7302  0.8272  1.3563
 6139SOL    HW229877   0.657   0.661  15.939 -0.7026 -0.4401 -0.0161
 6140SOL     OW29878   3.571   2.571   6.520  0.3435  0.1224 -0.1780
 6140SOL    HW129879   3.658   2.538   6.497 -0.1692 -4.1617  3.9264
 6140SOL    HW229880   3.526   2.572   6.435  1.3561  2.3184 -0.6860
 6141SOL     OW29881   3.700   4.479  14.291 -0.3428 -0.2496 -0.2166
 6141SOL    HW129882   3.784   4.523  14.301  0.2650 -1.8409  1.6914
 6141SOL    HW229883   3.681   4.511  14.203  2.1855  0.1012 -0.6167
 6142SOL     OW29884   3.450   4.232   2.493 -0.1575 -0.4558  0.1784
 6142SOL    HW129885   3.546   4.232   2.491 -0.1259  0.0408  1.7000
 6142SOL    HW229886   3.434   4.315   2.537  2.1334 -0.5931  1.3027
 6143SOL     OW29887   0.109   0.778  17.330 -0.2488 -0.0139  0.2836
 6143SOL    HW129888   0.032   0.826  17.301 -0.1916 -0.6520 -0.9220
 6143SOL    HW229889   0.149   0.853  17.375  0.0019 -0.4302  0.7613
 6144SOL     OW29890   0.350   3.167   7.794  0.1930  0.2821  0.2535
 6144SOL    HW129891   0.293   3.212   7.857 -0.1469 -0.2925  0.3618
 6144SOL    HW229892   0.371   3.237   7.733 -2.5536  1.6446  0.8269
 6145SOL     OW29893   3.060   3.181   0.298 -0.4147  0.5187 -0.2675
 6145SOL    HW129894   3.108   3.230   0.365 -1.6031  1.2880  0.0201
 6145SOL    HW229895   3.062   3.248   0.229  1.0773 -0.6488 -1.3705
 6146SOL     OW29896   0.008   1.535   8.037  0.3403  1.1030 -0.2320
 6146SOL    HW129897   4.677   1.501   8.104  0.9859 -0.4110 -0.4463
 6146SOL    HW229898   0.068   1.583   8.094 -0.3826  1.6615  0.0544
 6147SOL     OW29899   3.707   3.898  17.609  0.2423  0.1335 -0.0860
 6147SOL    HW129900   3.677   3.981  17.646 -1.8757  0.3676 -2.3318
 6147SOL    HW229901   3.798   3.907  17.636 -0.0790 -2.0612  1.8326
 6148SOL     OW29902   3.566   0.664   7.162  0.2805 -0.6713  0.7660
 6148SOL    HW129903   3.508   0.739   7.176 -0.3353 -1.0250  0.0872
 6148SOL    HW229904   3.509   0.604   7.114 -0.7074 -1.3859  2.8312
 6149SOL     OW29905   2.834   2.670   5.850 -0.1572  0.1761  0.1466
 6149SOL    HW129906   2.790   2.636   5.773 -1.8964 -0.7049  1.5264
 6149SOL    HW229907   2.750   2.673   5.896  0.8417  0.6253  1.9801
 6150SOL     OW29908   0.427   4.167   2.424 -0.0032 -0.6252  0.0091
 6150SOL    HW129909   0.373   4.244   2.443  2.3926  1.4920 -1.7669
 6150SOL    HW229910   0.508   4.209   2.394 -0.4491 -0.5107 -1.0305
 6151SOL     OW29911   0.638   2.829   4.897  0.4139 -0.0069 -0.4188
 6151SOL    HW129912   0.553   2.785   4.898  0.9089 -0.9696 -0.5741
 6151SOL    HW229913   0.623   2.860   4.808 -1.4169  0.8419  0.1887
 6152SOL     OW29914   2.205   4.330   2.619 -0.5907  0.2908  0.0029
 6152SOL    HW129915   2.236   4.382   2.693 -2.3735  0.7061  0.4592
 6152SOL    HW229916   2.120   4.302   2.651 -0.6821  0.6923  0.1124
 6153SOL     OW29917   2.987   0.529   2.544 -0.0168  0.5070 -0.2396
 6153SOL    HW129918   3.078   0.558   2.555  0.0203  0.7008 -1.1179
 6153SOL    HW229919   2.964   0.492   2.630  2.2804  0.8510  0.5250
 6154SOL     OW29920   2.812   3.372   2.235  0.0029 -0.2644 -0.5060
 6154SOL    HW129921   2.906   3.391   2.228 -0.2237  1.9066  2.5175
 6154SOL    HW229922   2.814   3.293   2.181  0.3137 -0.4176 -0.2717
 6155SOL     OW29923   4.279   4.564   3.887 -0.1831 -0.0011 -0.4284
 6155SOL    HW129924   4.322   4.648   3.871 -1.7533  0.9397  0.2871
 6155SOL    HW229925   4.342   4.500   3.853  0.1007  0.6296 -1.1014
 6156SOL     OW29926   2.464   1.588   6.296  0.1260 -0.4605 -0.1643
 6156SOL    HW129927   2.383   1.633   6.273 -0.1409 -0.1182  1.4930
 6156SOL    HW229928   2.524   1.660   6.315 -0.9596  0.6146 -0.7907
 6157SOL     OW29929   3.723   3.155   8.197 -0.5231 -0.2451  0.3332
 6157SOL    HW129930   3.652   3.180   8.257  1.2778  1.0497  1.9583
 6157SOL    HW229931   3.694   3.180   8.109  1.3428  0.2911 -0.1325
 6158SOL     OW29932   3.077   4.388   0.886  0.2080  0.0756 -0.4048
 6158SOL    HW129933   2.981   4.391   0.894  0.2284 -2.1111  0.5248
 6158SOL    HW229934   3.096   4.444   0.811  1.1872  1.5701  0.9436
 6159SOL     OW29935   0.037   1.385   5.859 -0.5093  0.0930 -0.3217
 6159SOL    HW129936   4.682   1.411   5.900 -0.0701 -1.9643  1.8700
 6159SOL    HW229937   0.013   1.317   5.797 -1.9378  1.2144 -0.9950
 6160SOL     OW29938   0.930   4.097   3.466 -0.5686  0.2114 -0.1960
 6160SOL    HW129939   0.871   4.135   3.531 -1.5511 -1.2028 -0.2826
 6160SOL    HW229940   0.878   4.110   3.387  0.0483  1.4500 -0.4006
 6161SOL     OW29941   3.486   1.132   4.614  0.7042 -0.1283  0.3219
 6161SOL    HW129942   3.494   1.139   4.519 -0.7544 -1.5878  0.0946
 6161SOL    HW229943   3.412   1.189   4.636 -0.6220 -0.3557 -3.6298
 6162SOL     OW29944   1.540   3.546   6.201  0.1073 -1.0743 -0.4395
 6162SOL    HW129945   1.586   3.465   6.180  2.1060  0.3463 -1.5333
 6162SOL    HW229946   1.456   3.505   6.223  0.2312 -0.5264  1.0496
 6163SOL     OW29947   3.889   3.799  15.087 -0.6197  0.2945 -0.4573
 6163SOL    HW129948   3.896   3.787  15.181 -1.8520  0.9998 -0.2783
 6163SOL    HW229949   3.981   3.795  15.060 -0.5650  1.2581 -0.4016
 6164SOL     OW29950   0.756   1.174   8.953 -0.2155 -0.2257 -0.0119
 6164SOL    HW129951   0.804   1.178   9.036 -2.1081  1.6645  0.9932
 6164SOL    HW229952   0.670   1.196   8.988  1.1503  2.4845  1.6871
 6165SOL     OW29953   4.059   1.422   4.685 -0.0051 -0.7212  0.0691
 6165SOL    HW129954   4.029   1.410   4.775  1.8499 -0.1321  0.7610
 6165SOL    HW229955   4.150   1.448   4.696 -0.0259 -1.6558  2.4192
 6166SOL     OW29956   1.065   1.524   3.614  0.1627 -0.3499 -0.1981
 6166SOL    HW129957   1.028   1.612   3.611  1.9891  0.3898 -0.6807
 6166SOL    HW229958   1.065   1.497   3.522 -1.0285  0.7340 -0.5071
 6167SOL     OW29959   0.742   0.460   8.986 -0.0197 -0.4889  0.2787
 6167SOL    HW129960   0.686   0.401   8.936 -1.7773  0.3134  1.3106
 6167SOL    HW229961   0.822   0.455   8.934  0.1392  0.0782  0.4705
 6168SOL     OW29962   1.747   0.987   8.084 -0.0564 -0.1346 -0.0966
 6168SOL    HW129963   1.830   0.939   8.088 -1.1634 -2.1061 -1.0577
 6168SOL    HW229964   1.753   1.008   7.991  1.6744 -0.6521 -0.1002
 6169SOL     OW29965   1.393   2.887   4.704  0.2115 -0.9942  0.6468
 6169SOL    HW129966   1.450   2.816   4.735  0.2701 -0.5664  1.5176
 6169SOL    HW229967   1.416   2.905   4.613 -0.5341  0.2327  0.7055
 6170SOL     OW29968   3.230   3.603   2.764  0.3627  0.1147 -0.0172
 6170SOL    HW129969   3.180   3.556   2.697  2.3124 -0.7498 -0.8732
 6170SOL    HW229970   3.322   3.589   2.744  0.0781 -0.9518 -0.5947
 6171SOL     OW29971   1.935   3.800   3.999 -0.0653 -0.1494 -0.3227
 6171SOL    HW129972   1.953   3.732   3.934 -2.5239 -1.4562  0.3731
 6171SOL    HW229973   1.945   3.881   3.948 -2.1616  0.9734  1.0755
 6172SOL     OW29974   0.597   2.658   2.914 -0.0301 -0.1936 -0.1375
 6172SOL    HW129975   0.599   2.686   2.823 -1.9891 -0.0068 -0.1282
 6172SOL    HW229976   0.580   2.565   2.899 -0.9168 -0.0363 -0.1366
 6173SOL     OW29977   2.964   2.857   7.350  0.8253  0.4073  0.3270
 6173SOL    HW129978   2.997   2.906   7.275  2.7608  1.1218  1.6316
 6173SOL    HW229979   2.926   2.919   7.412  0.7999  2.9359 -2.2001
 6174SOL     OW29980   2.002   2.447  15.179 -0.2944  0.2842 -0.3299
 6174SOL    HW129981   2.036   2.491  15.102  0.3967  1.1904  0.4848
 6174SOL    HW229982   2.032   2.504  15.250  0.3325 -1.0791  0.5151
 6175SOL     OW29983   2.480   0.795  15.824 -0.5538 -0.2767  0.2913
 6175SOL    HW129984   2.437   0.771  15.906 -0.6683 -2.3842 -0.3950
 6175SOL    HW229985   2.407   0.802  15.763 -0.8161 -2.7064  0.3102
 6176SOL     OW29986   2.249   3.289   8.160  0.6847 -0.0299 -0.2808
 6176SOL    HW129987   2.184   3.337   8.213  0.7221  1.1425 -1.2926
 6176SOL    HW229988   2.268   3.227   8.231  0.2567 -0.4706 -0.5495
 6177SOL     OW29989   1.547   0.333   1.558 -0.2856  0.0020 -0.0031
 6177SOL    HW129990   1.614   0.401   1.558 -1.6712  1.3893  4.0688
 6177SOL    HW229991   1.585   0.275   1.625 -0.2253  0.4341  0.3368
 6178SOL     OW29992   2.315   2.072   5.905 -0.1108 -0.2579 -0.0819
 6178SOL    HW129993   2.348   2.162   5.905  2.1508 -1.0902 -1.9580
 6178SOL    HW229994   2.261   2.072   5.984  0.3079 -3.8782  0.1976
 6179SOL     OW29995   2.067   3.487   0.564  0.3324 -0.6461  0.0974
 6179SOL    HW129996   2.125   3.410   0.563  0.7704 -0.3000 -2.9750
 6179SOL    HW229997   2.060   3.504   0.658  0.5175 -1.7551  0.3228
 6180SOL     OW29998   1.144   3.151   0.424 -0.4908  0.1769  0.2175
 6180SOL    HW129999   1.170   3.170   0.514  0.7486  1.2325 -0.3548
 6180SOL    HW230000   1.057   3.188   0.415 -0.2389  1.6692  4.0347
 6181SOL     OW30001   1.953   3.251   4.126  0.1298 -0.1179 -0.0701
 6181SOL    HW130002   1.997   3.314   4.069 -0.0376 -0.7662 -0.9096
 6181SOL    HW230003   1.936   3.309   4.200 -1.0815  0.2611 -0.6410
 6182SOL     OW30004   2.290   3.102   6.124  0.4012 -0.3615  0.1127
 6182SOL    HW130005   2.226   3.040   6.159 -1.5302  1.3609 -0.3430
 6182SOL    HW230006   2.304   3.155   6.202 -1.6438 -0.3899  0.4909
 6183SOL     OW30007   4.700   1.674   1.379  0.4800 -0.2009  0.5808
 6183SOL    HW130008   4.655   1.592   1.400 -1.2947  0.7330  0.4761
 6183SOL    HW230009   0.010   1.692   1.465  1.1003 -0.2129  0.3080
 6184SOL     OW30010   4.397   2.461   5.748 -0.1511  0.1246 -0.3651
 6184SOL    HW130011   4.328   2.418   5.798  1.2505 -0.2532  1.2214
 6184SOL    HW230012   4.359   2.549   5.741 -0.9575 -0.4488 -3.3834
 6185SOL     OW30013   4.087   2.282  13.443 -0.4273  0.0628  0.0925
 6185SOL    HW130014   4.025   2.274  13.370 -1.3702  4.9262  0.3673
 6185SOL    HW230015   4.138   2.357  13.415  1.0970 -1.1202 -0.3035
 6186SOL     OW30016   2.201   3.546   4.814 -0.2108 -0.2628 -0.0306
 6186SOL    HW130017   2.181   3.555   4.721  2.4920 -1.7593 -0.7620
 6186SOL    HW230018   2.297   3.546   4.815 -0.2181  0.6393  0.8244
 6187SOL     OW30019   4.043   3.786   1.666 -0.2012  0.4681 -0.8659
 6187SOL    HW130020   4.025   3.720   1.733  0.0231 -0.5672 -1.8196
 6187SOL    HW230021   4.110   3.835   1.714  0.2603 -0.7957 -0.2173
 6188SOL     OW30022   3.423   1.297   7.322 -0.4054 -0.5208  0.0747
 6188SOL    HW130023   3.351   1.239   7.297 -0.1815 -0.2227 -1.2468
 6188SOL    HW230024   3.499   1.260   7.277  0.0295 -0.6794  0.9457
 6189SOL     OW30025   1.325   4.199  14.997 -0.0664 -0.3641 -0.6893
 6189SOL    HW130026   1.341   4.282  15.043 -1.2402 -0.1633 -0.6372
 6189SOL    HW230027   1.413   4.162  15.001 -0.3849 -0.9060  1.2489
 6190SOL     OW30028   4.083   1.064  11.937  0.1999  0.6965  0.2117
 6190SOL    HW130029   4.032   1.145  11.945 -1.7168 -0.6493  1.6965
 6190SOL    HW230030   4.035   0.994  11.982  1.8482  0.2251  1.2495
 6191SOL     OW30031   1.698   0.281   1.281  0.0519  0.5327 -0.1570
 6191SOL    HW130032   1.786   0.275   1.318  0.0272  0.8410 -0.0454
 6191SOL    HW230033   1.669   0.350   1.340  1.7913  1.1858 -0.0462
 6192SOL     OW30034   2.544   3.288   9.191  0.2716  0.2547 -0.1612
 6192SOL    HW130035   2.500   3.239   9.261 -0.6125  0.6384 -0.4570
 6192SOL    HW230036   2.542   3.374   9.232  1.0887 -0.0107  0.4378
 6193SOL     OW30037   3.550   0.123   6.635  0.1462 -0.0019 -0.1557
 6193SOL    HW130038   3.567   0.106   6.543 -0.9568  0.8641 -0.5215
 6193SOL    HW230039   3.555   0.031   6.662  0.4190  0.5970  1.8869
 6194SOL     OW30040   0.792   3.854   6.960 -0.4622  0.0249  0.2092
 6194SOL    HW130041   0.771   3.947   6.974  0.0741 -0.1692  2.3148
 6194SOL    HW230042   0.835   3.828   7.041 -2.4085  0.3464  1.3598
 6195SOL     OW30043   3.985   1.323   5.436 -0.4258  0.0268  0.1813
 6195SOL    HW130044   4.072   1.358   5.417 -1.0057  1.5083  0.3144
 6195SOL    HW230045   3.970   1.250   5.375 -1.3287  0.8152 -0.5262
 6196SOL     OW30046   1.019   2.107   2.076 -0.0136  0.5984  0.0009
 6196SOL    HW130047   0.949   2.073   2.020  0.0612  0.4950 -0.0292
 6196SOL    HW230048   1.031   2.194   2.038  0.1151 -0.4171 -2.2808
 6197SOL     OW30049   0.286   1.976   8.657 -0.3744  0.0470 -0.4122
 6197SOL    HW130050   0.338   2.004   8.732 -1.1322  1.0844 -0.2776
 6197SOL    HW230051   0.276   1.885   8.687  0.5341  0.8050  2.1885
 6198SOL     OW30052   2.035   2.530  11.890  0.0724  0.6439  0.0139
 6198SOL    HW130053   2.004   2.541  11.799 -0.9668 -0.8442  0.1865
 6198SOL    HW230054   2.105   2.466  11.874  0.6259  1.0908  0.6620
 6199SOL     OW30055   2.546   4.168   0.651  0.4633  0.4599 -0.3949
 6199SOL    HW130056   2.509   4.184   0.738 -2.0186 -0.3927 -1.3033
 6199SOL    HW230057   2.629   4.215   0.659  1.0848 -1.0114  1.8619
 6200SOL     OW30058   2.832   2.597   6.552  0.1032 -0.2767 -0.2076
 6200SOL    HW130059   2.760   2.552   6.508  0.4262 -1.1198  0.1315
 6200SOL    HW230060   2.865   2.530   6.612  1.2772  0.3015 -0.2046
 6201SOL     OW30061   0.129   2.906  15.972  0.0909  0.2785  0.2743
 6201SOL    HW130062   0.148   2.815  15.997 -0.5140  0.6831  2.1861
 6201SOL    HW230063   0.219   2.938  15.963  0.0505 -0.1357 -1.7395
 6202SOL     OW30064   3.685   0.025   7.105  0.5635 -0.4374  0.6471
 6202SOL    HW130065   3.744   4.688   7.067 -1.6847 -2.3401  0.3324
 6202SOL    HW230066   3.655   4.703   7.181 -0.4641  0.0349  0.5606
 6203SOL     OW30067   3.243   0.957   2.739  0.2147 -0.1353 -0.5472
 6203SOL    HW130068   3.158   0.948   2.783 -0.2697 -2.2934 -1.9763
 6203SOL    HW230069   3.234   1.021   2.668  1.5856 -0.4377 -0.9859
 6204SOL     OW30070   0.510   4.425   0.635 -0.5788  0.7491 -0.3060
 6204SOL    HW130071   0.542   4.514   0.640 -4.5635  2.0250  3.1195
 6204SOL    HW230072   0.503   4.421   0.540  1.2862 -1.0063 -0.3713
 6205SOL     OW30073   2.709   3.894   6.114  0.2449 -0.2062 -0.1628
 6205SOL    HW130074   2.728   3.807   6.148 -1.1550 -0.2936  0.4259
 6205SOL    HW230075   2.684   3.932   6.198  0.9780  0.1719 -0.1235
 6206SOL     OW30076   1.819   0.471   3.245  0.0089  0.4051  0.3054
 6206SOL    HW130077   1.781   0.386   3.222  1.4626  0.4302 -2.1038
 6206SOL    HW230078   1.748   0.534   3.257 -0.7724 -0.2178 -1.0669
 6207SOL     OW30079   0.130   0.908   4.675 -0.1462  0.1898  0.3705
 6207SOL    HW130080   0.060   0.953   4.628 -0.4952 -0.9770 -0.2234
 6207SOL    HW230081   0.138   0.827   4.624 -1.0508  1.0025 -1.0738
 6208SOL     OW30082   4.409   4.343   3.723  0.7603  0.0706  0.2142
 6208SOL    HW130083   4.465   4.313   3.651  0.8996  5.4681 -1.9374
 6208SOL    HW230084   4.347   4.383   3.662  0.2466 -0.9228  0.0911
 6209SOL     OW30085   2.976   3.999   2.919 -0.5503  0.0059  0.4980
 6209SOL    HW130086   2.974   4.089   2.885 -1.3761  0.0399  0.6358
 6209SOL    HW230087   3.029   3.998   2.999 -0.5413 -2.3210  0.4467
 6210SOL     OW30088   1.772   4.086   4.865  0.0506  0.1033  0.7190
 6210SOL    HW130089   1.862   4.054   4.863  0.6187  1.7399 -0.1005
 6210SOL    HW230090   1.789   4.180   4.856  2.1669 -0.4180 -0.7400
 6211SOL     OW30091   1.260   3.496   8.849 -0.0555 -0.6263  0.2228
 6211SOL    HW130092   1.288   3.588   8.848  1.1481 -1.0067 -3.0594
 6211SOL    HW230093   1.177   3.506   8.803 -0.4838  2.5574  1.7174
 6212SOL     OW30094   3.220   2.037   4.901  0.1383  0.0313  0.2818
 6212SOL    HW130095   3.172   2.113   4.933 -0.8999 -0.0232 -1.1550
 6212SOL    HW230096   3.256   2.086   4.827  2.2403  1.4304  2.2429
 6213SOL     OW30097   2.144   3.412  14.310 -0.2977  0.1946  0.3919
 6213SOL    HW130098   2.165   3.347  14.244  0.3918 -0.2914  1.0936
 6213SOL    HW230099   2.093   3.356  14.369 -2.6034  1.0142 -0.7988
 6214SOL     OW30100   2.457   1.242   7.816  0.3358  0.2668  0.5921
 6214SOL    HW130101   2.541   1.284   7.798  0.8250 -1.4827 -1.1461
 6214SOL    HW230102   2.454   1.175   7.748 -1.3545  0.4371  0.5160
 6215SOL     OW30103   0.281   3.138   9.753 -0.3567  0.0418  0.7588
 6215SOL    HW130104   0.253   3.195   9.825  0.0236  0.3383  0.6695
 6215SOL    HW230105   0.312   3.197   9.685 -0.5101  1.2613  1.7461
 6216SOL     OW30106   3.470   1.801   5.319 -0.1696  0.4059  0.5470
 6216SOL    HW130107   3.488   1.777   5.410  1.8105 -0.2094 -0.0064
 6216SOL    HW230108   3.553   1.846   5.307 -0.3125  0.4676 -0.1882
 6217SOL     OW30109   3.664   0.259   3.154  0.3218 -0.3602 -0.2637
 6217SOL    HW130110   3.638   0.180   3.106 -2.2219  1.4813 -1.9895
 6217SOL    HW230111   3.603   0.325   3.119  0.6764  1.3312  2.3094
 6218SOL     OW30112   4.634   3.179   7.587 -0.3529  0.2075  0.2959
 6218SOL    HW130113   4.602   3.124   7.516 -1.2330  0.4934  0.4805
 6218SOL    HW230114   4.612   3.267   7.557  2.2365  1.7164  2.7228
 6219SOL     OW30115   4.052   4.332   2.151  0.1938  0.3848  0.2446
 6219SOL    HW130116   4.128   4.346   2.207  0.6161  0.2240 -0.2802
 6219SOL    HW230117   4.002   4.411   2.169 -0.6891 -0.8200  2.9340
 6220SOL     OW30118   0.660   2.061   1.572  0.2374  0.6990 -0.0770
 6220SOL    HW130119   0.636   1.969   1.582 -0.0956  0.7491 -0.4114
 6220SOL    HW230120   0.707   2.061   1.489 -2.3761 -3.5754 -1.5579
 6221SOL     OW30121   1.534   0.845   4.542  0.3371  0.0732 -0.1078
 6221SOL    HW130122   1.555   0.925   4.494 -2.6328  0.9061 -0.0357
 6221SOL    HW230123   1.613   0.843   4.596 -0.3165 -3.1636  0.7430
 6222SOL     OW30124   0.397   2.090   8.432  0.0171  0.5540  0.1613
 6222SOL    HW130125   0.339   2.084   8.508 -0.7943 -0.3825 -0.5419
 6222SOL    HW230126   0.479   2.112   8.477 -0.3687  1.9939  0.1834
 6223SOL     OW30127   4.602   2.408   9.308 -0.3674 -0.0555 -0.2131
 6223SOL    HW130128   4.552   2.326   9.305  0.0484 -0.2552 -1.7845
 6223SOL    HW230129   4.677   2.377   9.256  0.1035 -0.7689  0.8974
 6224SOL     OW30130   0.996   1.047   6.131  0.0289 -0.2875 -0.1703
 6224SOL    HW130131   0.948   1.014   6.207 -1.2190 -0.8331 -1.2022
 6224SOL    HW230132   0.989   0.977   6.066 -2.1304 -0.5032  0.2797
 6225SOL     OW30133   1.767   3.875   9.669  0.1635 -0.2752 -0.3346
 6225SOL    HW130134   1.838   3.880   9.734  1.5095 -1.5481 -1.7200
 6225SOL    HW230135   1.813   3.875   9.585  0.5541  2.1678 -0.1504
 6226SOL     OW30136   0.120   2.393   2.808  0.1197  0.2989  0.2932
 6226SOL    HW130137   0.026   2.402   2.790  0.0517 -2.0147 -0.4538
 6226SOL    HW230138   0.146   2.355   2.724  0.3509  0.3835  0.3264
 6227SOL     OW30139   3.261   2.524   4.977 -0.5100  0.6540 -0.2011
 6227SOL    HW130140   3.323   2.595   4.970  0.2732  0.1491  1.6171
 6227SOL    HW230141   3.218   2.556   5.057 -0.2675 -0.5689  0.4268
 6228SOL     OW30142   4.484   3.345   6.306  0.2095 -0.5213  0.0437
 6228SOL    HW130143   4.510   3.266   6.258  1.3941 -0.3698  0.4339
 6228SOL    HW230144   4.468   3.410   6.237 -1.3536 -0.1033  0.8123
 6229SOL     OW30145   3.655   2.627   9.988 -0.0279 -0.4100  0.2256
 6229SOL    HW130146   3.737   2.656   9.947  0.6315 -2.3738  0.1642
 6229SOL    HW230147   3.632   2.559   9.925  0.6833 -1.8739  1.5719
 6230SOL     OW30148   1.359   1.966   4.391  0.1508 -0.2352  0.5016
 6230SOL    HW130149   1.389   2.008   4.472 -0.9744  0.8306  0.3655
 6230SOL    HW230150   1.381   1.873   4.388 -1.6301 -0.5956 -1.0749
 6231SOL     OW30151   2.572   3.530   5.316  0.3595  0.7788  0.0306
 6231SOL    HW130152   2.631   3.456   5.331 -0.4660  0.1016 -0.0257
 6231SOL    HW230153   2.502   3.526   5.381  2.2355  1.2394  2.0876
 6232SOL     OW30154   2.426   1.557  17.514 -0.0418  0.2115 -0.2344
 6232SOL    HW130155   2.392   1.628  17.568 -1.1916 -0.6217  0.1324
 6232SOL    HW230156   2.345   1.509  17.500 -0.0559 -0.0755  0.8556
 6233SOL     OW30157   0.707   2.425  13.678  0.1660 -0.3925 -0.3055
 6233SOL    HW130158   0.713   2.347  13.623  1.1954 -0.9604  0.6082
 6233SOL    HW230159   0.798   2.435  13.708  0.4493 -0.8811 -1.0247
 6234SOL     OW30160   2.378   1.478  14.947  0.3314 -0.4447  0.4241
 6234SOL    HW130161   2.378   1.564  14.906  0.1662 -1.4700 -1.7155
 6234SOL    HW230162   2.344   1.427  14.874  0.4109  0.0261  0.0646
 6235SOL     OW30163   4.438   1.287   5.247 -0.4158 -0.3641  0.6017
 6235SOL    HW130164   4.456   1.196   5.226 -1.0733 -0.5239  0.7347
 6235SOL    HW230165   4.485   1.323   5.172 -1.0089 -0.4890  0.1663
 6236SOL     OW30166   1.681   1.423   7.968  0.2908  0.0479  0.4817
 6236SOL    HW130167   1.632   1.483   7.912 -1.7902 -1.5356  0.6072
 6236SOL    HW230168   1.725   1.490   8.021  1.7057 -0.1331 -0.4635
 6237SOL     OW30169   3.029   3.567   1.541 -0.1194 -1.1210  0.4876
 6237SOL    HW130170   2.997   3.495   1.488 -0.9448 -0.3333 -0.0843
 6237SOL    HW230171   3.121   3.576   1.514  0.0569 -1.2164  1.0605
 6238SOL     OW30172   1.459   0.787   0.653  0.4843 -0.2873 -0.5235
 6238SOL    HW130173   1.484   0.699   0.623  2.4198  0.1517 -0.2269
 6238SOL    HW230174   1.427   0.820   0.569 -0.3357  0.6441  0.1594
 6239SOL     OW30175   2.625   3.219   3.915 -0.1588 -0.1097  0.4498
 6239SOL    HW130176   2.586   3.201   4.000  0.2780  1.4529  0.9864
 6239SOL    HW230177   2.593   3.143   3.866  0.2879 -0.5745  0.8813
 6240SOL     OW30178   0.187   0.629   8.841  0.3419 -0.4953 -0.1671
 6240SOL    HW130179   0.171   0.619   8.935  2.1468 -1.7468 -0.0093
 6240SOL    HW230180   0.219   0.719   8.830 -2.8069  0.6892  0.3439
 6241SOL     OW30181   3.217   0.128   7.283 -0.1990 -0.0521  0.1491
 6241SOL    HW130182   3.280   0.173   7.227 -0.2555 -1.8404 -1.3589
 6241SOL    HW230183   3.168   0.082   7.214 -0.1688 -0.9642  0.7370
 6242SOL     OW30184   3.143   0.921   5.745 -0.3687 -0.5566 -0.1515
 6242SOL    HW130185   3.197   0.846   5.719  0.5416 -0.1172  0.4936
 6242SOL    HW230186   3.075   0.922   5.677 -0.5295 -0.8487  0.0056
 6243SOL     OW30187   4.126   0.110   5.134 -0.2097 -0.1596  0.1454
 6243SOL    HW130188   4.097   0.123   5.224  1.7102 -0.2914  0.7828
 6243SOL    HW230189   4.091   0.022   5.120 -0.4747  0.0890 -0.7900
 6244SOL     OW30190   3.463   2.740   3.273 -0.3597 -0.2895 -0.0376
 6244SOL    HW130191   3.368   2.755   3.265 -0.1561  0.9293 -0.0960
 6244SOL    HW230192   3.486   2.763   3.183  0.7843  1.4260  0.6963
 6245SOL     OW30193   0.886   3.754   8.737 -0.3037 -0.1375 -0.6119
 6245SOL    HW130194   0.837   3.745   8.818 -0.0786 -1.2833 -0.6034
 6245SOL    HW230195   0.864   3.843   8.708  0.5552 -0.4111 -2.1206
 6246SOL     OW30196   0.547   0.721   9.973  0.2035 -0.5146 -0.1577
 6246SOL    HW130197   0.547   0.814   9.997 -0.1939 -0.7617  0.7917
 6246SOL    HW230198   0.545   0.727   9.877  0.8931 -1.5947 -0.2428
 6247SOL     OW30199   1.340   3.962  11.969  0.2550  0.2834 -0.3730
 6247SOL    HW130200   1.350   4.021  12.044  0.7479  1.1274 -1.1005
 6247SOL    HW230201   1.343   3.878  12.015  1.2128  0.2793 -0.4460
 6248SOL     OW30202   2.178   2.523   8.725 -0.1599  0.0407  0.2297
 6248SOL    HW130203   2.179   2.542   8.631  1.4939  0.7056  0.3829
 6248SOL    HW230204   2.175   2.611   8.763  1.2590 -0.4271  1.4002
 6249SOL     OW30205   2.332   4.643   7.093  0.4269 -0.1461  0.3612
 6249SOL    HW130206   2.268   4.656   7.164  0.2537 -2.3521  0.5908
 6249SOL    HW230207   2.281   4.686   7.024  3.2342 -0.3079 -1.8152
 6250SOL     OW30208   0.448   2.271   3.376 -0.1263 -0.2386 -0.1965
 6250SOL    HW130209   0.465   2.314   3.292  2.0010 -2.2989 -0.8120
 6250SOL    HW230210   0.539   2.245   3.389 -0.2168  0.6712  2.1366
 6251SOL     OW30211   2.795   4.187   6.150  0.1382 -0.1175  0.1961
 6251SOL    HW130212   2.822   4.119   6.089 -1.9104  0.6329 -1.5438
 6251SOL    HW230213   2.752   4.139   6.221 -3.0717 -0.4825 -1.9737
 6252SOL     OW30214   2.465   3.739  12.756  0.2609 -0.4005  0.3079
 6252SOL    HW130215   2.504   3.786  12.682 -1.3765  0.2187 -0.1565
 6252SOL    HW230216   2.537   3.728  12.819  0.3814 -1.3117  0.0005
 6253SOL     OW30217   2.597   3.125   3.361 -0.1516  0.0266  0.0246
 6253SOL    HW130218   2.593   3.219   3.343  1.0640  0.2158  0.7258
 6253SOL    HW230219   2.642   3.119   3.445 -4.0362 -0.4296  2.0600
 6254SOL     OW30220   1.050   3.915   2.356 -0.4902  0.0924 -0.3009
 6254SOL    HW130221   1.047   4.010   2.351  0.3755  0.0287 -1.8915
 6254SOL    HW230222   1.136   3.905   2.316 -0.3062 -1.1083  0.3735
 6255SOL     OW30223   1.140   2.929  10.788  0.3405  0.7438 -0.0958
 6255SOL    HW130224   1.210   2.864  10.778  0.0891  0.7204 -1.7392
 6255SOL    HW230225   1.069   2.873  10.818 -0.3962  1.1783 -1.0156
 6256SOL     OW30226   0.081   1.911   6.243 -0.4663 -0.3843  0.2777
 6256SOL    HW130227   0.175   1.898   6.228 -0.4543 -1.1629  1.0532
 6256SOL    HW230228   0.079   1.934   6.336  1.4942  2.4498 -0.3758
 6257SOL     OW30229   0.813   1.245   8.588  0.1315  0.0896 -0.1422
 6257SOL    HW130230   0.829   1.151   8.590  2.3860  0.4573 -0.4876
 6257SOL    HW230231   0.795   1.253   8.495 -1.2782  0.6330  0.1739
 6258SOL     OW30232   3.602   1.279   0.429  0.3629 -0.3491  0.0393
 6258SOL    HW130233   3.511   1.248   0.427  0.2282  0.0070  1.0598
 6258SOL    HW230234   3.607   1.290   0.524 -2.8968 -0.3679  0.2382
 6259SOL     OW30235   1.820   2.685   6.993 -0.2602 -0.5049 -0.1367
 6259SOL    HW130236   1.774   2.639   6.923 -0.9643  0.3144 -0.2080
 6259SOL    HW230237   1.908   2.648   6.994 -0.3488 -0.6904  0.9295
 6260SOL     OW30238   4.339   3.723   7.642  0.0875  0.0362 -0.1975
 6260SOL    HW130239   4.333   3.819   7.649  0.8312  0.0470  0.2865
 6260SOL    HW230240   4.352   3.688   7.730 -0.9640 -1.8984 -0.8097
 6261SOL     OW30241   4.578   0.391   5.963 -0.0643 -0.0191 -0.1477
 6261SOL    HW130242   4.639   0.364   5.894 -0.2742  0.1448 -0.3932
 6261SOL    HW230243   4.519   0.450   5.917  2.0387  0.6541 -1.9547
 6262SOL     OW30244   2.564   3.038  15.414 -0.4112  0.1292 -0.0577
 6262SOL    HW130245   2.514   3.033  15.332  0.9211 -0.4989 -0.8248
 6262SOL    HW230246   2.610   2.955  15.402 -0.0379  0.6925 -2.6000
 6263SOL     OW30247   3.627   2.322   7.834  0.7557 -0.1232 -0.4329
 6263SOL    HW130248   3.582   2.373   7.901 -2.2407 -2.3587 -0.7685
 6263SOL    HW230249   3.559   2.293   7.773  2.1270 -0.2305 -1.9036
 6264SOL     OW30250   1.132   0.534   1.507  0.1973 -0.1826 -0.0995
 6264SOL    HW130251   1.141   0.521   1.601  0.2022 -0.1135 -0.0905
 6264SOL    HW230252   1.064   0.468   1.492 -0.2279  0.4494 -0.9985
 6265SOL     OW30253   0.129   3.983  16.171 -0.2864  0.4027  0.2169
 6265SOL    HW130254   0.156   3.989  16.080  0.6986  1.6593  0.6019
 6265SOL    HW230255   0.208   4.012  16.215 -1.2044  1.7619  0.9818
 6266SOL     OW30256   4.130   0.940   1.707 -0.0928  0.2069 -0.5926
 6266SOL    HW130257   4.083   1.020   1.685 -0.4495  0.2079  0.1732
 6266SOL    HW230258   4.102   0.927   1.798  1.2255 -0.8666 -0.3294
 6267SOL     OW30259   2.260   1.358   2.077  0.0943 -0.1565  0.0003
 6267SOL    HW130260   2.301   1.346   1.991  0.9886 -0.0157  0.4140
 6267SOL    HW230261   2.333   1.395   2.127  0.1005  1.9075 -1.5481
 6268SOL     OW30262   3.606   4.044  11.935  0.0543  0.0857  0.0968
 6268SOL    HW130263   3.635   4.010  12.020  1.5370  1.4184  0.1172
 6268SOL    HW230264   3.517   4.012  11.926 -0.5155  1.7504 -0.1360
 6269SOL     OW30265   2.977   3.938   4.409  0.0149  0.2557  0.3775
 6269SOL    HW130266   2.929   3.863   4.445  1.2603 -0.1109  1.2758
 6269SOL    HW230267   2.962   4.009   4.471 -0.5576  2.0871 -1.8770
 6270SOL     OW30268   1.145   2.267   6.326 -0.3375  0.2812  0.5614
 6270SOL    HW130269   1.235   2.284   6.299  0.1732 -1.7857  0.9079
 6270SOL    HW230270   1.120   2.341   6.382 -1.1998  1.0453 -0.8461
 6271SOL     OW30271   2.874   4.038   4.886  0.1429 -0.0502  0.4194
 6271SOL    HW130272   2.816   4.105   4.922 -1.7543 -0.8361 -1.1412
 6271SOL    HW230273   2.836   3.950   4.896  2.5518 -1.1149  0.1326
 6272SOL     OW30274   2.866   3.091   5.432  0.5837 -0.0999 -0.2741
 6272SOL    HW130275   2.938   3.152   5.444 -0.7035  1.0779  1.3629
 6272SOL    HW230276   2.885   3.028   5.502  0.4148 -0.7243 -0.7831
 6273SOL     OW30277   0.271   0.902   2.268  0.1658 -0.3722  0.3998
 6273SOL    HW130278   0.247   0.967   2.202  1.1655 -1.2806 -0.8369
 6273SOL    HW230279   0.303   0.952   2.344  1.1190 -0.0396 -0.2159
 6274SOL     OW30280   0.326   4.501   5.568 -0.3429  0.0027 -0.2720
 6274SOL    HW130281   0.323   4.595   5.585  0.5200 -0.0906  0.4081
 6274SOL    HW230282   0.422   4.493   5.566 -0.4944 -1.9420  0.8697
 6275SOL     OW30283   4.136   2.849  16.083  0.6378  1.0179  0.0906
 6275SOL    HW130284   4.228   2.823  16.095  0.7295  1.0257 -0.6393
 6275SOL    HW230285   4.115   2.863  16.176  0.0897  1.0664 -0.0426
 6276SOL     OW30286   3.648   3.806  17.294  0.5662  0.0345 -0.4669
 6276SOL    HW130287   3.677   3.780  17.381  0.1470  1.5184  0.1181
 6276SOL    HW230288   3.563   3.762  17.294  1.6739 -2.0874  0.1026
 6277SOL     OW30289   1.473   4.528   6.780  0.2760  0.2110 -0.0097
 6277SOL    HW130290   1.559   4.491   6.797 -0.2601 -2.1132 -2.2426
 6277SOL    HW230291   1.441   4.450   6.734 -0.3104  0.2273  0.3722
 6278SOL     OW30292   1.700   4.162  15.828  0.1558 -0.1639 -0.4993
 6278SOL    HW130293   1.793   4.141  15.814  0.7331  2.0141  0.1407
 6278SOL    HW230294   1.691   4.138  15.920 -1.9883  0.8076 -0.4670
 6279SOL     OW30295   0.440   0.611   6.355 -0.4641  0.1514 -0.1749
 6279SOL    HW130296   0.468   0.525   6.387 -1.5517 -0.0052  0.3415
 6279SOL    HW230297   0.477   0.664   6.426  0.9905 -0.4010 -0.5106
 6280SOL     OW30298   1.955   1.116   7.410 -0.3995 -0.6126 -0.2594
 6280SOL    HW130299   1.969   1.193   7.354 -2.1277  0.1543  0.3831
 6280SOL    HW230300   1.928   1.055   7.342  0.9398 -1.2595 -0.2197
 6281SOL     OW30301   0.856   2.749   7.502  0.0802  0.6049 -0.3153
 6281SOL    HW130302   0.816   2.669   7.469 -1.1188  0.6911  0.8915
 6281SOL    HW230303   0.817   2.758   7.590  1.3830  0.8483  0.2360
 6282SOL     OW30304   2.920   3.362   3.498  0.9356  0.2944  0.3222
 6282SOL    HW130305   2.873   3.299   3.552 -1.7708  0.5503 -1.7033
 6282SOL    HW230306   2.936   3.429   3.564 -1.1064  0.4464  0.6635
 6283SOL     OW30307   0.061   0.360   6.448  0.1022  0.1568  0.0744
 6283SOL    HW130308   4.726   0.311   6.395  0.7324  0.2567 -0.7428
 6283SOL    HW230309   0.123   0.289   6.466 -1.5097 -1.9442 -2.7657
 6284SOL     OW30310   2.464   3.291   3.071 -0.5058  0.1731 -0.2418
 6284SOL    HW130311   2.543   3.299   3.017 -0.2624 -0.0266  0.0878
 6284SOL    HW230312   2.458   3.197   3.090  0.3140 -0.0207 -0.9623
 6285SOL     OW30313   4.466   4.184   6.734 -0.3949 -0.4312  0.1303
 6285SOL    HW130314   4.486   4.247   6.803 -0.4930 -0.6791  0.3841
 6285SOL    HW230315   4.380   4.164   6.770  0.3126  0.4948  2.3660
 6286SOL     OW30316   0.324   0.951   4.394 -0.0977  0.8040 -0.0628
 6286SOL    HW130317   0.283   0.872   4.431 -0.7973  0.9605 -0.4895
 6286SOL    HW230318   0.390   0.911   4.337 -2.6659 -0.8678 -1.8835
 6287SOL     OW30319   4.521   2.483   7.760 -0.4206  0.4506 -0.3345
 6287SOL    HW130320   4.470   2.402   7.766  2.1233 -1.1407  0.0715
 6287SOL    HW230321   4.451   2.540   7.793  1.0695  2.3253 -0.4205
 6288SOL     OW30322   4.234   1.440   8.862 -0.5212  0.1438  0.1444
 6288SOL    HW130323   4.162   1.466   8.919  1.4626  1.0281  2.2614
 6288SOL    HW230324   4.221   1.507   8.796  2.1586  0.0351 -0.5013
 6289SOL     OW30325   4.301   0.427  13.992 -0.0747 -0.4901  0.7631
 6289SOL    HW130326   4.245   0.504  13.994 -1.6924 -1.6307 -0.4372
 6289SOL    HW230327   4.366   0.437  13.922 -0.7790  0.7055  0.2850
 6290SOL     OW30328   3.046   0.580   5.665 -0.7945  0.9607  0.1301
 6290SOL    HW130329   3.139   0.603   5.669  0.3170 -3.2581 -1.5221
 6290SOL    HW230330   3.047   0.512   5.733 -0.6930 -1.1826 -2.0280
 6291SOL     OW30331   3.674   0.284   7.050  0.2375 -0.2688 -0.0551
 6291SOL    HW130332   3.741   0.305   7.115  1.4039 -1.6737 -0.7903
 6291SOL    HW230333   3.660   0.189   7.057  0.0843 -0.3617 -1.7339
 6292SOL     OW30334   2.610   1.142   6.426 -0.6352  0.1308  0.4157
 6292SOL    HW130335   2.560   1.147   6.345  0.3175  1.5807 -0.0920
 6292SOL    HW230336   2.627   1.236   6.435  1.8451 -0.3685  0.9713
 6293SOL     OW30337   0.247   4.137   9.170  0.4903 -0.1686 -0.1192
 6293SOL    HW130338   0.307   4.209   9.154  1.2588 -0.3731  1.8416
 6293SOL    HW230339   0.199   4.175   9.244 -1.2554  0.0596 -1.3678
 6294SOL     OW30340   1.933   4.217   2.593  0.0127 -0.2934  0.1291
 6294SOL    HW130341   2.007   4.194   2.537 -1.6561  0.0667 -2.1935
 6294SOL    HW230342   1.858   4.203   2.536  0.0823 -0.0194 -0.0300
 6295SOL     OW30343   4.212   2.982  13.716 -0.3733  0.3203 -0.8275
 6295SOL    HW130344   4.183   2.896  13.746 -0.0806 -0.3108 -2.3550
 6295SOL    HW230345   4.135   3.012  13.667  0.1090  0.2436 -1.6223
 6296SOL     OW30346   0.728   3.909   5.515  0.5165 -0.1367  0.3007
 6296SOL    HW130347   0.677   3.851   5.457 -2.1345  1.0135  1.5235
 6296SOL    HW230348   0.707   3.876   5.602  0.1417 -0.9908 -0.1021
 6297SOL     OW30349   2.743   4.053   3.278  0.7351  0.2077  0.5379
 6297SOL    HW130350   2.701   4.030   3.362  0.8067  0.7942  0.7385
 6297SOL    HW230351   2.800   3.977   3.274  0.8049  0.3510 -1.1525
 6298SOL     OW30352   0.866   0.688   8.136  0.5033 -0.1820 -0.3412
 6298SOL    HW130353   0.796   0.625   8.147  1.6124 -1.5119 -0.9197
 6298SOL    HW230354   0.934   0.637   8.092  1.3620  0.6259  0.0471
 6299SOL     OW30355   1.999   2.992   9.546 -0.6152 -0.6109  0.0407
 6299SOL    HW130356   1.984   2.905   9.581  0.7782  0.0161  2.1813
 6299SOL    HW230357   1.914   3.007   9.505 -0.0973 -1.6811 -1.4141
 6300SOL     OW30358   3.790   2.928  15.812 -0.3250  0.6592 -0.6771
 6300SOL    HW130359   3.714   2.888  15.770 -0.7904 -0.1729  0.9901
 6300SOL    HW230360   3.768   3.020  15.796 -3.3581 -0.1620 -1.1672
 6301SOL     OW30361   0.424   1.525   9.417 -0.2443  0.2130  0.3322
 6301SOL    HW130362   0.415   1.524   9.322 -0.2301  4.1499  0.2943
 6301SOL    HW230363   0.395   1.615   9.435  1.1615  0.6764  0.3048
 6302SOL     OW30364   0.793   0.165   1.019  0.1851  0.5582  0.4855
 6302SOL    HW130365   0.859   0.149   0.951  0.1675 -1.6290  0.9947
 6302SOL    HW230366   0.844   0.146   1.097 -1.0540  0.6819  1.3246
 6303SOL     OW30367   3.888   1.042   3.979  0.2677 -0.1519 -0.6102
 6303SOL    HW130368   3.860   1.069   4.067  0.5512  1.9595 -1.1773
 6303SOL    HW230369   3.965   1.098   3.967 -1.8542  2.7081 -1.0713
 6304SOL     OW30370   1.436   3.771  14.308 -0.5888 -0.1061 -0.2513
 6304SOL    HW130371   1.378   3.847  14.300 -0.3384  0.0766 -0.3174
 6304SOL    HW230372   1.400   3.720  14.236 -0.4214 -0.2484 -0.2327
 6305SOL     OW30373   0.649   0.615   1.704  0.2836 -0.3980 -0.7007
 6305SOL    HW130374   0.737   0.651   1.695  1.0404 -1.8032  1.2240
 6305SOL    HW230375   0.611   0.683   1.761  2.2287  1.7719 -1.9992
 6306SOL     OW30376   1.865   3.223  15.783 -1.0574 -0.5994  0.3991
 6306SOL    HW130377   1.956   3.193  15.777  0.3008  3.1703  1.5028
 6306SOL    HW230378   1.851   3.258  15.695  1.8155 -0.4489 -0.0152
 6307SOL     OW30379   2.559   2.559   8.337  0.0948  1.0593  0.7804
 6307SOL    HW130380   2.511   2.642   8.334 -1.7029  0.0335  1.8854
 6307SOL    HW230381   2.632   2.579   8.277 -0.5152 -0.8853 -0.5951
 6308SOL     OW30382   0.706   3.446   7.887  0.7060  0.3032 -0.0245
 6308SOL    HW130383   0.629   3.489   7.849  0.4437  0.8645  1.1437
 6308SOL    HW230384   0.686   3.444   7.980  1.7808  1.2045  0.2179
 6309SOL     OW30385   2.464   0.927  17.185 -0.3127  0.0953 -0.4258
 6309SOL    HW130386   2.406   0.967  17.120 -0.9032  1.7711  1.0930
 6309SOL    HW230387   2.430   0.837  17.190  1.1557 -0.5309 -2.0066
 6310SOL     OW30388   0.105   1.950   7.889  0.0614 -0.4204  0.0056
 6310SOL    HW130389   0.172   1.927   7.953 -1.8036  1.4781  2.6736
 6310SOL    HW230390   0.140   2.027   7.844 -1.9772  1.7171  2.0805
 6311SOL     OW30391   2.469   3.873   2.602 -0.2152 -0.0387 -0.0363
 6311SOL    HW130392   2.544   3.832   2.559 -0.2207 -0.7006  0.5834
 6311SOL    HW230393   2.505   3.958   2.627 -1.7196 -0.3150  3.0724
 6312SOL     OW30394   2.187   0.773   4.528  0.7832 -0.6258  0.0999
 6312SOL    HW130395   2.273   0.802   4.558  0.3975 -0.6184  1.1998
 6312SOL    HW230396   2.152   0.847   4.478  1.7373 -1.1203 -1.2840
 6313SOL     OW30397   3.661   3.195  14.700 -0.1633 -0.0345  0.0625
 6313SOL    HW130398   3.609   3.248  14.761  1.6498  0.4441  1.1828
 6313SOL    HW230399   3.696   3.125  14.755 -0.1352 -1.7093 -2.0656
 6314SOL     OW30400   1.506   3.916  13.031 -0.3293  0.2463 -0.5882
 6314SOL    HW130401   1.518   3.976  13.104 -0.2191 -2.0705  1.2918
 6314SOL    HW230402   1.444   3.970  12.982  0.8680  0.9669 -1.2977
 6315SOL     OW30403   1.002   2.883   8.301  0.2218  0.4467 -0.9353
 6315SOL    HW130404   1.023   2.843   8.216  1.2802 -0.2153 -0.3531
 6315SOL    HW230405   0.979   2.803   8.349 -0.8136  1.3144  0.0258
 6316SOL     OW30406   1.771   1.983   1.908 -0.5791  0.1125  0.2009
 6316SOL    HW130407   1.812   2.051   1.854  0.4615  1.2534  2.4292
 6316SOL    HW230408   1.817   2.007   1.988 -1.3392  3.0275 -0.2325
 6317SOL     OW30409   1.293   0.810   9.219 -0.3719  0.3825  0.6085
 6317SOL    HW130410   1.241   0.829   9.141  0.4717 -0.2638 -0.1105
 6317SOL    HW230411   1.368   0.865   9.195 -0.0045  0.3129  1.5940
 6318SOL     OW30412   3.801   0.933  10.004 -0.3670 -0.0475 -0.1707
 6318SOL    HW130413   3.765   1.010   9.958 -0.2671 -0.2923 -0.6640
 6318SOL    HW230414   3.866   0.899   9.942 -0.7903  0.8314 -1.1102
 6319SOL     OW30415   0.727   2.802   3.550 -0.1427 -0.2137 -0.0414
 6319SOL    HW130416   0.801   2.837   3.600 -1.2223  0.9750  0.7138
 6319SOL    HW230417   0.691   2.729   3.600  0.0863  0.4326  1.0544
 6320SOL     OW30418   4.587   0.027   1.430  0.1528 -0.0211  0.4727
 6320SOL    HW130419   4.495   0.017   1.454  0.2365 -0.1801  0.7282
 6320SOL    HW230420   4.607   0.114   1.463 -1.0157  0.3430  0.2360
 6321SOL     OW30421   3.555   4.599   5.978 -0.4626 -0.5227  0.1334
 6321SOL    HW130422   3.534   4.691   5.998  2.2056  0.1884 -0.2966
 6321SOL    HW230423   3.471   4.569   5.944 -0.9218  1.7996 -0.8412
 6322SOL     OW30424   4.040   0.097   8.024  0.3239  0.1176  0.5870
 6322SOL    HW130425   4.056   0.038   8.098 -1.0698 -0.1788  0.6506
 6322SOL    HW230426   4.011   0.179   8.064  0.1321  0.7312 -0.8230
 6323SOL     OW30427   2.380   2.022  15.963  0.0983 -0.6909 -0.2606
 6323SOL    HW130428   2.371   1.942  16.015  1.5835 -1.0477 -0.5406
 6323SOL    HW230429   2.472   2.046  15.979 -0.8351 -0.3610  4.5524
 6324SOL     OW30430   3.660   0.112   9.011 -0.2408  0.0789  0.6719
 6324SOL    HW130431   3.616   0.195   8.995 -0.8045  0.2222  3.0335
 6324SOL    HW230432   3.739   0.135   8.961 -0.5696 -1.5060 -0.6006
 6325SOL     OW30433   2.509   2.855   8.158  0.1035 -0.4303  0.2462
 6325SOL    HW130434   2.555   2.902   8.227 -0.7621 -0.0412  0.5704
 6325SOL    HW230435   2.570   2.789   8.127 -0.3005  0.6718 -2.9174
 6326SOL     OW30436   0.610   2.288   2.623 -0.1095 -0.2797 -0.2756
 6326SOL    HW130437   0.528   2.286   2.575 -0.0859 -0.4369 -0.3079
 6326SOL    HW230438   0.575   2.321   2.706 -1.3117 -1.4779 -0.3209
 6327SOL     OW30439   1.584   4.075   4.597 -0.6852  0.9404  0.1620
 6327SOL    HW130440   1.575   3.990   4.640 -1.6231  1.0485  0.1794
 6327SOL    HW230441   1.677   4.096   4.608 -0.9991  2.7197 -0.4627
 6328SOL     OW30442   3.206   0.131   5.995 -0.1416  1.0017  0.2954
 6328SOL    HW130443   3.139   0.064   6.008 -0.3354  1.0672 -0.3772
 6328SOL    HW230444   3.219   0.116   5.901  0.1156 -0.9936  0.6556
 6329SOL     OW30445   0.991   0.109   7.322  0.0413  0.2719  0.0950
 6329SOL    HW130446   1.061   0.052   7.290  0.4908  1.1857 -0.5539
 6329SOL    HW230447   1.009   0.113   7.416 -0.6073  0.2123  0.2197
 6330SOL     OW30448   0.151   3.427   5.875 -0.2730 -0.1055  0.0343
 6330SOL    HW130449   0.193   3.364   5.817 -0.4788 -1.1780  1.0423
 6330SOL    HW230450   0.180   3.412   5.966 -1.8461  2.2310  0.9061
 6331SOL     OW30451   1.540   0.796   7.807  0.8505  0.3534  0.3096
 6331SOL    HW130452   1.509   0.873   7.760  0.3360  1.1721  1.9679
 6331SOL    HW230453   1.593   0.837   7.876 -1.8067 -2.7453  4.1425
 6332SOL     OW30454   0.971   0.110   7.582 -0.0469  0.1498  0.1270
 6332SOL    HW130455   1.014   0.033   7.619  2.2863  0.5630 -1.6506
 6332SOL    HW230456   0.884   0.100   7.620 -0.0736  1.5698  0.4540
 6333SOL     OW30457   4.694   4.599   7.910 -0.1627 -0.2118  0.3079
 6333SOL    HW130458   4.659   4.605   7.999  0.9678  2.7651  0.5574
 6333SOL    HW230459   4.632   4.652   7.860  1.8618  0.3745 -1.5797
 6334SOL     OW30460   1.921   0.032  12.583  0.2330 -0.4022 -0.0441
 6334SOL    HW130461   1.992   0.084  12.620 -0.1549 -0.6465  1.0498
 6334SOL    HW230462   1.942   4.690  12.645  1.4226  1.9803  2.2245
 6335SOL     OW30463   3.296   3.416  11.921  0.6774 -0.1369 -0.3563
 6335SOL    HW130464   3.287   3.443  12.013 -0.5173  0.9540 -0.8026
 6335SOL    HW230465   3.337   3.494  11.883 -0.1799  0.0351 -0.9176
 6336SOL     OW30466   1.246   3.081  14.885  0.2932 -0.4174 -0.1040
 6336SOL    HW130467   1.164   3.071  14.837  0.3789  2.1333 -0.7390
 6336SOL    HW230468   1.306   3.068  14.811 -0.4385  1.0211 -0.9292
 6337SOL     OW30469   0.855   2.529   4.626 -0.7329 -0.0204 -0.1491
 6337SOL    HW130470   0.919   2.594   4.599 -0.6866 -0.4464 -1.0919
 6337SOL    HW230471   0.771   2.565   4.597 -1.0580  0.3866  1.2933
 6338SOL     OW30472   3.358   3.336   7.229  0.5474  0.2857  0.1808
 6338SOL    HW130473   3.419   3.336   7.154 -2.6544 -0.6038 -2.4161
 6338SOL    HW230474   3.421   3.350   7.300  4.3193 -1.9677 -2.6879
 6339SOL     OW30475   3.501   2.523   3.458  0.2959 -0.4259 -0.4254
 6339SOL    HW130476   3.503   2.598   3.517  0.0150 -0.5512 -0.2589
 6339SOL    HW230477   3.485   2.571   3.377 -1.7203 -2.6060 -1.3215
 6340SOL     OW30478   2.208   0.791   2.971 -0.0050 -0.3333 -0.1558
 6340SOL    HW130479   2.301   0.803   2.952  0.6706 -0.5362  2.9869
 6340SOL    HW230480   2.210   0.695   2.976 -1.6822 -0.2540  1.8610
 6341SOL     OW30481   2.640   1.988  16.355  0.6317  0.3685 -1.0087
 6341SOL    HW130482   2.683   2.059  16.403  0.8744 -1.0577  0.9180
 6341SOL    HW230483   2.667   1.910  16.404  0.8118  0.0894 -1.5578
 6342SOL     OW30484   1.892   2.508   6.485 -0.5774  0.3108  0.2316
 6342SOL    HW130485   1.855   2.427   6.450  0.4493  0.4782 -1.2314
 6342SOL    HW230486   1.812   2.561   6.482  0.0697  1.2613  0.0069
 6343SOL     OW30487   4.142   3.398   5.053  0.2602 -0.6545  0.5509
 6343SOL    HW130488   4.094   3.405   4.970 -2.2362 -0.6783  1.9709
 6343SOL    HW230489   4.067   3.419   5.109  1.3582  1.5306  1.1887
 6344SOL     OW30490   3.502   1.130  13.955 -0.0104  0.8143  0.1046
 6344SOL    HW130491   3.532   1.118  14.045 -0.5486 -2.0175 -0.0783
 6344SOL    HW230492   3.485   1.037  13.938 -0.4227  0.6844  1.2069
 6345SOL     OW30493   3.120   1.506   5.440  0.0664 -0.4993 -0.1413
 6345SOL    HW130494   3.145   1.527   5.349 -0.7074  1.2478  0.0416
 6345SOL    HW230495   3.177   1.431   5.456  3.0266  1.6143 -0.6163
 6346SOL     OW30496   0.140   1.049   7.493 -0.1353 -0.5017 -0.0359
 6346SOL    HW130497   0.195   1.026   7.567  0.8998  1.5240 -0.1833
 6346SOL    HW230498   0.075   1.100   7.543 -0.4414  0.1180 -1.0593
 6347SOL     OW30499   3.551   0.999   3.490 -0.0368  0.0323  0.3637
 6347SOL    HW130500   3.638   1.023   3.456 -0.1207 -0.5422 -0.2631
 6347SOL    HW230501   3.499   1.018   3.412 -0.0921  0.6302  0.5486
 6348SOL     OW30502   3.965   0.437   4.842 -0.4919  0.5785 -0.4353
 6348SOL    HW130503   3.927   0.349   4.839  0.1006  0.3287 -0.5325
 6348SOL    HW230504   4.032   0.436   4.910 -0.3713 -0.3312 -0.5745
 6349SOL     OW30505   3.795   1.366   3.538 -0.2338 -0.1109 -0.2502
 6349SOL    HW130506   3.827   1.362   3.448  1.6854  0.9509  0.3954
 6349SOL    HW230507   3.796   1.273   3.558  0.5320 -0.3540 -1.4137
 6350SOL     OW30508   2.689   3.481   0.115  0.5809  0.5518  0.6101
 6350SOL    HW130509   2.598   3.469   0.144  0.5829  0.8098  0.7166
 6350SOL    HW230510   2.736   3.492   0.198 -1.2196  0.7935  1.6071
 6351SOL     OW30511   2.628   4.445   3.803  0.8255  0.1843  0.4276
 6351SOL    HW130512   2.676   4.366   3.776  1.9546  0.3471  1.9735
 6351SOL    HW230513   2.608   4.433   3.896  2.2321  0.8744  0.8152
 6352SOL     OW30514   3.012   1.805   7.635 -0.2018  0.3834 -0.5508
 6352SOL    HW130515   3.039   1.746   7.565 -0.7692  0.2491 -0.6523
 6352SOL    HW230516   3.076   1.877   7.637 -0.6283  0.6851  2.1606
 6353SOL     OW30517   0.079   0.076  14.957 -0.3608  0.3004  0.0288
 6353SOL    HW130518   0.058   0.155  14.907 -0.5345 -0.4591 -1.0996
 6353SOL    HW230519   0.060   0.007  14.893 -0.4510  1.5001 -1.2234
 6354SOL     OW30520   0.417   4.601   8.919  0.3548  0.1139 -0.2801
 6354SOL    HW130521   0.449   4.550   8.993  0.3511  1.5377  0.7118
 6354SOL    HW230522   0.426   4.529   8.857  2.4228 -0.4021  0.6108
 6355SOL     OW30523   0.704   4.711  17.003 -0.2579 -0.2413  0.1635
 6355SOL    HW130524   0.620   0.028  16.988  0.2140  0.0009 -1.8242
 6355SOL    HW230525   0.731   4.703  16.912  0.5170  2.2594  0.1761
 6356SOL     OW30526   2.738   1.419   5.892  0.1930  0.1906  0.2062
 6356SOL    HW130527   2.819   1.375   5.916 -0.2734 -0.0813  1.3190
 6356SOL    HW230528   2.763   1.499   5.846  0.1669  1.3477  2.1708
 6357SOL     OW30529   3.261   2.333  15.801  0.5420 -0.0223  0.2066
 6357SOL    HW130530   3.194   2.366  15.860  0.7706  1.8431 -0.5682
 6357SOL    HW230531   3.219   2.333  15.715 -1.4215 -0.9374  1.1718
 6358SOL     OW30532   0.433   0.147   2.602  0.1026  0.0147  0.2492
 6358SOL    HW130533   0.351   0.168   2.646 -1.3495 -1.3749 -1.8002
 6358SOL    HW230534   0.461   0.231   2.566 -2.1633 -0.0328 -1.6201
 6359SOL     OW30535   3.786   4.092   4.772 -0.6006 -0.7057 -0.2830
 6359SOL    HW130536   3.851   4.161   4.773  0.0505 -1.2970 -1.6246
 6359SOL    HW230537   3.831   4.016   4.810 -0.2230  0.1302  0.9274
 6360SOL     OW30538   3.703   3.442   9.515  0.2118  0.1239 -0.3463
 6360SOL    HW130539   3.680   3.496   9.440  3.7771  1.7103 -0.2791
 6360SOL    HW230540   3.631   3.379   9.505 -2.3000  2.7812  0.8857
 6361SOL     OW30541   4.085   0.351   3.473 -0.4962  0.3996 -0.2236
 6361SOL    HW130542   4.065   0.445   3.469 -0.6486  0.2611 -2.5292
 6361SOL    HW230543   4.102   0.326   3.382  1.4133 -0.4605  0.3614
 6362SOL     OW30544   1.988   3.771  12.916 -0.4429  0.1434 -0.8639
 6362SOL    HW130545   1.923   3.706  12.939  1.3163 -0.8003  1.4868
 6362SOL    HW230546   2.005   3.821  12.996 -0.4331  1.5646 -1.7443
 6363SOL     OW30547   1.775   0.675  15.213  0.5596 -0.0610 -0.3332
 6363SOL    HW130548   1.751   0.738  15.282  3.0088 -1.6466  1.9975
 6363SOL    HW230549   1.790   0.730  15.136 -3.9470  1.1522 -0.3531
 6364SOL     OW30550   2.846   1.612   6.531 -0.0566 -0.2706 -0.2171
 6364SOL    HW130551   2.782   1.540   6.537 -0.1338 -0.2997 -1.4158
 6364SOL    HW230552   2.783   1.684   6.533  2.0613  1.5266  1.1268
 6365SOL     OW30553   2.602   0.354   4.581  0.1436 -0.3730  0.1233
 6365SOL    HW130554   2.603   0.447   4.604 -0.7637 -0.3509  0.0732
 6365SOL    HW230555   2.521   0.345   4.530 -0.5182  0.3792  1.0445
 6366SOL     OW30556   0.487   2.387   2.866 -0.1004 -0.1546  0.0428
 6366SOL    HW130557   0.495   2.355   2.956  0.7019  1.7814  0.6422
 6366SOL    HW230558   0.391   2.392   2.856 -0.4997 -2.4163  2.5113
 6367SOL     OW30559   0.968   1.440   4.992 -0.5253 -0.2208 -0.0117
 6367SOL    HW130560   0.900   1.406   4.934 -2.4548 -0.3983  2.3811
 6367SOL    HW230561   0.938   1.529   5.007 -1.9855 -0.4137 -1.8317
 6368SOL     OW30562   1.036   2.193   2.866  0.3384  0.3900 -0.5726
 6368SOL    HW130563   1.007   2.279   2.896 -0.4252 -0.7330  1.9906
 6368SOL    HW230564   0.957   2.171   2.817 -0.5399 -0.5637  1.2380
 6369SOL     OW30565   3.572   4.332   9.968 -0.4340  0.2066  0.4747
 6369SOL    HW130566   3.661   4.327   9.935 -1.0155  1.3780 -1.2967
 6369SOL    HW230567   3.564   4.255  10.023  2.9521  0.5675  1.4445
 6370SOL     OW30568   4.277   4.689  17.224  0.3736  1.1187 -0.1348
 6370SOL    HW130569   4.234   0.046  17.234 -1.8092 -0.1549  1.0812
 6370SOL    HW230570   4.273   4.684  17.129  0.2246  0.9732 -0.1193
 6371SOL     OW30571   0.437   0.175  17.044  0.1470 -0.2848  0.0983
 6371SOL    HW130572   0.496   0.245  17.015  1.3969 -1.5334 -0.4127
 6371SOL    HW230573   0.351   0.213  17.029  1.1105  0.6455 -3.1903
 6372SOL     OW30574   1.407   3.626   2.975  0.0049  0.1341 -0.4974
 6372SOL    HW130575   1.429   3.713   3.009  0.3963 -0.7847  1.5905
 6372SOL    HW230576   1.485   3.572   2.991 -0.1728  0.1286  0.3419
 6373SOL     OW30577   4.057   0.234   7.630 -0.5352 -0.4441 -0.0775
 6373SOL    HW130578   4.019   0.296   7.569 -1.6733 -2.7317 -1.6704
 6373SOL    HW230579   4.057   0.150   7.585 -0.5310 -0.0555 -0.7912
 6374SOL     OW30580   0.896   3.058  13.949 -0.0666 -0.7187 -0.1591
 6374SOL    HW130581   0.839   3.095  14.016 -1.1637 -0.6323 -1.1591
 6374SOL    HW230582   0.946   2.996  14.003  0.1960 -1.8132 -1.6575
 6375SOL     OW30583   0.333   1.092  14.608 -0.2499 -0.4959 -0.2763
 6375SOL    HW130584   0.345   1.131  14.695  0.1521  0.1781 -0.6312
 6375SOL    HW230585   0.419   1.097  14.567 -0.5001  2.1709 -0.5063
 6376SOL     OW30586   4.434   3.977   8.148  0.4145 -0.2488  0.3615
 6376SOL    HW130587   4.388   3.942   8.225 -1.9238  2.4385  0.1723
 6376SOL    HW230588   4.499   4.028   8.196 -0.9693 -0.7383  2.7554
 6377SOL     OW30589   0.141   1.038   5.892 -0.1332 -0.2386  0.5322
 6377SOL    HW130590   0.119   1.064   5.802  0.1995 -0.0159  0.5163
 6377SOL    HW230591   0.083   1.099   5.938 -1.2867 -0.2972 -0.8086
 6378SOL     OW30592   1.248   0.258   6.659 -0.7213 -0.6102 -0.6468
 6378SOL    HW130593   1.232   0.171   6.695 -0.8784 -0.6674 -0.8537
 6378SOL    HW230594   1.302   0.236   6.583  2.1463 -2.1570  1.8528
 6379SOL     OW30595   2.395   0.445   0.155 -0.6456 -0.4141 -0.2206
 6379SOL    HW130596   2.430   0.513   0.097  0.7635 -0.8456  0.1070
 6379SOL    HW230597   2.335   0.397   0.098 -1.0848 -0.8116  0.5682
 6380SOL     OW30598   0.723   1.559   9.694  0.0325 -0.5930 -0.1470
 6380SOL    HW130599   0.692   1.647   9.712 -1.1132 -1.1370  0.5526
 6380SOL    HW230600   0.785   1.562   9.767  0.2940  0.0086 -0.3967
 6381SOL     OW30601   1.652   4.449  10.352 -0.4960 -0.6912 -0.1063
 6381SOL    HW130602   1.564   4.464  10.386 -0.6389 -0.2395 -0.6631
 6381SOL    HW230603   1.621   4.379  10.296  1.6383 -1.8914  0.2259
 6382SOL     OW30604   3.785   4.638   8.669 -0.0833  0.7556  0.0266
 6382SOL    HW130605   3.745   4.556   8.697 -0.2313  1.0842  0.7989
 6382SOL    HW230606   3.714   4.701   8.677  1.6144  2.7600 -0.7620
 6383SOL     OW30607   2.652   3.423   6.101  0.0553 -0.2860  1.1045
 6383SOL    HW130608   2.582   3.449   6.041 -1.2019 -0.7404  2.3653
 6383SOL    HW230609   2.681   3.507   6.139 -2.1153 -0.1194  2.4149
 6384SOL     OW30610   3.160   3.337   6.015 -0.3732  0.3689 -0.3254
 6384SOL    HW130611   3.201   3.309   5.933 -1.4687 -1.9719 -0.0896
 6384SOL    HW230612   3.072   3.366   5.990 -1.2455 -1.1913  0.8817
 6385SOL     OW30613   2.788   0.459   6.056 -0.3640 -0.2586  0.4930
 6385SOL    HW130614   2.817   0.378   6.015 -2.7031 -0.2975 -1.0820
 6385SOL    HW230615   2.774   0.509   5.976 -1.2484 -2.9243 -1.0156
 6386SOL     OW30616   3.656   0.236   2.515 -0.3378  0.1777 -0.0375
 6386SOL    HW130617   3.603   0.261   2.439 -1.9798 -2.8849  0.1092
 6386SOL    HW230618   3.620   0.271   2.596  2.4809  0.4561  1.0841
 6387SOL     OW30619   2.719   0.197  11.338  0.7451  0.3510  0.2670
 6387SOL    HW130620   2.766   0.173  11.259 -1.7267  0.4658 -1.2299
 6387SOL    HW230621   2.680   0.115  11.367  1.8234  0.0054  0.7300
 6388SOL     OW30622   2.514   0.792   7.481  0.1563 -0.2139 -0.7625
 6388SOL    HW130623   2.598   0.748   7.476 -0.1188 -0.6423 -1.5584
 6388SOL    HW230624   2.464   0.730   7.534  0.8080 -0.6023 -0.5990
 6389SOL     OW30625   0.543   2.817  14.325 -0.8009 -0.2830 -0.0316
 6389SOL    HW130626   0.476   2.749  14.340 -1.5311  0.6042  0.7432
 6389SOL    HW230627   0.576   2.805  14.236  0.9612 -2.8135  0.9603
 6390SOL     OW30628   2.647   0.654   8.461  0.3019  0.2971  0.7648
 6390SOL    HW130629   2.672   0.707   8.536  0.4038  0.6897  0.4563
 6390SOL    HW230630   2.605   0.717   8.402 -0.7251  1.3731  2.6702
 6391SOL     OW30631   2.528   0.019   7.568  0.5575 -0.4298  0.0609
 6391SOL    HW130632   2.570   0.095   7.608 -0.4458 -0.0138  0.3315
 6391SOL    HW230633   2.595   4.701   7.518  0.6647 -1.1239  0.8426
 6392SOL     OW30634   1.507   2.574   5.477  0.1033  0.0068  0.1632
 6392SOL    HW130635   1.470   2.491   5.510 -0.7456  0.5404  0.5459
 6392SOL    HW230636   1.562   2.544   5.405  0.2938 -1.5598  0.9488
 6393SOL     OW30637   0.792   0.860   1.440  0.4959  0.1959  0.1156
 6393SOL    HW130638   0.852   0.912   1.386 -0.5250  0.6350 -0.5818
 6393SOL    HW230639   0.741   0.808   1.378  1.4426 -0.6146  0.0191
 6394SOL     OW30640   1.163   2.801   9.245  0.5999 -0.2609 -0.5927
 6394SOL    HW130641   1.243   2.789   9.195  0.7560  1.0567 -0.6557
 6394SOL    HW230642   1.117   2.851   9.177 -3.0482 -1.1510  1.2200
 6395SOL     OW30643   4.266   1.099   3.154 -0.2779  0.0259 -1.1863
 6395SOL    HW130644   4.329   1.059   3.214 -1.2382  1.1159  0.5610
 6395SOL    HW230645   4.327   1.096   3.080 -1.7768 -1.1438 -2.3590
 6396SOL     OW30646   1.700   1.861   5.450 -0.8101  0.3200  1.0450
 6396SOL    HW130647   1.653   1.876   5.369 -0.3963  0.4813  0.8363
 6396SOL    HW230648   1.727   1.950   5.472 -1.3725 -0.0760  3.4230
 6397SOL     OW30649   0.411   0.856  11.852 -0.5614  0.1892  0.2512
 6397SOL    HW130650   0.377   0.835  11.765  0.3380  0.9541 -0.2844
 6397SOL    HW230651   0.337   0.825  11.904 -0.0797 -2.1122 -0.4252
 6398SOL     OW30652   4.663   1.044   2.432 -0.0142  0.2560 -0.2899
 6398SOL    HW130653   4.636   1.014   2.346 -1.6741  2.0276 -0.3999
 6398SOL    HW230654   0.002   0.983   2.463  0.2668  1.7515  2.0609
 6399SOL     OW30655   1.780   4.405   7.686  0.1144 -0.1898 -0.0533
 6399SOL    HW130656   1.836   4.480   7.664 -0.3770  0.5168  1.0947
 6399SOL    HW230657   1.804   4.350   7.611 -1.5606  1.0877 -1.5092
 6400SOL     OW30658   0.033   0.072  11.237 -0.3709  0.1652 -0.0400
 6400SOL    HW130659   4.674   0.034  11.253  0.1240 -1.4643 -1.2081
 6400SOL    HW230660   0.084   0.056  11.317 -0.0018  1.3531 -0.0474
 6401SOL     OW30661   4.259   0.385   0.918 -0.1957  0.1136 -0.2520
 6401SOL    HW130662   4.200   0.311   0.933 -0.1326  0.2588  0.7503
 6401SOL    HW230663   4.266   0.427   1.004 -2.1237 -0.0457 -0.0205
 6402SOL     OW30664   0.157   2.357   2.225  0.5343 -0.2438  0.6024
 6402SOL    HW130665   0.125   2.391   2.141 -2.2967 -1.5177  1.1429
 6402SOL    HW230666   0.088   2.386   2.285  0.6778 -1.6666  1.4442
 6403SOL     OW30667   1.386   3.788  17.440  0.0079  0.1112 -0.3661
 6403SOL    HW130668   1.337   3.715  17.476  1.3417 -0.6248 -0.0499
 6403SOL    HW230669   1.354   3.852  17.503 -0.8132  3.2727 -3.9825
 6404SOL     OW30670   1.516   3.624   4.249  0.0679  0.0117  0.4724
 6404SOL    HW130671   1.466   3.680   4.191  2.3889  1.4790 -0.0879
 6404SOL    HW230672   1.478   3.652   4.332  2.1919 -0.6590  1.6976
 6405SOL     OW30673   1.447   2.743   6.925  0.2226 -0.3810 -0.2199
 6405SOL    HW130674   1.498   2.697   6.858  0.6596 -2.7086  1.7272
 6405SOL    HW230675   1.428   2.691   7.003 -0.1267 -0.7713 -0.5625
 6406SOL     OW30676   3.156   2.318   7.896  0.0889  0.3224  0.1800
 6406SOL    HW130677   3.142   2.230   7.931  1.9093 -0.7907 -1.9049
 6406SOL    HW230678   3.108   2.381   7.951 -0.0954  1.0622 -0.8236
 6407SOL     OW30679   3.505   0.802   2.944 -0.0490 -0.0219  0.2110
 6407SOL    HW130680   3.572   0.815   3.011 -0.5216  0.9497  0.5047
 6407SOL    HW230681   3.471   0.892   2.940  0.1056  0.1415  2.2051
 6408SOL     OW30682   0.839   0.022   3.529  0.1296 -0.1502 -0.3538
 6408SOL    HW130683   0.767   4.713   3.580  0.2711  0.1847  0.0842
 6408SOL    HW230684   0.883   4.669   3.502  1.2101  0.3766 -0.1911
 6409SOL     OW30685   1.545   1.799   7.912  0.0701 -0.1104  0.0044
 6409SOL    HW130686   1.600   1.752   7.975 -0.0606 -0.8170 -0.4117
 6409SOL    HW230687   1.481   1.832   7.975  0.6217  2.1243 -0.6051
 6410SOL     OW30688   0.726   0.923   5.347  0.1081 -0.0446 -0.4636
 6410SOL    HW130689   0.672   0.886   5.277 -0.8619  1.5966 -0.5729
 6410SOL    HW230690   0.781   0.984   5.298  0.2781  1.2264  1.3167
 6411SOL     OW30691   0.755   2.000   9.001 -0.5396  0.0360 -0.1142
 6411SOL    HW130692   0.786   1.920   8.957 -0.0884 -0.3731  0.9507
 6411SOL    HW230693   0.802   1.994   9.084 -0.1259 -1.2223 -0.4317
 6412SOL     OW30694   0.388   2.292   6.994 -0.8186  0.0334 -0.2638
 6412SOL    HW130695   0.301   2.314   6.959 -1.3250 -0.8266  0.4485
 6412SOL    HW230696   0.380   2.286   7.089  1.2340  0.7089 -0.0636
 6413SOL     OW30697   4.047   3.890   3.636 -0.4468  0.5686 -0.2816
 6413SOL    HW130698   3.986   3.962   3.619 -2.0467 -0.6675  0.2326
 6413SOL    HW230699   4.045   3.879   3.731 -2.5469 -1.8512 -0.6008
 6414SOL     OW30700   0.490   0.805   6.555  0.4718 -0.0329 -0.3902
 6414SOL    HW130701   0.560   0.823   6.618 -0.5457  1.4031  0.3408
 6414SOL    HW230702   0.458   0.895   6.546  0.6015  0.0762  0.2528
 6415SOL     OW30703   2.967   1.013   4.894  0.0733  0.2740 -0.2084
 6415SOL    HW130704   2.988   1.047   4.807  0.2026  1.0768  0.1346
 6415SOL    HW230705   2.877   1.044   4.900 -0.4452 -1.1257 -0.6565
 6416SOL     OW30706   2.370   1.648   6.930 -0.3786  0.6873 -0.3286
 6416SOL    HW130707   2.321   1.628   7.010 -3.5755 -0.0971 -2.4538
 6416SOL    HW230708   2.459   1.639   6.962 -0.2153  0.9291 -0.7065
 6417SOL     OW30709   3.577   4.159   2.232  0.0653 -0.1690  0.0887
 6417SOL    HW130710   3.501   4.174   2.288 -0.0033 -0.8175  0.1751
 6417SOL    HW230711   3.572   4.063   2.231 -0.7059 -0.1204 -0.9923
 6418SOL     OW30712   0.155   3.578   6.501 -0.7330  0.5541  0.7308
 6418SOL    HW130713   0.183   3.665   6.526 -2.3981  0.6052  2.3775
 6418SOL    HW230714   0.160   3.534   6.586  1.8903 -1.4751 -0.4605
 6419SOL     OW30715   2.457   0.834   9.255  0.2758 -0.4350 -0.7926
 6419SOL    HW130716   2.536   0.871   9.294 -0.4752  0.2903  0.0564
 6419SOL    HW230717   2.477   0.741   9.262 -2.2159 -0.9071  0.3948
 6420SOL     OW30718   2.078   1.019  10.771 -0.1458 -0.0449 -0.0878
 6420SOL    HW130719   1.992   1.061  10.770 -1.5228 -2.8443  0.2901
 6420SOL    HW230720   2.053   0.963  10.845  0.2642  2.6346  2.0948
 6421SOL     OW30721   1.341   4.218   3.766  0.4678  0.2919 -0.2867
 6421SOL    HW130722   1.393   4.298   3.764 -0.0818  0.6490 -0.2199
 6421SOL    HW230723   1.261   4.257   3.731  0.8117  0.9334 -0.3582
 6422SOL     OW30724   3.469   4.642  10.274  0.2639 -0.3757  0.4707
 6422SOL    HW130725   3.438   0.004  10.284 -1.5790 -0.8960 -0.4900
 6422SOL    HW230726   3.562   4.650  10.291  0.3816  2.4173 -1.4861
 6423SOL     OW30727   0.762   1.042   6.889 -0.2291  0.0659  0.4824
 6423SOL    HW130728   0.786   1.128   6.921  1.3068 -0.2362  0.1304
 6423SOL    HW230729   0.808   0.982   6.948  0.2376 -0.9552 -0.8986
 6424SOL     OW30730   3.337   1.790  17.389 -0.3325 -0.1072 -0.1064
 6424SOL    HW130731   3.313   1.812  17.299 -0.4246 -1.4868 -0.4114
 6424SOL    HW230732   3.300   1.703  17.399  1.2580 -0.7030  0.7152
 6425SOL     OW30733   0.199   2.261  10.132  0.2546  0.0282  0.2454
 6425SOL    HW130734   0.221   2.176  10.171 -1.4287 -0.3115  0.4494
 6425SOL    HW230735   0.128   2.292  10.188 -0.7636 -2.6505  0.4237
 6426SOL     OW30736   1.886   4.641  13.331 -0.2216 -0.0722  0.2803
 6426SOL    HW130737   1.909   0.000  13.365  2.1403 -1.4626  2.1744
 6426SOL    HW230738   1.928   4.646  13.245  1.5411 -1.6683  1.0537
 6427SOL     OW30739   3.467   0.508  16.365  0.2604 -0.3702  0.4914
 6427SOL    HW130740   3.542   0.480  16.312  1.1090  0.1601  1.4171
 6427SOL    HW230741   3.388   0.471  16.327  1.4741  0.6348 -3.0627
 6428SOL     OW30742   1.134   1.624  17.631  0.4184 -0.1494  0.5270
 6428SOL    HW130743   1.175   1.667  17.706  1.4582 -1.7761  0.8864
 6428SOL    HW230744   1.208   1.636  17.572 -0.7526 -0.5179 -1.0127
 6429SOL     OW30745   0.648   0.135  15.963 -0.7193 -0.3208 -0.2490
 6429SOL    HW130746   0.623   0.094  15.881  0.0702  0.8035 -1.0540
 6429SOL    HW230747   0.738   0.163  15.942 -1.1289 -0.7289 -2.4602
 6430SOL     OW30748   1.710   1.714   6.711  0.1404  0.4409 -0.0765
 6430SOL    HW130749   1.731   1.763   6.791  3.6353  1.1444 -1.3801
 6430SOL    HW230750   1.638   1.659   6.740  0.0530  0.6213  0.0445
 6431SOL     OW30751   0.473   3.798  10.888  0.0056  0.1525 -0.7990
 6431SOL    HW130752   0.489   3.891  10.902  0.6178  0.2375 -2.0931
 6431SOL    HW230753   0.539   3.774  10.824  0.5538  1.1817 -0.6145
 6432SOL     OW30754   2.712   1.559   3.498 -0.0151  0.9695  0.3281
 6432SOL    HW130755   2.659   1.503   3.442  0.4269  0.6262  0.2523
 6432SOL    HW230756   2.801   1.523   3.491 -0.6097  0.0104 -2.2672
 6433SOL     OW30757   4.272   0.796   5.055 -0.3292  0.4230  0.3030
 6433SOL    HW130758   4.265   0.881   5.013 -2.1483 -1.6714 -3.5872
 6433SOL    HW230759   4.178   0.777   5.061  0.0538 -1.3063  0.7036
 6434SOL     OW30760   0.490   1.189   8.273  0.2558  0.0430  0.4061
 6434SOL    HW130761   0.398   1.204   8.253  0.5936  0.4544 -0.8693
 6434SOL    HW230762   0.510   1.202   8.366  0.7591 -1.8179  0.5742
 6435SOL     OW30763   2.017   1.729   9.821  0.3097 -0.3698  0.3253
 6435SOL    HW130764   1.953   1.795   9.794  1.1597 -0.2347 -1.3995
 6435SOL    HW230765   2.024   1.730   9.916 -1.9388  1.4009  0.4655
 6436SOL     OW30766   0.939   1.667   8.285  0.4593 -0.6476  0.1579
 6436SOL    HW130767   0.999   1.714   8.227  0.3667 -0.0900  0.5086
 6436SOL    HW230768   0.951   1.574   8.265  1.3456  0.0817 -2.7119
 6437SOL     OW30769   3.654   3.592   8.645 -0.2585  0.6826  0.2588
 6437SOL    HW130770   3.696   3.569   8.729 -0.2575  1.3557  0.4413
 6437SOL    HW230771   3.714   3.548   8.585  0.3033 -0.1367  1.3983
 6438SOL     OW30772   2.603   3.319   8.322  0.1129 -0.2661  0.7698
 6438SOL    HW130773   2.542   3.352   8.256  0.1053 -1.4136  0.2109
 6438SOL    HW230774   2.646   3.401   8.346 -1.7591  0.9288 -0.0050
 6439SOL     OW30775   3.758   2.618   4.824  0.4477  0.5513  0.4737
 6439SOL    HW130776   3.784   2.579   4.907 -1.2742  1.8262  1.6073
 6439SOL    HW230777   3.831   2.680   4.816 -0.2083  1.3958  1.0189
 6440SOL     OW30778   3.590   0.696   1.438  0.4877 -0.1137  0.6115
 6440SOL    HW130779   3.599   0.695   1.534 -4.2429 -0.5928  1.0766
 6440SOL    HW230780   3.497   0.719   1.430 -0.2608 -4.2092 -2.2703
 6441SOL     OW30781   3.195   4.269   4.135  0.0912 -0.0119  0.3272
 6441SOL    HW130782   3.140   4.254   4.211 -0.8871 -2.3270 -0.8311
 6441SOL    HW230783   3.162   4.347   4.089 -1.8412 -0.2570  1.2993
 6442SOL     OW30784   2.591   0.770   1.338 -0.0680  0.4655  0.1584
 6442SOL    HW130785   2.566   0.751   1.247  0.0412  1.3032 -0.0479
 6442SOL    HW230786   2.594   0.865   1.327  4.9340  0.2171 -0.5420
 6443SOL     OW30787   0.593   1.142   7.453 -0.2785 -0.0101  0.1534
 6443SOL    HW130788   0.540   1.145   7.373 -1.8543 -0.6058  1.1928
 6443SOL    HW230789   0.675   1.182   7.422 -1.3712  0.3997 -2.2188
 6444SOL     OW30790   4.656   1.648   6.630  0.6545 -0.2571 -0.3113
 6444SOL    HW130791   4.724   1.591   6.663  2.1881  2.7815  1.7994
 6444SOL    HW230792   4.620   1.595   6.559  0.3806 -1.7852  0.9825
 6445SOL     OW30793   3.579   4.724   7.679 -0.2209  0.3793  0.7232
 6445SOL    HW130794   3.556   0.021   7.589  0.2754 -0.2418  0.4262
 6445SOL    HW230795   3.660   0.045   7.689 -1.0106  1.4179  2.0017
 6446SOL     OW30796   1.051   4.650   0.431 -0.2156 -0.1725 -0.3638
 6446SOL    HW130797   1.130   4.598   0.424 -0.4658 -0.9370  2.2812
 6446SOL    HW230798   1.009   4.617   0.352  0.7884 -1.8045 -0.2078
 6447SOL     OW30799   0.303   1.178   2.583  0.0541 -0.0277  0.5690
 6447SOL    HW130800   0.214   1.213   2.594 -0.7503 -3.1083  3.9315
 6447SOL    HW230801   0.290   1.086   2.607 -1.2191  0.3921  1.5026
 6448SOL     OW30802   3.969   1.135   4.588  0.1937  0.0258 -0.1623
 6448SOL    HW130803   3.947   1.217   4.632  0.9066 -1.5146  3.0701
 6448SOL    HW230804   3.902   1.083   4.632 -1.3583  0.4878 -1.9437
 6449SOL     OW30805   0.744   3.757   8.990 -0.1932 -0.4581  0.7127
 6449SOL    HW130806   0.650   3.771   8.999 -0.5269 -0.7129 -2.1692
 6449SOL    HW230807   0.763   3.849   8.973 -4.1003  0.0147 -1.0156
 6450SOL     OW30808   3.894   2.732   9.365 -0.1415  0.2458 -0.1464
 6450SOL    HW130809   3.940   2.684   9.297 -1.4059 -1.6949  0.3698
 6450SOL    HW230810   3.867   2.812   9.320 -1.3718  0.5760  1.1571
 6451SOL     OW30811   1.542   1.317   2.461 -0.0499 -0.3744 -0.4151
 6451SOL    HW130812   1.568   1.305   2.370  3.8565 -1.2167  0.8325
 6451SOL    HW230813   1.448   1.301   2.454  0.1381 -2.1212  0.9184
 6452SOL     OW30814   1.473   0.954  11.951 -0.6085 -0.2696  0.6515
 6452SOL    HW130815   1.382   0.942  11.978 -1.2931 -0.3303 -1.6922
 6452SOL    HW230816   1.465   0.955  11.856  0.0060 -0.3879  0.6010
 6453SOL     OW30817   3.491   3.489  12.580 -0.9396 -0.4386  0.0707
 6453SOL    HW130818   3.431   3.418  12.601 -0.5185 -0.4672  1.1328
 6453SOL    HW230819   3.568   3.439  12.550  0.5815  2.3391 -0.6697
 6454SOL     OW30820   1.416   2.454   8.357 -0.1665  0.2480  0.6408
 6454SOL    HW130821   1.405   2.361   8.338 -2.8690  0.6409  0.2891
 6454SOL    HW230822   1.475   2.484   8.287  0.3387  0.7960  1.2951
 6455SOL     OW30823   4.379   0.348   9.548 -0.3069 -0.4286  0.1779
 6455SOL    HW130824   4.442   0.408   9.507 -1.1062  0.5083  0.3061
 6455SOL    HW230825   4.318   0.413   9.584 -0.5960 -0.5815 -0.0392
 6456SOL     OW30826   0.871   2.984   3.174 -0.5941 -0.4613  0.3219
 6456SOL    HW130827   0.866   3.079   3.178  1.4823 -0.3374  0.2902
 6456SOL    HW230828   0.787   2.953   3.140  0.6979 -0.6991 -2.7014
 6457SOL     OW30829   4.125   4.610   3.098  0.1394  0.6756  0.5463
 6457SOL    HW130830   4.060   4.667   3.139  0.7459  3.0828 -1.8367
 6457SOL    HW230831   4.152   4.657   3.019  1.5125 -1.3197 -0.1713
 6458SOL     OW30832   4.128   0.568   3.191  0.8846  0.3804 -0.2185
 6458SOL    HW130833   4.204   0.624   3.171  1.5500 -1.3647 -2.6556
 6458SOL    HW230834   4.064   0.610   3.133 -0.6718 -1.8199 -0.0485
 6459SOL     OW30835   0.143   1.706   6.988 -0.3479 -0.5284  0.2874
 6459SOL    HW130836   0.228   1.701   7.031  0.2737  1.0557 -0.7608
 6459SOL    HW230837   0.124   1.613   7.000 -1.6878 -0.4573 -1.3484
 6460SOL     OW30838   2.251   3.201   4.644 -0.1647 -0.1061 -0.0656
 6460SOL    HW130839   2.194   3.236   4.712 -1.4587 -3.1935  0.4439
 6460SOL    HW230840   2.191   3.209   4.570 -0.5734 -0.3652  0.2366
 6461SOL     OW30841   0.679   3.497  16.290  0.5438 -0.4998  0.8135
 6461SOL    HW130842   0.719   3.578  16.322  0.9433 -0.3251 -0.1245
 6461SOL    HW230843   0.610   3.482  16.353 -0.8058  0.7416 -0.3784
 6462SOL     OW30844   1.419   1.816   5.046  0.3656 -0.3468 -0.0345
 6462SOL    HW130845   1.379   1.895   5.009 -2.4003  0.2225  4.1938
 6462SOL    HW230846   1.346   1.759   5.070 -0.5696  0.6948 -0.3738
 6463SOL     OW30847   2.436   2.360   6.903  0.1076  0.2231  0.1036
 6463SOL    HW130848   2.346   2.392   6.901 -0.6422 -1.8624 -0.1199
 6463SOL    HW230849   2.454   2.382   6.995 -1.7845  1.2491  0.2172
 6464SOL     OW30850   3.349   2.320  16.148  0.5333 -0.1891 -0.1803
 6464SOL    HW130851   3.382   2.297  16.235 -2.9996  1.4640  1.6008
 6464SOL    HW230852   3.290   2.388  16.183  1.8960  0.7583  0.3204
 6465SOL     OW30853   0.641   3.734   4.432 -0.1106 -0.5856  0.0481
 6465SOL    HW130854   0.586   3.781   4.370  0.0617  0.2989  0.5730
 6465SOL    HW230855   0.716   3.793   4.436  0.1402 -0.8272 -1.1462
 6466SOL     OW30856   1.839   2.846   8.007  0.5207  0.3417  0.1639
 6466SOL    HW130857   1.747   2.861   7.982  0.3570 -3.6823 -1.6467
 6466SOL    HW230858   1.878   2.861   7.921  0.8920  0.7267  0.3999
 6467SOL     OW30859   0.023   2.819   5.986  0.0297  0.7327 -0.2283
 6467SOL    HW130860   0.031   2.786   5.896  1.3157 -0.6513  0.3955
 6467SOL    HW230861   4.698   2.751   6.030  2.3044 -1.5882 -1.0699
 6468SOL     OW30862   0.002   0.159   2.497  0.0510 -0.0074 -0.2692
 6468SOL    HW130863   4.657   0.206   2.541 -0.8769 -2.7521  1.1158
 6468SOL    HW230864   0.068   0.187   2.560 -0.2067  2.3917 -1.0593
 6469SOL     OW30865   3.554   2.464   2.034  0.1866 -0.0508 -0.6665
 6469SOL    HW130866   3.473   2.513   2.047 -0.8142 -1.5089 -1.3137
 6469SOL    HW230867   3.518   2.389   1.986  2.1206 -1.6224  0.3463
 6470SOL     OW30868   4.238   3.604   3.588 -0.0382  0.7138  0.0561
 6470SOL    HW130869   4.164   3.631   3.533 -0.6676 -1.0109  0.0265
 6470SOL    HW230870   4.319   3.609   3.539 -1.7489  0.6024 -2.7867
 6471SOL     OW30871   0.002   4.398   2.275  0.2342  0.5494  0.5124
 6471SOL    HW130872   4.662   4.463   2.296 -0.1777 -0.6774  3.0533
 6471SOL    HW230873   0.075   4.448   2.241 -0.7402  1.0077 -0.8819
 6472SOL     OW30874   1.288   2.305   3.774 -0.0027  0.1594 -0.2568
 6472SOL    HW130875   1.330   2.374   3.722  0.9157  1.0425  1.6282
 6472SOL    HW230876   1.328   2.323   3.860 -0.2048  2.8737 -0.7264
 6473SOL     OW30877   3.319   4.000   2.063 -0.5872 -0.4641  0.0288
 6473SOL    HW130878   3.224   4.014   2.061 -0.3770  0.7460 -1.0623
 6473SOL    HW230879   3.314   3.906   2.044 -1.0991 -0.4423  0.0608
 6474SOL     OW30880   3.518   0.766  17.199  0.3085  0.3992  0.3040
 6474SOL    HW130881   3.495   0.834  17.136  1.7188  0.0312 -0.6309
 6474SOL    HW230882   3.440   0.774  17.254  0.4439 -0.5346  0.6547
 6475SOL     OW30883   3.331   2.992  11.371 -0.0360  0.2470  0.1748
 6475SOL    HW130884   3.277   2.977  11.294 -0.7552  0.1560  0.7029
 6475SOL    HW230885   3.391   3.054  11.328  1.1599  0.6047  2.3380
 6476SOL     OW30886   4.249   0.296   9.057  0.1745  0.0981 -0.1887
 6476SOL    HW130887   4.316   0.264   9.117  0.0226  0.1077 -0.0155
 6476SOL    HW230888   4.167   0.263   9.095 -1.6276  1.9019 -2.5149
 6477SOL     OW30889   1.887   1.433  12.235  0.3006 -1.2764 -0.2395
 6477SOL    HW130890   1.938   1.365  12.192  0.8420  0.6359 -2.5986
 6477SOL    HW230891   1.935   1.429  12.318  0.3552 -1.6849 -0.2899
 6478SOL     OW30892   1.906   2.468   8.495 -0.1596 -0.3127 -0.2782
 6478SOL    HW130893   1.973   2.421   8.445  0.1689 -0.8236  0.6245
 6478SOL    HW230894   1.872   2.403   8.557 -1.2219 -0.4667 -1.0365
 6479SOL     OW30895   2.664   0.271   6.355 -0.0210 -0.3448  0.5085
 6479SOL    HW130896   2.616   0.321   6.288 -1.3386 -0.0569  1.6772
 6479SOL    HW230897   2.743   0.229   6.321 -1.2351 -1.0907 -1.4121
 6480SOL     OW30898   4.573   3.054  10.247  0.4646  0.2319 -0.7952
 6480SOL    HW130899   4.616   2.972  10.270  0.0222 -0.3961 -2.2034
 6480SOL    HW230900   4.617   3.093  10.171  1.3830 -0.4031 -0.5876
 6481SOL     OW30901   0.237   3.730   4.084 -0.3420 -0.3110  0.0623
 6481SOL    HW130902   0.186   3.684   4.151  1.6125 -0.6491  1.2985
 6481SOL    HW230903   0.173   3.794   4.051  0.5859  0.4530 -0.2560
 6482SOL     OW30904   2.755   1.961   7.618 -0.1764 -0.6252  0.4294
 6482SOL    HW130905   2.832   1.905   7.607 -1.2479 -2.3438  1.8515
 6482SOL    HW230906   2.784   2.046   7.651  0.4219 -1.6065  2.4085
 6483SOL     OW30907   0.196   1.479   2.716  0.3611  0.2778 -0.2977
 6483SOL    HW130908   0.275   1.506   2.670  0.5649  0.3715  0.1083
 6483SOL    HW230909   0.156   1.421   2.651 -0.6078  1.1919 -0.5135
 6484SOL     OW30910   0.432   3.948   3.813  0.1589 -0.6169 -0.2381
 6484SOL    HW130911   0.427   3.883   3.743  1.6585 -0.5050 -0.4402
 6484SOL    HW230912   0.456   4.028   3.766  1.6255 -0.1882  1.2109
 6485SOL     OW30913   0.161   0.734   6.942  0.1467 -0.2611  0.3270
 6485SOL    HW130914   0.155   0.671   7.014  1.5164 -0.0611  0.6210
 6485SOL    HW230915   0.250   0.726   6.908  0.2783 -3.5875  1.4817
 6486SOL     OW30916   3.750   0.897  12.392  0.2081  0.4455 -0.0137
 6486SOL    HW130917   3.762   0.954  12.317  0.4839 -0.2098 -0.4649
 6486SOL    HW230918   3.728   0.808  12.365  2.1707  0.0824 -0.4236
 6487SOL     OW30919   2.053   3.097   6.930  0.2210 -0.3690 -0.0783
 6487SOL    HW130920   2.106   3.099   7.010  0.8528  2.6743 -0.6008
 6487SOL    HW230921   1.993   3.027   6.956 -0.6406  1.5155  3.0016
 6488SOL     OW30922   1.611   0.056   5.894  0.1784 -0.5052 -0.2357
 6488SOL    HW130923   1.539   4.725   5.873 -0.0544 -0.2529 -0.1344
 6488SOL    HW230924   1.681   4.719   5.882  2.6176  1.9630  0.4771
 6489SOL     OW30925   1.099   1.591   8.716  0.0949 -0.0734 -0.0665
 6489SOL    HW130926   1.109   1.525   8.648 -0.6076  0.2145 -0.4505
 6489SOL    HW230927   1.117   1.539   8.795  3.4397 -0.9539 -1.4170
 6490SOL     OW30928   2.695   1.249   2.260  0.4552  0.3619  0.2911
 6490SOL    HW130929   2.779   1.205   2.249 -0.0678 -0.3043 -1.0571
 6490SOL    HW230930   2.679   1.264   2.167 -0.7943  1.9823  0.7516
 6491SOL     OW30931   2.786   0.134   1.782 -0.1740  0.2518 -0.2241
 6491SOL    HW130932   2.755   0.125   1.692 -1.4491  1.7541  0.0852
 6491SOL    HW230933   2.881   0.140   1.772  0.0555 -1.9466  0.4865
 6492SOL     OW30934   3.310   2.245   6.114  0.3463 -0.4319  0.1677
 6492SOL    HW130935   3.330   2.275   6.026 -0.5370  1.5417  0.6438
 6492SOL    HW230936   3.217   2.224   6.115  0.3908 -0.6715 -2.2740
 6493SOL     OW30937   1.326   3.765   2.729  0.9368  0.3991  0.7559
 6493SOL    HW130938   1.326   3.810   2.814 -0.8265  2.2658 -0.2532
 6493SOL    HW230939   1.378   3.689   2.754  0.4704  0.0775  0.7403
 6494SOL     OW30940   3.356   3.224   7.537  0.2878 -0.1779  0.4184
 6494SOL    HW130941   3.331   3.131   7.534 -0.8415  0.0948  1.3179
 6494SOL    HW230942   3.273   3.270   7.551  1.0307  0.2785  3.1960
 6495SOL     OW30943   4.498   0.286  16.780  0.1298 -0.4132  0.1616
 6495SOL    HW130944   4.406   0.259  16.776  0.8419 -2.4717 -2.0661
 6495SOL    HW230945   4.536   0.199  16.777  0.4009 -0.2753 -0.5122
 6496SOL     OW30946   2.745   4.348   7.049 -0.6740 -0.0040 -0.3516
 6496SOL    HW130947   2.663   4.333   7.003 -0.7754  0.9425 -0.4782
 6496SOL    HW230948   2.808   4.284   7.016 -2.2000 -1.7945  0.2101
 6497SOL     OW30949   1.317   1.704   1.489  0.3034 -0.1100  0.4291
 6497SOL    HW130950   1.240   1.648   1.503  0.5585 -0.6124 -0.1949
 6497SOL    HW230951   1.356   1.689   1.575  1.1037 -0.3434  0.0254
 6498SOL     OW30952   4.606   0.953  10.502 -0.1630 -0.2043 -0.6670
 6498SOL    HW130953   4.672   0.884  10.488 -1.0517 -1.2286  0.1760
 6498SOL    HW230954   4.529   0.911  10.540  0.0710  0.1322  0.1722
 6499SOL     OW30955   2.395   0.053  15.381 -0.3246 -0.4940  0.0921
 6499SOL    HW130956   2.382   0.086  15.470 -1.9322 -1.9370  0.3997
 6499SOL    HW230957   2.362   0.120  15.321  1.8059 -0.1963 -0.7600
 6500SOL     OW30958   0.743   4.116  12.403 -0.3909 -0.6862 -0.1496
 6500SOL    HW130959   0.758   4.211  12.402  0.3148 -0.7637  2.0371
 6500SOL    HW230960   0.823   4.086  12.361 -0.6636 -0.3314 -0.9193
 6501SOL     OW30961   0.108   2.486   8.396 -0.3906  0.6461 -0.1744
 6501SOL    HW130962   0.071   2.562   8.440 -0.7849  0.8924 -0.9120
 6501SOL    HW230963   0.035   2.446   8.348 -0.0743 -1.4325  1.0970
 6502SOL     OW30964   1.071   1.436   7.560 -0.5936  0.0405  0.4320
 6502SOL    HW130965   1.037   1.365   7.614 -0.5935  1.1406  1.8895
 6502SOL    HW230966   1.092   1.506   7.623 -0.2962 -0.6152  1.0607
 6503SOL     OW30967   0.609   0.339   6.297 -0.6184 -0.1005 -0.1797
 6503SOL    HW130968   0.530   0.285   6.294  0.5051 -1.7934  0.6830
 6503SOL    HW230969   0.609   0.368   6.388 -2.4643 -0.4315 -0.0764
 6504SOL     OW30970   4.231   2.656   8.748 -0.0894 -0.9416  0.2986
 6504SOL    HW130971   4.208   2.747   8.770  1.7263  0.4291 -3.5297
 6504SOL    HW230972   4.321   2.651   8.779 -0.2735 -0.2443  0.9794
 6505SOL     OW30973   3.343   1.277   4.152  0.1851 -0.1793  0.4175
 6505SOL    HW130974   3.375   1.364   4.130 -0.0124 -0.2997 -0.3590
 6505SOL    HW230975   3.273   1.298   4.214  1.4482  3.3459  0.6605
 6506SOL     OW30976   0.470   2.032   8.875 -0.0420 -0.3079  0.4799
 6506SOL    HW130977   0.481   2.067   8.963  0.0681 -1.2612  0.8523
 6506SOL    HW230978   0.537   1.964   8.867 -1.8663 -1.8376 -1.9362
 6507SOL     OW30979   0.831   2.762   9.941  0.2168  0.0584  0.6706
 6507SOL    HW130980   0.857   2.715  10.021  0.7831  0.3817  0.6799
 6507SOL    HW230981   0.752   2.717   9.915 -0.5017  1.0812  1.0774
 6508SOL     OW30982   1.795   4.698   1.739  0.5623 -0.2711 -0.3694
 6508SOL    HW130983   1.739   4.681   1.663 -0.3794 -1.2108  0.5205
 6508SOL    HW230984   1.760   4.629   1.795 -1.5369  1.5689  0.5926
 6509SOL     OW30985   2.050   2.243   4.549 -0.0716  0.0662  0.2920
 6509SOL    HW130986   2.002   2.270   4.627  1.2027 -0.3693  1.2101
 6509SOL    HW230987   2.016   2.154   4.545 -0.1693  0.2561 -3.0648
 6510SOL     OW30988   0.252   2.308   1.790 -0.1782  0.3195 -0.0589
 6510SOL    HW130989   0.334   2.269   1.822  0.4325  0.5905 -1.2524
 6510SOL    HW230990   0.285   2.350   1.710 -0.6508 -0.7509 -0.8144
 6511SOL     OW30991   2.007   3.246   7.503  0.0753 -0.2601  1.2044
 6511SOL    HW130992   2.051   3.238   7.418 -0.1170  0.9681  0.9999
 6511SOL    HW230993   2.051   3.323   7.538  1.0207  1.0121 -2.7535
 6512SOL     OW30994   0.761   3.916   2.527 -0.5401 -0.2106  0.4898
 6512SOL    HW130995   0.718   3.908   2.612 -0.0944  0.9165  0.8133
 6512SOL    HW230996   0.690   3.921   2.463  1.2461 -1.3479 -1.5780
 6513SOL     OW30997   0.477   0.072   1.597  0.0658  0.3205 -0.1942
 6513SOL    HW130998   0.414   0.140   1.621  0.2501  0.9686 -1.5770
 6513SOL    HW230999   0.463   0.055   1.504  0.7822 -1.6086  0.0625
 6514SOL     OW31000   3.514   1.541   6.962 -0.3479  0.2784 -0.6698
 6514SOL    HW131001   3.457   1.512   6.891  0.2792  1.8324 -1.8280
 6514SOL    HW231002   3.445   1.570   7.021 -0.5758 -0.9712 -0.3269
 6515SOL     OW31003   4.043   4.331  10.057  0.4100  0.4728  0.1635
 6515SOL    HW131004   4.089   4.389  10.118  0.6454  0.8565 -0.3807
 6515SOL    HW231005   4.060   4.249  10.103 -0.4623  0.2390  0.0659
 6516SOL     OW31006   2.792   0.788  17.658  0.4187  0.3774  0.3921
 6516SOL    HW131007   2.874   0.739  17.649  0.0125  0.1182 -1.8495
 6516SOL    HW231008   2.749   0.771  17.574 -1.3830 -0.9929  1.5755
 6517SOL     OW31009   0.636   3.937   7.226 -0.1545 -0.1771 -0.4281
 6517SOL    HW131010   0.685   3.872   7.276  0.8418  1.5082  0.7982
 6517SOL    HW231011   0.568   3.887   7.182 -1.1659  1.8423 -1.1712
 6518SOL     OW31012   2.145   0.708   0.641  0.0740 -0.6991  0.3647
 6518SOL    HW131013   2.183   0.620   0.645  1.1911 -0.2094  0.4486
 6518SOL    HW231014   2.193   0.752   0.710  0.0246  1.3323 -0.8979
 6519SOL     OW31015   1.140   3.547   3.913  0.3417  0.3263  0.4702
 6519SOL    HW131016   1.121   3.634   3.948 -0.5227 -0.6429  2.4135
 6519SOL    HW231017   1.090   3.493   3.975  0.3843 -3.3195 -2.6776
 6520SOL     OW31018   1.748   0.080   0.402  0.4510 -0.3300  0.1882
 6520SOL    HW131019   1.842   0.096   0.390  0.7544 -2.1988  0.0973
 6520SOL    HW231020   1.714   0.146   0.463  0.2598 -1.1412  0.9616
 6521SOL     OW31021   4.031   0.400  12.783  0.1233  0.6424  0.1843
 6521SOL    HW131022   3.939   0.375  12.771  0.2815  0.5286 -0.7967
 6521SOL    HW231023   4.037   0.469  12.717 -1.3137  2.6333  2.1424
 6522SOL     OW31024   4.399   2.764   6.039 -0.1010  0.1337  0.0536
 6522SOL    HW131025   4.327   2.712   6.075  0.9132 -0.8271  0.7008
 6522SOL    HW231026   4.473   2.704   6.035  0.2204  0.6251 -1.2456
 6523SOL     OW31027   0.441   4.727   2.358  0.3671 -0.2933 -0.0957
 6523SOL    HW131028   0.411   0.073   2.304 -1.3078 -0.0574  1.1566
 6523SOL    HW231029   0.459   0.045   2.440  0.0037  0.2847 -0.3375
 6524SOL     OW31030   2.169   4.070   9.557 -0.0832 -0.0271  0.0489
 6524SOL    HW131031   2.112   4.000   9.590 -0.9229  1.9380  2.7135
 6524SOL    HW231032   2.230   4.021   9.502  1.0788  1.3809  0.0995
 6525SOL     OW31033   3.548   1.483   2.724 -0.6446 -0.0442 -0.4641
 6525SOL    HW131034   3.592   1.521   2.648 -1.4752  1.3480 -0.2581
 6525SOL    HW231035   3.589   1.526   2.800 -1.0670 -2.4934  1.1465
 6526SOL     OW31036   4.299   0.260   5.320 -0.3461 -0.4470  0.1794
 6526SOL    HW131037   4.334   0.241   5.233 -0.6018 -0.1961  0.0233
 6526SOL    HW231038   4.379   0.272   5.372  0.1979  1.2675 -1.0542
 6527SOL     OW31039   4.152   3.248   7.049  0.2454  0.1336 -0.2286
 6527SOL    HW131040   4.087   3.223   6.984  0.4954  1.7488 -1.0870
 6527SOL    HW231041   4.110   3.201   7.121 -2.0812  0.1095 -1.6280
 6528SOL     OW31042   3.103   2.796   5.408  0.6247  0.4209  0.0123
 6528SOL    HW131043   3.033   2.809   5.344 -0.3495 -0.5384  0.8808
 6528SOL    HW231044   3.059   2.840   5.481 -1.0417  1.2325 -1.4757
 6529SOL     OW31045   2.540   2.898   4.570 -0.5014  0.4093 -0.0969
 6529SOL    HW131046   2.554   2.957   4.644  0.0160  0.0089  0.1176
 6529SOL    HW231047   2.552   2.817   4.620 -0.3136  0.3219 -0.2882
 6530SOL     OW31048   0.873   0.037  12.484  0.4123 -0.5604 -1.0073
 6530SOL    HW131049   0.877   4.715  12.402  2.1142 -2.3318  0.1362
 6530SOL    HW231050   0.778   0.045  12.486  0.4564 -0.5976  0.6961
 6531SOL     OW31051   0.228   2.995  17.407 -0.3658 -0.2790  0.5903
 6531SOL    HW131052   0.283   3.055  17.357 -2.2365  1.1236  0.1867
 6531SOL    HW231053   0.139   3.032  17.406 -0.7515 -1.2532 -1.2444
 6532SOL     OW31054   0.050   2.809   3.514  0.2466  0.2757  0.2269
 6532SOL    HW131055   0.023   2.897   3.542  1.4398  1.4170 -2.2923
 6532SOL    HW231056   0.043   2.829   3.421 -0.5029 -1.1700 -0.0304
 6533SOL     OW31057   0.701   4.644   8.680  0.4115 -0.2245 -0.0771
 6533SOL    HW131058   0.695   4.722   8.625  1.6712 -0.2036 -0.1966
 6533SOL    HW231059   0.656   4.582   8.622 -0.8728  0.6561 -0.0028
 6534SOL     OW31060   3.116   1.691   4.306  0.0058 -0.4021  0.0462
 6534SOL    HW131061   3.082   1.647   4.384  0.2795 -1.0028 -0.1705
 6534SOL    HW231062   3.135   1.620   4.245  1.6772  0.4371 -0.4006
 6535SOL     OW31063   2.840   2.046   4.823  0.4927  0.3262  0.3349
 6535SOL    HW131064   2.791   2.123   4.854 -1.0801 -0.6882  0.3672
 6535SOL    HW231065   2.905   2.033   4.891  2.8072  0.7849 -1.8097
 6536SOL     OW31066   4.080   3.251   7.699 -0.2457  0.1853  0.2003
 6536SOL    HW131067   4.001   3.257   7.753 -1.2037  0.3365 -1.2174
 6536SOL    HW231068   4.048   3.178   7.646  1.4377 -1.4316  1.4059
 6537SOL     OW31069   1.553   2.339   2.810 -0.3377 -0.5242  0.4254
 6537SOL    HW131070   1.608   2.314   2.736  0.7896 -3.6022  2.3323
 6537SOL    HW231071   1.499   2.261   2.819 -1.1752  0.0443  0.4215
 6538SOL     OW31072   0.414   2.340   8.264  0.2428 -0.1595  0.3471
 6538SOL    HW131073   0.471   2.351   8.340 -0.1102  2.0219  0.2882
 6538SOL    HW231074   0.339   2.284   8.285  1.6493 -1.8974  0.7500
 6539SOL     OW31075   3.591   0.754   0.253  0.6707 -0.2683  0.3628
 6539SOL    HW131076   3.600   0.798   0.169 -0.4221 -0.6681  0.0431
 6539SOL    HW231077   3.507   0.789   0.281  0.1646 -1.7002  0.6353
 6540SOL     OW31078   1.304   2.796   2.653  0.3621  0.0899 -0.0577
 6540SOL    HW131079   1.303   2.871   2.712  0.6911  1.9493 -2.4027
 6540SOL    HW231080   1.396   2.787   2.630  0.1191  0.7495 -1.3262
 6541SOL     OW31081   2.596   0.029   1.953  0.2028 -0.5144  0.4818
 6541SOL    HW131082   2.653   0.058   1.883  0.1149  0.2668  0.7351
 6541SOL    HW231083   2.522   0.088   1.940 -0.5387 -1.2803  1.1704
 6542SOL     OW31084   2.617   0.111   8.109  0.3441 -0.1471 -0.2898
 6542SOL    HW131085   2.695   0.147   8.151 -0.6210 -0.0873  1.4344
 6542SOL    HW231086   2.625   0.019   8.135  0.5232 -0.8794 -2.8964
 6543SOL     OW31087   0.898   3.229  13.478  0.2379 -0.2170  0.0483
 6543SOL    HW131088   0.989   3.223  13.507  0.6692 -0.5499 -1.3371
 6543SOL    HW231089   0.883   3.146  13.432 -2.4691 -0.8202  2.0851
 6544SOL     OW31090   0.728   1.583   0.645  0.3634  0.1251  0.0756
 6544SOL    HW131091   0.723   1.610   0.736  1.5130 -2.1225  0.8015
 6544SOL    HW231092   0.713   1.673   0.615 -1.7401  0.1565  1.2735
 6545SOL     OW31093   3.559   3.317  15.430 -0.1878 -0.1662  0.2464
 6545SOL    HW131094   3.568   3.282  15.342 -0.1991 -0.0286  0.1894
 6545SOL    HW231095   3.490   3.383  15.421  0.3018  0.0915 -1.6438
 6546SOL     OW31096   1.535   4.726  14.599  0.2290 -0.4542 -0.0874
 6546SOL    HW131097   1.539   0.010  14.694  0.0059 -0.2912 -0.0968
 6546SOL    HW231098   1.601   0.055  14.559  0.2294 -0.3748  0.0252
 6547SOL     OW31099   0.755   2.048   1.311 -0.9948  0.1924  0.1183
 6547SOL    HW131100   0.722   2.057   1.222 -0.2117  1.6629 -0.0238
 6547SOL    HW231101   0.762   1.952   1.309 -0.3216  0.2534 -0.2363
 6548SOL     OW31102   1.571   3.088   5.338  0.1534  0.4530 -0.0827
 6548SOL    HW131103   1.569   3.116   5.246 -0.8087  1.6873  0.3101
 6548SOL    HW231104   1.499   3.026   5.349  1.3226 -1.1413 -1.4981
 6549SOL     OW31105   0.450   1.717   3.998  0.1923 -0.0315  0.7511
 6549SOL    HW131106   0.421   1.628   3.976  1.0827  0.1579 -1.1296
 6549SOL    HW231107   0.402   1.770   3.935  0.3931 -0.6412  0.0860
 6550SOL     OW31108   0.675   0.597  11.667 -0.0724 -0.4254  0.1680
 6550SOL    HW131109   0.712   0.518  11.707  1.8823  0.5337  0.2494
 6550SOL    HW231110   0.714   0.660  11.728  2.1813 -0.2206 -1.4921
 6551SOL     OW31111   0.491   0.964   6.977  0.3521 -0.3805  0.2772
 6551SOL    HW131112   0.578   0.989   6.945  0.8064 -0.7658  1.2123
 6551SOL    HW231113   0.504   0.878   7.017  0.1950 -1.6090 -2.3437
 6552SOL     OW31114   0.615   2.509   2.248 -0.0184 -0.5860  0.2913
 6552SOL    HW131115   0.689   2.480   2.301  1.7870 -2.0216 -3.0911
 6552SOL    HW231116   0.608   2.439   2.184 -0.0955 -0.0642 -0.2760
 6553SOL     OW31117   4.551   1.258   7.185  0.6140 -0.3137 -0.1651
 6553SOL    HW131118   4.477   1.299   7.231 -1.6191 -1.7227 -2.4922
 6553SOL    HW231119   4.523   1.261   7.093  2.3926 -2.3747 -0.7722
 6554SOL     OW31120   4.150   2.220  14.518  0.4092 -0.3384  0.4530
 6554SOL    HW131121   4.086   2.199  14.586  1.5507  0.5494  1.7965
 6554SOL    HW231122   4.107   2.296  14.479 -0.7939 -1.2549 -0.0104
 6555SOL     OW31123   0.701   2.103   1.055 -0.0221 -0.2256  0.0636
 6555SOL    HW131124   0.792   2.092   1.028 -0.1894 -1.0338 -0.1730
 6555SOL    HW231125   0.657   2.100   0.970  1.5584 -3.1052 -0.6224
 6556SOL     OW31126   1.250   1.319   6.448  0.0807 -0.0238  0.5739
 6556SOL    HW131127   1.338   1.356   6.449  0.1753 -0.1767 -1.3345
 6556SOL    HW231128   1.204   1.396   6.479  1.0840 -1.0644  4.6774
 6557SOL     OW31129   2.955   1.270  17.478  0.6886  0.2869  0.7096
 6557SOL    HW131130   2.966   1.321  17.558 -1.0957 -0.2146  1.2693
 6557SOL    HW231131   2.904   1.199  17.516 -0.7069  0.3861 -0.9865
 6558SOL     OW31132   1.661   2.870   8.397 -0.3186 -0.7080  0.2106
 6558SOL    HW131133   1.753   2.844   8.390 -0.1974 -0.7835  2.0046
 6558SOL    HW231134   1.627   2.850   8.310 -1.0750  1.3610  0.0209
 6559SOL     OW31135   3.058   2.891   4.966 -0.2887  0.1579 -0.0095
 6559SOL    HW131136   3.024   2.817   4.916 -1.0824  1.2855 -1.1645
 6559SOL    HW231137   3.031   2.873   5.056 -0.6198  0.4965 -0.0434
 6560SOL     OW31138   4.052   4.376  17.391 -0.0858  0.4372 -0.6419
 6560SOL    HW131139   4.051   4.362  17.485  0.5655  0.1001 -0.6808
 6560SOL    HW231140   4.033   4.288  17.357 -2.8563  0.5990  0.5225
 6561SOL     OW31141   2.407   2.461  13.403  0.1476  0.2848  0.0679
 6561SOL    HW131142   2.370   2.523  13.340  1.4767  3.1196  2.0994
 6561SOL    HW231143   2.469   2.519  13.448  3.1500 -0.9891 -2.4310
 6562SOL     OW31144   2.143   0.812  14.274 -0.4016  0.1896 -0.0763
 6562SOL    HW131145   2.226   0.787  14.313 -1.0644 -1.0779  0.4881
 6562SOL    HW231146   2.144   0.787  14.182  1.0136 -0.8055  0.2091
 6563SOL     OW31147   3.095   4.373   8.119  0.6811  0.2370 -0.1160
 6563SOL    HW131148   3.149   4.437   8.164 -1.3217  2.3128 -0.6904
 6563SOL    HW231149   3.163   4.305   8.123 -0.9353 -1.4139 -0.5609
 6564SOL     OW31150   2.179   4.496   2.393  0.0225  0.4737  0.0247
 6564SOL    HW131151   2.207   4.438   2.322  0.3564  2.0884 -1.1450
 6564SOL    HW231152   2.179   4.432   2.465  0.4848  0.2198 -0.2007
 6565SOL     OW31153   3.731   2.029  14.668 -0.4078  0.0318 -0.6833
 6565SOL    HW131154   3.726   1.944  14.624 -2.0823  0.0948 -0.6385
 6565SOL    HW231155   3.710   2.091  14.599 -0.6088  0.9925  0.2333
 6566SOL     OW31156   0.310   1.719   8.755 -0.3637  0.1943 -0.3786
 6566SOL    HW131157   0.374   1.690   8.821 -1.4859  0.2552  0.7422
 6566SOL    HW231158   0.262   1.636   8.753 -1.3290  0.7526 -0.6775
 6567SOL     OW31159   1.481   3.910   7.234 -0.1926  0.1134 -0.1312
 6567SOL    HW131160   1.390   3.937   7.222 -0.8530 -1.9950  0.1195
 6567SOL    HW231161   1.494   3.842   7.168  1.2950 -0.3008  0.5957
 6568SOL     OW31162   1.639   2.562   3.338  0.5823 -0.2449 -0.5483
 6568SOL    HW131163   1.623   2.602   3.423 -3.4461 -0.1064 -1.3595
 6568SOL    HW231164   1.718   2.513   3.363 -0.0205 -0.4447  0.9764
 6569SOL     OW31165   0.602   3.936   4.245  0.3117 -0.1304 -0.1784
 6569SOL    HW131166   0.587   4.001   4.176 -0.1477  0.6749  0.6864
 6569SOL    HW231167   0.669   3.978   4.299 -2.0663  1.0592  1.8279
 6570SOL     OW31168   2.076   1.415   0.487  0.3919 -0.6653 -0.0977
 6570SOL    HW131169   2.130   1.461   0.551  2.6914 -3.1091 -0.2740
 6570SOL    HW231170   1.989   1.434   0.521 -0.3522 -1.3296 -1.6187
 6571SOL     OW31171   2.453   1.794   8.017  0.2924 -0.0407  0.1087
 6571SOL    HW131172   2.428   1.701   8.017 -2.2555  0.6311  0.9982
 6571SOL    HW231173   2.492   1.794   7.929 -0.1967  1.4408 -0.1080
 6572SOL     OW31174   1.953   2.525  13.313  0.8245 -0.0996 -0.1869
 6572SOL    HW131175   1.968   2.607  13.264  1.6113  0.3538  0.8236
 6572SOL    HW231176   1.862   2.506  13.288  0.8210 -1.4799  0.9016
 6573SOL     OW31177   0.473   1.025   8.549 -0.6593  0.4001  0.0345
 6573SOL    HW131178   0.387   0.987   8.565 -0.8209  0.3321 -1.0392
 6573SOL    HW231179   0.482   1.078   8.629 -1.0852  2.4343 -1.2753
 6574SOL     OW31180   2.328   1.553   4.321  0.1444  0.0573  0.0226
 6574SOL    HW131181   2.263   1.620   4.341  1.0505  0.3371  2.0521
 6574SOL    HW231182   2.325   1.491   4.394  1.5578 -1.3840 -1.1289
 6575SOL     OW31183   4.543   2.824   3.045 -0.7232 -0.3888  0.1917
 6575SOL    HW131184   4.502   2.758   2.988 -2.8590  0.4407  0.7456
 6575SOL    HW231185   4.570   2.891   2.982 -0.5471  0.4425  1.1661
 6576SOL     OW31186   3.634   0.556   8.604  0.6518  0.5921 -0.3236
 6576SOL    HW131187   3.650   0.643   8.567  1.1457 -0.3513 -2.3472
 6576SOL    HW231188   3.644   0.571   8.698  0.1467 -0.8423 -0.0412
 6577SOL     OW31189   1.648   3.742  15.655 -0.2771  0.2687  0.2248
 6577SOL    HW131190   1.601   3.826  15.653  0.5041  0.6775 -1.2664
 6577SOL    HW231191   1.722   3.761  15.713  0.5751 -0.3120 -0.6894
 6578SOL     OW31192   2.765   2.299   4.879  0.4421  0.2432  1.2045
 6578SOL    HW131193   2.700   2.330   4.816  0.6046  0.8974  1.3640
 6578SOL    HW231194   2.784   2.383   4.919 -0.8902  0.0173  2.3396
 6579SOL     OW31195   1.753   2.460   5.830 -0.1456  0.4523 -0.4300
 6579SOL    HW131196   1.712   2.375   5.815 -2.6763  1.9511 -2.0427
 6579SOL    HW231197   1.678   2.505   5.870 -3.1661 -3.2404 -2.0045
 6580SOL     OW31198   0.335   3.642   3.063 -1.0307  0.3264 -0.4426
 6580SOL    HW131199   0.306   3.719   3.112  1.1982  0.9742 -0.1291
 6580SOL    HW231200   0.294   3.571   3.112 -1.0635 -1.5891 -3.2418
 6581SOL     OW31201   2.986   4.120  11.246  0.0918  0.0032  0.2979
 6581SOL    HW131202   3.073   4.154  11.226 -0.1197  0.6962  0.5425
 6581SOL    HW231203   2.927   4.183  11.204 -0.5792 -0.3936  0.6325
 6582SOL     OW31204   2.631   1.637   7.002  0.2556  0.3314 -0.3854
 6582SOL    HW131205   2.607   1.709   7.060  0.2177 -1.1333  1.4465
 6582SOL    HW231206   2.693   1.684   6.946  0.4002 -0.6425 -1.0355
 6583SOL     OW31207   2.621   0.754  11.276  0.4000 -0.1003  0.4549
 6583SOL    HW131208   2.653   0.761  11.366  0.9967  2.0313  0.0799
 6583SOL    HW231209   2.650   0.666  11.252 -0.4161 -1.0972  3.1165
 6584SOL     OW31210   0.406   1.766  14.936  0.6876  0.2305 -0.1140
 6584SOL    HW131211   0.448   1.851  14.938  1.4054 -0.1269 -0.1025
 6584SOL    HW231212   0.344   1.774  15.009  1.5153 -0.0040  0.6136
 6585SOL     OW31213   3.779   1.733  10.866  0.7171  0.3430  0.0638
 6585SOL    HW131214   3.793   1.660  10.927  0.8786  0.6859  0.4423
 6585SOL    HW231215   3.686   1.751  10.880  0.9273  0.8818  0.8042
 6586SOL     OW31216   0.440   4.159   2.711  0.3133 -0.0140 -0.1862
 6586SOL    HW131217   0.399   4.073   2.707  0.9275 -0.4263  2.1073
 6586SOL    HW231218   0.462   4.164   2.618  2.8703 -2.0127  0.3184
 6587SOL     OW31219   3.246   0.607   3.528  0.3557 -0.1556 -0.0981
 6587SOL    HW131220   3.264   0.686   3.580 -1.5781 -0.4892  1.0548
 6587SOL    HW231221   3.219   0.659   3.452 -1.6971  1.1764  1.5675
 6588SOL     OW31222   0.513   1.618   5.075  0.4039 -0.3854 -0.4247
 6588SOL    HW131223   0.581   1.685   5.068  0.9432 -1.0799 -1.8508
 6588SOL    HW231224   0.447   1.653   5.015 -0.9959 -3.6422 -0.7455
 6589SOL     OW31225   1.870   1.892   5.973 -0.3169 -0.1778 -0.6042
 6589SOL    HW131226   1.957   1.854   5.987  0.9994  3.5197  1.1550
 6589SOL    HW231227   1.841   1.844   5.895  1.0852  0.1581 -1.3264
 6590SOL     OW31228   2.708   4.244   4.351  0.0752  0.2405 -0.0288
 6590SOL    HW131229   2.789   4.226   4.399  0.0723 -0.0887 -0.1497
 6590SOL    HW231230   2.709   4.166   4.296 -2.1908 -1.1209  1.8812
 6591SOL     OW31231   4.188   4.133  11.615  0.3156 -0.0095 -0.2035
 6591SOL    HW131232   4.277   4.116  11.583 -1.0891 -3.2854 -2.4397
 6591SOL    HW231233   4.157   4.189  11.543  0.6653  2.1991  1.3672
 6592SOL     OW31234   0.203   0.348   5.595  0.1980  0.0766 -0.1232
 6592SOL    HW131235   0.219   0.318   5.506 -0.5553 -0.4134 -0.0949
 6592SOL    HW231236   0.272   0.294   5.635 -0.8465 -0.8441  0.4444
 6593SOL     OW31237   2.204   1.639   6.700  0.4133 -0.4674  0.2443
 6593SOL    HW131238   2.272   1.657   6.765 -1.3104  4.9044  0.5728
 6593SOL    HW231239   2.181   1.551   6.731 -0.5140 -0.6814 -1.0828
 6594SOL     OW31240   2.016   0.110   8.694  0.1050 -0.5052 -0.1860
 6594SOL    HW131241   1.980   0.156   8.770 -2.6125 -2.0423 -0.5510
 6594SOL    HW231242   1.944   0.048   8.681 -1.4072  1.2923 -0.2689
 6595SOL     OW31243   1.647   0.700   6.252  0.0952  0.8819 -0.0417
 6595SOL    HW131244   1.674   0.784   6.289  0.6708  0.3310  0.7838
 6595SOL    HW231245   1.605   0.711   6.167  0.3994 -2.5502 -0.6174
 6596SOL     OW31246   0.647   3.801  10.652 -0.0937  0.2945  0.3451
 6596SOL    HW131247   0.692   3.884  10.668 -2.1067  1.9525 -2.7335
 6596SOL    HW231248   0.726   3.757  10.620  0.3134  1.2158  0.0729
 6597SOL     OW31249   0.017   1.422  11.509 -0.7412  0.5857  0.8407
 6597SOL    HW131250   0.030   1.433  11.414  0.5417 -0.9288  0.8405
 6597SOL    HW231251   4.665   1.473  11.526 -0.0074  2.1935 -0.4721
 6598SOL     OW31252   1.865   1.400  11.735 -0.1440  0.4313 -0.5335
 6598SOL    HW131253   1.878   1.420  11.643  0.1114 -1.7333 -0.9755
 6598SOL    HW231254   1.788   1.344  11.728  1.2237 -1.6649  1.0235
 6599SOL     OW31255   4.478   3.384   4.855  0.0037  0.0937  0.2747
 6599SOL    HW131256   4.494   3.438   4.932  1.8404 -0.1478  0.0601
 6599SOL    HW231257   4.433   3.312   4.900  0.1710 -1.4459 -1.9833
 6600SOL     OW31258   0.668   0.425  15.222  0.1080 -0.1715 -0.5428
 6600SOL    HW131259   0.580   0.461  15.207 -0.7430 -0.9377  2.6886
 6600SOL    HW231260   0.641   0.337  15.246 -0.9804 -0.0815 -1.3869
 6601SOL     OW31261   1.131   2.832   6.604 -0.1478  0.2509 -0.3676
 6601SOL    HW131262   1.202   2.862   6.661 -0.9667 -1.6252  1.6372
 6601SOL    HW231263   1.087   2.914   6.583  1.5119  1.0117 -0.9450
 6602SOL     OW31264   0.115   3.295   6.247 -0.2608  0.5918  0.1255
 6602SOL    HW131265   0.043   3.259   6.196 -0.6817  0.9749  0.4469
 6602SOL    HW231266   0.108   3.390   6.234  1.0255  0.3716 -2.2276
 6603SOL     OW31267   2.868   1.297  13.301  0.2816  1.0349 -0.4448
 6603SOL    HW131268   2.960   1.309  13.277  0.0174 -0.4933 -2.1425
 6603SOL    HW231269   2.875   1.285  13.396  0.5113 -0.1261 -0.6140
 6604SOL     OW31270   4.408   0.675   1.870  0.2248 -0.0866  0.1721
 6604SOL    HW131271   4.503   0.659   1.869  0.2185 -0.0740 -0.4231
 6604SOL    HW231272   4.377   0.593   1.833 -2.2397  0.8205  0.2687
 6605SOL     OW31273   1.500   4.682   5.239  0.6841  0.7727  0.7045
 6605SOL    HW131274   1.504   4.708   5.147 -0.8988  0.2620  0.4938
 6605SOL    HW231275   1.409   4.661   5.259  0.6353 -0.5102 -0.9030
 6606SOL     OW31276   3.111   0.798   7.031  0.0004 -0.3356  0.1915
 6606SOL    HW131277   3.122   0.877   7.084  1.3742  0.1081 -0.7558
 6606SOL    HW231278   3.097   0.841   6.947 -2.4170 -0.2411  0.6595
 6607SOL     OW31279   2.575   0.002   7.142  0.4919 -0.5959 -0.0452
 6607SOL    HW131280   2.495   4.677   7.141  0.0087  0.1071  2.8703
 6607SOL    HW231281   2.556   0.093   7.163  1.4874 -0.6186  0.9590
 6608SOL     OW31282   3.920   1.338   5.695  0.4271 -0.1835 -0.4083
 6608SOL    HW131283   3.841   1.285   5.692  0.6754 -0.4377 -2.4466
 6608SOL    HW231284   3.941   1.345   5.601  0.3879  2.6427 -0.2234
 6609SOL     OW31285   2.744   2.220   9.747  0.1786  0.5268 -0.5138
 6609SOL    HW131286   2.839   2.218   9.731  0.2038 -1.2320 -0.2579
 6609SOL    HW231287   2.712   2.206   9.659 -0.3664  1.4495 -0.4540
 6610SOL     OW31288   2.759   2.531  16.152 -0.1709 -0.4186 -0.4976
 6610SOL    HW131289   2.832   2.552  16.094  1.2987 -3.3302  0.2744
 6610SOL    HW231290   2.770   2.436  16.154 -2.2157 -0.6776 -1.6739
 6611SOL     OW31291   2.997   1.860   8.606 -0.0451 -0.0042 -0.3837
 6611SOL    HW131292   2.970   1.946   8.640  0.6145  0.1583 -0.2601
 6611SOL    HW231293   3.074   1.880   8.552  0.9101  3.2243  2.1652
 6612SOL     OW31294   0.193   3.957   2.189  0.5252 -0.2474 -0.0317
 6612SOL    HW131295   0.120   3.908   2.151  1.4248  0.4419 -2.6870
 6612SOL    HW231296   0.271   3.950   2.133 -0.4136 -2.0033 -1.1414
 6613SOL     OW31297   0.067   0.090   4.683  0.1337 -0.2130 -0.3279
 6613SOL    HW131298   0.131   0.065   4.616  1.1698  1.7894 -0.0843
 6613SOL    HW231299   0.116   0.163   4.720  0.4379 -0.0686 -1.0165
 6614SOL     OW31300   0.081   1.390  15.255 -0.0157 -0.0007  0.9414
 6614SOL    HW131301   0.022   1.384  15.180  1.0674  0.5975  0.0319
 6614SOL    HW231302   0.081   1.301  15.291 -1.8847  0.3337  1.7530
 6615SOL     OW31303   4.175   3.929  13.509 -0.3305  0.0604 -0.0348
 6615SOL    HW131304   4.115   3.944  13.582 -0.1094  1.0225 -0.0481
 6615SOL    HW231305   4.134   3.964  13.430 -1.7771 -1.8912 -0.1456
 6616SOL     OW31306   0.284   1.511   2.982 -0.4408  0.3306 -0.2214
 6616SOL    HW131307   0.199   1.554   2.992  0.1151  1.3869  0.0673
 6616SOL    HW231308   0.277   1.470   2.896  1.8423  2.8174 -1.6131
 6617SOL     OW31309   1.009   1.866   2.459  0.5753  0.0009  0.3299
 6617SOL    HW131310   1.050   1.843   2.375  0.6876  1.1344  0.0783
 6617SOL    HW231311   0.951   1.935   2.427  1.2957  0.4454 -0.0408
 6618SOL     OW31312   1.294   3.953  17.630 -0.3983 -0.3767 -0.1305
 6618SOL    HW131313   1.323   3.968   0.009  3.0891 -1.0217 -1.1511
 6618SOL    HW231314   1.233   4.025  17.613  0.3559  0.4951  0.8631
 6619SOL     OW31315   0.802   0.110   7.037  0.3102 -1.0064 -0.0155
 6619SOL    HW131316   0.891   0.075   7.038  2.0565  3.3760 -1.0675
 6619SOL    HW231317   0.765   0.065   7.112  0.8091 -3.2638 -1.1009
 6620SOL     OW31318   1.658   1.339  11.936 -0.3225 -0.4709 -0.0391
 6620SOL    HW131319   1.681   1.250  11.964  2.7494  0.3117 -0.0080
 6620SOL    HW231320   1.692   1.400  12.002  1.4978 -1.6175  0.0861
 6621SOL     OW31321   1.296   2.575   5.270  0.0709 -0.7858  0.3454
 6621SOL    HW131322   1.223   2.630   5.298 -0.0139 -0.4681 -0.4919
 6621SOL    HW231323   1.372   2.618   5.308 -1.2847  1.2111  0.8306
 6622SOL     OW31324   1.246   4.294   5.526  0.2365  0.3118  0.2280
 6622SOL    HW131325   1.189   4.272   5.599 -0.4727 -1.6537 -0.9273
 6622SOL    HW231326   1.249   4.390   5.520  0.0491  0.2654 -0.6186
 6623SOL     OW31327   3.345   2.710  10.554 -0.3448  0.2125  0.2766
 6623SOL    HW131328   3.383   2.795  10.533 -4.1251  1.7853 -0.2804
 6623SOL    HW231329   3.414   2.655  10.591 -0.7301  0.1786  0.9344
 6624SOL     OW31330   2.953   0.159   4.289  0.2228 -0.6231  0.0423
 6624SOL    HW131331   2.896   0.104   4.235 -0.9286  2.0394 -1.4770
 6624SOL    HW231332   2.995   0.208   4.218 -2.3970  1.1666 -0.3040
 6625SOL     OW31333   1.136   4.425   0.994 -0.4585 -0.3444  0.4164
 6625SOL    HW131334   1.103   4.511   1.018 -1.2070 -0.9929  1.6933
 6625SOL    HW231335   1.122   4.423   0.899  0.4700  0.8458  0.2536
 6626SOL     OW31336   1.598   4.354   9.189  0.0997 -0.2650  0.1355
 6626SOL    HW131337   1.542   4.355   9.267  1.5876 -2.4598  1.2399
 6626SOL    HW231338   1.606   4.260   9.172  2.1599  0.8128 -4.7243
 6627SOL     OW31339   4.679   2.912   4.637 -0.0789  0.8827  0.5752
 6627SOL    HW131340   4.585   2.898   4.649  0.0134 -1.2865 -1.0939
 6627SOL    HW231341   4.697   2.831   4.589 -0.9071  1.1067 -0.1153
 6628SOL     OW31342   1.082   1.051   3.413  0.1715  0.0487 -0.2464
 6628SOL    HW131343   1.117   0.981   3.468 -2.5192  0.1774  1.6170
 6628SOL    HW231344   1.133   1.032   3.334 -1.3112 -3.0268 -0.4402
 6629SOL     OW31345   3.469   4.422   2.730  0.0653 -0.3908  0.5112
 6629SOL    HW131346   3.529   4.467   2.790 -1.3210  1.1000  0.7787
 6629SOL    HW231347   3.494   4.463   2.648 -0.1418  0.8521  1.0625
 6630SOL     OW31348   3.145   2.335  15.483  0.1398 -0.0159 -0.6159
 6630SOL    HW131349   3.210   2.404  15.487  0.0935  0.0680 -1.3911
 6630SOL    HW231350   3.168   2.300  15.397  1.7262 -0.4256 -0.0283
 6631SOL     OW31351   1.534   0.428  10.142 -0.2043  0.0116 -0.5412
 6631SOL    HW131352   1.495   0.470  10.218 -1.1180 -0.8679 -0.5057
 6631SOL    HW231353   1.477   0.355  10.115  0.9441 -0.8348 -0.6604
 6632SOL     OW31354   1.046   3.303   3.605  0.0910 -0.5070 -0.1213
 6632SOL    HW131355   1.017   3.221   3.645  0.9436 -0.2954  0.9552
 6632SOL    HW231356   0.966   3.325   3.558 -1.4361 -0.8884  2.2506
 6633SOL     OW31357   3.391   2.433   8.438 -0.1640  0.1872  0.0242
 6633SOL    HW131358   3.396   2.510   8.495  0.8053 -0.0038  0.2029
 6633SOL    HW231359   3.452   2.454   8.367 -1.1279 -2.1826 -1.5009
 6634SOL     OW31360   4.080   2.485  17.246 -0.1307 -0.2406  0.3228
 6634SOL    HW131361   4.025   2.409  17.268 -0.5207  0.2873  1.2245
 6634SOL    HW231362   4.125   2.507  17.328  1.0977  1.1457 -0.7350
 6635SOL     OW31363   1.962   1.312   3.795  0.3820 -0.5705 -0.2781
 6635SOL    HW131364   1.939   1.405   3.792  0.7926 -0.4536  0.4237
 6635SOL    HW231365   1.950   1.297   3.701 -2.6996  3.3997 -0.5461
 6636SOL     OW31366   2.539   0.971   8.115  0.4108 -0.5317  0.1007
 6636SOL    HW131367   2.504   0.928   8.037 -0.3610  0.1953  0.0386
 6636SOL    HW231368   2.507   0.912   8.183  1.1746 -0.4934  0.4976
 6637SOL     OW31369   3.390   2.983   6.976 -0.1717 -0.1492 -0.0624
 6637SOL    HW131370   3.434   3.002   6.893  2.0713 -1.4493  0.8371
 6637SOL    HW231371   3.326   2.918   6.947 -0.7496 -0.3624  1.6895
 6638SOL     OW31372   0.521   0.170   6.026  0.4205 -0.1216 -0.0309
 6638SOL    HW131373   0.470   0.173   6.107 -2.1616  0.7584 -1.6765
 6638SOL    HW231374   0.595   0.117   6.056  1.2752  1.2953  0.4347
 6639SOL     OW31375   2.585   1.179   5.592 -0.6484  0.1606  0.0820
 6639SOL    HW131376   2.497   1.165   5.626 -0.7522  0.1468 -0.1974
 6639SOL    HW231377   2.603   1.085   5.582  1.2142  0.5599 -0.4282
 6640SOL     OW31378   3.236   3.528   3.243 -0.0638  0.5928 -0.6426
 6640SOL    HW131379   3.237   3.445   3.289 -1.9986  1.4510  0.9757
 6640SOL    HW231380   3.264   3.588   3.312  1.8483 -0.1579 -0.7767
 6641SOL     OW31381   4.306   3.675   7.201 -0.3965  0.8354  0.3817
 6641SOL    HW131382   4.294   3.620   7.279 -1.3280 -0.1081 -0.4144
 6641SOL    HW231383   4.307   3.610   7.131  1.8074  1.6790 -0.3561
 6642SOL     OW31384   3.673   4.280   3.573 -0.0531  0.3511 -0.0921
 6642SOL    HW131385   3.647   4.348   3.636 -1.7078  0.4547 -0.8885
 6642SOL    HW231386   3.600   4.280   3.512  0.6599  0.1747 -0.9450
 6643SOL     OW31387   1.067   0.009   3.722  0.0918 -0.1646  0.3722
 6643SOL    HW131388   0.980   0.028   3.687 -0.4469 -0.5296  1.5232
 6643SOL    HW231389   1.047   4.648   3.751 -4.4238  1.3052  1.6956
 6644SOL     OW31390   2.666   4.023   6.343  0.4038 -0.2986  0.0078
 6644SOL    HW131391   2.586   4.073   6.361  1.2813  0.8618  0.6835
 6644SOL    HW231392   2.705   3.999   6.427  0.2939  0.7270  0.3596
 6645SOL     OW31393   3.442   0.226   7.473 -0.5198 -0.2327  0.1844
 6645SOL    HW131394   3.456   0.310   7.430 -0.0399  0.0917  0.9747
 6645SOL    HW231395   3.358   0.200   7.436 -1.0054  1.0700  0.3905
 6646SOL     OW31396   2.879   1.750  11.537 -0.2013  0.4465 -1.0020
 6646SOL    HW131397   2.857   1.710  11.453 -1.2104 -0.7221 -0.1880
 6646SOL    HW231398   2.805   1.811  11.541  0.9935  1.8299 -0.1132
 6647SOL     OW31399   1.769   0.637  11.908  0.0464  0.5635 -0.0470
 6647SOL    HW131400   1.697   0.594  11.863 -0.0822  0.2050  0.5002
 6647SOL    HW231401   1.822   0.649  11.829  5.1513  1.3874  3.5011
 6648SOL     OW31402   2.272   3.264   5.632 -0.2655 -0.3435 -0.1384
 6648SOL    HW131403   2.184   3.242   5.663  0.1702  0.6442  1.8270
 6648SOL    HW231404   2.321   3.259   5.714 -0.5707  0.0026  0.0720
 6649SOL     OW31405   4.135   1.259   5.141 -0.7510 -0.3229  0.6452
 6649SOL    HW131406   4.160   1.324   5.206 -0.8934 -1.5850  1.9638
 6649SOL    HW231407   4.172   1.181   5.183 -0.3618 -0.9117 -0.7710
 6650SOL     OW31408   1.284   0.173   1.504  0.1982  0.0685 -0.6774
 6650SOL    HW131409   1.372   0.209   1.515  0.2986 -0.3115 -0.2439
 6650SOL    HW231410   1.254   0.218   1.425 -0.9692  2.5014  1.1664
 6651SOL     OW31411   3.351   0.577   7.840 -0.1008 -0.4661 -0.2746
 6651SOL    HW131412   3.326   0.536   7.757  0.4036  0.6541 -0.9718
 6651SOL    HW231413   3.334   0.514   7.910  0.1598 -0.5330 -0.2676
 6652SOL     OW31414   2.243   0.530   5.539 -0.0006 -0.1957 -0.0828
 6652SOL    HW131415   2.223   0.503   5.449  2.6901 -1.2748 -0.3370
 6652SOL    HW231416   2.195   0.466   5.591  0.8083  0.1020  1.0399
 6653SOL     OW31417   0.678   3.293   5.672  0.3216  0.4051  0.1349
 6653SOL    HW131418   0.686   3.199   5.690  0.4658  0.4782  0.4622
 6653SOL    HW231419   0.759   3.312   5.626  0.8876 -1.0553  0.5477
 6654SOL     OW31420   4.433   0.363   7.567  0.2710  0.1467 -0.0146
 6654SOL    HW131421   4.491   0.412   7.625 -0.7438 -0.7960  1.7861
 6654SOL    HW231422   4.382   0.318   7.634  0.2052  0.4138  0.1143
 6655SOL     OW31423   4.639   0.039  12.222  0.1047 -0.0542 -0.4011
 6655SOL    HW131424   4.671   0.058  12.310  0.8649 -0.8693 -0.4962
 6655SOL    HW231425   4.585   4.694  12.253  1.2962 -0.5962  0.4118
 6656SOL     OW31426   1.961   1.737   7.192  0.0575 -0.0745 -0.1928
 6656SOL    HW131427   1.953   1.831   7.178 -1.2816 -0.3702 -1.4310
 6656SOL    HW231428   2.021   1.705   7.126  1.6966  0.7349  0.9142
 6657SOL     OW31429   3.975   0.460  10.777 -0.1440 -0.1333 -0.1685
 6657SOL    HW131430   4.030   0.534  10.803 -0.1144 -0.3931  0.5110
 6657SOL    HW231431   3.998   0.389  10.837 -1.9323  0.0021  0.6720
 6658SOL     OW31432   1.302   3.262   6.068 -0.1171  0.2422  0.5330
 6658SOL    HW131433   1.240   3.191   6.048 -2.1827  1.0706  4.1347
 6658SOL    HW231434   1.387   3.224   6.042  0.2848  0.5458  1.3946
 6659SOL     OW31435   4.434   0.492  13.521  0.3426  0.3884  0.1988
 6659SOL    HW131436   4.399   0.552  13.455 -0.9449  0.2221  0.7454
 6659SOL    HW231437   4.434   0.405  13.480 -1.7669  0.3818  0.2126
 6660SOL     OW31438   3.953   3.790   1.413 -0.1074 -0.2884  0.6317
 6660SOL    HW131439   3.974   3.778   1.505 -0.8661 -0.8781  0.7237
 6660SOL    HW231440   3.874   3.844   1.419 -0.1544 -0.2357 -0.5094
 6661SOL     OW31441   2.322   3.758  17.114 -0.5713 -0.7681  0.0021
 6661SOL    HW131442   2.329   3.798  17.027 -1.2506  1.7088  1.0799
 6661SOL    HW231443   2.231   3.730  17.119 -1.3911  1.5457 -2.0087
 6662SOL     OW31444   2.269   4.211   4.781  0.0984 -0.1963 -0.0129
 6662SOL    HW131445   2.185   4.166   4.774  1.5660 -3.2928  2.3137
 6662SOL    HW231446   2.235   4.299   4.796  0.4433  0.1139 -1.0847
 6663SOL     OW31447   1.064   3.161  10.690  0.1297  0.4038  0.0176
 6663SOL    HW131448   0.974   3.130  10.687  1.0207 -2.2043  0.4530
 6663SOL    HW231449   1.112   3.078  10.692  1.5492  1.2268  0.0006
 6664SOL     OW31450   1.238   0.189   8.262  0.0525  0.2116 -0.2996
 6664SOL    HW131451   1.183   0.112   8.250  0.5075 -0.4403  1.8682
 6664SOL    HW231452   1.319   0.156   8.300 -1.0408 -0.1980  1.6815
 6665SOL     OW31453   1.013   2.895  14.116  0.3818  0.0458  0.4580
 6665SOL    HW131454   0.959   2.857  14.185 -0.4323 -1.0878 -0.7985
 6665SOL    HW231455   1.035   2.823  14.056  1.6447  0.6993  0.1417
 6666SOL     OW31456   3.765   3.972  10.094 -0.7296  0.1744 -0.2344
 6666SOL    HW131457   3.705   4.037  10.130 -2.6999 -0.3728 -2.6077
 6666SOL    HW231458   3.722   3.953  10.011  0.9828 -1.1737 -0.8264
 6667SOL     OW31459   2.441   2.686   9.734 -0.4040 -0.4452 -0.8676
 6667SOL    HW131460   2.530   2.720   9.742 -1.1045  1.1669  0.1188
 6667SOL    HW231461   2.453   2.607   9.786 -0.2735 -0.7632 -1.3830
 6668SOL     OW31462   2.197   2.800   8.753 -0.4046 -0.3082 -0.1769
 6668SOL    HW131463   2.139   2.853   8.699  0.4428  2.7112  1.8923
 6668SOL    HW231464   2.267   2.784   8.690 -1.0760 -2.0011 -0.5105
 6669SOL     OW31465   0.586   2.235   7.548  0.5167  0.0190 -0.0572
 6669SOL    HW131466   0.502   2.263   7.582  0.4015  1.5349 -1.5933
 6669SOL    HW231467   0.634   2.215   7.629  1.3726 -0.7293 -0.7381
 6670SOL     OW31468   4.299   1.391   4.395  0.3677  0.8904 -0.6460
 6670SOL    HW131469   4.349   1.347   4.327 -0.6449 -2.0812  0.5460
 6670SOL    HW231470   4.294   1.474   4.348 -0.8080  2.1079  1.6443
 6671SOL     OW31471   1.966   2.098   1.561  0.1645 -0.4065 -0.1037
 6671SOL    HW131472   1.915   2.132   1.634 -0.5223 -2.0566  0.1989
 6671SOL    HW231473   1.891   2.062   1.513 -0.3462  2.4713 -1.4247
 6672SOL     OW31474   3.754   0.465   2.233  0.1570 -0.0098  0.2450
 6672SOL    HW131475   3.672   0.432   2.268 -0.6828  1.5636 -0.2175
 6672SOL    HW231476   3.751   0.551   2.276  1.3801  0.6717 -1.0112
 6673SOL     OW31477   1.135   4.577   4.560 -0.1184  0.3905  0.0572
 6673SOL    HW131478   1.189   4.583   4.481 -0.6991 -1.0235 -0.4468
 6673SOL    HW231479   1.063   4.632   4.529  1.1015  1.5069 -0.7717
 6674SOL     OW31480   0.773   4.586   5.846  0.0161  0.0910  0.0187
 6674SOL    HW131481   0.687   4.608   5.812  1.1972  1.7457 -1.9197
 6674SOL    HW231482   0.759   4.635   5.927 -2.1429 -0.6145  0.0636
 6675SOL     OW31483   1.379   0.654   1.163 -1.0189  0.1145  0.0560
 6675SOL    HW131484   1.444   0.721   1.141  0.9274 -1.8831 -0.1736
 6675SOL    HW231485   1.403   0.605   1.241 -2.6469 -1.4973 -0.4563
 6676SOL     OW31486   0.316   1.768  10.317 -0.0432  0.7048  0.2150
 6676SOL    HW131487   0.321   1.675  10.340 -0.4763  0.7061  0.3116
 6676SOL    HW231488   0.261   1.786  10.394 -1.0651  3.8940 -1.2926
 6677SOL     OW31489   1.050   4.265   1.410  0.0617  0.6203 -0.0239
 6677SOL    HW131490   1.009   4.326   1.472  1.3671  0.3240  1.1354
 6677SOL    HW231491   1.138   4.250   1.445 -0.3755 -1.5705  0.0934
 6678SOL     OW31492   4.382   0.249   9.268  0.2042 -0.1073  0.0230
 6678SOL    HW131493   4.477   0.253   9.278 -0.0595 -0.3122  2.4995
 6678SOL    HW231494   4.343   0.246   9.355 -1.9951  1.5956 -0.9142
 6679SOL     OW31495   4.635   0.604   8.024 -0.2179 -0.3280  0.0788
 6679SOL    HW131496   4.581   0.525   8.028 -0.0068 -0.4566  0.3922
 6679SOL    HW231497   4.702   0.578   8.088 -0.4086 -2.3894 -0.5368
 6680SOL     OW31498   4.671   3.384   1.891  0.0325  0.0575  0.0789
 6680SOL    HW131499   4.576   3.372   1.881 -0.4186  2.1791  1.8938
 6680SOL    HW231500   4.694   3.330   1.967 -0.5466 -0.6342 -0.2253
 6681SOL     OW31501   4.509   0.325   5.499  0.6556  0.2228 -0.0173
 6681SOL    HW131502   4.530   0.300   5.589  0.3638 -0.7739 -0.2296
 6681SOL    HW231503   4.525   0.419   5.498 -0.0838  0.3402 -1.1571
 6682SOL     OW31504   4.169   1.124   3.726  0.1054 -0.2923  0.4528
 6682SOL    HW131505   4.226   1.048   3.731  0.2566 -0.1179  1.4108
 6682SOL    HW231506   4.199   1.148   3.638 -0.5223 -1.1146  0.0177
 6683SOL     OW31507   1.128   4.287   5.768  0.2574 -0.5008  0.5130
 6683SOL    HW131508   1.072   4.335   5.829  0.3831  1.2683 -0.7602
 6683SOL    HW231509   1.189   4.247   5.831 -0.3808  1.3235  2.2967
 6684SOL     OW31510   3.908   4.017   8.194 -0.1420  0.1021  0.0325
 6684SOL    HW131511   3.820   4.041   8.225 -0.0858 -0.4480  0.6160
 6684SOL    HW231512   3.958   4.025   8.275 -1.3489  1.1798  0.6806
 6685SOL     OW31513   1.815   0.946   1.022  1.0066 -0.1909 -0.2453
 6685SOL    HW131514   1.726   0.932   1.054  0.4956 -0.2526 -1.6942
 6685SOL    HW231515   1.846   0.860   1.050 -0.6032 -1.3087 -1.8471
 6686SOL     OW31516   1.934   3.361   2.327 -0.4100  0.2596  0.0823
 6686SOL    HW131517   1.908   3.373   2.236 -0.1529 -1.3160 -0.1953
 6686SOL    HW231518   1.892   3.279   2.351 -1.2609  0.0988 -1.9708
 6687SOL     OW31519   1.502   2.942   5.719  0.1310 -0.2948  0.1178
 6687SOL    HW131520   1.582   2.953   5.667 -0.5213 -0.0810 -0.8520
 6687SOL    HW231521   1.540   2.921   5.804  0.4428  1.6292  0.4435
 6688SOL     OW31522   3.638   2.599   5.408 -0.1590 -0.1610 -0.4044
 6688SOL    HW131523   3.591   2.678   5.383 -1.0145 -0.3449  0.6246
 6688SOL    HW231524   3.571   2.568   5.469 -1.0867  0.5434 -1.0597
 6689SOL     OW31525   4.672   4.352  10.362  0.4749  0.1751 -0.2823
 6689SOL    HW131526   4.607   4.285  10.378 -0.5243  1.1544 -0.2575
 6689SOL    HW231527   4.654   4.348  10.268 -0.8135 -0.7741  0.0048
 6690SOL     OW31528   3.230   4.610   7.696 -0.0603 -0.0872  0.2361
 6690SOL    HW131529   3.178   4.669   7.641  0.2674 -1.7192 -1.8492
 6690SOL    HW231530   3.158   4.582   7.752 -0.3395 -0.1278 -0.1382
 6691SOL     OW31531   0.403   3.928   3.425 -0.1418 -0.2357 -0.2605
 6691SOL    HW131532   0.369   3.840   3.440 -0.0723 -0.4177 -1.1298
 6691SOL    HW231533   0.490   3.913   3.388 -1.0854 -3.6043 -1.0979
 6692SOL     OW31534   0.444   4.087   8.138  0.1740  0.3573  0.1312
 6692SOL    HW131535   0.415   4.023   8.203 -0.6924 -0.9860 -1.5933
 6692SOL    HW231536   0.537   4.069   8.126  0.2483  1.2759 -0.6805
 6693SOL     OW31537   4.265   0.842   7.781 -0.2663  0.6418 -0.1698
 6693SOL    HW131538   4.347   0.835   7.732 -0.4800 -0.3783 -0.3854
 6693SOL    HW231539   4.213   0.896   7.721 -1.6072  0.7571  1.1055
 6694SOL     OW31540   1.392   2.802  12.389 -0.4280  0.1505 -0.6337
 6694SOL    HW131541   1.331   2.829  12.321  0.3944 -1.8360 -2.1205
 6694SOL    HW231542   1.427   2.890  12.404 -0.6877  0.1988 -0.3151
 6695SOL     OW31543   4.054   1.523   3.066  0.4284  0.7775 -0.1461
 6695SOL    HW131544   3.962   1.543   3.047  0.6290  0.9788 -0.8981
 6695SOL    HW231545   4.056   1.428   3.050 -1.9037  0.4204  1.7628
 6696SOL     OW31546   3.816   3.610   0.853 -0.6863 -0.3899  0.0161
 6696SOL    HW131547   3.774   3.555   0.787  1.0548  0.2392 -1.6205
 6696SOL    HW231548   3.819   3.694   0.807  1.0423 -0.8006 -0.6208
 6697SOL     OW31549   4.061   4.037  17.595 -0.3437  0.5696  0.1088
 6697SOL    HW131550   4.052   4.085  17.513 -2.0532  0.2040  0.0918
 6697SOL    HW231551   4.061   3.950  17.555  0.1472  0.3977  0.4751
 6698SOL     OW31552   2.976   4.704   6.027  0.3097 -0.3622  0.1323
 6698SOL    HW131553   2.985   4.661   6.112  1.9362  2.5547  1.4511
 6698SOL    HW231554   2.906   4.656   5.984 -0.5127  0.8115  0.1466
 6699SOL     OW31555   0.879   3.940   1.243  0.8989 -0.3844 -0.8480
 6699SOL    HW131556   0.785   3.933   1.260  1.0680 -1.1842 -0.2708
 6699SOL    HW231557   0.909   3.869   1.299 -3.9310 -2.8027 -1.3963
 6700SOL     OW31558   4.113   1.410   5.895  0.2193 -0.3582 -0.3142
 6700SOL    HW131559   4.110   1.337   5.957 -0.1680  0.7521  0.9567
 6700SOL    HW231560   4.035   1.382   5.846 -0.7441 -1.2952  1.7229
 6701SOL     OW31561   4.689   4.412   3.299  0.2333 -0.3880 -0.4917
 6701SOL    HW131562   0.040   4.459   3.330  0.5698  0.0525 -2.0384
 6701SOL    HW231563   0.011   4.332   3.280 -1.3995 -1.7429  0.8702
 6702SOL     OW31564   3.764   0.200   6.783 -0.3908  0.4538  0.9057
 6702SOL    HW131565   3.722   0.244   6.857 -0.7879  3.0009 -0.8404
 6702SOL    HW231566   3.694   0.205   6.718  0.7988  0.8454 -0.3270
 6703SOL     OW31567   2.355   4.554  10.622 -0.6141  0.5511  0.1285
 6703SOL    HW131568   2.318   4.556  10.710  0.6475 -0.8968  0.7058
 6703SOL    HW231569   2.436   4.605  10.634  0.3513 -0.7907 -0.6693
 6704SOL     OW31570   3.579   3.300   7.421  0.1037  0.0023 -0.2709
 6704SOL    HW131571   3.511   3.251   7.467 -0.4231  1.4126  0.4473
 6704SOL    HW231572   3.594   3.370   7.485 -0.0362  0.2533 -0.5122
 6705SOL     OW31573   4.460   2.891  14.648 -0.3349  0.2167  0.3210
 6705SOL    HW131574   4.537   2.840  14.624 -1.5139 -2.5866  2.5333
 6705SOL    HW231575   4.448   2.948  14.572 -0.3566  0.0163  0.1750
 6706SOL     OW31576   0.979   2.010   0.621  0.3644  0.3929 -0.1418
 6706SOL    HW131577   1.036   2.044   0.552  0.0562  0.8633 -0.1546
 6706SOL    HW231578   0.908   1.985   0.562  0.6820 -1.7080  0.3580
 6707SOL     OW31579   2.308   3.045   2.569  0.0143  0.7048 -0.6222
 6707SOL    HW131580   2.251   3.072   2.641 -1.4971  1.9550 -2.2940
 6707SOL    HW231581   2.349   2.971   2.613  0.9476  1.7725  0.3032
 6708SOL     OW31582   4.655   0.881   2.791  0.2639  0.8361  0.6122
 6708SOL    HW131583   4.585   0.921   2.740  0.1828  2.8617  2.3155
 6708SOL    HW231584   4.687   0.809   2.737  0.0714  0.1421  1.4120
 6709SOL     OW31585   3.818   2.812   4.523 -0.2577 -0.4891  0.0451
 6709SOL    HW131586   3.811   2.717   4.509 -1.2574 -0.5568  1.0318
 6709SOL    HW231587   3.759   2.853   4.460 -0.6616 -1.5443 -0.2591
 6710SOL     OW31588   1.797   3.703  13.912  0.2136  0.6487  0.4045
 6710SOL    HW131589   1.884   3.696  13.951  0.1700 -2.6536 -0.1459
 6710SOL    HW231590   1.754   3.764  13.972  0.1969 -0.7512  1.8154
 6711SOL     OW31591   2.633   4.169  12.472  0.3642 -0.1106 -0.1267
 6711SOL    HW131592   2.595   4.112  12.405 -3.3931  0.7303  1.3189
 6711SOL    HW231593   2.631   4.115  12.552  0.1552  0.3197  0.1569
 6712SOL     OW31594   0.223   4.260   6.065 -0.0601  0.4632 -0.5717
 6712SOL    HW131595   0.311   4.241   6.032  0.7982 -0.8014  2.4312
 6712SOL    HW231596   0.191   4.176   6.032  1.6219 -0.8291  1.0968
 6713SOL     OW31597   3.837   2.703  12.480  0.1522 -0.2312  0.5784
 6713SOL    HW131598   3.807   2.694  12.390  1.6227 -2.4862  0.3021
 6713SOL    HW231599   3.932   2.711  12.476  0.2350 -1.5584 -0.2607
 6714SOL     OW31600   1.459   3.696   0.583  0.2725 -0.0861 -0.0084
 6714SOL    HW131601   1.411   3.616   0.601  0.4397  0.1066  1.2838
 6714SOL    HW231602   1.393   3.747   0.537  0.5400 -0.1059 -0.4193
 6715SOL     OW31603   3.274   0.667  14.489  0.2619  0.0912  0.0609
 6715SOL    HW131604   3.270   0.573  14.476 -0.8086  0.0267  0.8571
 6715SOL    HW231605   3.235   0.674  14.576  0.9616 -2.5767  0.5830
 6716SOL     OW31606   4.664   4.633   8.690  0.6723  0.2884  0.3711
 6716SOL    HW131607   4.644   4.718   8.730 -0.0078 -0.1313  0.9088
 6716SOL    HW231608   0.030   4.653   8.680  1.1920 -1.6349  1.3602
 6717SOL     OW31609   1.768   0.798   5.427  0.0107  0.3791 -0.6272
 6717SOL    HW131610   1.763   0.802   5.331 -2.2211 -0.0129 -0.5325
 6717SOL    HW231611   1.695   0.738   5.442  0.0878  0.1070 -1.3156
 6718SOL     OW31612   0.989   0.634   3.374  0.2373  0.4141 -0.1902
 6718SOL    HW131613   1.062   0.621   3.313  1.9354 -0.0161  1.9318
 6718SOL    HW231614   1.029   0.707   3.422  2.3495 -0.1153 -1.1326
 6719SOL     OW31615   1.012   2.227  14.897 -0.7882  0.0821 -0.0087
 6719SOL    HW131616   0.937   2.284  14.882 -1.5207 -0.8677  0.0544
 6719SOL    HW231617   1.058   2.280  14.961 -0.8251  2.2803 -1.8148
 6720SOL     OW31618   0.881   4.110  10.503 -0.2002  0.5235  0.2227
 6720SOL    HW131619   0.840   4.118  10.589  1.4083  0.6760  0.9869
 6720SOL    HW231620   0.963   4.074  10.536 -0.0165  0.4623 -0.3004
 6721SOL     OW31621   3.649   3.940  15.954  0.2719 -0.2874  0.0576
 6721SOL    HW131622   3.642   3.954  16.049  1.2311 -1.5975  0.3161
 6721SOL    HW231623   3.556   3.924  15.939  0.3714  1.7643 -2.6691
 6722SOL     OW31624   4.228   2.978   6.961 -0.2134 -0.0739  0.0908
 6722SOL    HW131625   4.147   3.007   7.004 -0.8274 -2.7371  0.7063
 6722SOL    HW231626   4.261   2.914   7.023  1.5317  2.0994  1.4142
 6723SOL     OW31627   1.246   1.275   3.180 -0.0374 -0.2782 -0.7938
 6723SOL    HW131628   1.251   1.179   3.181 -1.5085 -0.3435 -0.1372
 6723SOL    HW231629   1.338   1.297   3.164 -0.4292  0.3414 -2.2072
 6724SOL     OW31630   3.428   4.534   9.118  0.3285 -0.2329  0.6082
 6724SOL    HW131631   3.514   4.559   9.152  1.3657 -1.2081 -1.2866
 6724SOL    HW231632   3.434   4.520   9.023 -1.7983  0.4454  0.3622
 6725SOL     OW31633   3.937   0.699   4.312  0.4106  0.5520 -0.0797
 6725SOL    HW131634   3.953   0.715   4.219  0.0416  2.8861  0.2486
 6725SOL    HW231635   3.960   0.606   4.307 -2.3163 -0.0345 -2.4716
 6726SOL     OW31636   0.743   0.251  11.724  0.5563  0.6509 -0.2241
 6726SOL    HW131637   0.806   0.307  11.769 -0.2600  1.0219  0.4521
 6726SOL    HW231638   0.797   0.242  11.645  0.1186 -0.6005 -0.3881
 6727SOL     OW31639   0.642   1.389   5.590 -0.9066 -0.1045 -0.1073
 6727SOL    HW131640   0.682   1.473   5.567  1.3247 -0.9373  0.7275
 6727SOL    HW231641   0.613   1.361   5.503  0.4223 -0.4747 -0.4327
 6728SOL     OW31642   1.132   4.234  14.192 -0.2638  0.7912  0.3206
 6728SOL    HW131643   1.146   4.174  14.119 -1.9786  0.9724 -0.1484
 6728SOL    HW231644   1.208   4.207  14.244 -0.5234  1.6916  1.1724
 6729SOL     OW31645   3.025   0.360   8.458 -0.2133  0.1160  0.1163
 6729SOL    HW131646   3.094   0.426   8.472  0.3740  0.2332 -3.1464
 6729SOL    HW231647   3.036   0.352   8.363  1.9275 -2.7403  0.6107
 6730SOL     OW31648   3.001   0.815   5.214 -0.4384  0.3910 -0.4155
 6730SOL    HW131649   3.054   0.787   5.139  0.5037 -0.9399  0.7517
 6730SOL    HW231650   3.077   0.830   5.270 -1.2957  0.5103  0.7184
 6731SOL     OW31651   1.219   2.982   2.874 -0.0210  0.2579 -0.4282
 6731SOL    HW131652   1.145   2.939   2.915  0.6646  0.9096  1.4807
 6731SOL    HW231653   1.260   3.018   2.952  0.4311 -1.7008  0.2398
 6732SOL     OW31654   1.319   2.211   7.691 -0.1712  0.3160 -0.7072
 6732SOL    HW131655   1.357   2.129   7.720  0.8469  1.1171  0.2232
 6732SOL    HW231656   1.244   2.175   7.644  1.2579 -1.3784 -1.7066
 6733SOL     OW31657   0.843   0.500   2.437 -0.0374 -0.3251  0.0167
 6733SOL    HW131658   0.788   0.576   2.421 -0.1922 -0.8553 -1.9971
 6733SOL    HW231659   0.870   0.524   2.526 -1.6584  1.3850  0.0526
 6734SOL     OW31660   1.705   1.414   5.671 -0.0114 -0.1682  0.6565
 6734SOL    HW131661   1.612   1.395   5.681  0.3780 -2.7390 -0.7241
 6734SOL    HW231662   1.730   1.350   5.605  0.6983 -0.8143  1.5441
 6735SOL     OW31663   3.384   2.033  15.866 -0.2221 -0.1713 -0.3953
 6735SOL    HW131664   3.444   1.959  15.855 -0.3522 -0.0418 -1.9240
 6735SOL    HW231665   3.442   2.107  15.848  0.0516  0.1210  1.6536
 6736SOL     OW31666   0.839   3.410   2.680 -0.3201  0.0839  0.0794
 6736SOL    HW131667   0.833   3.502   2.709  0.1144  0.6710 -1.7022
 6736SOL    HW231668   0.889   3.413   2.598  0.6543 -1.1983  0.6235
 6737SOL     OW31669   4.151   0.221  17.205 -0.2613 -0.1239  0.4724
 6737SOL    HW131670   4.092   0.265  17.143  0.2246 -0.9942 -0.6042
 6737SOL    HW231671   4.147   0.283  17.277 -1.2531 -0.9832  1.1539
 6738SOL     OW31672   4.723   4.623   5.328 -0.2499 -0.2660  0.2606
 6738SOL    HW131673   4.665   4.614   5.404 -1.1230 -1.0905 -0.5163
 6738SOL    HW231674   0.014   4.717   5.332 -0.7131 -0.1299 -0.9580
 6739SOL     OW31675   0.546   2.794   7.253 -0.0264 -0.0110 -0.1100
 6739SOL    HW131676   0.491   2.725   7.291  0.6249 -1.8305 -2.4684
 6739SOL    HW231677   0.503   2.873   7.284  0.2127 -0.7283  2.0663
 6740SOL     OW31678   4.624   2.690  16.030 -0.2007  0.2438  0.4860
 6740SOL    HW131679   4.581   2.613  16.067  3.1335 -2.5576 -1.5248
 6740SOL    HW231680   4.716   2.667  16.042 -0.8561 -2.2448  0.7507
 6741SOL     OW31681   1.585   2.773   5.291 -0.1418 -0.3012  0.1728
 6741SOL    HW131682   1.510   2.801   5.343  2.1686  4.0730  1.1138
 6741SOL    HW231683   1.648   2.755   5.360 -0.2373 -2.3271 -0.2680
 6742SOL     OW31684   2.678   4.371  10.785  0.0214  0.0996  0.0196
 6742SOL    HW131685   2.595   4.332  10.814  0.4274 -2.2021 -1.9223
 6742SOL    HW231686   2.666   4.465  10.796 -0.9062  0.1628 -1.5210
 6743SOL     OW31687   1.788   2.636  16.510  0.0631  0.1853 -0.7742
 6743SOL    HW131688   1.742   2.608  16.431  0.8580 -3.8539  0.1836
 6743SOL    HW231689   1.797   2.731  16.500 -3.3862  0.4419 -1.6651
 6744SOL     OW31690   0.798   4.669   4.235 -0.0566 -0.2974  0.3570
 6744SOL    HW131691   0.852   4.693   4.311  0.9875 -0.9902 -0.1639
 6744SOL    HW231692   0.802   4.574   4.239  2.6718 -0.2705 -1.0537
 6745SOL     OW31693   4.701   4.708   3.194 -0.1490  0.3197  0.3131
 6745SOL    HW131694   4.705   4.637   3.258  2.7344  0.0230 -0.2202
 6745SOL    HW231695   4.697   0.051   3.259 -0.4481  3.6789 -3.3185
 6746SOL     OW31696   2.541   3.559   2.258 -0.1471 -0.1673 -0.1646
 6746SOL    HW131697   2.524   3.465   2.252  0.3069 -0.0767 -2.8754
 6746SOL    HW231698   2.602   3.557   2.331  0.4590  1.3020 -0.6288
 6747SOL     OW31699   3.214   0.400   4.197 -0.0151  1.2437  0.7032
 6747SOL    HW131700   3.197   0.486   4.159 -1.1870  0.1902 -1.1600
 6747SOL    HW231701   3.147   0.341   4.161  0.8783  0.9629 -0.4935
 6748SOL     OW31702   1.793   4.003   6.392  0.3027  0.1254 -0.1911
 6748SOL    HW131703   1.861   3.959   6.442  0.2106 -0.4856 -0.6027
 6748SOL    HW231704   1.744   3.922   6.377 -0.2946  0.6091 -0.8555
 6749SOL     OW31705   2.262   4.059   6.086 -0.5216  0.4170  0.0482
 6749SOL    HW131706   2.243   4.146   6.050  3.2443  1.1708 -0.1658
 6749SOL    HW231707   2.187   4.051   6.145 -0.8739  2.1008 -0.1801
 6750SOL     OW31708   1.222   2.300   6.758 -0.3244 -0.5065  0.3808
 6750SOL    HW131709   1.219   2.296   6.853 -0.9943  0.0019  0.3828
 6750SOL    HW231710   1.217   2.395   6.744  1.2083 -0.6346 -1.1708
 6751SOL     OW31711   3.168   4.488   4.544  0.0900  0.5103  0.7249
 6751SOL    HW131712   3.176   4.475   4.449  0.3379 -1.1798  0.9702
 6751SOL    HW231713   3.207   4.407   4.576  2.8269  0.1704 -3.4685
 6752SOL     OW31714   4.372   0.574  16.641  0.3254 -0.3691  0.4065
 6752SOL    HW131715   4.342   0.601  16.555  0.5021 -1.5762 -0.0364
 6752SOL    HW231716   4.299   0.516  16.665  0.2463 -0.8353 -0.9919
 6753SOL     OW31717   4.615   0.476   7.734 -0.0008 -0.2314 -0.0305
 6753SOL    HW131718   4.621   0.385   7.763  0.2964  0.0519  0.7910
 6753SOL    HW231719   4.622   0.535   7.809  1.6081 -1.5525  0.8407
 6754SOL     OW31720   0.060   4.256  10.107 -0.2428  0.7512 -0.0353
 6754SOL    HW131721   0.035   4.274  10.017  1.2013  2.2701 -0.1381
 6754SOL    HW231722   0.146   4.212  10.100 -1.1666 -1.2087  0.9642
 6755SOL     OW31723   1.809   0.146   2.731  0.4228  0.1503 -0.2268
 6755SOL    HW131724   1.777   0.143   2.640  1.0091  2.6009 -0.5208
 6755SOL    HW231725   1.731   0.115   2.778  1.1090  0.9477  1.4272
 6756SOL     OW31726   4.508   1.208   3.568  0.1191 -0.1727 -0.6739
 6756SOL    HW131727   4.582   1.149   3.556  0.0344 -0.7586  1.7434
 6756SOL    HW231728   4.517   1.265   3.492 -1.6491  0.4223 -0.4453
 6757SOL     OW31729   2.422   3.666  15.761  0.7575  0.2651  0.2760
 6757SOL    HW131730   2.435   3.758  15.742 -0.3904  0.6465  1.3428
 6757SOL    HW231731   2.331   3.643  15.745  0.8490  0.5319 -0.6333
 6758SOL     OW31732   2.206   2.945   5.620  0.2986  0.4574  0.1924
 6758SOL    HW131733   2.212   2.857   5.659  0.4354 -0.5648 -2.0970
 6758SOL    HW231734   2.252   2.989   5.691 -1.3313 -0.5156  1.8440
 6759SOL     OW31735   1.040   2.164   5.519  0.0721  0.0859 -0.4474
 6759SOL    HW131736   0.990   2.245   5.511 -0.9271 -0.1699  3.0637
 6759SOL    HW231737   1.040   2.153   5.614  3.1276 -1.3116 -0.5861
 6760SOL     OW31738   4.417   2.575   6.351 -0.0701 -0.7708 -0.3834
 6760SOL    HW131739   4.387   2.485   6.364  1.0703 -0.9747  0.8932
 6760SOL    HW231740   4.360   2.609   6.282  1.8805  1.5831 -0.8300
 6761SOL     OW31741   1.170   1.457   1.809  0.3953  0.1815 -0.3724
 6761SOL    HW131742   1.151   1.549   1.822  2.7510  0.5216  0.6523
 6761SOL    HW231743   1.087   1.419   1.837  1.3217 -2.4498 -1.1796
 6762SOL     OW31744   1.720   4.452  13.200 -0.4158 -0.3142  0.0965
 6762SOL    HW131745   1.796   4.405  13.168 -0.5273  0.4138 -1.2431
 6762SOL    HW231746   1.761   4.517  13.258 -1.8773  0.2453  0.5145
 6763SOL     OW31747   0.663   4.095  10.997  0.6178  0.1091 -0.2879
 6763SOL    HW131748   0.569   4.078  10.991  0.6851 -0.2786 -0.2058
 6763SOL    HW231749   0.673   4.135  11.083 -0.1590  0.2486 -0.2567
 6764SOL     OW31750   0.222   1.979   6.509  0.7691 -0.0499  0.3473
 6764SOL    HW131751   0.274   1.900   6.494 -0.1213 -0.6884  0.6483
 6764SOL    HW231752   0.283   2.042   6.470  0.9468 -2.0560 -2.6458
 6765SOL     OW31753   0.138   4.352   8.295 -0.0486 -0.6150 -0.4616
 6765SOL    HW131754   0.069   4.379   8.356  0.3182 -2.8196  0.9320
 6765SOL    HW231755   0.133   4.258   8.313  0.3425 -0.2295  1.6564
 6766SOL     OW31756   3.427   3.958  13.736  0.3215 -0.2747  0.1475
 6766SOL    HW131757   3.411   4.037  13.787  0.0319  0.2318 -0.7383
 6766SOL    HW231758   3.469   3.984  13.654 -2.0228  3.2106  0.0445
 6767SOL     OW31759   2.028   0.580  17.651  0.2984 -0.2665 -0.1699
 6767SOL    HW131760   1.960   0.644  17.630  0.1142  0.2406  1.9595
 6767SOL    HW231761   2.059   0.609   0.027 -1.2759  0.3807  0.1673
 6768SOL     OW31762   2.934   1.471   4.390  0.3541 -0.2334 -0.2683
 6768SOL    HW131763   2.872   1.525   4.341  0.3425 -0.0700 -0.0757
 6768SOL    HW231764   2.886   1.432   4.463 -2.0634 -0.7506 -2.1493
 6769SOL     OW31765   4.718   0.449   4.501 -0.1158  0.7648 -0.2822
 6769SOL    HW131766   4.651   0.518   4.508  0.4077  1.0638  1.8947
 6769SOL    HW231767   4.708   0.409   4.587  2.2957  1.3938  0.2750
 6770SOL     OW31768   1.956   1.453  14.607 -0.8765 -0.5450 -0.4400
 6770SOL    HW131769   1.877   1.420  14.650 -1.7546  2.2449  0.0989
 6770SOL    HW231770   1.912   1.523  14.558 -0.8336  2.3203  3.5806
 6771SOL     OW31771   3.772   4.448  12.696  0.4969  0.3169  0.6783
 6771SOL    HW131772   3.691   4.465  12.648  0.7361 -1.8919 -0.4865
 6771SOL    HW231773   3.770   4.514  12.766 -1.9719  1.8802 -0.8617
 6772SOL     OW31774   2.440   2.252  13.192  0.1205  0.3594  0.3093
 6772SOL    HW131775   2.430   2.319  13.260  3.3453  0.5796  0.5682
 6772SOL    HW231776   2.469   2.181  13.248  1.9968 -0.9706 -2.3764
 6773SOL     OW31777   0.063   0.873   6.530 -0.2535  0.3795 -0.1158
 6773SOL    HW131778   0.115   0.800   6.564 -0.0662 -0.7775 -2.8849
 6773SOL    HW231779   0.102   0.888   6.444 -0.2035  0.8642 -0.0066
 6774SOL     OW31780   2.241   2.834   8.245 -0.0762  0.6562  0.2101
 6774SOL    HW131781   2.173   2.894   8.213 -0.5794  0.8002  1.5704
 6774SOL    HW231782   2.316   2.889   8.221 -0.6382  1.0611 -0.6534
 6775SOL     OW31783   4.467   2.811   2.060 -0.5698 -0.1703 -0.3997
 6775SOL    HW131784   4.397   2.874   2.043 -2.5335 -2.3578 -0.4039
 6775SOL    HW231785   4.408   2.737   2.071 -0.8260  0.1289  0.2453
 6776SOL     OW31786   0.987   2.461   2.842 -0.2698  0.3736 -0.2002
 6776SOL    HW131787   0.921   2.495   2.903  1.5556  1.1658  1.3335
 6776SOL    HW231788   1.056   2.525   2.856  0.6413 -0.2337 -2.0913
 6777SOL     OW31789   2.449   0.870   7.842  0.1282 -0.4911 -0.2060
 6777SOL    HW131790   2.473   0.930   7.772  0.6705 -1.0302 -0.4881
 6777SOL    HW231791   2.441   0.800   7.777  1.7596 -1.4882  0.6889
 6778SOL     OW31792   0.264   3.385   8.200  0.0649 -0.6699  0.0266
 6778SOL    HW131793   0.295   3.409   8.112 -1.1702 -2.1451 -0.8212
 6778SOL    HW231794   0.322   3.439   8.253 -0.7388  0.1528  0.0651
 6779SOL     OW31795   1.729   0.107   8.865  0.3592 -0.1589 -0.0789
 6779SOL    HW131796   1.713   0.087   8.957 -0.1593  2.4167  0.3863
 6779SOL    HW231797   1.763   0.195   8.881  0.8715 -0.7739  2.3006
 6780SOL     OW31798   2.732   0.622   7.595  0.0926  0.2049  0.4328
 6780SOL    HW131799   2.825   0.636   7.580 -0.7620  3.2076 -1.8998
 6780SOL    HW231800   2.714   0.643   7.686  2.3072  0.0717  0.9065
 6781SOL     OW31801   4.401   1.604  13.577 -0.0002 -0.4333 -0.0243
 6781SOL    HW131802   4.349   1.576  13.652  1.0602  1.1995  1.3119
 6781SOL    HW231803   4.364   1.689  13.552  0.3212 -1.0197 -2.5845
 6782SOL     OW31804   4.670   3.722   3.261 -0.1642  0.2767  0.1849
 6782SOL    HW131805   4.705   3.728   3.172  0.0318 -0.7727  0.1907
 6782SOL    HW231806   4.585   3.686   3.237 -0.5249  1.1343  0.1728
 6783SOL     OW31807   2.192   0.726   5.705  0.3344  0.4446 -0.0801
 6783SOL    HW131808   2.231   0.660   5.648  1.3633 -0.3450  1.5340
 6783SOL    HW231809   2.153   0.776   5.633  0.0056  1.2556  0.6649
 6784SOL     OW31810   3.679   3.107  12.320 -0.1304 -0.0307 -0.1959
 6784SOL    HW131811   3.626   3.182  12.347 -1.6321 -1.2157  0.1703
 6784SOL    HW231812   3.612   3.041  12.335 -0.2728  0.3185  0.6620
 6785SOL     OW31813   4.378   1.560  12.892  0.0376 -0.2044 -0.2842
 6785SOL    HW131814   4.424   1.481  12.865 -1.1708 -1.2230  0.6680
 6785SOL    HW231815   4.340   1.589  12.809 -0.2454  1.3145  0.3772
 6786SOL     OW31816   0.980   2.372   1.948  0.3238  0.6032 -0.5541
 6786SOL    HW131817   0.896   2.401   1.912 -0.6672 -0.3469  0.9804
 6786SOL    HW231818   1.025   2.456   1.939  0.5371  0.4355 -1.0871
 6787SOL     OW31819   1.999   4.168   4.180 -0.0734 -0.4769  0.0350
 6787SOL    HW131820   1.967   4.107   4.247  0.8770 -1.8808 -0.8022
 6787SOL    HW231821   2.094   4.168   4.193 -0.0871  1.0946  0.1530
 6788SOL     OW31822   1.583   1.200   8.999 -0.5484 -0.0930 -0.0661
 6788SOL    HW131823   1.571   1.186   9.093 -2.3756 -0.0292 -0.2869
 6788SOL    HW231824   1.533   1.125   8.966  0.0680 -1.2282  1.5871
 6789SOL     OW31825   2.329   3.263   7.315 -0.2329  0.5351  0.1011
 6789SOL    HW131826   2.349   3.338   7.259  1.9704  0.3151  0.6254
 6789SOL    HW231827   2.357   3.296   7.401 -0.5952 -0.9523  0.8021
 6790SOL     OW31828   2.456   0.809   3.497  0.7445 -0.3504  0.0519
 6790SOL    HW131829   2.513   0.733   3.508  0.2096 -0.6890  0.5085
 6790SOL    HW231830   2.388   0.760   3.452  1.2732 -0.6830 -0.3736
 6791SOL     OW31831   1.376   2.929   6.749 -0.7844 -0.3383  0.1075
 6791SOL    HW131832   1.369   2.860   6.815 -0.2040  2.3470  2.9756
 6791SOL    HW231833   1.381   3.013   6.795  2.5645  0.4812 -1.7659
 6792SOL     OW31834   0.933   2.099   6.399  0.6029  0.3483 -0.3038
 6792SOL    HW131835   0.993   2.147   6.341  2.6993  1.1327  2.5059
 6792SOL    HW231836   0.967   2.010   6.390  0.8862  0.4238  0.0058
 6793SOL     OW31837   1.754   1.194   7.598 -0.0270  0.6827 -0.0881
 6793SOL    HW131838   1.810   1.132   7.550 -2.6564  0.0272 -2.3428
 6793SOL    HW231839   1.795   1.280   7.592 -0.5131  1.0813  2.5127
 6794SOL     OW31840   3.174   1.083   1.593 -0.5683  0.3858  0.3973
 6794SOL    HW131841   3.115   1.111   1.523  2.0155  1.2303 -1.4405
 6794SOL    HW231842   3.113   1.036   1.651  0.7682  0.3310  1.7456
 6795SOL     OW31843   1.367   2.078   7.393 -0.0719  0.5271 -0.6151
 6795SOL    HW131844   1.440   2.129   7.428 -1.0607  0.4359  1.5862
 6795SOL    HW231845   1.303   2.146   7.370 -1.0555 -0.7800 -1.7463
 6796SOL     OW31846   0.421   2.927   9.884  0.2083 -0.3996  0.4510
 6796SOL    HW131847   0.385   2.859   9.826  1.6908  0.1710 -1.1374
 6796SOL    HW231848   0.388   3.011   9.853  3.0306  1.4779  2.5206
 6797SOL     OW31849   1.981   0.390   4.662 -0.0202 -1.3509 -0.6956
 6797SOL    HW131850   1.959   0.376   4.754  1.2958 -1.6167 -0.4104
 6797SOL    HW231851   1.943   0.477   4.653 -2.0316 -2.0937  0.6658
 6798SOL     OW31852   4.619   3.719  10.905 -0.2576 -0.4674  0.1008
 6798SOL    HW131853   4.646   3.711  10.814 -0.7957  2.1495 -0.2818
 6798SOL    HW231854   4.694   3.765  10.941 -0.3039 -1.5429  1.6076
 6799SOL     OW31855   1.177   4.214   2.521 -0.0090  0.0642  0.2664
 6799SOL    HW131856   1.250   4.152   2.518 -0.5449 -0.5414 -0.1460
 6799SOL    HW231857   1.146   4.220   2.431 -1.0358 -1.0421  0.5430
 6800SOL     OW31858   3.811   1.026   7.660 -0.3500 -0.4041 -0.3584
 6800SOL    HW131859   3.773   1.098   7.610 -0.7391  0.3127  0.9577
 6800SOL    HW231860   3.789   1.065   7.744  3.1585  3.3502 -1.2113
 6801SOL     OW31861   1.448   1.316   6.074 -0.0932  0.2198 -0.2571
 6801SOL    HW131862   1.354   1.303   6.085  0.1366  1.8116  3.3312
 6801SOL    HW231863   1.460   1.409   6.091 -1.1325  0.3527 -0.2655
 6802SOL     OW31864   4.030   3.602   4.315  0.2037  0.7783 -0.2427
 6802SOL    HW131865   4.061   3.611   4.405  3.3630 -0.5873 -1.2123
 6802SOL    HW231866   4.072   3.675   4.269  2.0855  0.6321  1.2778
 6803SOL     OW31867   4.574   3.808   7.274  0.3157 -0.0738 -0.5117
 6803SOL    HW131868   4.482   3.788   7.290  0.6117 -0.2908  0.8892
 6803SOL    HW231869   4.575   3.903   7.262 -1.9364  0.2926  2.1819
 6804SOL     OW31870   0.736   2.878   8.996 -0.1683  0.6603 -0.3993
 6804SOL    HW131871   0.721   2.878   8.902  0.1481  0.2285 -0.4502
 6804SOL    HW231872   0.659   2.828   9.024  0.7783 -0.8896 -0.5632
 6805SOL     OW31873   1.942   0.323  10.375  0.1116 -0.3866  0.6643
 6805SOL    HW131874   1.979   0.391  10.318  1.2969 -0.8380  0.9087
 6805SOL    HW231875   1.865   0.290  10.328 -0.4129  0.6252  0.7938
 6806SOL     OW31876   2.361   3.166  12.663 -0.1928  0.0073 -0.1003
 6806SOL    HW131877   2.412   3.195  12.588 -1.8299  2.1336 -0.3659
 6806SOL    HW231878   2.383   3.073  12.656 -0.1523  0.3395 -4.5587
 6807SOL     OW31879   3.434   3.365   8.956 -0.5818  0.0415  0.8443
 6807SOL    HW131880   3.398   3.445   8.996 -1.4317  0.1597 -0.1595
 6807SOL    HW231881   3.453   3.305   9.028 -1.6999 -0.1488  0.9903
 6808SOL     OW31882   0.131   1.002   7.219 -0.3872  0.0507 -0.1147
 6808SOL    HW131883   0.039   0.984   7.238 -0.2100 -0.7019  0.0213
 6808SOL    HW231884   0.160   1.027   7.307  1.9378  1.0661 -1.1809
 6809SOL     OW31885   2.971   2.442   8.118 -0.1857  0.1815 -0.1071
 6809SOL    HW131886   3.022   2.365   8.143 -0.6781 -0.5812 -1.4394
 6809SOL    HW231887   2.962   2.486   8.203  0.5320  1.9871 -0.9679
 6810SOL     OW31888   2.559   2.725   3.531 -0.0131 -0.3224  0.0492
 6810SOL    HW131889   2.495   2.796   3.522 -1.3902 -1.8498 -2.1473
 6810SOL    HW231890   2.640   2.776   3.523 -0.9130  1.0299 -0.6504
 6811SOL     OW31891   3.391   0.238   7.093 -0.1015  0.2070  0.0260
 6811SOL    HW131892   3.481   0.270   7.089  0.3531 -1.1242 -0.1745
 6811SOL    HW231893   3.359   0.206   7.009  0.0830  0.5042 -0.1575
 6812SOL     OW31894   3.499   0.940  16.988 -0.4582 -0.1056 -0.4216
 6812SOL    HW131895   3.578   0.992  16.976 -0.2666 -0.1868  0.5023
 6812SOL    HW231896   3.456   0.957  16.905  1.1744  0.1758 -1.2027
 6813SOL     OW31897   3.308   0.884  16.792 -0.5137 -0.5832  0.2934
 6813SOL    HW131898   3.324   0.969  16.750  1.5475 -0.9198  0.4156
 6813SOL    HW231899   3.301   0.821  16.721 -1.7795 -0.8851  0.6781
 6814SOL     OW31900   3.676   1.168   8.376 -0.4675  0.2776  0.1799
 6814SOL    HW131901   3.701   1.206   8.461  0.8692  0.9499 -0.5191
 6814SOL    HW231902   3.591   1.208   8.359 -0.9124 -0.3204  0.9798
 6815SOL     OW31903   1.378   1.014   2.652 -0.0170  0.3092 -0.2624
 6815SOL    HW131904   1.349   0.927   2.678  0.7593  0.6394  1.6794
 6815SOL    HW231905   1.383   1.003   2.557  1.2282 -1.0672 -0.0338
 6816SOL     OW31906   4.481   4.203   2.035  0.5014  0.4101 -0.3957
 6816SOL    HW131907   4.502   4.167   1.948 -2.1438 -0.8484 -0.5232
 6816SOL    HW231908   4.566   4.182   2.075  0.7664  0.0830 -1.1021
 6817SOL     OW31909   2.420   3.436   0.146  0.7184  0.1770  0.1265
 6817SOL    HW131910   2.355   3.435   0.216  0.1863 -0.0675 -0.3715
 6817SOL    HW231911   2.419   3.343   0.123 -0.5200  0.1054  0.4581
 6818SOL     OW31912   3.405   3.065  11.635  0.0698  0.2987 -0.3800
 6818SOL    HW131913   3.350   3.025  11.567  2.0231  2.3015 -3.1404
 6818SOL    HW231914   3.485   3.014  11.626 -1.1606 -1.7362  0.1503
 6819SOL     OW31915   0.133   2.835  17.125 -0.2767  0.2798 -0.2929
 6819SOL    HW131916   0.188   2.904  17.087  0.9965 -0.1058  0.8208
 6819SOL    HW231917   0.172   2.815  17.211  2.8618  1.9370 -1.3680
 6820SOL     OW31918   2.369   1.266  13.584 -0.4111 -0.2363 -0.1585
 6820SOL    HW131919   2.439   1.201  13.585  0.5083  0.7468 -0.2968
 6820SOL    HW231920   2.416   1.347  13.565  0.3192 -0.3850  1.0567
 6821SOL     OW31921   1.871   4.119   3.417  0.0179 -0.1156 -0.2219
 6821SOL    HW131922   1.909   4.033   3.435 -0.3259 -0.0515  0.8230
 6821SOL    HW231923   1.850   4.143   3.507  1.6419 -2.6404  0.8509
 6822SOL     OW31924   1.114   1.720   4.098 -0.1846 -0.3517  0.0622
 6822SOL    HW131925   1.207   1.711   4.079 -0.3408  0.5842 -1.1195
 6822SOL    HW231926   1.075   1.681   4.020 -0.0328  0.3069 -0.3345
 6823SOL     OW31927   0.778   2.081   4.716 -0.1543 -0.1296 -0.0406
 6823SOL    HW131928   0.741   2.147   4.775  0.1370  1.0332 -1.1600
 6823SOL    HW231929   0.862   2.124   4.703  0.4129 -1.1552  0.2451
 6824SOL     OW31930   3.382   0.523   6.462 -0.1410 -0.2251  0.1616
 6824SOL    HW131931   3.305   0.479   6.497  0.3305 -1.5354 -0.4445
 6824SOL    HW231932   3.445   0.458   6.492 -1.7217 -0.7539  2.2654
 6825SOL     OW31933   3.343   3.514  15.502 -0.5763  0.1894  0.3215
 6825SOL    HW131934   3.360   3.600  15.463 -0.8443 -0.8259 -2.0599
 6825SOL    HW231935   3.311   3.481  15.418 -0.9336 -0.6409  0.7944
 6826SOL     OW31936   0.206   0.578   3.726  0.4845 -0.5810  0.7143
 6826SOL    HW131937   0.222   0.496   3.774 -0.3349 -2.6271 -2.5146
 6826SOL    HW231938   0.276   0.567   3.661 -0.3274 -0.0799 -0.2402
 6827SOL     OW31939   2.577   2.338   3.969  0.4742  0.1283  0.1124
 6827SOL    HW131940   2.609   2.410   4.023  2.1347  0.1448 -0.8850
 6827SOL    HW231941   2.582   2.383   3.884 -1.9315 -0.2565 -0.2550
 6828SOL     OW31942   2.570   3.772   0.212 -0.1587  0.1424  0.2952
 6828SOL    HW131943   2.556   3.731   0.297 -0.4386  1.4031  0.8587
 6828SOL    HW231944   2.523   3.854   0.230 -1.7595 -0.7012 -0.1137
 6829SOL     OW31945   4.077   3.190   1.994 -0.4984  0.3882 -0.2742
 6829SOL    HW131946   4.024   3.152   1.924 -0.8799 -1.3428  0.9393
 6829SOL    HW231947   4.153   3.233   1.954 -0.0927 -2.0191 -2.0825
 6830SOL     OW31948   4.533   1.624   6.865 -0.3295 -0.3868  0.4587
 6830SOL    HW131949   4.573   1.647   6.781 -0.6889 -0.7930  0.1777
 6830SOL    HW231950   4.535   1.529   6.870 -2.1062 -0.4205  0.2689
 6831SOL     OW31951   2.780   4.725   4.165  0.0401  0.2554 -0.3048
 6831SOL    HW131952   2.835   4.725   4.088 -1.2501  0.3372 -1.2313
 6831SOL    HW231953   2.764   4.631   4.175  1.6147 -0.1184 -1.3374
 6832SOL     OW31954   1.514   2.199   4.929 -0.3277 -0.3246  0.0978
 6832SOL    HW131955   1.466   2.118   4.910 -0.8537  0.3627 -1.4701
 6832SOL    HW231956   1.445   2.243   4.978  0.9909  1.6659  0.1380
 6833SOL     OW31957   2.347   3.431   9.911 -0.5433 -0.1747 -0.3697
 6833SOL    HW131958   2.312   3.520   9.906  0.0838  0.1419  0.9973
 6833SOL    HW231959   2.368   3.417  10.003  0.6742  0.7278 -0.5022
 6834SOL     OW31960   1.458   0.988   8.913 -0.4259  0.7049 -0.1831
 6834SOL    HW131961   1.484   0.896   8.911  2.6321  1.4956  2.4506
 6834SOL    HW231962   1.368   0.990   8.883 -0.8689 -2.8022  0.9205
 6835SOL     OW31963   0.251   1.287   6.625  0.6002  0.0140 -0.0807
 6835SOL    HW131964   0.180   1.244   6.577  0.5092  0.1994 -0.1114
 6835SOL    HW231965   0.272   1.221   6.691 -3.0458 -0.1975  0.8686
 6836SOL     OW31966   0.576   2.341   3.699  0.8764  0.3145 -0.0889
 6836SOL    HW131967   0.639   2.271   3.715  0.8434  0.1743 -0.5861
 6836SOL    HW231968   0.498   2.302   3.738  1.1071 -0.4748 -0.4221
 6837SOL     OW31969   4.279   0.786   4.500 -0.1880 -0.1421 -0.1880
 6837SOL    HW131970   4.301   0.767   4.408  0.8232 -0.0254  0.0297
 6837SOL    HW231971   4.335   0.864   4.507 -0.0755 -0.2118 -0.3031
 6838SOL     OW31972   4.328   2.134  17.190  0.3198 -0.2011 -0.4115
 6838SOL    HW131973   4.420   2.114  17.176  0.1053 -1.5352  0.0563
 6838SOL    HW231974   4.328   2.230  17.188 -1.4792 -0.1760  0.1179
 6839SOL     OW31975   0.803   2.663   6.070  0.0991  0.4545 -0.5688
 6839SOL    HW131976   0.897   2.664   6.086  0.0939 -1.2176 -0.4219
 6839SOL    HW231977   0.767   2.677   6.158  2.3068  1.3431  0.1991
 6840SOL     OW31978   2.001   4.684   7.274 -0.6145  0.0399 -0.8787
 6840SOL    HW131979   1.918   4.651   7.241 -0.9095 -0.7852  0.6709
 6840SOL    HW231980   1.968   0.009   7.347  1.7780 -1.2914  1.1934
 6841SOL     OW31981   4.087   1.800   3.915  0.0328 -0.5697  0.1889
 6841SOL    HW131982   3.994   1.821   3.913  0.1169 -0.2452 -0.3915
 6841SOL    HW231983   4.126   1.863   3.975  0.2805 -0.6059  0.0698
 6842SOL     OW31984   0.653   1.232  11.240 -0.3413  0.1443 -0.5307
 6842SOL    HW131985   0.598   1.305  11.214 -0.7700 -0.1580 -0.4595
 6842SOL    HW231986   0.685   1.270  11.322  3.3316  0.2252 -1.9680
 6843SOL     OW31987   3.701   4.698   3.381 -0.3080  0.0610  0.5148
 6843SOL    HW131988   3.764   0.004   3.317 -1.0046 -1.8805 -1.1621
 6843SOL    HW231989   3.630   4.669   3.325 -0.0950  1.6357 -0.5984
 6844SOL     OW31990   4.422   3.057   2.621 -0.0386  0.6304 -0.4052
 6844SOL    HW131991   4.505   3.050   2.668 -0.1733  1.4058 -0.0523
 6844SOL    HW231992   4.433   3.057   2.526 -1.7476 -1.2224 -0.5978
 6845SOL     OW31993   2.149   2.605   4.702  0.0593 -0.3783 -0.1356
 6845SOL    HW131994   2.243   2.619   4.692 -0.3744  1.2107 -2.1237
 6845SOL    HW231995   2.115   2.695   4.696  1.1298 -0.0567 -1.5072
 6846SOL     OW31996   2.661   2.079   5.837  0.0944  0.5750  0.0556
 6846SOL    HW131997   2.615   2.014   5.785 -0.7084  0.6304  0.6963
 6846SOL    HW231998   2.755   2.068   5.821  0.4275  0.5084  2.0421
 6847SOL     OW31999   0.408   0.562   5.009  0.3239  0.3298 -0.1196
 6847SOL    HW132000   0.364   0.569   4.924 -0.1823  0.8805  0.1808
 6847SOL    HW232001   0.336   0.549   5.071 -0.2235 -0.4600 -0.9249
 6848SOL     OW32002   0.248   0.427  15.683  0.2978 -0.4271  0.2852
 6848SOL    HW132003   0.154   0.413  15.665 -0.2141  1.6442  1.3983
 6848SOL    HW232004   0.264   0.359  15.749 -3.2788 -0.8892  0.6849
 6849SOL     OW32005   3.457   4.677  11.485  0.3475  0.3038  0.1942
 6849SOL    HW132006   3.475   4.585  11.504  0.3627 -0.1211 -1.8489
 6849SOL    HW232007   3.403   4.706  11.558 -0.2780  1.0071 -0.5392
 6850SOL     OW32008   0.019   0.002  15.656  0.3300 -0.5573  0.5590
 6850SOL    HW132009   4.666   4.679  15.668 -0.7980  1.0633 -0.0790
 6850SOL    HW232010   0.052   4.715  15.745 -0.5833  1.6549  1.2594
 6851SOL     OW32011   0.155   0.098   0.356 -0.5127  0.4187 -0.1229
 6851SOL    HW132012   0.089   0.101   0.425  0.1904  2.2737  0.4620
 6851SOL    HW232013   0.217   0.158   0.396  0.9133 -0.6912 -0.6780
 6852SOL     OW32014   4.102   3.345   4.327  0.0693  0.0689 -0.1302
 6852SOL    HW132015   4.065   3.434   4.325 -0.5495 -0.2123 -1.0513
 6852SOL    HW232016   4.080   3.315   4.239  0.3961 -2.9414  0.8163
 6853SOL     OW32017   4.624   0.027   5.026 -0.1030 -0.9923  0.3231
 6853SOL    HW132018   4.668   4.726   4.945 -0.5862 -0.1489 -0.2373
 6853SOL    HW232019   4.603   4.668   5.061 -0.3523 -0.1865  2.1423
 6854SOL     OW32020   2.895   3.332   4.933  0.2338 -0.5814 -0.2531
 6854SOL    HW132021   2.953   3.257   4.918 -1.1534 -1.2165 -2.5274
 6854SOL    HW232022   2.917   3.356   5.022 -2.3348 -2.0078  0.7760
 6855SOL     OW32023   0.203   1.473  12.172 -0.2953  0.0005 -0.2251
 6855SOL    HW132024   0.127   1.455  12.118 -1.0844  0.9940  0.5599
 6855SOL    HW232025   0.167   1.551  12.213  1.6964  0.2315  1.1125
 6856SOL     OW32026   1.094   1.720  14.554 -0.0545  0.6379 -0.2585
 6856SOL    HW132027   1.067   1.629  14.565  1.6998  0.2475  0.7344
 6856SOL    HW232028   1.090   1.731  14.459 -0.5725  0.7781 -0.2215
 6857SOL     OW32029   1.239   1.988   8.651 -0.1103  0.9113 -0.2510
 6857SOL    HW132030   1.186   1.931   8.705  0.3991  1.1291  0.4836
 6857SOL    HW232031   1.190   2.067   8.673  0.3113  0.6753  1.5646
 6858SOL     OW32032   3.583   3.597   7.322  0.2169  0.0398 -0.9833
 6858SOL    HW132033   3.675   3.625   7.329 -0.2436  0.4907  3.0832
 6858SOL    HW232034   3.561   3.632   7.408  0.8870  0.1053 -0.8343
 6859SOL     OW32035   2.211   3.593  13.087 -0.0150 -0.0262  0.1113
 6859SOL    HW132036   2.136   3.652  13.092 -1.4564 -1.7519 -0.8781
 6859SOL    HW232037   2.220   3.582  12.992 -1.4247 -1.8652  0.1893
 6860SOL     OW32038   2.479   1.261   6.893  0.0738  0.6034 -0.0035
 6860SOL    HW132039   2.500   1.172   6.865 -0.6710 -0.5628  3.2451
 6860SOL    HW232040   2.544   1.315   6.847  1.0743  1.2672  2.2223
 6861SOL     OW32041   2.276   1.616   7.167 -0.7015  0.1631  0.0420
 6861SOL    HW132042   2.222   1.550   7.211 -0.6261  0.1724  0.1495
 6861SOL    HW232043   2.349   1.615   7.228 -2.2727 -1.2886  1.8906
 6862SOL     OW32044   0.912   4.320   4.908  0.7103 -0.3236  0.1368
 6862SOL    HW132045   0.960   4.380   4.965 -0.3388 -0.8002  1.5242
 6862SOL    HW232046   0.962   4.330   4.827 -1.9488 -0.6234 -1.5444
 6863SOL     OW32047   3.543   4.669  10.614 -0.2263  0.5793 -0.4897
 6863SOL    HW132048   3.580   4.662  10.526  0.2335 -2.3528 -0.0628
 6863SOL    HW232049   3.615   4.708  10.663 -0.5658  1.9059 -1.0546
 6864SOL     OW32050   3.624   2.270   3.103 -0.0831 -0.5145 -0.0508
 6864SOL    HW132051   3.632   2.261   3.198 -3.3383  0.7569  0.3211
 6864SOL    HW232052   3.665   2.355   3.085 -1.8357  0.0769 -1.2532
 6865SOL     OW32053   0.274   1.137   6.890 -0.4396 -0.1556 -0.2495
 6865SOL    HW132054   0.207   1.072   6.868 -1.4836  1.2121 -1.0834
 6865SOL    HW232055   0.342   1.081   6.928 -2.6616 -2.7604 -0.1688
 6866SOL     OW32056   3.483   2.818  16.499  0.0274 -0.0047  0.1039
 6866SOL    HW132057   3.511   2.785  16.413 -1.6343 -0.0975 -0.4052
 6866SOL    HW232058   3.456   2.738  16.544 -1.1276  0.0892 -0.4346
 6867SOL     OW32059   4.100   3.052   4.607  0.2441  0.2332 -1.1845
 6867SOL    HW132060   4.095   3.147   4.596  1.0056  0.3489 -0.5391
 6867SOL    HW232061   4.171   3.039   4.671 -0.6835 -3.6436 -0.9391
 6868SOL     OW32062   2.488   1.319   1.731  0.3086 -0.4688  0.1687
 6868SOL    HW132063   2.520   1.383   1.667  1.1462 -0.4784  0.5796
 6868SOL    HW232064   2.466   1.378   1.803  3.0097 -0.7844  1.2371
 6869SOL     OW32065   3.112   3.608   4.020  0.0483  0.1639 -0.0530
 6869SOL    HW132066   3.153   3.652   4.094 -0.5839 -0.2908  0.5775
 6869SOL    HW232067   3.138   3.519   4.043  0.4808  0.6535  1.3492
 6870SOL     OW32068   2.824   3.349  16.278  0.0184  0.4802 -0.2414
 6870SOL    HW132069   2.752   3.305  16.323  1.5152 -2.2858 -0.5532
 6870SOL    HW232070   2.789   3.344  16.189  0.1005  1.6586 -0.3344
 6871SOL     OW32071   4.220   0.509  12.944 -0.3142 -0.4694  0.3819
 6871SOL    HW132072   4.227   0.583  12.883  1.9939 -1.1124 -0.1553
 6871SOL    HW232073   4.157   0.461  12.891 -0.5635 -1.1434  1.2887
 6872SOL     OW32074   0.032   4.043   6.302 -0.2036 -0.3124 -0.2574
 6872SOL    HW132075   4.718   3.967   6.261  1.0673 -0.5177 -1.1675
 6872SOL    HW232076   4.703   4.050   6.379 -1.2333 -2.0263 -0.8513
 6873SOL     OW32077   1.428   1.359   5.760 -0.2593  0.1260  0.3197
 6873SOL    HW132078   1.376   1.281   5.738  0.7894 -0.2158 -0.9497
 6873SOL    HW232079   1.381   1.389   5.837 -1.1859  0.9445 -0.5613
 6874SOL     OW32080   4.686   0.166   5.346 -0.2880  0.1240 -0.8420
 6874SOL    HW132081   4.622   0.225   5.385 -0.0159 -0.9902  1.3430
 6874SOL    HW232082   4.666   0.178   5.254  0.8116 -0.0159 -1.1009
 6875SOL     OW32083   1.776   3.283   7.907 -0.5606  0.3944 -0.1319
 6875SOL    HW132084   1.730   3.363   7.882  2.2754  1.3710 -2.1888
 6875SOL    HW232085   1.805   3.249   7.823 -0.7525  1.7394 -0.7441
 6876SOL     OW32086   1.187   3.088   4.346 -0.1981 -0.1856  0.5482
 6876SOL    HW132087   1.131   3.123   4.277 -1.2922 -0.0661  1.4895
 6876SOL    HW232088   1.247   3.033   4.297 -0.8312 -0.6103  0.2549
 6877SOL     OW32089   4.490   3.702  16.781 -0.5442  0.4763 -0.3183
 6877SOL    HW132090   4.525   3.776  16.831  0.9644 -0.2905 -0.2292
 6877SOL    HW232091   4.428   3.751  16.727  0.5892 -0.7446 -2.7566
 6878SOL     OW32092   4.724   1.184   4.374  0.5002  0.3594 -0.7055
 6878SOL    HW132093   0.086   1.204   4.403  0.7631 -0.8891 -0.6480
 6878SOL    HW232094   4.707   1.112   4.434 -1.0922 -1.3610 -3.2452
 6879SOL     OW32095   0.041   4.542   4.841  0.5561 -0.5724  0.1216
 6879SOL    HW132096   0.084   4.462   4.873  1.9589  0.0474 -0.1786
 6879SOL    HW232097   0.121   4.584   4.809 -0.4781  0.9990 -0.3656
 6880SOL     OW32098   4.565   2.079  14.831  0.3574  0.1363 -0.1663
 6880SOL    HW132099   4.475   2.089  14.863 -0.7363 -1.7424 -2.6625
 6880SOL    HW232100   4.561   1.988  14.802 -0.3394  0.2022 -0.2926
 6881SOL     OW32101   1.417   4.606   2.380 -0.5870  0.5159  0.0513
 6881SOL    HW132102   1.389   4.642   2.296 -0.8022 -2.2479 -1.0422
 6881SOL    HW232103   1.462   4.528   2.347 -0.6726 -0.3954  2.0735
 6882SOL     OW32104   4.048   3.216   9.213 -0.0799  0.8464 -0.0649
 6882SOL    HW132105   3.962   3.181   9.187 -0.5355  1.3228  0.8084
 6882SOL    HW232106   4.070   3.250   9.126  0.8624  2.0841  0.6680
 6883SOL     OW32107   3.541   2.790  10.158  0.3660 -0.0450 -0.6278
 6883SOL    HW132108   3.586   2.721  10.108 -0.5169  0.3090 -1.9041
 6883SOL    HW232109   3.591   2.787  10.239  0.9446  0.7019 -0.9533
 6884SOL     OW32110   3.420   3.692  17.346 -0.2575  0.4793 -0.8762
 6884SOL    HW132111   3.327   3.699  17.365 -0.4234 -1.4762 -0.9154
 6884SOL    HW232112   3.423   3.631  17.273  0.5531 -0.4424 -0.0752
 6885SOL     OW32113   1.444   3.055   5.005  0.0176  0.0880  0.1979
 6885SOL    HW132114   1.535   3.031   4.987 -0.2963 -0.0164 -1.3023
 6885SOL    HW232115   1.395   3.006   4.938 -0.1884  3.1922 -1.9387
 6886SOL     OW32116   3.180   4.664   8.664 -0.2654 -0.3892  0.5073
 6886SOL    HW132117   3.199   0.020   8.621  1.6206 -0.0517  2.0166
 6886SOL    HW232118   3.110   4.687   8.725  0.5810 -2.1335  2.1298
 6887SOL     OW32119   1.739   0.191   4.768  0.3305 -0.2311 -0.0203
 6887SOL    HW132120   1.819   0.196   4.822 -0.4868  3.7643  0.8119
 6887SOL    HW232121   1.725   0.097   4.772 -0.3435 -0.0849  1.2189
 6888SOL     OW32122   3.859   2.105   4.503 -0.4018 -0.3588 -0.4171
 6888SOL    HW132123   3.794   2.084   4.436 -0.4707 -0.0658 -0.4432
 6888SOL    HW232124   3.893   2.187   4.466  0.2368  0.6219  2.3424
 6889SOL     OW32125   2.112   3.547   4.549  0.2737  0.6124  0.4731
 6889SOL    HW132126   2.086   3.635   4.573  3.0418  0.8100  2.7546
 6889SOL    HW232127   2.036   3.521   4.496  1.2144  0.5305 -0.8570
 6890SOL     OW32128   2.072   2.996  13.299 -0.2091 -0.6331 -0.5010
 6890SOL    HW132129   2.134   3.069  13.306 -0.2800 -0.2002 -4.0483
 6890SOL    HW232130   1.989   3.040  13.319 -1.0140 -1.0681 -2.8275
 6891SOL     OW32131   3.598   0.587  14.738 -0.0558  0.1135  0.3259
 6891SOL    HW132132   3.519   0.541  14.765 -0.4406  0.7134  0.2433
 6891SOL    HW232133   3.660   0.524  14.773  0.1537  0.6555  0.9405
 6892SOL     OW32134   4.011   4.724  17.094  0.6064 -0.2033 -0.0651
 6892SOL    HW132135   4.034   0.079  17.136  1.3023 -1.0432  1.1986
 6892SOL    HW232136   3.957   0.040  17.028  2.1835 -0.7838 -1.7520
 6893SOL     OW32137   4.258   0.259   8.116  0.1439 -0.8033 -0.0917
 6893SOL    HW132138   4.304   0.184   8.152  0.8070  0.2999  1.3574
 6893SOL    HW232139   4.190   0.213   8.066  0.3715 -0.7428 -0.4616
 6894SOL     OW32140   1.640   0.677   6.793  0.0655 -0.0088 -0.4041
 6894SOL    HW132141   1.703   0.714   6.855 -1.5590 -1.1389  1.9492
 6894SOL    HW232142   1.664   0.584   6.802  0.4401  0.1942  0.6613
 6895SOL     OW32143   3.657   0.376   0.562  0.8728  0.1667 -0.0049
 6895SOL    HW132144   3.591   0.394   0.495  0.3170  0.3885  0.6080
 6895SOL    HW232145   3.610   0.318   0.622  1.5322 -0.7443 -0.3543
 6896SOL     OW32146   3.032   3.675  12.995  0.2726 -0.4349 -0.0720
 6896SOL    HW132147   3.098   3.739  12.969 -0.3918  0.8757  1.5157
 6896SOL    HW232148   3.066   3.654  13.082 -0.1338  0.2060  0.2366
 6897SOL     OW32149   2.534   0.063   3.340  0.2807  0.1616  0.1925
 6897SOL    HW132150   2.454   0.102   3.373 -0.3593 -1.3260  0.3809
 6897SOL    HW232151   2.505   0.049   3.250  1.9834  3.0180 -0.8253
 6898SOL     OW32152   2.330   2.111   3.632  0.3478 -0.1493 -0.3909
 6898SOL    HW132153   2.294   2.025   3.611  1.2541 -0.6697  0.2342
 6898SOL    HW232154   2.277   2.136   3.708  1.3648  1.7999 -0.3200
 6899SOL     OW32155   0.920   1.020  10.677  0.4173  0.2746  0.4769
 6899SOL    HW132156   1.003   1.066  10.692  1.7681 -2.6862  1.9237
 6899SOL    HW232157   0.873   1.086  10.625 -0.1554 -1.7600 -1.5719
 6900SOL     OW32158   2.198   2.855   2.409  0.1808  0.2551  0.2049
 6900SOL    HW132159   2.251   2.817   2.339 -2.1635 -1.1303 -0.8203
 6900SOL    HW232160   2.236   2.942   2.416 -2.9105  1.5465  1.2210
 6901SOL     OW32161   2.853   0.716   8.670 -0.3200 -0.0241 -0.1174
 6901SOL    HW132162   2.848   0.790   8.731 -1.1477 -0.5300  0.4218
 6901SOL    HW232163   2.844   0.778   8.598  0.6405 -0.7459 -0.8551
 6902SOL     OW32164   4.309   3.542   8.900  0.1399 -0.0651  0.3460
 6902SOL    HW132165   4.380   3.602   8.922  1.1407 -1.2085  0.2653
 6902SOL    HW232166   4.240   3.571   8.960 -0.5776 -0.1021 -0.4549
 6903SOL     OW32167   1.306   1.348   7.415  0.6622 -0.6745 -0.3692
 6903SOL    HW132168   1.227   1.356   7.468  2.3209 -1.6070  2.2336
 6903SOL    HW232169   1.360   1.307   7.481 -0.8956  0.1510  1.4213
 6904SOL     OW32170   3.787   3.449   8.461  0.5444 -0.2930  0.1911
 6904SOL    HW132171   3.745   3.428   8.377  0.9183 -1.6630  0.3494
 6904SOL    HW232172   3.811   3.361   8.490  2.9541  0.4558  0.4024
 6905SOL     OW32173   2.497   1.952   6.572 -0.1262 -0.1681 -0.1479
 6905SOL    HW132174   2.456   2.011   6.509 -1.1439 -0.2633  0.4207
 6905SOL    HW232175   2.499   2.012   6.645  1.8818 -1.6673  1.0243
 6906SOL     OW32176   2.042   2.379   2.780 -0.1917 -0.5924  0.1863
 6906SOL    HW132177   2.109   2.440   2.811  0.5438  0.7841 -4.0725
 6906SOL    HW232178   2.087   2.300   2.752  0.4685  0.5192 -1.9209
 6907SOL     OW32179   2.680   1.154   8.438 -0.7926 -0.7105 -0.1219
 6907SOL    HW132180   2.635   1.227   8.480 -0.4144  1.7202 -3.8931
 6907SOL    HW232181   2.619   1.126   8.369 -0.4195 -1.1040 -0.2897
 6908SOL     OW32182   2.404   0.120  11.502 -0.7361 -0.7624 -0.1656
 6908SOL    HW132183   2.339   0.082  11.443  0.0854 -0.4125 -1.2970
 6908SOL    HW232184   2.477   0.060  11.483 -0.1021 -0.2067  0.5143
 6909SOL     OW32185   2.981   1.963   1.728 -0.5560 -0.5153  0.0538
 6909SOL    HW132186   3.014   2.012   1.653 -0.7616  0.5324  0.6491
 6909SOL    HW232187   3.014   2.016   1.800 -1.6338  0.5311 -0.2327
 6910SOL     OW32188   3.595   0.069   0.351 -0.1094  0.3280 -0.7198
 6910SOL    HW132189   3.589   0.028   0.438  0.5989 -1.4029 -1.4918
 6910SOL    HW232190   3.535   0.141   0.370 -0.2240  0.0768 -0.1066
 6911SOL     OW32191   2.741   1.863   6.606 -0.4172  0.6695 -0.5061
 6911SOL    HW132192   2.809   1.916   6.565 -1.2865  0.2434 -2.4738
 6911SOL    HW232193   2.655   1.883   6.571  0.2583  2.8441 -0.8819
 6912SOL     OW32194   2.943   3.384   1.360 -0.0862 -0.2990  0.2698
 6912SOL    HW132195   2.854   3.378   1.396  0.0102  0.2762  0.5994
 6912SOL    HW232196   2.938   3.316   1.292 -0.3899  1.5727 -1.5557
 6913SOL     OW32197   2.721   2.460   6.081  0.1529  0.1037  0.1607
 6913SOL    HW132198   2.667   2.523   6.034 -0.7024 -1.3444 -0.7933
 6913SOL    HW232199   2.781   2.520   6.126 -1.4220  1.1050  0.9346
 6914SOL     OW32200   3.519   1.335   5.461 -0.7540 -0.2725 -0.1363
 6914SOL    HW132201   3.553   1.402   5.402 -1.8369  1.2527  0.9634
 6914SOL    HW232202   3.425   1.354   5.463 -0.9259 -1.0575 -0.9434
 6915SOL     OW32203   1.462   0.681   8.356  0.0712 -0.8833 -0.4808
 6915SOL    HW132204   1.472   0.658   8.448  0.4728  1.2487 -0.0000
 6915SOL    HW232205   1.369   0.689   8.335  0.3521  1.8547 -0.6573
 6916SOL     OW32206   0.823   4.434   7.388  0.0657  0.2462 -0.0784
 6916SOL    HW132207   0.745   4.419   7.440  1.0621  1.4561  1.7555
 6916SOL    HW232208   0.833   4.360   7.329  3.3302  0.0910  0.6683
 6917SOL     OW32209   4.647   1.399   5.066 -0.1100  0.1885  0.5535
 6917SOL    HW132210   4.724   1.356   5.103 -0.9263  0.2262  2.2874
 6917SOL    HW232211   4.679   1.486   5.043 -3.2375  1.8559  2.5380
 6918SOL     OW32212   4.326   0.293   4.876 -0.3101  0.0892 -0.2392
 6918SOL    HW132213   4.290   0.232   4.812  1.4001 -2.1284  0.8976
 6918SOL    HW232214   4.248   0.339   4.906 -1.2788 -1.0501 -1.0201
 6919SOL     OW32215   2.753   4.613   3.115 -0.2429 -0.1366 -0.7193
 6919SOL    HW132216   2.827   4.552   3.104  1.2063  1.3499  0.7435
 6919SOL    HW232217   2.692   4.543   3.139  0.5588 -0.0867  1.4477
 6920SOL     OW32218   0.133   1.090  10.217  0.1103  0.0900 -0.0315
 6920SOL    HW132219   0.181   1.034  10.156  0.7441 -0.1559  0.6907
 6920SOL    HW232220   0.151   1.034  10.292  0.7604  3.1920  2.1174
 6921SOL     OW32221   3.310   4.396  11.286 -0.4506  0.1108 -0.5261
 6921SOL    HW132222   3.241   4.359  11.231  0.2991 -1.5284 -0.3716
 6921SOL    HW232223   3.320   4.484  11.250 -1.7690 -0.2520 -1.7839
 6922SOL     OW32224   4.443   2.194   2.358 -0.7981 -0.2488 -0.3141
 6922SOL    HW132225   4.438   2.285   2.329 -0.7321  0.5174  2.0461
 6922SOL    HW232226   4.429   2.160   2.270 -1.5101 -1.2950  0.2035
 6923SOL     OW32227   3.902   2.585   7.314 -0.3454  0.0815  0.5055
 6923SOL    HW132228   3.862   2.656   7.264  0.6379  0.7806  0.7153
 6923SOL    HW232229   3.848   2.509   7.292 -2.6410  1.7575  0.3290
 6924SOL     OW32230   4.387   0.077   3.880  0.3624 -0.2887 -0.4283
 6924SOL    HW132231   4.347   0.116   3.803 -0.1700  2.8918  1.4623
 6924SOL    HW232232   4.352   0.139   3.944 -1.0785 -1.2169 -0.3093
 6925SOL     OW32233   3.171   2.194   2.643 -0.1820 -0.5005  0.2757
 6925SOL    HW132234   3.170   2.129   2.573  1.6262  0.2845 -0.5024
 6925SOL    HW232235   3.096   2.162   2.692 -0.1293 -0.1569  0.5800
 6926SOL     OW32236   1.971   0.143   7.503  0.7779  0.1208 -0.2099
 6926SOL    HW132237   1.952   0.220   7.557 -0.6257  0.3506 -1.0255
 6926SOL    HW232238   2.066   0.145   7.505  0.7796 -0.2430  0.3210
 6927SOL     OW32239   2.475   1.761   5.785  0.2364 -0.0841 -0.2615
 6927SOL    HW132240   2.445   1.686   5.733  1.1319  0.8889 -2.1499
 6927SOL    HW232241   2.475   1.734   5.877  1.2620 -1.4905 -0.6745
 6928SOL     OW32242   1.193   4.038   1.970  0.8790  0.2440 -0.2553
 6928SOL    HW132243   1.206   4.086   2.052  0.5136  0.1059 -0.1159
 6928SOL    HW232244   1.150   4.107   1.920 -2.4562 -1.1940  0.6366
 6929SOL     OW32245   2.763   0.509   6.980 -0.0224 -0.2545  0.5887
 6929SOL    HW132246   2.761   0.594   7.025  0.1858 -0.3219  0.7243
 6929SOL    HW232247   2.671   0.485   6.968  0.2439  0.5728 -3.3302
 6930SOL     OW32248   1.489   0.684  14.042 -0.0086 -0.2227 -0.5748
 6930SOL    HW132249   1.530   0.769  14.028  0.5332 -0.0463  2.0604
 6930SOL    HW232250   1.397   0.707  14.055  0.5310  0.9460  1.1888
 6931SOL     OW32251   1.748   4.018   7.630 -0.3281 -0.6390  0.0254
 6931SOL    HW132252   1.769   4.103   7.590 -2.7341 -1.3968 -2.8329
 6931SOL    HW232253   1.836   3.990   7.656  0.0051  2.8507  2.6794
 6932SOL     OW32254   4.377   3.209  13.623 -0.1045  0.3399  0.0734
 6932SOL    HW132255   4.436   3.252  13.684 -0.1928  0.5740 -0.0048
 6932SOL    HW232256   4.345   3.130  13.665  0.4096  1.2864  2.2124
 6933SOL     OW32257   2.877   2.227   4.366 -0.1834 -0.4207 -0.0066
 6933SOL    HW132258   2.837   2.313   4.383  1.5002  0.0300  1.7744
 6933SOL    HW232259   2.894   2.207   4.458 -2.0060  1.2851  0.6980
 6934SOL     OW32260   0.275   3.421   7.918  0.4933 -0.3473  0.3362
 6934SOL    HW132261   0.221   3.493   7.951 -0.5372 -1.3784  0.8879
 6934SOL    HW232262   0.206   3.372   7.873  0.5508  0.5853 -0.7860
 6935SOL     OW32263   1.035   2.685   2.596  0.3975 -0.5103 -0.5194
 6935SOL    HW132264   1.058   2.593   2.601 -0.1156 -0.6592 -0.8731
 6935SOL    HW232265   1.123   2.721   2.610 -0.1456  0.1678  1.1400
 6936SOL     OW32266   1.079   2.270   0.179 -0.3464 -0.5980 -0.1493
 6936SOL    HW132267   1.122   2.299   0.260  1.2369  0.8530 -1.4996
 6936SOL    HW232268   0.991   2.306   0.187 -0.8185 -1.6673 -0.6738
 6937SOL     OW32269   0.403   2.545   7.367  0.2631 -0.2788  0.5563
 6937SOL    HW132270   0.308   2.536   7.370  0.3292 -0.4543  2.4421
 6937SOL    HW232271   0.416   2.460   7.325 -0.1168 -1.1769  2.2406
 6938SOL     OW32272   0.286   1.828   8.070 -0.5472  0.5205  0.4051
 6938SOL    HW132273   0.280   1.789   8.157  2.7008 -0.5526  0.1616
 6938SOL    HW232274   0.329   1.912   8.090  1.1765 -0.3267  0.3017
 6939SOL     OW32275   0.716   3.258  15.330 -0.0096  0.2730 -0.6581
 6939SOL    HW132276   0.672   3.177  15.357  1.7467 -0.7127 -0.7522
 6939SOL    HW232277   0.638   3.310  15.311 -1.2605 -1.5647 -0.6148
 6940SOL     OW32278   1.049   4.114   7.700 -0.3486  0.0405 -0.8761
 6940SOL    HW132279   1.028   4.206   7.681 -1.3125  0.4945  2.3831
 6940SOL    HW232280   1.014   4.075   7.620  0.5039  1.3621 -1.8941
 6941SOL     OW32281   2.926   3.426   9.351 -0.5254 -0.6390 -0.0212
 6941SOL    HW132282   2.936   3.389   9.439  0.0040  2.6453  1.3031
 6941SOL    HW232283   3.011   3.470   9.346 -1.8392  2.0490  0.7978
 6942SOL     OW32284   1.500   0.428  17.346  0.0487 -0.6004  0.2231
 6942SOL    HW132285   1.556   0.458  17.418  0.9910  0.2187 -0.8669
 6942SOL    HW232286   1.460   0.348  17.381 -0.1052 -0.6839 -0.1475
 6943SOL     OW32287   2.201   2.078   2.721 -0.0051  0.1393  0.6471
 6943SOL    HW132288   2.209   2.021   2.798 -1.6022 -0.7439  0.1522
 6943SOL    HW232289   2.144   2.024   2.667  1.0152 -0.4214  0.1323
 6944SOL     OW32290   4.691   2.787  17.541 -0.3005  0.3931  0.5695
 6944SOL    HW132291   4.662   2.878  17.531 -0.0896  0.5146  1.0683
 6944SOL    HW232292   0.011   2.795  17.624 -0.4816  1.9266  0.5214
 6945SOL     OW32293   0.143   3.851  10.904 -0.6101  0.3418 -0.6576
 6945SOL    HW132294   0.160   3.945  10.896 -1.6825  0.5612 -0.4843
 6945SOL    HW232295   0.230   3.820  10.928  0.0728  2.0313 -0.8935
 6946SOL     OW32296   1.834   1.054   3.369 -0.3946  0.7596 -0.3194
 6946SOL    HW132297   1.770   1.086   3.433 -0.4703 -0.0263 -0.0156
 6946SOL    HW232298   1.881   0.999   3.431 -0.4377  0.4680 -0.5484
 6947SOL     OW32299   1.996   2.024   8.453  0.1331  0.1515 -0.3406
 6947SOL    HW132300   2.058   2.095   8.440 -0.5090  0.6391 -0.7247
 6947SOL    HW232301   1.968   2.047   8.542 -0.6979  0.9886 -0.8198
 6948SOL     OW32302   4.119   3.766   9.645  0.2421 -0.3078 -0.0119
 6948SOL    HW132303   4.055   3.782   9.576  0.3572  1.1507  0.2199
 6948SOL    HW232304   4.079   3.686   9.680  0.6007 -0.8480 -0.8394
 6949SOL     OW32305   0.368   0.870  12.152  0.1235  0.0437  0.4127
 6949SOL    HW132306   0.410   0.892  12.235  0.8948  0.6227 -0.1280
 6949SOL    HW232307   0.364   0.775  12.155 -0.8604  0.1508  2.3105
 6950SOL     OW32308   3.636   3.224  15.135  0.0984 -0.1649  0.0212
 6950SOL    HW132309   3.639   3.131  15.158  0.7278 -0.6781 -2.0581
 6950SOL    HW232310   3.727   3.247  15.112 -0.3505 -0.5118 -2.1145
 6951SOL     OW32311   2.498   0.079  14.408 -0.3764  0.5099  0.1179
 6951SOL    HW132312   2.455   0.022  14.472 -1.7880  0.5775 -0.7658
 6951SOL    HW232313   2.493   0.168  14.444  1.2666  0.5007  0.3908
 6952SOL     OW32314   3.379   1.514   4.420 -0.4464 -0.0379 -0.2444
 6952SOL    HW132315   3.360   1.576   4.349 -1.8225  0.5439  0.6124
 6952SOL    HW232316   3.327   1.443   4.383 -0.0770 -0.8448  0.8189
 6953SOL     OW32317   0.924   3.681  10.263 -0.2287  0.1022  0.7842
 6953SOL    HW132318   0.856   3.694  10.198  1.2309 -1.1501 -1.0044
 6953SOL    HW232319   0.949   3.772  10.278  1.3983 -0.2197  0.0803
 6954SOL     OW32320   2.905   3.899   1.882  0.1783 -0.0990  0.4911
 6954SOL    HW132321   2.886   3.808   1.901 -2.0261  0.3266  0.3543
 6954SOL    HW232322   2.940   3.903   1.793 -0.2913  0.2242  0.3140
 6955SOL     OW32323   1.000   1.573   4.371  0.2035  0.1183 -0.0303
 6955SOL    HW132324   0.925   1.593   4.315  0.6778 -0.3645 -0.8473
 6955SOL    HW232325   1.080   1.598   4.323  0.9426 -1.1083  0.5767
 6956SOL     OW32326   1.703   2.029   6.321 -0.4610  0.7251  0.1540
 6956SOL    HW132327   1.763   1.964   6.357 -1.3368 -0.5617 -0.7178
 6956SOL    HW232328   1.693   2.005   6.229  0.6662  1.3640 -0.1334
 6957SOL     OW32329   3.587   3.605   6.408 -0.0696 -0.2451 -0.4280
 6957SOL    HW132330   3.522   3.597   6.478  0.9725 -0.6408  0.5023
 6957SOL    HW232331   3.583   3.700   6.399 -1.8616 -0.2637  0.2820
 6958SOL     OW32332   1.214   1.349   4.731 -0.2675  0.2760 -0.1479
 6958SOL    HW132333   1.304   1.345   4.700 -1.0329  2.3039 -2.6193
 6958SOL    HW232334   1.218   1.337   4.826 -1.0137  1.0179 -0.0209
 6959SOL     OW32335   2.696   0.663   0.825  0.5299  0.0226  0.3597
 6959SOL    HW132336   2.667   0.732   0.885  1.2138  0.8831 -0.2986
 6959SOL    HW232337   2.756   0.615   0.882 -1.6410 -1.7453  1.1549
 6960SOL     OW32338   0.909   0.973   4.308 -0.2039  0.6156 -0.0984
 6960SOL    HW132339   0.886   0.992   4.399  0.5547  0.2490  0.1744
 6960SOL    HW232340   0.830   0.995   4.259  1.0207 -1.2664 -2.8975
 6961SOL     OW32341   2.108   4.157   6.842  0.3470 -0.4450 -0.3021
 6961SOL    HW132342   2.024   4.137   6.884 -0.5670 -1.1075 -2.4557
 6961SOL    HW232343   2.128   4.248   6.864  0.3418 -0.4345 -0.3414
 6962SOL     OW32344   2.679   2.107   4.020 -0.0959  0.1330  0.1368
 6962SOL    HW132345   2.642   2.190   3.993 -0.9072 -0.2711  0.0101
 6962SOL    HW232346   2.736   2.084   3.947 -0.9051 -2.0033  0.1779
 6963SOL     OW32347   0.169   0.720   4.474 -0.5508 -0.1759  0.1622
 6963SOL    HW132348   0.192   0.630   4.452 -2.6476 -1.2040  2.1013
 6963SOL    HW232349   0.083   0.730   4.434 -0.9771  1.1756  1.3903
 6964SOL     OW32350   2.755   3.266  15.414  0.3365 -0.2213 -0.2782
 6964SOL    HW132351   2.741   3.359  15.396 -1.5941 -0.6384 -0.9106
 6964SOL    HW232352   2.672   3.227  15.388  0.4863 -1.2093  0.7506
 6965SOL     OW32353   3.652   3.483   1.426 -0.4942  0.0526  0.0767
 6965SOL    HW132354   3.582   3.548   1.425 -0.7073 -0.2061 -2.7558
 6965SOL    HW232355   3.717   3.524   1.368 -1.0762  0.3685 -0.3494
 6966SOL     OW32356   0.900   3.977   5.749 -0.0991 -0.1393 -0.0826
 6966SOL    HW132357   0.927   3.971   5.658  0.1922 -1.5742  0.0915
 6966SOL    HW232358   0.955   3.907   5.785  1.4103  0.7566 -0.6690
 6967SOL     OW32359   3.843   3.405  16.996  0.3033  0.2431 -0.1155
 6967SOL    HW132360   3.830   3.447  16.911  0.6391 -0.2933 -0.4289
 6967SOL    HW232361   3.932   3.371  16.996  0.0110 -0.5034 -0.7156
 6968SOL     OW32362   1.330   4.472   0.001 -0.3913 -0.4413  0.2431
 6968SOL    HW132363   1.335   4.387  17.668 -3.3245 -1.4211  1.8506
 6968SOL    HW232364   1.388   4.453   0.074  0.2538  1.1576  0.1337
 6969SOL     OW32365   4.271   1.080   7.097  0.0048  0.1603 -0.3597
 6969SOL    HW132366   4.263   1.174   7.085  0.2329  0.3314  0.8432
 6969SOL    HW232367   4.181   1.056   7.073 -0.1784 -0.3854  0.8521
 6970SOL     OW32368   2.589   0.323   2.143 -0.7495  0.2459 -0.3054
 6970SOL    HW132369   2.666   0.352   2.095 -0.5744  0.5216  0.1356
 6970SOL    HW232370   2.597   0.378   2.221  0.5986  1.9360 -1.6214
 6971SOL     OW32371   4.016   1.185   7.885 -0.6416 -0.1306  0.4468
 6971SOL    HW132372   3.965   1.243   7.941  1.3121  2.6629 -0.6930
 6971SOL    HW232373   4.054   1.112   7.934 -0.4639  0.4160  1.1097
 6972SOL     OW32374   2.599   4.171   4.700 -0.6001 -1.1333 -0.3653
 6972SOL    HW132375   2.532   4.140   4.760  0.2660 -5.1624 -1.4762
 6972SOL    HW232376   2.612   4.257   4.742  1.7653 -0.5334 -2.3411
 6973SOL     OW32377   3.986   1.256  14.647  0.5328  0.5188 -0.1280
 6973SOL    HW132378   3.956   1.191  14.583  1.0919 -0.0759  0.2065
 6973SOL    HW232379   4.065   1.208  14.674 -0.4802 -0.9245  0.2591
 6974SOL     OW32380   1.005   3.816  10.710  0.2423 -0.2409 -0.1889
 6974SOL    HW132381   0.971   3.785  10.626  1.8979 -0.2343 -0.8674
 6974SOL    HW232382   1.046   3.899  10.685  0.9871  0.1326  2.3038
 6975SOL     OW32383   1.419   0.995   2.377 -0.3119 -0.2492 -0.0276
 6975SOL    HW132384   1.368   1.072   2.355 -1.1709 -0.4668  1.1986
 6975SOL    HW232385   1.447   0.977   2.287  0.6112  2.3772 -0.2490
 6976SOL     OW32386   3.858   3.683   3.590 -0.4628  0.0577  0.4645
 6976SOL    HW132387   3.793   3.733   3.541 -1.5374 -1.2522  0.5388
 6976SOL    HW232388   3.939   3.732   3.584  0.2590 -1.2825 -0.7535
 6977SOL     OW32389   0.450   0.295   4.821 -0.3090 -0.5093  0.3546
 6977SOL    HW132390   0.459   0.283   4.915 -3.2167  0.0670  0.7365
 6977SOL    HW232391   0.425   0.385   4.799  0.6618 -0.6980 -1.5702
 6978SOL     OW32392   3.773   2.928   9.165  0.2959 -0.1210 -0.1767
 6978SOL    HW132393   3.781   2.907   9.072 -1.1143 -0.8001 -0.1409
 6978SOL    HW232394   3.779   3.022   9.151  0.6371 -0.2162 -0.6654
 6979SOL     OW32395   2.160   0.044   1.881  0.1405  0.1298 -0.0994
 6979SOL    HW132396   2.203   0.114   1.929  0.0220  1.6623 -2.2028
 6979SOL    HW232397   2.225   4.703   1.899 -1.4077 -0.6927  2.1827
 6980SOL     OW32398   1.153   1.307   6.074  0.1545 -0.1397  0.3653
 6980SOL    HW132399   1.085   1.239   6.073 -1.1822  1.2051 -0.5264
 6980SOL    HW232400   1.140   1.338   6.163  0.1645  0.9971 -0.0373
 6981SOL     OW32401   1.307   4.582   8.222 -0.2789 -0.0258  0.0076
 6981SOL    HW132402   1.339   4.672   8.218  0.9881 -0.5498 -1.3582
 6981SOL    HW232403   1.236   4.600   8.160 -1.6020 -2.7842  0.7110
 6982SOL     OW32404   1.118   1.582  13.787  0.1512 -0.2101  0.2429
 6982SOL    HW132405   1.131   1.487  13.788 -2.2686 -0.5389 -0.0451
 6982SOL    HW232406   1.143   1.606  13.876  2.1157 -0.3523 -0.2768
 6983SOL     OW32407   4.211   3.360   6.295 -0.0265 -0.5499  0.2450
 6983SOL    HW132408   4.158   3.280   6.295 -1.0554  0.1392  0.4696
 6983SOL    HW232409   4.293   3.317   6.319  0.9485  1.3759  0.3867
 6984SOL     OW32410   2.408   3.795   7.248 -0.0881 -0.0799  0.5137
 6984SOL    HW132411   2.467   3.723   7.227 -2.8719 -2.5902  1.3565
 6984SOL    HW232412   2.400   3.845   7.167 -0.2855  0.8986  1.1326
 6985SOL     OW32413   3.849   4.069   7.460 -0.0360 -0.0136 -0.2789
 6985SOL    HW132414   3.938   4.046   7.436 -0.7424 -1.3369 -1.6487
 6985SOL    HW232415   3.838   4.163   7.474 -0.6043 -0.2031  0.6031
 6986SOL     OW32416   2.541   3.014   3.145 -0.0550  0.2899 -0.0258
 6986SOL    HW132417   2.545   3.060   3.229  0.0261  1.3825 -0.6286
 6986SOL    HW232418   2.480   2.947   3.175 -1.0950  0.2081 -2.3646
 6987SOL     OW32419   4.229   3.197   6.015  0.4086 -0.1201  0.2085
 6987SOL    HW132420   4.294   3.130   6.037  0.6561  0.4054  1.0748
 6987SOL    HW232421   4.289   3.271   6.025  0.7668 -0.4825  0.7771
 6988SOL     OW32422   0.253   3.992  15.929 -0.0948 -0.1889  0.1914
 6988SOL    HW132423   0.276   3.923  15.868 -0.9682  0.0063 -0.3654
 6988SOL    HW232424   0.324   4.054  15.909 -0.9842  0.2824 -1.4837
 6989SOL     OW32425   4.313   3.541   7.416  0.2839  0.3137 -0.1271
 6989SOL    HW132426   4.305   3.462   7.469 -1.3739  0.0160 -0.8148
 6989SOL    HW232427   4.327   3.603   7.487  0.8226  2.5061 -2.1680
 6990SOL     OW32428   1.148   3.762   1.923 -0.3721 -0.0666  0.9190
 6990SOL    HW132429   1.065   3.780   1.879 -1.8823 -3.1535  2.4994
 6990SOL    HW232430   1.185   3.849   1.939  1.4328 -0.6248 -0.3570
 6991SOL     OW32431   1.685   0.391   3.557 -0.3202  0.2017 -0.1109
 6991SOL    HW132432   1.724   0.308   3.585  0.6427  1.2613  1.7192
 6991SOL    HW232433   1.625   0.361   3.490 -0.4260 -2.4150  1.1303
 6992SOL     OW32434   4.520   0.819  11.634  0.6620  0.1517 -0.1171
 6992SOL    HW132435   4.611   0.843  11.651  0.0363  2.1232  0.4977
 6992SOL    HW232436   4.518   0.807  11.539 -0.0162 -2.7205  0.2684
 6993SOL     OW32437   2.258   3.052  15.527 -0.3940 -0.1080 -0.0083
 6993SOL    HW132438   2.180   3.106  15.510 -0.8334 -0.7006  0.1122
 6993SOL    HW232439   2.315   3.068  15.452 -2.7985 -0.4733 -1.9112
 6994SOL     OW32440   1.327   4.302   5.963  0.4475  0.2007 -0.4296
 6994SOL    HW132441   1.261   4.322   6.029  1.7904  0.3894  0.8680
 6994SOL    HW232442   1.404   4.287   6.018 -0.8242  1.3713  1.6824
 6995SOL     OW32443   1.122   3.367   2.079 -0.4203  0.0515  0.1187
 6995SOL    HW132444   1.090   3.312   2.151 -0.0830 -1.0960 -0.5987
 6995SOL    HW232445   1.106   3.312   2.002 -0.6542  0.4885 -0.1420
 6996SOL     OW32446   1.350   4.440   1.205 -0.0354  0.1923  0.3205
 6996SOL    HW132447   1.315   4.362   1.247  1.4180 -1.3014 -1.2344
 6996SOL    HW232448   1.294   4.448   1.128 -1.1399  0.1432  1.1255
 6997SOL     OW32449   0.189   2.046  12.615 -0.3152  0.1591  0.1101
 6997SOL    HW132450   0.217   1.966  12.661  0.7016  0.2926 -0.2728
 6997SOL    HW232451   0.273   2.088  12.596  1.5114 -2.7147  1.7450
 6998SOL     OW32452   3.918   1.644  11.863 -0.2138 -0.1246  0.1365
 6998SOL    HW132453   3.906   1.625  11.770  1.4879 -1.7581  0.2511
 6998SOL    HW232454   3.996   1.592  11.883 -0.2609 -0.3573 -0.2951
 6999SOL     OW32455   2.736   1.006  14.531  0.3476 -0.0965 -0.0722
 6999SOL    HW132456   2.812   1.018  14.475  0.6039  0.1141  0.3241
 6999SOL    HW232457   2.750   0.916  14.559  0.9471  0.4305  1.3473
 7000SOL     OW32458   0.322   0.787   0.540  0.1766  0.5844  0.1260
 7000SOL    HW132459   0.240   0.834   0.532  0.3489  0.5460 -1.8460
 7000SOL    HW232460   0.373   0.811   0.463 -0.3602  3.1722  0.5951
 7001SOL     OW32461   4.519   4.120   9.217 -0.4654 -0.7125  0.1556
 7001SOL    HW132462   4.497   4.085   9.130 -0.3495  0.6005 -0.4029
 7001SOL    HW232463   4.611   4.094   9.222 -0.6504 -1.6664 -1.2252
 7002SOL     OW32464   3.946   3.576  11.034  0.3034  0.4456  0.0731
 7002SOL    HW132465   3.895   3.651  11.066  0.0441  0.5700 -0.6386
 7002SOL    HW232466   3.886   3.545  10.967  1.5504  2.1706 -1.8486
 7003SOL     OW32467   2.721   3.001   8.930 -0.4645 -0.6269 -0.1164
 7003SOL    HW132468   2.786   3.071   8.927 -1.2742  0.0295 -2.4502
 7003SOL    HW232469   2.769   2.954   8.998 -0.6269  0.0551  0.4710
 7004SOL     OW32470   2.041   0.436   6.498 -0.1414  0.0561  0.1598
 7004SOL    HW132471   1.983   0.490   6.444  0.3419  0.7206  0.3153
 7004SOL    HW232472   2.030   0.485   6.579 -0.3462  0.8213 -0.3338
 7005SOL     OW32473   3.634   0.215   4.065 -0.4507 -0.0340  0.3943
 7005SOL    HW132474   3.690   0.282   4.105  0.0491 -1.1678  1.5744
 7005SOL    HW232475   3.598   0.266   3.992 -1.1525 -0.5166  0.4007
 7006SOL     OW32476   3.565   4.547   6.715  0.1955 -0.2025  0.3309
 7006SOL    HW132477   3.523   4.510   6.793 -1.8042  0.9083 -0.2130
 7006SOL    HW232478   3.553   4.474   6.654 -2.6164 -0.4770  1.1879
 7007SOL     OW32479   4.473   4.112  11.569 -0.0508  0.2475 -0.1588
 7007SOL    HW132480   4.550   4.057  11.585  0.5681  1.0977 -0.1801
 7007SOL    HW232481   4.511   4.186  11.522 -0.7771 -0.2297 -1.4691
 7008SOL     OW32482   2.046   0.612   2.373  0.0944  0.4601 -0.1945
 7008SOL    HW132483   2.089   0.681   2.423  0.6949 -0.1040  0.0613
 7008SOL    HW232484   2.089   0.531   2.401  1.6684  1.5534  0.5488
 7009SOL     OW32485   4.479   4.439   0.655 -0.4538  0.2606  1.0483
 7009SOL    HW132486   4.484   4.529   0.623 -1.4133  0.3360  1.1168
 7009SOL    HW232487   4.395   4.408   0.622 -0.3961 -0.7602  1.8601
 7010SOL     OW32488   0.986   2.373  13.661  0.9865  0.0106 -0.2800
 7010SOL    HW132489   1.026   2.407  13.581 -2.0182  0.8321 -1.4265
 7010SOL    HW232490   1.055   2.407  13.718  1.1562 -0.0574 -0.4396
 7011SOL     OW32491   0.109   3.224   3.159  0.0649  0.2599  0.5142
 7011SOL    HW132492   0.034   3.182   3.117  2.9432 -1.6327 -2.6924
 7011SOL    HW232493   0.078   3.213   3.249 -0.1547  0.7442  0.4984
 7012SOL     OW32494   1.824   4.566   1.151 -0.0353 -0.0828 -0.0790
 7012SOL    HW132495   1.741   4.567   1.103  0.5983  0.6646 -1.1594
 7012SOL    HW232496   1.803   4.520   1.232  1.1464 -0.6147 -0.0685
 7013SOL     OW32497   0.829   4.604   0.868  0.0093  0.0642 -0.2084
 7013SOL    HW132498   0.844   4.546   0.794  1.5353  0.3540 -0.1082
 7013SOL    HW232499   0.745   4.645   0.845 -0.8654 -1.4144  0.3611
 7014SOL     OW32500   3.026   1.561   5.075 -0.1802  0.0901  1.1694
 7014SOL    HW132501   3.103   1.580   5.130  0.7425  0.5808 -0.2858
 7014SOL    HW232502   3.006   1.472   5.102  0.4708 -1.3787 -3.1785
 7015SOL     OW32503   3.776   2.056  14.942  0.6084  0.3059  0.4982
 7015SOL    HW132504   3.770   2.055  14.847 -3.3632  0.2702  0.7262
 7015SOL    HW232505   3.711   2.121  14.971 -2.4244 -2.3452 -0.3472
 7016SOL     OW32506   3.825   4.481  17.211 -0.2208 -0.5609  0.3845
 7016SOL    HW132507   3.781   4.531  17.280 -2.0241 -0.6901 -0.6583
 7016SOL    HW232508   3.792   4.393  17.231 -1.6139  0.3079  1.9014
 7017SOL     OW32509   0.836   3.757  16.401 -0.4763 -0.3651  0.6270
 7017SOL    HW132510   0.930   3.755  16.383 -0.4720 -0.9225  0.7236
 7017SOL    HW232511   0.833   3.778  16.494 -1.7405  0.1503  0.4661
 7018SOL     OW32512   3.496   4.455   7.662 -0.4083  0.6121 -0.2155
 7018SOL    HW132513   3.539   4.535   7.691  1.5028  0.9096 -3.9155
 7018SOL    HW232514   3.409   4.485   7.688 -0.0700  0.8853  0.6017
 7019SOL     OW32515   3.643   0.053   3.629  0.5338 -0.2375  0.5386
 7019SOL    HW132516   3.667   0.017   3.544  0.0187  0.7580 -0.0243
 7019SOL    HW232517   3.718   0.110   3.647  0.1860  0.7872 -1.3091
 7020SOL     OW32518   3.235   4.394   8.639  0.1298 -0.2836 -0.4139
 7020SOL    HW132519   3.317   4.389   8.590  1.1079 -1.0047  1.3141
 7020SOL    HW232520   3.222   4.488   8.653  1.4951  0.2350 -2.7789
 7021SOL     OW32521   1.663   0.341  16.725 -0.4856 -0.3270 -0.2691
 7021SOL    HW132522   1.617   0.342  16.641 -1.7817 -0.9367  0.4295
 7021SOL    HW232523   1.661   0.248  16.750 -4.0139  0.7632  3.4891
 7022SOL     OW32524   3.175   4.628   4.874 -0.1097  0.2904 -0.0391
 7022SOL    HW132525   3.195   4.539   4.844 -1.7470  0.1879 -0.8405
 7022SOL    HW232526   3.156   4.619   4.967  3.0349 -1.6503  0.4357
 7023SOL     OW32527   1.466   2.112   8.947 -0.3753 -0.2564 -0.0813
 7023SOL    HW132528   1.502   2.026   8.927 -0.0862  0.0134 -0.6985
 7023SOL    HW232529   1.420   2.099   9.030 -1.6076 -0.3670 -0.7840
 7024SOL     OW32530   3.327   0.599   2.960 -0.0785  0.1456  0.3451
 7024SOL    HW132531   3.358   0.526   3.013  0.1732  0.4490  0.6104
 7024SOL    HW232532   3.404   0.656   2.965 -2.0988  3.1018 -2.3091
 7025SOL     OW32533   3.828   4.007  14.152  0.2813  0.0044 -0.1095
 7025SOL    HW132534   3.797   3.940  14.212 -1.3268  0.2108 -0.7176
 7025SOL    HW232535   3.920   3.992  14.173  0.2446  1.1897  0.9155
 7026SOL     OW32536   0.189   4.091  17.146 -0.3901  0.4331 -0.4654
 7026SOL    HW132537   0.255   4.025  17.127 -0.6925 -0.7598  2.7400
 7026SOL    HW232538   0.228   4.148  17.211  1.8674  1.5036 -2.7548
 7027SOL     OW32539   3.863   3.046   1.853  0.0490 -0.1807  0.0875
 7027SOL    HW132540   3.807   3.009   1.920 -0.2563 -0.7953 -0.5107
 7027SOL    HW232541   3.827   3.017   1.769  0.9644  2.5130 -1.2332
 7028SOL     OW32542   4.018   1.976   9.444 -0.2886  0.4167 -0.2373
 7028SOL    HW132543   4.008   1.908   9.378 -0.5750  0.1599  0.0668
 7028SOL    HW232544   4.100   2.020   9.421  0.6650 -0.6000  1.1612
 7029SOL     OW32545   2.273   1.695   3.946  0.0091 -0.2963 -0.7635
 7029SOL    HW132546   2.340   1.761   3.964  1.0396 -1.3624 -0.7625
 7029SOL    HW232547   2.308   1.606   3.946  2.6823  0.7755  3.0178
 7030SOL     OW32548   4.497   3.076   2.299  0.3763  0.4873 -0.1990
 7030SOL    HW132549   4.463   3.095   2.211  1.1827  1.4236 -0.3212
 7030SOL    HW232550   4.583   3.118   2.293  0.5778 -0.0495 -1.1546
 7031SOL     OW32551   2.893   1.080   6.834  0.2658  0.6882 -0.7358
 7031SOL    HW132552   2.929   1.149   6.778 -3.1700  1.2533 -2.2890
 7031SOL    HW232553   2.910   1.118   6.920 -0.2424  0.4006 -0.5086
 7032SOL     OW32554   4.421   2.214   8.350 -0.3849 -0.3927 -0.0129
 7032SOL    HW132555   4.335   2.222   8.391 -0.4206 -0.9867  0.0205
 7032SOL    HW232556   4.480   2.258   8.411 -1.2863  1.6435 -0.6150
 7033SOL     OW32557   4.271   2.534  17.461  0.6852  0.1366 -0.4541
 7033SOL    HW132558   4.346   2.584  17.428 -1.2849  1.9165 -2.1807
 7033SOL    HW232559   4.261   2.568  17.550  0.9974 -0.7788 -0.0595
 7034SOL     OW32560   2.329   1.118   4.826 -0.0821  0.1770 -0.2741
 7034SOL    HW132561   2.340   1.213   4.819 -1.5427  0.3678  0.1829
 7034SOL    HW232562   2.235   1.128   4.838 -0.2187  1.2558 -2.2280
 7035SOL     OW32563   3.691   0.942   8.202 -0.2224  0.3510  0.2707
 7035SOL    HW132564   3.682   0.977   8.114  2.1356 -1.0374 -0.5455
 7035SOL    HW232565   3.674   1.018   8.258 -1.3469 -0.9817  1.7486
 7036SOL     OW32566   3.330   3.852  11.630  0.1170 -0.7168 -0.0643
 7036SOL    HW132567   3.353   3.833  11.539  0.8995 -0.7155  0.1289
 7036SOL    HW232568   3.239   3.879  11.621  0.3051  0.1911  0.7480
 7037SOL     OW32569   3.456   2.461   8.003 -1.0083  0.4392 -0.6359
 7037SOL    HW132570   3.499   2.455   8.088 -2.4896  3.7862  0.3442
 7037SOL    HW232571   3.369   2.484   8.036 -0.8922 -1.4379  0.9939
 7038SOL     OW32572   4.680   1.453  12.007 -0.0038  0.3891  0.3520
 7038SOL    HW132573   4.620   1.513  11.961  0.6478 -0.9142 -2.2161
 7038SOL    HW232574   0.008   1.438  11.930  0.9224  0.0301  1.0940
 7039SOL     OW32575   0.817   3.704   7.429 -0.5219 -1.2019 -0.6273
 7039SOL    HW132576   0.730   3.707   7.470  0.4701  1.6332  1.2558
 7039SOL    HW232577   0.869   3.726   7.506  0.6667 -0.1601 -1.7437
 7040SOL     OW32578   0.330   0.365   7.283  0.1827 -0.4010 -0.2681
 7040SOL    HW132579   0.371   0.292   7.236 -1.5566 -1.6819  0.1891
 7040SOL    HW232580   0.344   0.353   7.376  1.4794  2.6423 -0.0614
 7041SOL     OW32581   2.815   0.726   2.398  0.4127 -0.1239  0.6113
 7041SOL    HW132582   2.867   0.658   2.441  1.5605 -0.1823 -0.8764
 7041SOL    HW232583   2.875   0.799   2.409  1.0851 -0.2492 -2.4363
 7042SOL     OW32584   3.256   3.849  14.171  0.1619 -0.4681 -0.3133
 7042SOL    HW132585   3.229   3.757  14.176 -1.7551  0.0946 -0.3285
 7042SOL    HW232586   3.183   3.906  14.193  2.1264  2.0575 -0.3816
 7043SOL     OW32587   4.413   3.870   0.660 -0.1170 -0.5023 -0.9188
 7043SOL    HW132588   4.415   3.842   0.752 -0.2275  0.5439 -0.5975
 7043SOL    HW232589   4.335   3.820   0.636  0.2960 -0.0187 -3.2209
 7044SOL     OW32590   3.807   3.203  14.480  0.2795 -0.5847 -0.2250
 7044SOL    HW132591   3.879   3.157  14.525  2.1849  1.7411 -0.9071
 7044SOL    HW232592   3.755   3.211  14.560  1.1137  0.4690  0.2135
 7045SOL     OW32593   3.687   0.231  14.209  0.2864 -0.7291 -0.5215
 7045SOL    HW132594   3.699   0.293  14.137 -1.3382 -1.0037 -1.0413
 7045SOL    HW232595   3.694   0.148  14.162 -0.3041  0.1958 -2.2313
 7046SOL     OW32596   4.233   2.992  15.816  0.1275 -0.4945 -0.1227
 7046SOL    HW132597   4.179   2.939  15.875  0.2521  0.2833  0.7095
 7046SOL    HW232598   4.210   3.085  15.826 -0.7093 -0.6364 -0.6838
 7047SOL     OW32599   3.457   2.559  11.208 -0.0973 -0.9599 -0.6732
 7047SOL    HW132600   3.495   2.646  11.197  1.0434 -1.1870  1.4322
 7047SOL    HW232601   3.406   2.566  11.289 -0.2082 -1.6586 -0.6845
 7048SOL     OW32602   1.848   0.764  17.580 -0.2125  0.2925  0.3516
 7048SOL    HW132603   1.772   0.759  17.638  0.3575  0.4402  1.1170
 7048SOL    HW232604   1.814   0.757  17.491 -2.1090 -1.0310  1.1932
 7049SOL     OW32605   3.915   3.021  15.327 -0.3099 -0.2364  0.2823
 7049SOL    HW132606   3.867   2.975  15.395 -1.0988  1.5479  0.9518
 7049SOL    HW232607   3.997   2.986  15.362  0.7179  1.3902 -0.4889
 7050SOL     OW32608   2.598   2.920   5.886 -0.1939  0.1665 -0.6892
 7050SOL    HW132609   2.587   2.831   5.918 -2.4963  0.0860 -1.6679
 7050SOL    HW232610   2.601   2.982   5.959  0.0678 -0.3663 -0.2484
 7051SOL     OW32611   3.401   4.619   8.830  0.2908  0.8793 -0.2238
 7051SOL    HW132612   3.473   4.665   8.787  0.4967  1.2871  0.5623
 7051SOL    HW232613   3.327   4.644   8.773 -0.2876 -2.6803 -1.0811
 7052SOL     OW32614   3.624   3.785   6.812  0.0963 -0.3063 -0.1570
 7052SOL    HW132615   3.647   3.762   6.902 -1.2379 -0.0370  0.2571
 7052SOL    HW232616   3.711   3.769   6.776  0.0102 -1.2318  0.0428
 7053SOL     OW32617   3.242   1.127   5.020 -0.2301  0.1614  0.7338
 7053SOL    HW132618   3.331   1.156   5.003 -0.0627 -1.9549 -2.0025
 7053SOL    HW232619   3.197   1.124   4.935 -0.8898 -3.3151  1.2099
 7054SOL     OW32620   3.557   0.874   1.080  0.4065  0.1273 -0.2695
 7054SOL    HW132621   3.597   0.931   1.015 -0.6671  1.0467 -0.1207
 7054SOL    HW232622   3.565   0.790   1.036 -1.9496  0.5138 -1.4643
 7055SOL     OW32623   1.147   4.646   0.159 -0.0907  0.0444  0.2852
 7055SOL    HW132624   1.150   0.014   0.153 -0.4358  0.1340  1.4335
 7055SOL    HW232625   1.219   4.613   0.105 -0.4195 -0.7506  0.3367
 7056SOL     OW32626   3.951   0.411   9.244 -0.4038  0.1792  0.5471
 7056SOL    HW132627   3.944   0.497   9.286 -1.4343  1.2616 -1.8690
 7056SOL    HW232628   3.891   0.369   9.305  0.8525 -2.0499  0.2443
 7057SOL     OW32629   2.622   3.960  15.996  0.6119  0.2166 -0.2709
 7057SOL    HW132630   2.701   3.970  15.943  0.2128  1.2750 -0.6737
 7057SOL    HW232631   2.649   3.897  16.063  0.0076  4.0508  3.5734
 7058SOL     OW32632   2.696   3.161  11.327  0.4072  0.0529 -0.3374
 7058SOL    HW132633   2.765   3.219  11.295  0.2422  0.0886 -0.6351
 7058SOL    HW232634   2.635   3.233  11.341  1.1304  0.6195 -0.0889
 7059SOL     OW32635   2.218   3.181   6.600 -0.4425 -0.0889 -0.0461
 7059SOL    HW132636   2.140   3.213   6.645 -0.6426  0.3763 -0.7090
 7059SOL    HW232637   2.272   3.170   6.677 -0.4453 -0.6705 -0.1273
 7060SOL     OW32638   4.362   3.221   5.014  0.1482  0.7669  0.1689
 7060SOL    HW132639   4.294   3.278   5.050 -0.1999 -0.0623  0.8215
 7060SOL    HW232640   4.419   3.184   5.081  1.7533  0.5169 -1.3417
 7061SOL     OW32641   4.053   3.884   7.794  0.2984 -0.4209 -0.0035
 7061SOL    HW132642   3.973   3.930   7.820  0.5330  0.5115 -0.9407
 7061SOL    HW232643   4.106   3.880   7.874  1.7169 -1.8854 -1.0432
 7062SOL     OW32644   3.855   0.792   5.575  1.0272 -0.1570 -0.0756
 7062SOL    HW132645   3.762   0.773   5.563  0.8724  0.7112 -0.2625
 7062SOL    HW232646   3.874   0.797   5.481 -0.9580  1.3376 -0.4010
 7063SOL     OW32647   3.273   1.703   3.953 -0.0729 -0.0465  0.2195
 7063SOL    HW132648   3.285   1.711   3.859 -0.4708  1.4892  0.2825
 7063SOL    HW232649   3.224   1.621   3.962  1.7936 -1.1551  0.0939
 7064SOL     OW32650   0.752   1.235   8.327  0.4287  1.0910 -0.1404
 7064SOL    HW132651   0.825   1.265   8.275  1.6802  1.1658  1.6589
 7064SOL    HW232652   0.689   1.196   8.266  0.4952 -1.6278  1.5336
 7065SOL     OW32653   2.082   4.507   1.773  0.8355 -0.0759 -0.0586
 7065SOL    HW132654   2.101   4.601   1.773 -0.8010  0.2648  1.9930
 7065SOL    HW232655   2.142   4.465   1.712  0.4039 -1.2729  0.3439
 7066SOL     OW32656   2.003   3.763  12.439  0.2101 -0.2661  0.1898
 7066SOL    HW132657   2.082   3.753  12.385  0.3941 -1.1595  0.6237
 7066SOL    HW232658   2.039   3.765  12.528 -0.7770  1.9418  0.5434
 7067SOL     OW32659   2.971   0.278  17.692 -0.5547  0.2631 -0.3323
 7067SOL    HW132660   3.039   0.338  17.659  0.8644 -1.5814 -0.7713
 7067SOL    HW232661   2.995   0.191  17.662 -1.7586 -0.5506  1.0769
 7068SOL     OW32662   4.541   2.805   2.534  0.2486 -0.0964 -0.1713
 7068SOL    HW132663   4.466   2.833   2.482 -1.7283 -0.7026  2.3352
 7068SOL    HW232664   4.612   2.790   2.472  0.4918  2.7806 -0.6138
 7069SOL     OW32665   1.669   4.718   3.616  0.5771 -0.6650  0.2183
 7069SOL    HW132666   1.658   0.053   3.688  0.3116  1.4405 -1.6164
 7069SOL    HW232667   1.751   4.681   3.650  1.5587 -0.2883 -1.7539
 7070SOL     OW32668   3.468   4.354   5.103 -0.0834  0.0225  0.0114
 7070SOL    HW132669   3.378   4.377   5.129  0.8172  1.2890  2.0652
 7070SOL    HW232670   3.461   4.263   5.130 -0.6312 -0.3228 -1.3080
 7071SOL     OW32671   1.239   0.670   4.616  0.1162 -0.3075 -0.3534
 7071SOL    HW132672   1.249   0.751   4.567 -1.9222  0.2274  0.1003
 7071SOL    HW232673   1.277   0.601   4.562  0.2602  3.0547 -4.5390
 7072SOL     OW32674   3.133   3.846  10.453 -0.2304  0.5907  0.4505
 7072SOL    HW132675   3.211   3.866  10.505  0.2664 -0.5938  0.1485
 7072SOL    HW232676   3.164   3.832  10.364  1.1599 -1.1518  1.2196
 7073SOL     OW32677   3.372   4.538   5.629  0.0980 -0.1942  0.6535
 7073SOL    HW132678   3.318   4.571   5.558 -0.7264 -0.8251  0.9870
 7073SOL    HW232679   3.428   4.614   5.646  0.6731 -0.5167  0.2258
 7074SOL     OW32680   0.894   3.613   1.901  0.1321 -0.7348 -0.4321
 7074SOL    HW132681   0.885   3.667   1.823 -1.5498  0.7157  0.7836
 7074SOL    HW232682   0.872   3.530   1.859 -0.5623  0.6526 -2.7697
 7075SOL     OW32683   2.103   1.233   6.567 -0.0378  0.3940  0.2968
 7075SOL    HW132684   2.182   1.269   6.525  0.5437 -0.5040  0.6114
 7075SOL    HW232685   2.079   1.153   6.521  3.0644  0.0350 -0.7245
 7076SOL     OW32686   3.071   4.481  15.862  0.0842  0.3651 -0.4452
 7076SOL    HW132687   3.088   4.413  15.927 -2.5090  0.7173  0.5951
 7076SOL    HW232688   3.155   4.529  15.866  0.5437 -0.3533 -1.6203
 7077SOL     OW32689   3.354   4.252   3.845  0.4500 -0.6872  0.4555
 7077SOL    HW132690   3.426   4.309   3.870 -0.3224  0.4599  0.0748
 7077SOL    HW232691   3.365   4.182   3.910 -0.2577 -1.2650 -0.0426
 7078SOL     OW32692   1.626   4.180   7.068 -0.3455  0.1324  0.1376
 7078SOL    HW132693   1.545   4.225   7.090 -1.1684 -2.2107  1.9554
 7078SOL    HW232694   1.617   4.099   7.118 -1.9882  1.1683  1.5090
 7079SOL     OW32695   3.374   3.553   8.656 -0.0100 -0.1747 -0.0749
 7079SOL    HW132696   3.469   3.548   8.668 -0.0245  2.5087  1.2014
 7079SOL    HW232697   3.366   3.648   8.664  0.8729 -0.0813 -0.2124
 7080SOL     OW32698   4.140   0.894   5.555 -0.1239 -0.4385 -0.4285
 7080SOL    HW132699   4.049   0.865   5.564  0.1788 -1.9137 -2.0862
 7080SOL    HW232700   4.156   0.940   5.638 -2.0993 -1.2087  0.3840
 7081SOL     OW32701   2.780   4.013   6.941  0.0671 -0.2629  0.1470
 7081SOL    HW132702   2.688   4.039   6.944  0.4479  1.3238 -1.7104
 7081SOL    HW232703   2.799   4.026   7.034  3.3964 -0.7359 -0.4831
 7082SOL     OW32704   1.819   4.544   8.343 -0.0761  0.5981 -0.5147
 7082SOL    HW132705   1.733   4.501   8.339 -0.0998  0.4041  2.2493
 7082SOL    HW232706   1.791   4.636   8.349 -1.0731  0.2604  0.1770
 7083SOL     OW32707   3.678   1.102   9.805 -0.0329 -0.6066 -0.2768
 7083SOL    HW132708   3.663   1.049   9.727 -0.4668  1.6124 -1.7093
 7083SOL    HW232709   3.687   1.192   9.772  3.8746 -0.1937  2.0060
 7084SOL     OW32710   0.534   0.248   9.774  0.3495  0.0498 -0.0813
 7084SOL    HW132711   0.587   0.327   9.763 -0.1472  0.4185  0.1868
 7084SOL    HW232712   0.444   0.281   9.781 -0.5002 -2.0776 -0.8075
 7085SOL     OW32713   4.606   2.267   3.982  0.3450 -0.4179 -0.0823
 7085SOL    HW132714   4.522   2.227   3.961 -0.5236  0.4804  1.6826
 7085SOL    HW232715   4.578   2.299   4.068  0.2237 -1.3893  0.2467
 7086SOL     OW32716   0.932   4.392   2.037 -0.0863 -0.3257 -0.3835
 7086SOL    HW132717   1.013   4.395   1.986  1.6423 -1.1586  2.3366
 7086SOL    HW232718   0.874   4.445   1.981 -0.6355  1.0593  1.5203
 7087SOL     OW32719   4.148   2.525   3.060 -0.2717  0.2641 -0.0179
 7087SOL    HW132720   4.150   2.509   2.966  0.4834 -0.9620  0.2083
 7087SOL    HW232721   4.241   2.506   3.072 -0.7700 -1.5512  1.0531
 7088SOL     OW32722   1.970   4.224  13.478 -0.2868 -0.0913  0.4192
 7088SOL    HW132723   1.931   4.155  13.424  1.8369 -0.4483 -0.6455
 7088SOL    HW232724   2.011   4.168  13.544 -1.4895  1.0667  2.1533
 7089SOL     OW32725   2.823   2.011   6.976 -0.0136  0.3031 -0.0338
 7089SOL    HW132726   2.879   1.963   7.036  1.5922 -0.3447 -2.0354
 7089SOL    HW232727   2.792   2.083   7.030 -0.8928  1.9162 -2.6683
 7090SOL     OW32728   3.915   2.732  15.967  0.4839  0.5271  0.4608
 7090SOL    HW132729   3.881   2.803  15.912 -0.5662  0.4119  0.9677
 7090SOL    HW232730   3.988   2.775  16.011  0.2657 -0.3927  1.7065
 7091SOL     OW32731   1.501   1.610   3.879  0.1111  0.6588  0.2177
 7091SOL    HW132732   1.594   1.609   3.858  0.1315 -3.0951  0.4941
 7091SOL    HW232733   1.454   1.635   3.799 -0.1385 -0.1304  0.1067
 7092SOL     OW32734   4.455   1.042   2.655  0.5140 -0.2729 -0.2794
 7092SOL    HW132735   4.399   1.010   2.585 -1.0517 -0.0919  0.8907
 7092SOL    HW232736   4.516   1.098   2.607 -0.6998  1.6580  0.4272
 7093SOL     OW32737   1.040   0.188  10.173  0.0190  0.2264 -0.1850
 7093SOL    HW132738   0.964   0.241  10.149  0.7543  0.0843 -2.8206
 7093SOL    HW232739   1.039   0.197  10.268 -0.2847  1.3315 -0.2923
 7094SOL     OW32740   1.400   3.746   8.779 -0.1497  0.3616  0.0823
 7094SOL    HW132741   1.479   3.708   8.741 -0.4729 -1.1279  0.8964
 7094SOL    HW232742   1.422   3.830   8.819  3.2081 -0.9685  0.9743
 7095SOL     OW32743   2.031   0.638   3.243  0.5390  0.0046  0.0008
 7095SOL    HW132744   2.000   0.698   3.175  0.0686 -0.6268 -0.3373
 7095SOL    HW232745   1.959   0.575   3.243 -1.9717  2.8721 -1.3090
 7096SOL     OW32746   2.062   2.075   3.434  0.4868  0.3609 -0.0594
 7096SOL    HW132747   1.974   2.112   3.429 -0.1944 -1.5668 -1.7962
 7096SOL    HW232748   2.051   2.032   3.519  0.1746 -0.1452 -0.3569
 7097SOL     OW32749   3.982   1.070   2.066  0.1630  0.0355 -0.2148
 7097SOL    HW132750   4.033   1.133   2.016 -2.8949 -0.0276 -3.4170
 7097SOL    HW232751   4.054   1.021   2.106  1.2604  1.0963 -0.9140
 7098SOL     OW32752   2.013   3.199   5.919  0.6001 -0.4506  0.1643
 7098SOL    HW132753   1.998   3.226   5.828  1.8918  1.3941  0.4797
 7098SOL    HW232754   2.039   3.109   5.902  0.2307 -0.1207 -2.2481
 7099SOL     OW32755   0.221   0.999  17.438 -0.2213  0.3185  0.1188
 7099SOL    HW132756   0.256   0.984  17.526  0.6051  2.4602  0.1518
 7099SOL    HW232757   0.136   1.041  17.451  0.0572  0.7858  0.4459
 7100SOL     OW32758   0.088   1.341  10.536  0.0493 -0.0125  0.3007
 7100SOL    HW132759   0.040   1.263  10.508 -1.5067  0.8843  0.4762
 7100SOL    HW232760   0.045   1.352  10.621 -0.8633  1.6183 -0.3723
 7101SOL     OW32761   1.020   0.170  10.436  0.4364 -0.4229 -0.2809
 7101SOL    HW132762   1.021   0.083  10.477 -0.7515 -0.4225 -0.2421
 7101SOL    HW232763   0.967   0.218  10.500  0.8836  0.7236 -0.7917
 7102SOL     OW32764   3.415   2.594   6.305  0.3524  0.6783  0.0914
 7102SOL    HW132765   3.442   2.607   6.214 -1.6338  1.7722 -0.3395
 7102SOL    HW232766   3.324   2.623   6.313 -0.5611 -1.6143 -2.0315
 7103SOL     OW32767   0.831   3.460   7.300  0.1891  0.3039 -0.0947
 7103SOL    HW132768   0.850   3.553   7.309  0.0333  0.1076  2.1671
 7103SOL    HW232769   0.887   3.418   7.365  1.6744  0.4789 -1.2619
 7104SOL     OW32770   2.177   1.360  11.336 -0.1378 -0.5089  0.1764
 7104SOL    HW132771   2.133   1.301  11.274 -0.1189  0.8796 -1.1524
 7104SOL    HW232772   2.227   1.292  11.381  2.9966  1.6914 -0.0092
 7105SOL     OW32773   0.835   0.783   4.871  0.5632  0.0488  0.6617
 7105SOL    HW132774   0.785   0.731   4.935 -0.1139  0.8117  0.7500
 7105SOL    HW232775   0.773   0.852   4.849  0.4393  0.3332  1.8570
 7106SOL     OW32776   1.755   0.556   8.029  0.4231 -0.4717 -0.0528
 7106SOL    HW132777   1.690   0.501   8.073  0.5650  1.0569  2.0606
 7106SOL    HW232778   1.775   0.617   8.100 -0.1947 -0.4694  0.1207
 7107SOL     OW32779   0.007   3.908   2.610  0.0323  0.1755 -0.1109
 7107SOL    HW132780   0.093   3.914   2.568 -0.2196  2.3765 -0.3203
 7107SOL    HW232781   4.723   3.999   2.637  1.4601  0.9632 -2.1181
 7108SOL     OW32782   2.871   1.056  15.896 -0.2183  0.5013 -0.0737
 7108SOL    HW132783   2.945   0.996  15.896 -1.1852 -0.7091 -3.2408
 7108SOL    HW232784   2.898   1.117  15.827  0.0149 -0.0421 -0.4677
 7109SOL     OW32785   3.277   4.256  15.109 -0.0272 -0.2123 -0.3892
 7109SOL    HW132786   3.369   4.261  15.137 -0.3351 -0.3560  0.6390
 7109SOL    HW232787   3.270   4.342  15.068 -0.1663  0.3007  0.6880
 7110SOL     OW32788   1.670   1.861   7.302  0.0453  0.1991 -0.2365
 7110SOL    HW132789   1.740   1.919   7.273 -1.3619  0.2063 -3.6096
 7110SOL    HW232790   1.628   1.907   7.375  0.9585 -0.2252  0.5503
 7111SOL     OW32791   3.645   2.943   2.011  0.2577  0.2772 -0.6060
 7111SOL    HW132792   3.554   2.932   1.985 -0.5238 -0.7861  2.5745
 7111SOL    HW232793   3.681   2.861   1.977  0.1733 -0.4165  0.9727
 7112SOL     OW32794   4.445   3.776  17.372  0.7868  0.1014  0.5555
 7112SOL    HW132795   4.459   3.869  17.384  3.0471 -0.1683 -0.0699
 7112SOL    HW232796   4.414   3.739  17.455 -0.2564 -2.7392 -1.0921
 7113SOL     OW32797   3.048   2.073  15.587 -0.0478 -0.0056  0.5185
 7113SOL    HW132798   3.140   2.072  15.613 -0.0669  1.7023  0.6328
 7113SOL    HW232799   3.032   2.158  15.548 -0.4182 -0.4537 -0.3089
 7114SOL     OW32800   4.465   4.694  12.914  0.3286  0.5395  0.3044
 7114SOL    HW132801   4.483   4.610  12.872 -0.8485 -0.6874  2.2713
 7114SOL    HW232802   4.483   0.028  12.843  1.0894  1.1459  1.0317
 7115SOL     OW32803   0.944   2.485   4.187 -0.1474  0.1012  0.6522
 7115SOL    HW132804   1.007   2.421   4.220 -1.8402 -0.1960  3.3037
 7115SOL    HW232805   0.909   2.437   4.113 -0.1288  1.4935 -0.2569
 7116SOL     OW32806   1.594   0.441  16.479 -0.2605 -0.2791  0.1313
 7116SOL    HW132807   1.604   0.523  16.527 -1.2745  0.9791 -1.8101
 7116SOL    HW232808   1.506   0.451  16.441  0.7536 -0.2010 -2.1649
 7117SOL     OW32809   1.847   0.893   9.631 -0.5007  0.3824 -0.3822
 7117SOL    HW132810   1.821   0.932   9.548 -1.1759  1.4331  0.3155
 7117SOL    HW232811   1.780   0.833   9.662  0.3540 -2.0094 -3.2339
 7118SOL     OW32812   0.352   3.170   2.452 -0.1713 -0.0595 -0.3521
 7118SOL    HW132813   0.326   3.248   2.402 -1.2493  0.0637  0.4104
 7118SOL    HW232814   0.445   3.184   2.473 -0.7066  1.6100  0.8172
 7119SOL     OW32815   4.086   4.375   1.889  0.0080  0.6948  0.0046
 7119SOL    HW132816   4.085   4.341   1.978 -3.1832  1.9707  0.4758
 7119SOL    HW232817   4.000   4.417   1.887  0.6796  2.0515 -0.4528
 7120SOL     OW32818   2.454   1.111   2.230 -0.1920  0.2382  0.3039
 7120SOL    HW132819   2.525   1.171   2.253  1.1929 -1.3598  0.2741
 7120SOL    HW232820   2.429   1.135   2.141  0.1733 -0.5576 -0.0224
 7121SOL     OW32821   4.132   0.184  12.933  0.0666 -0.1861  0.4560
 7121SOL    HW132822   4.226   0.196  12.921  0.5428  0.2868  4.6686
 7121SOL    HW232823   4.095   0.266  12.901 -0.3564  0.0408  1.5216
 7122SOL     OW32824   1.558   3.258   3.346  0.1012  0.1784 -0.3326
 7122SOL    HW132825   1.507   3.201   3.403  0.7323 -0.3297 -0.2743
 7122SOL    HW232826   1.482   3.314   3.328  1.4034  1.7848 -0.8776
 7123SOL     OW32827   2.851   2.148  15.901  0.4405  0.1581 -0.1672
 7123SOL    HW132828   2.799   2.155  15.822  0.8758  3.8991 -0.0922
 7123SOL    HW232829   2.843   2.054  15.916  0.5631  0.6463  2.9772
 7124SOL     OW32830   4.553   0.326   2.681  0.0599  0.0056 -0.3191
 7124SOL    HW132831   4.566   0.373   2.763  0.9526 -0.3780 -0.2350
 7124SOL    HW232832   4.486   0.382   2.642  1.4037  1.3948 -0.6294
 7125SOL     OW32833   0.098   0.190   7.427 -0.1656 -0.1649 -0.1793
 7125SOL    HW132834   0.189   0.189   7.396  0.5835 -1.7824  2.0175
 7125SOL    HW232835   0.064   0.275   7.402 -1.4599 -0.6616 -0.0899
 7126SOL     OW32836   2.171   0.365   7.412  0.5283 -0.0162  0.0442
 7126SOL    HW132837   2.211   0.285   7.379 -0.6538 -0.7986  0.5512
 7126SOL    HW232838   2.171   0.349   7.506 -1.5638 -0.5121 -0.0453
 7127SOL     OW32839   1.804   3.001  11.101 -0.3292 -0.1937  0.1040
 7127SOL    HW132840   1.727   2.967  11.055  0.1244 -0.7306 -0.2645
 7127SOL    HW232841   1.859   3.054  11.044  2.4895 -2.0326  1.0805
 7128SOL     OW32842   3.791   1.913   5.754 -0.2028 -0.2772  0.0108
 7128SOL    HW132843   3.845   1.842   5.718  0.8492  0.2654  0.5303
 7128SOL    HW232844   3.843   1.988   5.728  0.3291 -0.3305  0.9416
 7129SOL     OW32845   1.674   1.383  15.222 -0.3636  0.4942 -0.0806
 7129SOL    HW132846   1.614   1.458  15.219  2.3877  2.7472  1.3380
 7129SOL    HW232847   1.629   1.332  15.290 -0.5261  0.9719  0.1676
 7130SOL     OW32848   3.279   0.637   8.242  0.4002  0.2368 -0.3934
 7130SOL    HW132849   3.246   0.718   8.202 -0.8325 -0.7109 -1.3143
 7130SOL    HW232850   3.337   0.672   8.309  0.1756  0.8273 -0.5028
 7131SOL     OW32851   0.339   2.609   4.429  0.1711 -0.4856 -0.2490
 7131SOL    HW132852   0.304   2.579   4.346  0.8426 -0.2625 -0.6136
 7131SOL    HW232853   0.310   2.534   4.481  1.2299 -1.3139 -0.8536
 7132SOL     OW32854   3.051   1.366   1.680 -0.1447  0.0525  0.0435
 7132SOL    HW132855   3.120   1.307   1.651 -0.1183  0.0361  0.1394
 7132SOL    HW232856   3.095   1.451   1.670  0.0648  0.1743  1.9025
 7133SOL     OW32857   2.247   0.688   5.984 -0.2447 -0.4091  0.1732
 7133SOL    HW132858   2.303   0.622   5.943  1.5383  1.4144 -0.3135
 7133SOL    HW232859   2.223   0.735   5.904 -1.0433  0.1476  0.7436
 7134SOL     OW32860   0.296   0.239   1.878  0.2168  0.4996 -0.1529
 7134SOL    HW132861   0.281   0.281   1.793 -4.1099  0.2323  0.5042
 7134SOL    HW232862   0.317   0.317   1.931  1.3538  1.2766 -1.7492
 7135SOL     OW32863   0.487   4.530   7.224 -0.0168 -0.0162 -0.2106
 7135SOL    HW132864   0.473   4.568   7.138  0.1859  2.3977  0.8123
 7135SOL    HW232865   0.506   4.439   7.202  2.3680  0.7085 -1.1867
 7136SOL     OW32866   2.038   4.452   8.537  0.2326 -0.2544  0.3714
 7136SOL    HW132867   1.992   4.520   8.489  1.1501  2.1232  2.7994
 7136SOL    HW232868   2.094   4.507   8.593  0.3626  0.4989 -0.5110
 7137SOL     OW32869   0.371   1.379   6.318  0.0275  0.0467 -0.3386
 7137SOL    HW132870   0.351   1.427   6.398  0.5797 -0.8163  0.3213
 7137SOL    HW232871   0.285   1.350   6.286 -1.4647  0.2812  3.4903
 7138SOL     OW32872   3.941   3.842   2.312 -0.1413  0.6928 -0.3380
 7138SOL    HW132873   3.928   3.914   2.250  0.4907  1.8161  0.8252
 7138SOL    HW232874   3.993   3.776   2.267  0.8455  0.4276  1.1912
 7139SOL     OW32875   3.308   1.742   6.471 -0.6479 -0.9045 -0.7761
 7139SOL    HW132876   3.281   1.792   6.393 -0.3300  0.5737  0.0701
 7139SOL    HW232877   3.233   1.764   6.527  0.2460  0.2525 -0.0446
 7140SOL     OW32878   1.702   3.970  13.895  0.1993  0.0702  0.4701
 7140SOL    HW132879   1.788   3.999  13.865 -0.4666  0.8924 -0.6471
 7140SOL    HW232880   1.660   4.055  13.884  1.9641  1.0015  0.9837
 7141SOL     OW32881   4.315   1.514   4.692 -0.2292  0.0514 -0.1450
 7141SOL    HW132882   4.334   1.455   4.765  0.8815  0.3417 -0.1889
 7141SOL    HW232883   4.382   1.489   4.627 -0.4460 -0.1779 -0.2784
 7142SOL     OW32884   1.405   2.488   4.628 -0.2725 -0.1207 -0.0197
 7142SOL    HW132885   1.357   2.475   4.709 -1.6392  0.2190 -0.7729
 7142SOL    HW232886   1.494   2.472   4.660 -1.1964 -0.5282  2.3379
 7143SOL     OW32887   1.293   0.152   2.316 -0.2842  0.1398  0.6698
 7143SOL    HW132888   1.330   0.193   2.238  0.0585 -0.0827  0.7177
 7143SOL    HW232889   1.376   0.138   2.361 -0.6706 -0.4443  1.2057
 7144SOL     OW32890   2.604   2.381   3.698 -0.1860  0.4404 -0.1023
 7144SOL    HW132891   2.612   2.290   3.670  1.1581  0.7536 -0.7507
 7144SOL    HW232892   2.535   2.417   3.642  1.1282  0.6218 -1.6149
 7145SOL     OW32893   0.552   3.569   3.869  0.6100  0.0844  0.4355
 7145SOL    HW132894   0.641   3.589   3.900  0.4483  0.7877  0.4503
 7145SOL    HW232895   0.513   3.640   3.920 -0.4977 -0.7812  0.8059
 7146SOL     OW32896   0.339   1.728   4.878 -0.0294  0.0493 -0.1215
 7146SOL    HW132897   0.353   1.818   4.849  0.8867  0.0870  0.4449
 7146SOL    HW232898   0.268   1.697   4.822 -0.1099 -1.4526  0.8136
 7147SOL     OW32899   3.532   2.764   1.689 -0.3074 -0.5326 -0.4739
 7147SOL    HW132900   3.611   2.803   1.725 -0.1002 -0.0628 -1.4389
 7147SOL    HW232901   3.562   2.675   1.671  0.6573 -0.3477  0.2040
 7148SOL     OW32902   1.702   2.551   7.693 -0.7697  0.4887 -0.1768
 7148SOL    HW132903   1.693   2.646   7.695 -0.1275  0.5368  0.4842
 7148SOL    HW232904   1.676   2.520   7.780 -3.4182  0.9674 -0.7929
 7149SOL     OW32905   0.150   3.593  12.936  0.2673  0.0160 -0.3271
 7149SOL    HW132906   0.219   3.528  12.950  1.5723  1.2781 -0.8766
 7149SOL    HW232907   0.190   3.673  12.971 -3.0982 -0.0371  3.6698
 7150SOL     OW32908   0.759   2.638   1.874  0.4034 -0.0765 -0.5057
 7150SOL    HW132909   0.852   2.642   1.896 -0.3182  2.0478  2.2136
 7150SOL    HW232910   0.757   2.670   1.784  0.1369  1.6960  0.1301
 7151SOL     OW32911   0.318   2.322   7.613 -0.6974  0.0341 -0.2367
 7151SOL    HW132912   0.315   2.252   7.547 -0.6198 -0.7930  0.6286
 7151SOL    HW232913   0.227   2.341   7.636 -0.4398  1.6347 -0.5826
 7152SOL     OW32914   3.963   2.528   2.020  0.2977 -0.0602  0.4212
 7152SOL    HW132915   3.908   2.467   2.069 -1.5211  0.2888 -1.2045
 7152SOL    HW232916   4.010   2.468   1.963 -0.2479  1.0128 -1.1637
 7153SOL     OW32917   3.942   0.544   5.809  0.7048  0.2890 -0.0933
 7153SOL    HW132918   3.988   0.623   5.838 -0.5478  0.9038  0.2219
 7153SOL    HW232919   3.985   0.527   5.725  2.4424  2.1790  0.4344
 7154SOL     OW32920   3.592   4.720  10.003  0.0505 -0.4106 -0.0426
 7154SOL    HW132921   3.616   0.085  10.016  2.0631 -1.1928  1.7832
 7154SOL    HW232922   3.680   4.684  10.018 -0.5004 -2.0595 -0.8044
 7155SOL     OW32923   3.057   3.281  16.434  0.0758  0.1296 -0.2480
 7155SOL    HW132924   2.970   3.302  16.400 -0.2759  0.5219  0.9005
 7155SOL    HW232925   3.101   3.291  16.349  0.7450  1.0869  0.2159
 7156SOL     OW32926   0.838   3.360   1.857 -0.2641 -0.4150  0.1063
 7156SOL    HW132927   0.766   3.301   1.835  0.3263 -1.0611 -0.0841
 7156SOL    HW232928   0.900   3.297   1.893 -0.1526 -0.6229 -0.4553
 7157SOL     OW32929   3.844   2.906   8.908 -0.0525 -0.4198 -0.0011
 7157SOL    HW132930   3.925   2.871   8.947  0.2195  0.5596  0.3204
 7157SOL    HW232931   3.826   2.834   8.847 -0.0507 -0.8447  0.4973
 7158SOL     OW32932   1.736   0.797  17.333  0.1892  0.2134  0.0843
 7158SOL    HW132933   1.704   0.732  17.270 -0.1635 -0.2844  0.7808
 7158SOL    HW232934   1.659   0.853  17.342  1.1766  1.4150  1.0493
 7159SOL     OW32935   4.215   1.536   7.854  0.2604 -0.1019 -0.0254
 7159SOL    HW132936   4.261   1.458   7.823 -1.7719 -1.1621 -0.3338
 7159SOL    HW232937   4.189   1.568   7.767 -0.4225  1.2841  0.6847
 7160SOL     OW32938   0.726   2.080   3.062 -0.4490 -0.5194  0.2814
 7160SOL    HW132939   0.814   2.056   3.090 -0.6581 -0.2869  1.1450
 7160SOL    HW232940   0.753   2.095   2.971 -1.6320  1.6715  0.2857
 7161SOL     OW32941   2.640   1.243  17.422  0.0977  0.2681  0.2038
 7161SOL    HW132942   2.685   1.159  17.424  0.0506  0.2812  2.3810
 7161SOL    HW232943   2.551   1.222  17.449  0.2705 -2.3943 -1.3293
 7162SOL     OW32944   1.280   2.404  13.238  0.2786 -0.1499  0.6107
 7162SOL    HW132945   1.195   2.394  13.195  0.6579 -0.7614  0.0017
 7162SOL    HW232946   1.317   2.483  13.198  2.9497 -1.5382  0.3370
 7163SOL     OW32947   2.672   1.531   1.134 -0.1891 -0.4646  0.4330
 7163SOL    HW132948   2.630   1.596   1.078  0.9222 -0.0480  0.0845
 7163SOL    HW232949   2.667   1.562   1.225 -0.6982 -2.0375  0.9351
 7164SOL     OW32950   1.740   3.510  16.577 -0.1664 -0.1867 -0.4077
 7164SOL    HW132951   1.714   3.489  16.667  1.5331 -0.2426  0.0552
 7164SOL    HW232952   1.697   3.435  16.535 -2.1599 -0.1009  1.4606
 7165SOL     OW32953   0.438   0.586   9.106 -0.4438  0.1927  0.0108
 7165SOL    HW132954   0.447   0.521   9.036 -1.6454 -1.2811  1.2395
 7165SOL    HW232955   0.342   0.591   9.114 -0.8513  0.0954 -4.8198
 7166SOL     OW32956   3.092   2.447   2.710 -0.1261  0.0674 -0.1548
 7166SOL    HW132957   3.144   2.514   2.667  0.5471 -0.1579  0.3160
 7166SOL    HW232958   3.135   2.366   2.682 -0.6551  0.1195 -1.1345
 7167SOL     OW32959   0.841   2.683  16.683 -0.0884  0.4908 -1.1334
 7167SOL    HW132960   0.850   2.717  16.772 -1.9583 -2.9088  0.3547
 7167SOL    HW232961   0.859   2.589  16.681 -0.5095  0.3799  0.9217
 7168SOL     OW32962   1.428   1.446   4.372 -0.2998 -0.6153  0.2923
 7168SOL    HW132963   1.370   1.372   4.360 -1.5398  0.6209 -1.4667
 7168SOL    HW232964   1.489   1.428   4.300 -1.0128 -0.6055 -0.3191
 7169SOL     OW32965   3.881   1.040  14.514  0.4066  0.3367 -0.4581
 7169SOL    HW132966   3.807   1.005  14.563  1.8614  0.0257  1.5389
 7169SOL    HW232967   3.938   0.964  14.505  1.2099  1.1771 -2.2881
 7170SOL     OW32968   2.112   0.882   3.515  0.3441  0.2236 -0.0611
 7170SOL    HW132969   2.021   0.856   3.534  0.2303  1.4296  1.0379
 7170SOL    HW232970   2.156   0.798   3.505 -0.1085  0.0557 -0.6838
 7171SOL     OW32971   1.374   2.450   9.412 -0.2117  0.3640  0.4206
 7171SOL    HW132972   1.403   2.473   9.500  1.5189  0.5521 -0.1830
 7171SOL    HW232973   1.447   2.482   9.359 -0.6733  2.2493  0.9077
 7172SOL     OW32974   3.794   0.835  11.033  0.3001 -0.0074 -0.6505
 7172SOL    HW132975   3.781   0.850  10.940 -2.3735 -2.2389 -0.6338
 7172SOL    HW232976   3.862   0.768  11.033 -0.6576 -0.9712 -0.9680
 7173SOL     OW32977   4.357   0.784   7.496  0.0899 -0.1856  0.0937
 7173SOL    HW132978   4.408   0.847   7.546  1.2683  0.3543 -1.7698
 7173SOL    HW232979   4.418   0.766   7.424 -0.0021 -1.0814  0.2471
 7174SOL     OW32980   3.150   1.155   4.546 -0.1220 -0.4106  0.2785
 7174SOL    HW132981   3.136   1.187   4.635 -2.2201  0.7955 -0.4787
 7174SOL    HW232982   3.087   1.084   4.541 -1.9064  1.2486 -0.8947
 7175SOL     OW32983   1.750   4.414  10.057 -0.0668  0.3099  0.3163
 7175SOL    HW132984   1.704   4.351  10.112  0.0847  0.6250  0.8026
 7175SOL    HW232985   1.774   4.475  10.126  0.4741 -0.3807  0.7367
 7176SOL     OW32986   0.173   1.156   6.311  0.2008  0.2938  0.4693
 7176SOL    HW132987   0.085   1.154   6.349  0.6234 -0.8839  1.3736
 7176SOL    HW232988   0.154   1.223   6.245 -1.8861 -0.2661  0.4998
 7177SOL     OW32989   0.547   3.719   5.339 -0.2926  0.2106  0.1769
 7177SOL    HW132990   0.554   3.645   5.279 -0.8880 -0.5836  1.0981
 7177SOL    HW232991   0.480   3.691   5.401 -0.1360 -0.8963 -0.1627
 7178SOL     OW32992   1.198   0.621  15.211  0.3869  0.1143  0.2101
 7178SOL    HW132993   1.223   0.601  15.301  0.5949  1.5405  0.4748
 7178SOL    HW232994   1.284   0.603  15.174  0.3451  0.9172 -0.2699
 7179SOL     OW32995   2.430   2.715  10.057 -0.7508  0.1993  0.2420
 7179SOL    HW132996   2.467   2.627  10.052 -0.6289  0.2901 -0.4231
 7179SOL    HW232997   2.487   2.761   9.995 -1.5824  4.0359  2.3098
 7180SOL     OW32998   2.892   3.164   1.217 -0.1368 -0.4614 -0.4552
 7180SOL    HW132999   2.957   3.137   1.152  0.4252 -1.4893  0.5269
 7180SOL    HW233000   2.813   3.114   1.196  0.1725 -1.0099 -0.3319
 7181SOL     OW33001   1.411   4.030   8.351  0.4764 -0.0457  0.0853
 7181SOL    HW133002   1.363   4.093   8.296  1.7735  0.6039 -0.3044
 7181SOL    HW233003   1.353   3.955   8.339  1.0000 -0.9235  3.2533
 7182SOL     OW33004   4.471   3.975  15.387  0.0349 -0.6869 -0.2754
 7182SOL    HW133005   4.420   3.999  15.464  0.3584  0.9248 -0.5604
 7182SOL    HW233006   4.555   3.962  15.430  0.4164  1.9684 -0.2736
 7183SOL     OW33007   3.652   4.001  14.773 -0.2469  0.1326  0.2728
 7183SOL    HW133008   3.697   4.053  14.839  1.1636 -0.8591  0.0924
 7183SOL    HW233009   3.692   3.915  14.785  0.2709  0.2554 -0.5690
 7184SOL     OW33010   1.052   2.487   5.898 -0.3018  0.1113 -0.3533
 7184SOL    HW133011   1.127   2.428   5.906 -0.8021 -0.5942 -0.8650
 7184SOL    HW233012   1.051   2.535   5.981  2.7353  0.7049 -0.6730
 7185SOL     OW33013   3.610   3.904   2.207 -0.3939 -0.5904  0.4909
 7185SOL    HW133014   3.574   3.819   2.182 -3.2446  0.6036  0.4624
 7185SOL    HW233015   3.696   3.876   2.238  0.5847  1.6700 -0.1641
 7186SOL     OW33016   2.638   4.337   8.544  0.0804  0.1970 -0.1889
 7186SOL    HW133017   2.711   4.303   8.596 -0.8816  1.3134  1.9092
 7186SOL    HW233018   2.697   4.403   8.507  2.5254 -0.4779  2.4976
 7187SOL     OW33019   1.358   1.285  14.734  0.6155 -0.0656  0.4924
 7187SOL    HW133020   1.432   1.236  14.699 -0.5650 -0.9827 -0.7247
 7187SOL    HW233021   1.363   1.369  14.690 -1.7204 -0.9851 -1.5790
 7188SOL     OW33022   4.425   1.750   7.432 -0.1149 -0.4139 -0.2063
 7188SOL    HW133023   4.432   1.728   7.524 -1.0828 -0.8780 -0.2446
 7188SOL    HW233024   4.332   1.770   7.425  0.0200  0.2653 -0.0114
 7189SOL     OW33025   4.507   3.272  13.855  0.2623  0.8576  1.1374
 7189SOL    HW133026   4.484   3.292  13.946  0.9157 -0.6883  1.6456
 7189SOL    HW233027   4.521   3.178  13.868  4.4860  1.3954  0.2202
 7190SOL     OW33028   0.592   2.363   0.659  0.7615  0.6086 -0.2202
 7190SOL    HW133029   0.565   2.404   0.742  0.3223 -1.0496  0.4660
 7190SOL    HW233030   0.598   2.442   0.606 -1.3565  1.5162  0.8606
 7191SOL     OW33031   3.163   3.149   8.244  0.3014  0.1000  0.2323
 7191SOL    HW133032   3.081   3.119   8.205  1.2809 -0.1518 -1.6185
 7191SOL    HW233033   3.133   3.220   8.301 -3.2076 -1.1378 -0.0654
 7192SOL     OW33034   1.284   2.763   9.564 -0.2238 -0.0230  0.6829
 7192SOL    HW133035   1.240   2.767   9.480 -0.0155 -0.5818  0.5535
 7192SOL    HW233036   1.226   2.696   9.600 -1.2660  2.4212  3.5857
 7193SOL     OW33037   0.540   1.188   2.446 -0.0503  0.1660 -0.1844
 7193SOL    HW133038   0.498   1.248   2.384  2.2989  1.5554 -0.4300
 7193SOL    HW233039   0.465   1.177   2.505 -0.4816 -0.8989 -0.9276
 7194SOL     OW33040   3.771   0.137   1.784  0.2594 -0.1935  0.1040
 7194SOL    HW133041   3.761   0.170   1.694 -2.0129 -0.3082  0.3177
 7194SOL    HW233042   3.808   0.052   1.760  3.5747  1.2051  0.2791
 7195SOL     OW33043   3.330   4.703   4.326 -0.1762 -0.2676  0.2561
 7195SOL    HW133044   3.330   4.607   4.317  0.8135 -0.1642 -0.8785
 7195SOL    HW233045   3.364   4.715   4.415 -0.1146  0.9868  0.0625
 7196SOL     OW33046   4.565   2.083   8.173 -0.6453 -0.2905  0.0621
 7196SOL    HW133047   4.602   2.020   8.234 -1.8875 -0.7513  0.3475
 7196SOL    HW233048   4.510   2.131   8.235  1.0078 -0.8612  1.9620
 7197SOL     OW33049   0.168   1.540   7.461 -0.2343  0.6039 -0.2134
 7197SOL    HW133050   0.116   1.577   7.390  1.0671 -1.9123 -2.4886
 7197SOL    HW233051   0.173   1.619   7.516 -0.3656  0.3136  0.2142
 7198SOL     OW33052   0.719   3.480   8.716 -0.2294  0.7885 -0.6787
 7198SOL    HW133053   0.656   3.408   8.724 -1.5308  1.7515 -2.1225
 7198SOL    HW233054   0.770   3.450   8.791 -2.7204  0.0286  0.7224
 7199SOL     OW33055   3.212   3.736  10.179 -0.0107 -0.4188 -0.1644
 7199SOL    HW133056   3.277   3.780  10.124 -1.9061  1.1798 -1.1198
 7199SOL    HW233057   3.128   3.777  10.159 -0.0221  0.5167  1.8455
 7200SOL     OW33058   1.525   3.750   0.873 -0.0004  0.4690 -0.3765
 7200SOL    HW133059   1.515   3.784   0.784  0.5186  1.6826  0.0406
 7200SOL    HW233060   1.434   3.725   0.891  1.0162 -2.5222  0.5288
 7201SOL     OW33061   2.556   2.174   7.545  0.1554  0.4667 -0.6042
 7201SOL    HW133062   2.495   2.178   7.619 -0.0432  0.2270 -0.7567
 7201SOL    HW233063   2.593   2.088   7.564  1.6868  1.8089  2.4969
 7202SOL     OW33064   0.282   0.040   5.607  0.6007 -0.2711 -0.6540
 7202SOL    HW133065   0.299   0.083   5.690  0.1676  1.1068 -1.2785
 7202SOL    HW233066   0.189   0.059   5.602  0.6524  0.2707  0.3719
 7203SOL     OW33067   3.000   1.706   1.837  0.0414 -0.0781  0.0638
 7203SOL    HW133068   2.983   1.797   1.815 -1.6223 -0.0497  1.5091
 7203SOL    HW233069   3.096   1.705   1.843  0.0048  0.5281  0.6736
 7204SOL     OW33070   2.935   0.192   1.205 -0.7749  0.4535 -0.1690
 7204SOL    HW133071   2.969   0.203   1.116  0.0235 -0.8624 -0.0329
 7204SOL    HW233072   2.954   0.098   1.210 -2.4907  0.0608 -1.1122
 7205SOL     OW33073   3.663   1.144   6.831  0.7783 -0.2146 -0.2129
 7205SOL    HW133074   3.687   1.224   6.878  0.2439 -1.2605  1.8308
 7205SOL    HW233075   3.746   1.102   6.809 -0.5302 -1.9326 -1.8512
 7206SOL     OW33076   1.125   4.187   1.135  0.1437 -0.5745  0.0508
 7206SOL    HW133077   1.117   4.271   1.090  1.7252 -0.3943  0.1215
 7206SOL    HW233078   1.113   4.215   1.225 -0.2455  2.2714 -0.8895
 7207SOL     OW33079   1.390   4.607   7.062 -0.1097 -0.0234 -0.3711
 7207SOL    HW133080   1.399   4.571   6.974  0.1647  0.2368 -0.4500
 7207SOL    HW233081   1.468   4.663   7.066  0.4132 -0.7177 -0.6831
 7208SOL     OW33082   0.128   4.281  16.969  0.3583  0.6302 -0.3545
 7208SOL    HW133083   0.195   4.315  17.028  2.3871 -1.0777 -1.6767
 7208SOL    HW233084   0.106   4.201  17.017 -0.2455  0.9570 -0.0783
 7209SOL     OW33085   0.227   0.162   3.084 -0.4627 -0.0724  0.0256
 7209SOL    HW133086   0.162   0.232   3.090  2.4891  2.7838 -1.0525
 7209SOL    HW233087   0.180   0.104   3.024  0.2475  0.0200 -0.6278
 7210SOL     OW33088   0.852   4.238   8.860  0.5341 -0.0270 -0.1036
 7210SOL    HW133089   0.937   4.276   8.838  0.0978  0.0678 -1.6409
 7210SOL    HW233090   0.799   4.316   8.874  1.6160  0.4192  1.5506
 7211SOL     OW33091   2.711   4.508   5.073 -0.7498 -1.0293  0.4316
 7211SOL    HW133092   2.620   4.503   5.047 -0.5168  2.8578 -1.1453
 7211SOL    HW233093   2.760   4.560   5.009 -2.3428  0.3005  0.2856
 7212SOL     OW33094   1.245   2.535   3.420  0.5169 -0.2222  0.2102
 7212SOL    HW133095   1.167   2.551   3.473 -0.6223 -1.0172 -1.2025
 7212SOL    HW233096   1.296   2.507   3.496  0.6540  1.2682  0.6578
 7213SOL     OW33097   2.989   3.065  14.589  0.4662 -0.2678  0.1426
 7213SOL    HW133098   2.921   3.019  14.639  1.1840  0.2161  1.5620
 7213SOL    HW233099   2.963   3.157  14.588 -0.2933 -0.4431  2.4250
 7214SOL     OW33100   2.251   0.075   6.555 -0.1355 -0.1089  0.1210
 7214SOL    HW133101   2.180   0.052   6.495  1.3728 -1.3449 -1.1840
 7214SOL    HW233102   2.306   0.113   6.487 -0.5762 -0.3859 -0.3858
 7215SOL     OW33103   2.165   1.424   5.977  0.1675 -0.1900  0.1994
 7215SOL    HW133104   2.141   1.337   5.947 -0.7954 -0.2115  1.0417
 7215SOL    HW233105   2.260   1.430   5.967  0.2048  0.3574  0.8445
 7216SOL     OW33106   3.411   2.152   7.243  0.7471 -0.0700  0.2315
 7216SOL    HW133107   3.432   2.151   7.336  0.3761  0.5931  0.3302
 7216SOL    HW233108   3.475   2.093   7.204 -0.3203 -3.2371  3.3228
 7217SOL     OW33109   0.560   2.233   4.605 -0.2642 -0.5332  0.0675
 7217SOL    HW133110   0.601   2.258   4.523  1.3256 -0.8911  0.7595
 7217SOL    HW233111   0.614   2.159   4.631 -1.2869 -1.3471 -0.1473
 7218SOL     OW33112   2.516   4.101   0.103 -0.0774  0.0242  0.3061
 7218SOL    HW133113   2.525   4.026   0.044  0.1372  0.7625 -0.5895
 7218SOL    HW233114   2.445   4.067   0.158 -0.1117 -0.2225  0.1124
 7219SOL     OW33115   2.645   1.361   9.639  0.1583  0.3878  0.0735
 7219SOL    HW133116   2.650   1.280   9.588 -1.8656  0.5365 -0.3767
 7219SOL    HW233117   2.737   1.361   9.665  0.3949 -0.1318 -0.7624
 7220SOL     OW33118   0.179   1.755   0.188  0.1803 -0.7793  0.4524
 7220SOL    HW133119   0.246   1.823   0.178  0.4117 -0.7520  2.2675
 7220SOL    HW233120   0.117   1.797   0.129  0.1002  1.5252  2.1595
 7221SOL     OW33121   1.203   4.698   5.220  0.2325  0.4138  0.5230
 7221SOL    HW133122   1.147   0.048   5.217 -1.3857 -0.7296  1.4501
 7221SOL    HW233123   1.178   4.660   5.136  0.6749 -0.7128  0.8993
 7222SOL     OW33124   0.819   3.947   4.486  0.2194 -0.7921 -0.2204
 7222SOL    HW133125   0.896   4.004   4.482 -0.3321 -0.0608 -0.4302
 7222SOL    HW233126   0.780   3.988   4.564  0.0874  1.9626 -1.7098
 7223SOL     OW33127   1.668   0.032   3.910 -0.3950 -0.3934  0.0044
 7223SOL    HW133128   1.686   4.669   3.883 -1.3738 -0.1508 -1.4707
 7223SOL    HW233129   1.600   0.027   3.978 -2.0707 -1.3725 -1.7321
 7224SOL     OW33130   2.327   1.406   3.890  0.1679  0.8657  0.0173
 7224SOL    HW133131   2.345   1.373   3.801  0.5160  0.6700  0.1614
 7224SOL    HW233132   2.277   1.332   3.925  0.1277  0.4907 -0.8088
 7225SOL     OW33133   3.004   3.108   2.747  0.3515  0.1228  0.1622
 7225SOL    HW133134   3.014   3.201   2.766 -0.8618  0.1187  0.8166
 7225SOL    HW233135   2.999   3.097   2.652  2.2879 -0.3616  0.1218
 7226SOL     OW33136   3.450   2.167   8.452 -0.2711  0.3239  0.6353
 7226SOL    HW133137   3.428   2.259   8.436  0.3151  0.4133  0.3235
 7226SOL    HW233138   3.545   2.176   8.449 -0.4200  2.3215  1.7168
 7227SOL     OW33139   2.216   2.019  12.289  0.2846 -0.2302 -0.1327
 7227SOL    HW133140   2.128   2.056  12.291 -0.1696 -1.5128  2.2608
 7227SOL    HW233141   2.246   2.024  12.379 -0.0399  2.7692 -0.1719
 7228SOL     OW33142   1.159   0.566   5.811 -0.1916  0.1660  0.1741
 7228SOL    HW133143   1.120   0.602   5.891  0.1501  0.2521  0.3020
 7228SOL    HW233144   1.169   0.472   5.826 -2.3051 -0.5711 -3.0871
 7229SOL     OW33145   4.575   3.836   4.675 -0.4713 -0.1862  0.2997
 7229SOL    HW133146   4.510   3.894   4.714 -2.5256 -2.9138  0.9198
 7229SOL    HW233147   4.657   3.882   4.695  0.5133 -1.8264  0.0185
 7230SOL     OW33148   2.122   1.032   1.222  0.2045 -0.1967  0.1583
 7230SOL    HW133149   2.157   1.032   1.311  0.5196 -2.8780  0.0608
 7230SOL    HW233150   2.064   0.956   1.208  0.8949 -0.8023  0.5768
 7231SOL     OW33151   2.880   3.259  10.221 -0.5175  0.1277 -0.3030
 7231SOL    HW133152   2.823   3.206  10.277 -1.0122  2.6822  1.6094
 7231SOL    HW233153   2.866   3.349  10.252 -0.6887  0.4600 -1.3461
 7232SOL     OW33154   0.325   4.665   4.844  0.1794  0.5717  0.5812
 7232SOL    HW133155   0.393   4.601   4.826 -2.0784 -1.4497 -0.7412
 7232SOL    HW233156   0.338   4.695   4.934 -0.5629 -0.6902  1.1113
 7233SOL     OW33157   4.089   4.280  14.296  0.3044  0.0820 -0.0899
 7233SOL    HW133158   4.072   4.374  14.301 -0.4614 -0.1360  1.4675
 7233SOL    HW233159   4.040   4.267  14.215  0.3947 -0.0730 -0.1199
 7234SOL     OW33160   2.026   2.742   5.990  0.0368 -0.3065  0.3132
 7234SOL    HW133161   2.039   2.816   5.930 -0.3070  0.2642  0.9476
 7234SOL    HW233162   2.052   2.779   6.074  0.8352 -0.1730  0.0136
 7235SOL     OW33163   4.193   3.537  10.926 -0.1726 -0.0545 -0.0162
 7235SOL    HW133164   4.264   3.587  10.968 -1.4166  0.9070  0.9622
 7235SOL    HW233165   4.118   3.575  10.972 -0.0586 -0.6418  0.6584
 7236SOL     OW33166   3.254   0.749  16.176 -0.1821 -0.6056  0.6118
 7236SOL    HW133167   3.260   0.654  16.173 -1.2691 -0.5910 -1.9046
 7236SOL    HW233168   3.184   0.757  16.240  1.3112  3.1886  1.7594
 7237SOL     OW33169   0.438   1.422  16.169 -0.0256 -0.2504 -0.4770
 7237SOL    HW133170   0.353   1.399  16.207 -0.9531  0.1233 -2.3061
 7237SOL    HW233171   0.490   1.359  16.218 -0.4610 -0.1799  0.0714
 7238SOL     OW33172   2.549   0.724   3.009  0.3241  0.5678  0.2379
 7238SOL    HW133173   2.602   0.743   3.087  1.2439 -2.1586  0.2845
 7238SOL    HW233174   2.567   0.809   2.969  4.0748 -0.0166  0.6314
 7239SOL     OW33175   1.014   1.072   9.495  0.6675  0.2849 -0.8412
 7239SOL    HW133176   0.926   1.034   9.488  0.9240 -0.7225  1.3082
 7239SOL    HW233177   1.055   1.006   9.550 -0.0475 -0.7150 -1.4885
 7240SOL     OW33178   3.074   3.949  11.543  0.1970 -0.1383  0.1938
 7240SOL    HW133179   2.999   3.902  11.507  1.6582 -2.1983 -0.1896
 7240SOL    HW233180   3.034   4.012  11.602 -2.4121  1.9737 -3.8431
 7241SOL     OW33181   4.076   2.133  16.490 -0.2667  0.1964  0.0515
 7241SOL    HW133182   4.037   2.057  16.533  0.8970 -0.2190  0.3673
 7241SOL    HW233183   4.169   2.113  16.479 -0.3752  0.5614 -1.5409
 7242SOL     OW33184   2.140   3.612  10.805 -0.1139  0.0167  0.6363
 7242SOL    HW133185   2.143   3.662  10.723  0.2610  1.2579  1.4193
 7242SOL    HW233186   2.057   3.565  10.799  0.4153 -0.7073 -1.0595
 7243SOL     OW33187   1.924   0.129   5.346  0.0510 -0.2741 -0.3573
 7243SOL    HW133188   1.864   0.054   5.346  0.8296 -0.9022  0.0785
 7243SOL    HW233189   1.869   0.201   5.316 -1.1671 -0.0896  2.3601
 7244SOL     OW33190   2.680   1.476  17.565 -0.1399  0.1465 -0.7808
 7244SOL    HW133191   2.667   1.406  17.500 -2.3566  0.0665 -0.2487
 7244SOL    HW233192   2.591   1.508  17.572  0.1914  1.4044 -2.3815
 7245SOL     OW33193   2.752   0.404   1.937 -0.6008  0.5962 -0.2544
 7245SOL    HW133194   2.678   0.462   1.919 -0.4180  0.5487 -1.1325
 7245SOL    HW233195   2.767   0.374   1.848 -0.6786  0.7318 -0.3135
 7246SOL     OW33196   2.764   0.679  16.215  0.4237 -0.6279  0.3921
 7246SOL    HW133197   2.681   0.642  16.244  0.8500 -1.7425  0.1738
 7246SOL    HW233198   2.744   0.728  16.135  0.2353 -0.4760  0.5317
 7247SOL     OW33199   3.055   0.001  17.681 -0.6086  0.6267  0.0370
 7247SOL    HW133200   3.014   4.691  17.602  1.3490  0.3214 -0.8434
 7247SOL    HW233201   2.989   4.719   0.040 -1.3216  0.9683 -0.5965
 7248SOL     OW33202   3.191   1.882  16.202  0.2753  0.4721 -0.0230
 7248SOL    HW133203   3.202   1.958  16.146  0.0980 -0.4341 -1.2932
 7248SOL    HW233204   3.281   1.868  16.231 -0.0072 -0.0617  0.5988
 7249SOL     OW33205   2.982   4.289   2.826  1.1942 -0.7811 -0.3331
 7249SOL    HW133206   2.972   4.281   2.731  0.3773  2.6778 -0.5490
 7249SOL    HW233207   3.030   4.372   2.824 -0.3778  0.1691  1.9622
 7250SOL     OW33208   2.429   3.625   8.703  0.3536  0.0181  0.2807
 7250SOL    HW133209   2.461   3.618   8.793  0.3403  0.9609  0.3631
 7250SOL    HW233210   2.351   3.679   8.720  1.9891  2.6983 -0.7301
 7251SOL     OW33211   4.322   2.310   6.358 -0.1584 -0.4314 -0.3096
 7251SOL    HW133212   4.316   2.310   6.263 -2.0772  0.6919 -0.1771
 7251SOL    HW233213   4.386   2.240   6.375  1.3580  1.1709  0.5537
 7252SOL     OW33214   3.312   0.896   8.139 -0.5356  0.6476  0.0022
 7252SOL    HW133215   3.321   0.985   8.103 -1.7888  0.8845  0.2742
 7252SOL    HW233216   3.217   0.892   8.126 -0.8674  1.1320  2.3879
 7253SOL     OW33217   2.458   0.296   8.509 -0.4188 -0.8335 -0.2161
 7253SOL    HW133218   2.459   0.300   8.604  0.8722  2.3670 -0.3776
 7253SOL    HW233219   2.384   0.237   8.496 -1.4722 -0.2474  3.0377
 7254SOL     OW33220   1.559   3.218  14.894  0.1916 -0.2521  0.1639
 7254SOL    HW133221   1.522   3.156  14.831  0.3752 -0.5900  0.3892
 7254SOL    HW233222   1.652   3.208  14.878 -0.0708 -0.7879 -1.0394
 7255SOL     OW33223   4.027   3.311   3.079  0.2114  0.3805 -0.5829
 7255SOL    HW133224   4.026   3.374   3.008  0.5357  0.4775 -0.5005
 7255SOL    HW233225   4.022   3.231   3.027 -1.3603 -1.6862  2.7075
 7256SOL     OW33226   0.918   3.101   9.251  0.2858  0.0366 -0.1185
 7256SOL    HW133227   0.946   3.066   9.166  2.8006 -0.2847  0.8396
 7256SOL    HW233228   0.917   3.020   9.302  2.4568  0.7602  1.0514
 7257SOL     OW33229   4.137   1.630  13.329 -0.4792  0.5434 -0.3557
 7257SOL    HW133230   4.051   1.637  13.288  0.0770  0.5805 -1.4846
 7257SOL    HW233231   4.161   1.538  13.321  0.4531  0.8744 -1.3579
 7258SOL     OW33232   1.646   1.783   2.776  0.3887 -0.4235 -0.3142
 7258SOL    HW133233   1.685   1.863   2.741  0.5421 -0.8925 -1.2002
 7258SOL    HW233234   1.666   1.713   2.714 -0.4959 -0.6418 -0.3385
 7259SOL     OW33235   1.413   4.591   5.836  0.3587  0.1716  0.0227
 7259SOL    HW133236   1.399   4.549   5.751 -1.5824 -1.0300  0.9383
 7259SOL    HW233237   1.338   4.650   5.828  0.1431  0.0572  1.1814
 7260SOL     OW33238   0.158   3.706   3.728 -0.3984 -0.1402  0.2069
 7260SOL    HW133239   0.159   3.741   3.817  1.0000 -1.4066  0.6958
 7260SOL    HW233240   0.068   3.713   3.696  0.5639  0.9936 -2.2557
 7261SOL     OW33241   3.760   1.517  12.116 -0.0600  0.2013 -0.6430
 7261SOL    HW133242   3.829   1.458  12.086  1.3665  1.0516  0.9723
 7261SOL    HW233243   3.694   1.514  12.047 -0.0912 -0.1096 -0.6011
 7262SOL     OW33244   4.610   0.487   6.226 -0.1561 -0.2280  0.1802
 7262SOL    HW133245   4.618   0.472   6.132 -2.4172  0.5254 -0.1515
 7262SOL    HW233246   4.686   0.542   6.245 -0.9079  2.4553 -4.5436
 7263SOL     OW33247   4.166   3.864  10.426 -0.2428  0.1423 -0.1956
 7263SOL    HW133248   4.253   3.829  10.410  0.1472  0.7448  0.5835
 7263SOL    HW233249   4.108   3.789  10.420  0.5243 -0.3948 -0.7891
 7264SOL     OW33250   4.097   4.009   3.384 -0.4262  0.5959 -0.0927
 7264SOL    HW133251   4.033   3.947   3.349  0.5734 -1.8753  2.4125
 7264SOL    HW233252   4.081   3.984   3.475  0.9267  1.0487  0.2790
 7265SOL     OW33253   4.021   0.630   9.972  0.3995 -0.8139  0.6801
 7265SOL    HW133254   3.986   0.718   9.960  1.3595 -0.5988 -0.5797
 7265SOL    HW233255   4.098   0.641   9.916  0.8759  1.2527  1.7566
 7266SOL     OW33256   2.093   3.258  15.442  0.4916 -0.0541 -0.0751
 7266SOL    HW133257   2.023   3.193  15.433  1.3919 -0.9581 -0.5446
 7266SOL    HW233258   2.086   3.305  15.359 -0.6244 -0.0729  0.0176
 7267SOL     OW33259   2.081   2.004   5.675 -0.2804 -0.0353 -0.1548
 7267SOL    HW133260   2.037   2.009   5.591 -0.7229 -4.0037 -0.1535
 7267SOL    HW233261   2.150   1.939   5.666  1.0670  1.5056 -0.9753
 7268SOL     OW33262   0.632   0.352   1.938 -0.4655  0.3284  0.6495
 7268SOL    HW133263   0.568   0.354   1.866  0.8519 -0.2405 -0.5299
 7268SOL    HW233264   0.668   0.440   1.933 -1.1622  0.5853  0.1418
 7269SOL     OW33265   3.471   2.790  13.940 -0.8255 -0.5827 -0.3259
 7269SOL    HW133266   3.389   2.821  13.903 -0.7847 -0.3494 -0.2208
 7269SOL    HW233267   3.486   2.855  14.009 -1.9007 -1.6918  0.9748
 7270SOL     OW33268   0.868   0.226   3.351  0.1690  0.0845  0.3143
 7270SOL    HW133269   0.819   0.300   3.386  0.8424  1.3925 -1.5123
 7270SOL    HW233270   0.846   0.153   3.408 -1.6288  0.7823  0.4990
 7271SOL     OW33271   1.195   0.728   7.042 -0.4441 -0.2934 -0.5282
 7271SOL    HW133272   1.222   0.733   6.951 -0.9516  2.5810 -0.5156
 7271SOL    HW233273   1.245   0.801   7.078 -1.3779 -0.1759  0.5401
 7272SOL     OW33274   3.100   2.890  14.096  0.1091 -0.1133 -0.3819
 7272SOL    HW133275   3.176   2.871  14.041 -1.4214  0.3991 -2.6616
 7272SOL    HW233276   3.042   2.898  14.021 -0.9802 -0.7546  0.3966
 7273SOL     OW33277   4.020   4.586   4.538 -0.0541  0.2587  0.5605
 7273SOL    HW133278   4.029   4.678   4.517 -0.8631  0.3613  0.6685
 7273SOL    HW233279   4.112   4.559   4.546 -0.4221 -1.0828  0.4018
 7274SOL     OW33280   1.845   0.346   8.953  0.1697 -0.1508  0.4984
 7274SOL    HW133281   1.845   0.440   8.933  1.8012 -0.7502 -2.3552
 7274SOL    HW233282   1.849   0.348   9.049 -0.9527 -1.1820  0.5638
 7275SOL     OW33283   1.589   0.057   2.867 -0.3779  0.3466 -0.2341
 7275SOL    HW133284   1.496   0.049   2.849 -0.3442 -3.2113  1.2869
 7275SOL    HW233285   1.600   4.697   2.904 -1.2219  0.2954 -0.1167
 7276SOL     OW33286   1.933   4.359   5.784 -0.2426 -0.1436 -0.1567
 7276SOL    HW133287   1.874   4.286   5.766  2.0969 -2.1864  0.5441
 7276SOL    HW233288   1.987   4.356   5.705 -2.4521 -0.8622 -1.6397
 7277SOL     OW33289   3.125   4.528   2.865 -0.5666  0.4827 -0.4062
 7277SOL    HW133290   3.211   4.520   2.906 -1.0345 -1.4564  0.2212
 7277SOL    HW233291   3.089   4.595   2.924  1.9076  0.7027  0.8517
 7278SOL     OW33292   2.194   0.068   7.782  0.3416 -0.3017 -0.5625
 7278SOL    HW133293   2.109   0.056   7.824  0.5718 -1.4282 -0.3939
 7278SOL    HW233294   2.244   0.030   7.854 -0.6261 -1.1861 -0.3479
 7279SOL     OW33295   3.406   3.932   7.279  0.3786 -0.0444  0.0704
 7279SOL    HW133296   3.363   4.010   7.244 -0.1405  0.9986  3.0280
 7279SOL    HW233297   3.496   3.937   7.247 -0.0191 -1.2661 -1.2465
 7280SOL     OW33298   0.225   3.381  13.911  0.1096  0.5882  0.1718
 7280SOL    HW133299   0.291   3.450  13.924 -0.9900  1.5030  0.8967
 7280SOL    HW233300   0.280   3.303  13.901 -2.1729 -0.9059 -0.7031
 7281SOL     OW33301   2.295   3.131  11.297 -0.2278  0.1601 -0.6193
 7281SOL    HW133302   2.341   3.070  11.356 -0.8085 -0.4354 -0.7912
 7281SOL    HW233303   2.259   3.204  11.348  1.6140  0.4210  0.3144
 7282SOL     OW33304   2.663   0.584   3.432 -0.9304 -0.3241 -0.3484
 7282SOL    HW133305   2.670   0.490   3.445 -0.7358 -0.3291 -0.4863
 7282SOL    HW233306   2.726   0.603   3.363  0.2233  0.6563  0.9822
 7283SOL     OW33307   1.993   2.919   5.795 -0.4748  0.9991 -0.3725
 7283SOL    HW133308   1.950   2.838   5.766 -1.3520  1.0837  0.6727
 7283SOL    HW233309   2.039   2.957   5.720 -0.1837 -1.5143 -1.4860
 7284SOL     OW33310   3.052   0.890   8.195  0.8481  1.1798  0.5406
 7284SOL    HW133311   3.039   0.929   8.281  2.5457  2.9646 -0.0398
 7284SOL    HW233312   2.971   0.905   8.146  2.2163  2.4536 -1.3405
 7285SOL     OW33313   0.437   1.321  17.494  0.4542  0.0308 -0.2032
 7285SOL    HW133314   0.473   1.401  17.532 -0.7102 -0.0254  1.0469
 7285SOL    HW233315   0.345   1.332  17.518  0.0904  2.7487 -2.8240
 7286SOL     OW33316   1.642   1.235   8.166 -0.0830  0.3948  0.1677
 7286SOL    HW133317   1.644   1.282   8.083 -1.4162  2.1189  1.1119
 7286SOL    HW233318   1.668   1.145   8.142 -0.5419  0.1072  0.7469
 7287SOL     OW33319   1.227   0.083   0.934 -0.0157 -0.2402  0.0306
 7287SOL    HW133320   1.166   0.029   0.984 -2.0904  1.0054 -1.1390
 7287SOL    HW233321   1.219   0.064   0.840 -1.9884  0.0425  0.1433
 7288SOL     OW33322   1.694   0.458   4.793 -0.0411  0.2121  0.0250
 7288SOL    HW133323   1.708   0.366   4.771 -1.5818  0.1894 -0.8384
 7288SOL    HW233324   1.599   0.462   4.788 -0.1790 -2.7239  0.8301
 7289SOL     OW33325   3.871   1.234   0.525 -0.6908  0.4766 -0.0356
 7289SOL    HW133326   3.901   1.323   0.542  0.1778 -0.1432  1.7515
 7289SOL    HW233327   3.792   1.250   0.473  0.1300 -1.3363 -1.8605
 7290SOL     OW33328   1.624   3.060   0.073  0.1093  0.2126  0.4452
 7290SOL    HW133329   1.546   3.006   0.059 -0.1252  0.8323 -0.6674
 7290SOL    HW233330   1.653   3.039   0.162  2.1411 -2.2001 -0.7716
 7291SOL     OW33331   3.315   0.089   2.223 -0.2979  0.2063  0.0008
 7291SOL    HW133332   3.319   0.148   2.148 -0.7498  0.6835  0.3530
 7291SOL    HW233333   3.308   0.146   2.300  1.2779 -0.4096  0.6061
 7292SOL     OW33334   3.721   0.601   4.485 -0.1739  0.6335  0.3002
 7292SOL    HW133335   3.737   0.508   4.496 -1.7111  0.1887 -1.1142
 7292SOL    HW233336   3.795   0.623   4.429  1.8936 -0.6901  2.5687
 7293SOL     OW33337   2.473   1.044  14.478  0.5929 -0.5861 -0.0313
 7293SOL    HW133338   2.454   0.953  14.497  1.5049 -0.6494  0.5744
 7293SOL    HW233339   2.569   1.044  14.484  0.4785  1.4847  2.1917
 7294SOL     OW33340   2.565   2.663   7.087 -0.2221 -0.5063  0.2385
 7294SOL    HW133341   2.571   2.644   6.994 -0.0135 -2.6522  0.7033
 7294SOL    HW233342   2.641   2.709   7.121 -0.6769  0.2599  0.2250
 7295SOL     OW33343   1.965   4.448  10.571 -0.6793 -0.3305  0.2880
 7295SOL    HW133344   1.979   4.535  10.607 -0.3638  0.5754 -2.0224
 7295SOL    HW233345   2.007   4.398  10.641  3.3646  2.1100 -0.3880
 7296SOL     OW33346   4.685   1.827  16.838  0.2510 -0.3764 -0.0549
 7296SOL    HW133347   4.659   1.781  16.758  1.4036  1.1571 -1.2976
 7296SOL    HW233348   0.052   1.825  16.825  0.0266 -0.6559 -1.6359
 7297SOL     OW33349   2.170   2.041   9.275  0.2833  0.0061  0.0342
 7297SOL    HW133350   2.187   2.114   9.215  1.3638  0.5903  1.0373
 7297SOL    HW233351   2.190   1.965   9.221  1.2265 -0.7277  1.4225
 7298SOL     OW33352   0.561   1.243   4.719  0.3566 -0.0213 -0.0640
 7298SOL    HW133353   0.478   1.284   4.745 -0.3399  0.2404 -2.6801
 7298SOL    HW233354   0.553   1.257   4.625 -1.4536  0.1459  0.1075
 7299SOL     OW33355   2.290   0.408  17.220 -0.0811 -0.0037 -0.4310
 7299SOL    HW133356   2.319   0.499  17.213  0.7563 -0.1548  1.1134
 7299SOL    HW233357   2.288   0.392  17.125  0.9081 -0.9768 -0.2944
 7300SOL     OW33358   0.765   2.740  17.231  0.3768 -0.3269  0.5156
 7300SOL    HW133359   0.727   2.811  17.282 -1.3951 -2.3557  1.9678
 7300SOL    HW233360   0.778   2.780  17.144  1.7664  1.2594  1.4461
 7301SOL     OW33361   3.051   3.892   2.648  0.4151  0.5079 -0.0417
 7301SOL    HW133362   3.136   3.930   2.625  1.0992 -0.8570  0.1806
 7301SOL    HW233363   3.045   3.907   2.742  1.5399  1.1023 -0.0555
 7302SOL     OW33364   2.209   0.444   1.071 -0.9520  0.0976  0.1086
 7302SOL    HW133365   2.227   0.355   1.103  0.3561  0.2581 -0.1695
 7302SOL    HW233366   2.129   0.456   1.123 -0.3892 -0.1052  1.0361
 7303SOL     OW33367   3.405   4.585   3.258  0.0124  0.1620  0.2655
 7303SOL    HW133368   3.333   4.594   3.321  0.3117 -0.4418  0.6879
 7303SOL    HW233369   3.452   4.507   3.286 -0.9508 -0.3337  0.5148
 7304SOL     OW33370   0.137   0.795   3.855  0.0216 -0.0844 -0.4914
 7304SOL    HW133371   0.231   0.804   3.871  0.3394 -0.1870 -2.2490
 7304SOL    HW233372   0.145   0.717   3.800  0.4034 -1.2180  1.1931
 7305SOL     OW33373   4.420   1.265  10.516  0.6214  0.0320  0.0766
 7305SOL    HW133374   4.495   1.251  10.459 -0.7323  3.3467 -2.5058
 7305SOL    HW233375   4.349   1.295  10.459 -1.1888 -2.4847  1.0049
 7306SOL     OW33376   2.462   0.234   1.777 -0.0639  0.0953  0.4672
 7306SOL    HW133377   2.505   0.302   1.725 -1.1220  1.2368  1.0904
 7306SOL    HW233378   2.388   0.277   1.820  0.1150  0.3988  0.4720
 7307SOL     OW33379   2.463   0.792   6.405 -0.4988 -0.5528  0.3730
 7307SOL    HW133380   2.518   0.857   6.362 -0.7586 -1.0313 -0.6947
 7307SOL    HW233381   2.524   0.721   6.423  0.0796  0.6302  3.0700
 7308SOL     OW33382   2.845   1.807   6.078 -0.6415  0.0307  0.0333
 7308SOL    HW133383   2.894   1.769   6.151  1.7214 -0.4225 -1.7826
 7308SOL    HW233384   2.758   1.768   6.080 -1.8178  2.6481 -0.2404
 7309SOL     OW33385   4.562   0.897   8.209  1.2136  0.0596  0.0931
 7309SOL    HW133386   4.485   0.845   8.187  0.2291  2.2941 -1.6841
 7309SOL    HW233387   4.582   0.857   8.294  0.2222 -2.7388 -0.9953
 7310SOL     OW33388   3.455   3.703   1.265 -0.3760 -0.4842  0.2676
 7310SOL    HW133389   3.431   3.795   1.253  0.9767 -0.0984  0.5139
 7310SOL    HW233390   3.495   3.689   1.179 -0.4701 -3.0856  0.6494
 7311SOL     OW33391   2.263   1.319   3.625  0.4143  0.5130 -0.6440
 7311SOL    HW133392   2.177   1.313   3.582  0.2852  0.8885 -0.4355
 7311SOL    HW233393   2.301   1.237   3.592  2.2429  0.2605  2.1050
 7312SOL     OW33394   0.617   1.027  11.513 -0.1148 -0.1451  0.0937
 7312SOL    HW133395   0.571   0.956  11.556  0.5827 -0.7220 -0.1121
 7312SOL    HW233396   0.568   1.030  11.431  0.2520 -0.8126 -0.1518
 7313SOL     OW33397   1.422   0.011   1.876  0.2442 -0.2047  0.2663
 7313SOL    HW133398   1.418   0.102   1.905 -3.2852 -0.8539  1.7706
 7313SOL    HW233399   1.494   0.023   1.814 -0.6538 -0.7769 -0.8790
 7314SOL     OW33400   2.691   1.557   4.194  0.4637  0.2153 -0.1787
 7314SOL    HW133401   2.678   1.499   4.119 -0.6697 -1.6091  1.4133
 7314SOL    HW233402   2.733   1.628   4.146  1.0885  1.3488  2.0558
 7315SOL     OW33403   1.957   0.633  15.440  0.5413 -0.3338 -0.0037
 7315SOL    HW133404   2.036   0.685  15.456  1.3228 -1.6304  0.3147
 7315SOL    HW233405   1.926   0.622  15.530  1.5327  3.6525  0.8585
 7316SOL     OW33406   2.803   2.020  11.275  0.0186  0.2217 -0.1557
 7316SOL    HW133407   2.876   2.028  11.337  0.5440  0.0414 -0.7503
 7316SOL    HW233408   2.773   2.110  11.259  0.4363  0.2137 -0.9747
 7317SOL     OW33409   3.808   0.876  10.772 -0.1017  0.1080 -0.3102
 7317SOL    HW133410   3.757   0.918  10.703 -2.4636  0.7777  1.8738
 7317SOL    HW233411   3.896   0.887  10.734  0.4662  2.0125  1.5878
 7318SOL     OW33412   4.390   1.955   7.106  0.3048  0.4690 -0.5150
 7318SOL    HW133413   4.467   1.921   7.152 -0.0938  0.5660  0.2132
 7318SOL    HW233414   4.343   1.998   7.177  2.5734  0.5606  0.9123
 7319SOL     OW33415   3.923   0.926   5.798 -0.2526  0.5509  0.3231
 7319SOL    HW133416   3.832   0.951   5.807 -0.7054 -1.2464  0.7569
 7319SOL    HW233417   3.909   0.857   5.733  1.1725  2.1567 -1.7015
 7320SOL     OW33418   4.161   0.487   6.384 -0.1814 -0.0857 -0.0018
 7320SOL    HW133419   4.167   0.449   6.296  2.6372  2.4302 -0.9129
 7320SOL    HW233420   4.245   0.531   6.398 -1.1316  1.8383 -0.2828
 7321SOL     OW33421   1.944   4.265   8.222 -0.2052 -0.2530 -0.0921
 7321SOL    HW133422   1.898   4.273   8.305 -2.3592 -0.9467 -1.2409
 7321SOL    HW233423   2.027   4.300   8.254 -0.4761  0.0342  0.2917
 7322SOL     OW33424   4.175   4.249   8.141 -0.1021 -1.0126  0.1098
 7322SOL    HW133425   4.206   4.238   8.231  0.4334 -0.6744 -0.0339
 7322SOL    HW233426   4.117   4.174   8.125 -1.2441 -0.3935  1.3601
 7323SOL     OW33427   2.122   1.599   2.956 -0.7982  0.4259  0.2638
 7323SOL    HW133428   2.114   1.520   2.901  1.3315  0.4195 -0.0764
 7323SOL    HW233429   2.031   1.620   2.973 -1.0807 -0.7219  0.1839
 7324SOL     OW33430   0.969   2.669   8.660  0.3292 -0.0245 -0.0022
 7324SOL    HW133431   1.021   2.641   8.584 -0.1869 -2.0402  0.4059
 7324SOL    HW233432   0.886   2.655   8.612 -0.0545  1.0425  0.3394
 7325SOL     OW33433   3.895   2.633   9.610  0.0308 -0.2091 -0.5650
 7325SOL    HW133434   3.929   2.660   9.525  1.1398  0.8841  0.2239
 7325SOL    HW233435   3.978   2.640   9.656 -0.3376 -0.7768  0.1971
 7326SOL     OW33436   1.230   4.008   5.969 -0.0365  0.2542 -0.3274
 7326SOL    HW133437   1.169   4.072   5.932 -0.1526 -1.3436 -2.8770
 7326SOL    HW233438   1.312   4.057   5.970 -0.7561  1.4788 -1.3728
 7327SOL     OW33439   3.042   0.217   0.946 -0.8529 -0.0705 -0.1791
 7327SOL    HW133440   3.052   0.207   0.851 -0.4090 -0.2021 -0.1173
 7327SOL    HW233441   3.124   0.264   0.960 -1.1923  1.4496 -3.2396
 7328SOL     OW33442   1.001   1.515   6.330 -0.0027  0.8206 -0.0665
 7328SOL    HW133443   0.987   1.481   6.419  0.3367 -2.0057 -1.0989
 7328SOL    HW233444   0.920   1.486   6.288 -0.0178 -0.8064  1.0906
 7329SOL     OW33445   0.474   0.109   1.056  0.0190  0.0248 -0.0708
 7329SOL    HW133446   0.543   0.115   0.990  1.6842 -1.7273  1.5085
 7329SOL    HW233447   0.437   0.024   1.033 -0.0683  0.1337 -0.3346
 7330SOL     OW33448   2.469   1.007   2.786  0.0862 -0.1729  0.3395
 7330SOL    HW133449   2.544   0.971   2.834 -0.9159 -4.1462 -1.1018
 7330SOL    HW233450   2.494   0.976   2.699 -0.2272 -1.2347  0.6340
 7331SOL     OW33451   2.388   1.486   9.699 -0.5108 -0.2192  0.1232
 7331SOL    HW133452   2.436   1.567   9.682  0.7148 -1.3592 -1.8873
 7331SOL    HW233453   2.456   1.419   9.709  3.1574  3.3004 -1.2414
 7332SOL     OW33454   3.266   0.360   2.213 -0.0849  0.4095 -0.1760
 7332SOL    HW133455   3.194   0.351   2.276  0.9569 -3.1398  0.5125
 7332SOL    HW233456   3.242   0.444   2.174 -1.3401  0.0316 -0.2248
 7333SOL     OW33457   0.908   2.439   9.827  0.0717 -0.4957  0.1244
 7333SOL    HW133458   0.943   2.385   9.756 -1.3865 -0.9633 -0.2326
 7333SOL    HW233459   0.971   2.511   9.819 -2.1056  1.5317  1.3689
 7334SOL     OW33460   2.898   4.341   8.682 -0.0895  0.3378  0.3390
 7334SOL    HW133461   2.992   4.323   8.689 -0.5350 -1.0782  2.5298
 7334SOL    HW233462   2.897   4.407   8.612  1.3013 -1.7041 -1.6456
 7335SOL     OW33463   2.445   4.173   7.600 -0.1231  0.2377 -0.5894
 7335SOL    HW133464   2.520   4.117   7.579  0.9009  1.6460 -0.6724
 7335SOL    HW233465   2.389   4.115   7.651 -0.3003  0.3318 -0.6750
 7336SOL     OW33466   4.030   3.035   7.161  0.2986  0.1103  0.3895
 7336SOL    HW133467   3.953   3.069   7.206  1.4610  0.2344  2.2924
 7336SOL    HW233468   4.055   2.971   7.228 -2.3858 -0.2919  0.9908
 7337SOL     OW33469   3.788   0.092  14.423 -0.2523  0.3965 -0.4856
 7337SOL    HW133470   3.797   4.726  14.402  0.4318  0.5717 -0.9421
 7337SOL    HW233471   3.740   0.127  14.347 -0.9098  2.0832  0.7238
 7338SOL     OW33472   2.773   4.163  11.425 -0.4383  0.0721  0.4590
 7338SOL    HW133473   2.861   4.128  11.444 -1.3499 -2.9869 -1.0481
 7338SOL    HW233474   2.759   4.121  11.340 -1.7655  1.7322 -0.1153
 7339SOL     OW33475   4.212   2.725   7.631  0.2239  0.4297 -0.1752
 7339SOL    HW133476   4.261   2.679   7.562  0.0978 -0.0758  0.0712
 7339SOL    HW233477   4.276   2.770   7.686  0.4716  0.3112 -0.3627
 7340SOL     OW33478   3.731   1.717   5.442 -0.3173  0.3440  0.0168
 7340SOL    HW133479   3.675   1.650   5.402  1.0924 -1.7832  1.6193
 7340SOL    HW233480   3.814   1.678   5.416 -0.4539 -1.8897  2.9550
 7341SOL     OW33481   2.063   2.583   4.204  0.0199  0.2489 -0.1100
 7341SOL    HW133482   2.102   2.573   4.117 -1.5155  0.4793 -0.8221
 7341SOL    HW233483   2.133   2.570   4.268 -1.1673 -0.4637  1.0326
 7342SOL     OW33484   2.502   3.583   4.128  0.4342 -0.2226  0.0448
 7342SOL    HW133485   2.476   3.674   4.118  0.4012  0.0832  2.9046
 7342SOL    HW233486   2.538   3.576   4.217 -1.6232  0.4448  0.9198
 7343SOL     OW33487   3.696   1.882   4.967  0.2337  0.4313 -0.7692
 7343SOL    HW133488   3.609   1.867   5.003  0.8578 -0.5691  0.3327
 7343SOL    HW233489   3.668   1.897   4.877 -1.9768 -0.4304 -0.2129
 7344SOL     OW33490   3.554   2.060   6.986  0.5859 -0.0402 -0.0878
 7344SOL    HW133491   3.587   2.146   7.014  0.2604 -0.9655  3.1339
 7344SOL    HW233492   3.582   2.074   6.896 -0.0519 -0.4197 -0.3458
 7345SOL     OW33493   1.927   3.891  10.705  0.0094 -0.2659  0.4137
 7345SOL    HW133494   1.907   3.952  10.634 -1.0307 -0.7320  0.2996
 7345SOL    HW233495   1.995   3.842  10.660 -0.1287  0.6144 -0.7500
 7346SOL     OW33496   4.359   3.684   1.256  0.0636 -0.7246  0.4429
 7346SOL    HW133497   4.272   3.672   1.293  0.4891 -0.5185  1.5095
 7346SOL    HW233498   4.389   3.594   1.269  0.2901 -0.9314 -1.3876
 7347SOL     OW33499   2.376   2.474   6.506  0.1908  0.0192 -0.0077
 7347SOL    HW133500   2.322   2.403   6.539  0.0279 -0.9751 -2.4034
 7347SOL    HW233501   2.349   2.543   6.566 -0.4257 -0.2734  0.0440
 7348SOL     OW33502   3.415   1.170  16.330 -0.0452  0.5811  0.5703
 7348SOL    HW133503   3.460   1.228  16.268 -2.2550  0.1890 -1.4236
 7348SOL    HW233504   3.334   1.219  16.342 -0.3810 -0.0222  0.7580
 7349SOL     OW33505   4.390   4.155   1.333 -0.0764 -0.0032  0.7387
 7349SOL    HW133506   4.426   4.080   1.285  1.7595  1.5315 -0.2490
 7349SOL    HW233507   4.301   4.119   1.326  0.4404 -1.2841  0.7001
 7350SOL     OW33508   4.700   2.760   6.939  0.8975 -0.3646 -0.1535
 7350SOL    HW133509   0.006   2.826   6.878  2.5090 -1.4715 -0.4714
 7350SOL    HW233510   4.669   2.697   6.875  1.1613 -1.6171  0.9479
 7351SOL     OW33511   1.460   4.401   9.905  0.0366 -0.0923 -0.1071
 7351SOL    HW133512   1.379   4.452   9.911 -0.6313 -1.2200  0.4507
 7351SOL    HW233513   1.429   4.312   9.891  1.9966 -0.7058 -0.4742
 7352SOL     OW33514   0.897   3.190   6.106 -0.1401 -0.2880  0.1237
 7352SOL    HW133515   0.881   3.144   6.189 -0.3137  1.0198  0.8112
 7352SOL    HW233516   0.918   3.119   6.046  0.5074 -1.1499  1.3611
 7353SOL     OW33517   0.682   3.969   1.836 -0.2866  0.5337  0.0449
 7353SOL    HW133518   0.676   3.884   1.792 -0.1028 -0.8679  2.7543
 7353SOL    HW233519   0.755   4.003   1.784 -0.5815  0.1031 -0.6572
 7354SOL     OW33520   0.302   3.683   4.988  0.0657  0.4916  0.4705
 7354SOL    HW133521   0.272   3.628   4.915 -1.5161 -0.6406  1.9607
 7354SOL    HW233522   0.272   3.623   5.056 -0.5713 -0.8667 -0.9970
 7355SOL     OW33523   2.983   4.706   8.847 -0.0494 -0.4596  0.4312
 7355SOL    HW133524   3.025   4.684   8.930 -0.3835  0.4281  0.8387
 7355SOL    HW233525   2.892   4.701   8.877 -0.3072 -0.1912 -0.3197
 7356SOL     OW33526   4.417   3.539  17.025 -0.4626 -0.3768 -0.5544
 7356SOL    HW133527   4.369   3.619  17.048 -0.6221 -1.3664  2.6384
 7356SOL    HW233528   4.451   3.569  16.941 -2.1970  0.4486 -0.9629
 7357SOL     OW33529   0.672   3.162   1.767 -0.6226  0.2779 -0.2864
 7357SOL    HW133530   0.674   3.095   1.836 -0.8310 -1.2649 -1.7565
 7357SOL    HW233531   0.671   3.105   1.689 -0.1065  1.1378 -0.9215
 7358SOL     OW33532   2.012   2.152  11.963 -0.1150  0.4404 -0.3686
 7358SOL    HW133533   2.014   2.058  11.943 -1.3145  0.0463  1.4045
 7358SOL    HW233534   2.107   2.164  11.976 -0.4827  2.2008  0.6406
 7359SOL     OW33535   4.472   3.910   1.605 -0.5708  0.6361 -0.5570
 7359SOL    HW133536   4.387   3.889   1.643  0.2783  0.4055  1.2181
 7359SOL    HW233537   4.537   3.845   1.632 -0.1020  2.0174  1.5573
 7360SOL     OW33538   4.395   1.149   5.544 -0.1459 -0.4381  0.1145
 7360SOL    HW133539   4.415   1.240   5.569  2.3725 -1.0884  0.4203
 7360SOL    HW233540   4.481   1.121   5.513  0.3005 -0.0441  0.9948
 7361SOL     OW33541   0.376   3.235   3.015  0.1014  0.5367 -0.0147
 7361SOL    HW133542   0.285   3.224   3.041 -0.0232 -1.3423 -1.3087
 7361SOL    HW233543   0.417   3.245   3.101 -0.6884 -0.6069  0.4900
 7362SOL     OW33544   0.464   4.708   8.232  0.1086  0.0586 -0.6154
 7362SOL    HW133545   0.391   0.003   8.290 -1.9673 -0.5953 -2.9941
 7362SOL    HW233546   0.439   0.016   8.147 -0.0251  0.6050 -0.3477
 7363SOL     OW33547   3.007   3.634   1.814 -0.7854 -0.1085  0.3649
 7363SOL    HW133548   3.088   3.584   1.824 -0.3945  0.1845 -1.2682
 7363SOL    HW233549   2.985   3.603   1.726 -0.7905 -1.6200  0.9122
 7364SOL     OW33550   1.744   2.027   2.669 -0.3149 -0.4894  0.1494
 7364SOL    HW133551   1.781   2.108   2.633  0.5727 -1.8825 -2.0544
 7364SOL    HW233552   1.796   2.020   2.749  0.5144 -0.2286 -0.3631
 7365SOL     OW33553   0.614   1.471   1.956 -0.3795 -0.1052 -0.2304
 7365SOL    HW133554   0.664   1.477   1.875  1.0544  0.3157  0.6868
 7365SOL    HW233555   0.540   1.529   1.937 -1.6551 -1.5101  0.4208
 7366SOL     OW33556   3.077   3.633   3.019 -0.2710  0.6541  0.2487
 7366SOL    HW133557   3.124   3.622   2.936 -0.0136 -2.2655  0.7768
 7366SOL    HW233558   3.131   3.603   3.092  0.7951 -1.7048 -1.4766
 7367SOL     OW33559   3.294   1.636   2.911  0.1675 -0.2800  0.0488
 7367SOL    HW133560   3.365   1.579   2.939  0.5566  0.8929  1.4361
 7367SOL    HW233561   3.247   1.644   2.994 -0.3353 -1.4128 -0.1307
 7368SOL     OW33562   4.661   1.501   8.319 -0.0911 -0.2681 -0.2627
 7368SOL    HW133563   0.008   1.485   8.378 -0.0004  3.5118  0.6228
 7368SOL    HW233564   4.598   1.556   8.365  0.3957  0.5998 -0.6513
 7369SOL     OW33565   4.537   4.037  10.843 -0.2863 -0.4238 -0.0680
 7369SOL    HW133566   4.565   4.117  10.887 -1.5739 -0.0145  0.0249
 7369SOL    HW233567   4.583   3.963  10.881 -4.5903 -1.9865  2.0721
 7370SOL     OW33568   2.954   4.651   4.615 -0.1127  0.0416 -0.1306
 7370SOL    HW133569   3.006   4.714   4.566 -1.3999  0.8370 -0.4674
 7370SOL    HW233570   3.021   4.583   4.620  1.3544  1.4487 -0.7631
 7371SOL     OW33571   1.433   0.261   7.963  0.2493  0.5063  0.4031
 7371SOL    HW133572   1.385   0.223   8.037  1.6218 -0.4628  0.8062
 7371SOL    HW233573   1.355   0.297   7.922  1.1183  0.3970 -1.3204
 7372SOL     OW33574   2.578   0.165  13.681  0.8356 -0.0605 -0.3266
 7372SOL    HW133575   2.641   0.097  13.705  0.7119  0.4369  1.3969
 7372SOL    HW233576   2.514   0.156  13.751  2.2513  0.5003  1.0357
 7373SOL     OW33577   3.181   4.538   6.884 -0.2996 -0.1278  0.1936
 7373SOL    HW133578   3.172   4.633   6.881  0.1633 -0.0915 -0.0719
 7373SOL    HW233579   3.191   4.511   6.792 -1.9536  1.4767 -0.4731
 7374SOL     OW33580   2.018   2.467   1.696  0.1618 -0.0013  0.2049
 7374SOL    HW133581   2.050   2.553   1.667  0.0372  0.0975  0.3633
 7374SOL    HW233582   2.093   2.423   1.734  0.0906 -1.3654 -1.2268
 7375SOL     OW33583   4.074   3.296   5.819  0.6373 -0.5505  0.2511
 7375SOL    HW133584   4.149   3.272   5.872  0.6491 -3.7373 -1.1926
 7375SOL    HW233585   4.029   3.356   5.879 -0.2684 -2.7999  1.8041
 7376SOL     OW33586   0.230   3.927   9.018 -0.3220  0.1893 -0.0710
 7376SOL    HW133587   0.171   3.871   9.069 -0.1894 -1.2406 -1.5161
 7376SOL    HW233588   0.240   4.007   9.070  1.8218 -0.3988  0.4402
 7377SOL     OW33589   3.901   4.580   8.204  0.1998  0.0605  0.1530
 7377SOL    HW133590   3.861   4.493   8.199  2.6756 -1.1025  0.7054
 7377SOL    HW233591   3.822   4.634   8.201  1.0645  1.3256 -0.2877
 7378SOL     OW33592   3.492   1.552  13.038  0.1970  0.1657 -0.0262
 7378SOL    HW133593   3.513   1.633  13.084  0.1087  0.3891 -0.3811
 7378SOL    HW233594   3.398   1.567  13.025  0.3742 -1.2582 -2.9471
 7379SOL     OW33595   2.416   2.532   1.740 -0.1046 -0.5151  0.3339
 7379SOL    HW133596   2.441   2.448   1.780 -1.6458 -0.8958  0.4944
 7379SOL    HW233597   2.367   2.565   1.815 -0.2092  0.8989 -0.3744
 7380SOL     OW33598   0.232   2.105  13.289  0.1075 -0.4200  0.7180
 7380SOL    HW133599   0.164   2.169  13.310  0.5188  0.2370  0.0535
 7380SOL    HW233600   0.197   2.069  13.207  1.3495 -0.9862  0.4269
 7381SOL     OW33601   4.054   3.648   6.902 -0.0187  0.4228 -0.4174
 7381SOL    HW133602   4.042   3.722   6.962  2.7155 -0.4595  1.1900
 7381SOL    HW233603   4.128   3.686   6.855  1.6601 -1.3100  0.8432
 7382SOL     OW33604   4.335   3.988  14.227 -0.2238  0.1436 -0.1870
 7382SOL    HW133605   4.404   4.050  14.204 -1.2229  0.9702 -0.9170
 7382SOL    HW233606   4.374   3.956  14.309 -1.0412 -1.8437 -0.5752
 7383SOL     OW33607   0.891   0.487   7.539 -0.4554  0.1837  0.5956
 7383SOL    HW133608   0.796   0.487   7.552 -0.4916  1.1694  0.3496
 7383SOL    HW233609   0.902   0.443   7.455 -0.1875  0.9393  0.2270
 7384SOL     OW33610   0.223   2.348   7.964 -0.3849 -0.6933 -0.1651
 7384SOL    HW133611   0.149   2.309   7.919  0.5102 -0.3614 -1.9354
 7384SOL    HW233612   0.219   2.317   8.054  1.0834 -0.6281 -0.0677
 7385SOL     OW33613   2.025   0.846   5.249 -0.3900  0.6022  0.9417
 7385SOL    HW133614   2.008   0.926   5.199  3.6687  1.3301  0.7874
 7385SOL    HW233615   1.982   0.775   5.200 -0.0447  0.9358  0.1634
 7386SOL     OW33616   2.066   4.450   3.380 -0.1000 -0.1991 -0.2963
 7386SOL    HW133617   2.075   4.462   3.285  0.1404  2.3210  0.0489
 7386SOL    HW233618   2.133   4.510   3.414 -1.0129  1.2032 -0.9613
 7387SOL     OW33619   1.075   0.194   5.327  0.0782  0.1035  0.2328
 7387SOL    HW133620   1.090   0.289   5.328 -1.9267  0.4426 -1.7167
 7387SOL    HW233621   0.980   0.194   5.316 -0.3115  0.3308  3.6126
 7388SOL     OW33622   0.768   0.869   3.358 -0.1684  0.3071  0.1331
 7388SOL    HW133623   0.826   0.793   3.365  1.8939  1.7803 -0.9050
 7388SOL    HW233624   0.682   0.836   3.382 -0.8794  1.0736 -1.3030
 7389SOL     OW33625   2.149   3.487   8.612  0.0085  0.0736  0.4435
 7389SOL    HW133626   2.242   3.509   8.616  0.1348 -0.3243 -0.2198
 7389SOL    HW233627   2.105   3.547   8.672 -0.2763  1.2228 -0.8946
 7390SOL     OW33628   3.918   2.260   7.920  0.3158 -0.1925  0.0862
 7390SOL    HW133629   3.895   2.168   7.907 -1.9809  0.1906  1.2768
 7390SOL    HW233630   3.832   2.300   7.906 -0.4302 -1.9670 -0.4170
 7391SOL     OW33631   0.454   3.978   2.009  0.8542 -0.3114 -0.6749
 7391SOL    HW133632   0.398   3.963   1.933 -0.9904 -1.1165  0.8318
 7391SOL    HW233633   0.535   4.001   1.963 -0.8629 -0.2687 -3.6620
 7392SOL     OW33634   0.605   2.461   8.844 -0.0892  0.5847 -0.4767
 7392SOL    HW133635   0.636   2.505   8.923 -2.5805 -1.0333  1.4014
 7392SOL    HW233636   0.652   2.379   8.853  0.2989  0.8496 -0.0800
 7393SOL     OW33637   1.990   1.455   3.266  0.1056 -0.2417 -0.3524
 7393SOL    HW133638   2.068   1.436   3.318  1.2926  0.6744 -1.8192
 7393SOL    HW233639   1.993   1.549   3.251 -1.9651 -0.1861 -0.4124
 7394SOL     OW33640   0.323   4.436   2.482  0.2395  0.3993  0.1522
 7394SOL    HW133641   0.360   4.506   2.535 -0.1130  1.2073 -0.6681
 7394SOL    HW233642   0.312   4.475   2.395  1.6359  3.3157  1.2712
 7395SOL     OW33643   2.399   1.143   3.035 -0.5922  0.5060  0.1053
 7395SOL    HW133644   2.306   1.125   3.021 -0.8075  0.3595  1.6480
 7395SOL    HW233645   2.433   1.099   2.957  0.7458 -1.5965  1.8713
 7396SOL     OW33646   1.653   1.650   2.011 -0.0667 -0.0609 -0.8614
 7396SOL    HW133647   1.589   1.582   2.035 -0.2212  0.6744  0.8082
 7396SOL    HW233648   1.703   1.594   1.951 -0.2867 -0.6205 -0.5290
 7397SOL     OW33649   2.959   0.726   6.440  0.1070 -0.0773 -0.5490
 7397SOL    HW133650   2.884   0.710   6.498  0.6517  0.8249  0.4105
 7397SOL    HW233651   2.941   0.654   6.381 -2.3398  0.7896 -0.8620
 7398SOL     OW33652   0.934   2.211   6.084  0.3849  0.2003  0.4367
 7398SOL    HW133653   0.971   2.127   6.058 -0.1402  0.2336 -0.4071
 7398SOL    HW233654   0.999   2.252   6.142  0.1200 -1.2373  1.7641
 7399SOL     OW33655   1.822   2.519   3.100 -0.0202  0.0073  0.6442
 7399SOL    HW133656   1.745   2.559   3.141 -0.7588 -1.1009  0.3334
 7399SOL    HW233657   1.776   2.438   3.078 -1.0927  0.9633 -0.6787
 7400SOL     OW33658   4.595   1.788   4.541  0.3196 -0.1683 -0.0578
 7400SOL    HW133659   4.502   1.764   4.532 -0.4699  3.1516 -0.7407
 7400SOL    HW233660   4.598   1.875   4.581 -0.7573  1.0941 -2.7462
 7401SOL     OW33661   3.176   4.170   7.883  0.3234 -0.2916 -0.1437
 7401SOL    HW133662   3.239   4.166   7.955 -0.7763  0.6109  0.8833
 7401SOL    HW233663   3.229   4.146   7.807  0.8299  2.2919 -0.6075
 7402SOL     OW33664   4.658   2.802   2.276 -0.1300  0.5993 -0.4327
 7402SOL    HW133665   4.693   2.891   2.279  2.3546 -0.3487 -0.9381
 7402SOL    HW233666   4.623   2.805   2.187  1.3146 -0.4578 -1.0225
 7403SOL     OW33667   2.407   2.642   7.500 -0.0330  0.1164 -0.3553
 7403SOL    HW133668   2.447   2.697   7.432  0.9585  1.2273  1.1480
 7403SOL    HW233669   2.465   2.567   7.492  0.4140  0.5039 -0.7735
 7404SOL     OW33670   0.670   2.661   9.747 -0.1966  0.7205  0.0743
 7404SOL    HW133671   0.703   2.623   9.665  2.0973  1.6577  0.5612
 7404SOL    HW233672   0.584   2.620   9.749  0.5434 -0.9308 -2.6706
 7405SOL     OW33673   4.499   3.873   6.111  0.2546 -0.3738 -0.1131
 7405SOL    HW133674   4.458   3.868   6.024  2.2951 -1.2062 -1.0264
 7405SOL    HW233675   4.529   3.785   6.130 -1.1829 -0.9013 -0.3048
 7406SOL     OW33676   1.320   4.413  13.953  0.1716  0.0964  0.6797
 7406SOL    HW133677   1.359   4.437  14.037  1.0843  2.7356 -0.4876
 7406SOL    HW233678   1.267   4.492  13.941  0.2690 -0.2260 -1.7812
 7407SOL     OW33679   2.146   4.648  16.814  0.4445  0.0558 -0.0524
 7407SOL    HW133680   2.198   4.725  16.789  1.3475 -0.3021  0.7350
 7407SOL    HW233681   2.119   4.620  16.727  0.0716 -1.9274  0.6981
 7408SOL     OW33682   3.301   2.869   7.837 -0.3787 -0.2870  0.4197
 7408SOL    HW133683   3.264   2.945   7.882 -0.7362  0.1075 -0.5413
 7408SOL    HW233684   3.375   2.918   7.801 -0.2973  0.8553  2.1376
 7409SOL     OW33685   0.442   2.133   6.426 -0.2095  0.1667 -0.3113
 7409SOL    HW133686   0.522   2.082   6.413  0.0421  0.1998  1.2180
 7409SOL    HW233687   0.442   2.195   6.353  0.1502 -1.2910 -1.5651
 7410SOL     OW33688   2.519   2.352   5.332 -0.0590  0.3992 -0.0009
 7410SOL    HW133689   2.536   2.292   5.404 -0.4703  1.0659  0.6473
 7410SOL    HW233690   2.552   2.434   5.370 -1.2139  1.6683 -1.7173
 7411SOL     OW33691   4.310   3.769   2.545 -0.6838 -0.1520 -0.0307
 7411SOL    HW133692   4.394   3.724   2.555  1.1149  2.9326 -1.3638
 7411SOL    HW233693   4.279   3.733   2.462  0.6001  0.4090 -0.7408
 7412SOL     OW33694   2.352   3.335   3.700 -0.2314 -0.7271 -0.4822
 7412SOL    HW133695   2.358   3.403   3.767  0.9491  0.2977 -1.6232
 7412SOL    HW233696   2.440   3.343   3.662  0.0147 -0.6911  0.1070
 7413SOL     OW33697   3.337   3.330  15.683 -0.3109 -0.4365  0.1506
 7413SOL    HW133698   3.268   3.311  15.621 -0.4133 -1.4288  0.5749
 7413SOL    HW233699   3.362   3.408  15.634 -1.1748  0.1665  0.6657
 7414SOL     OW33700   2.596   4.675   6.850  0.2289  0.3639 -0.2375
 7414SOL    HW133701   2.544   4.646   6.775  1.4034 -4.0291  0.6790
 7414SOL    HW233702   2.530   0.001   6.893  0.4368  0.0098  0.5152
 7415SOL     OW33703   4.290   3.939  16.866  0.4827  1.2604  0.3261
 7415SOL    HW133704   4.357   3.896  16.920 -1.0161  0.3040  1.4061
 7415SOL    HW233705   4.205   3.912  16.900  1.3151 -2.1552 -0.2535
 7416SOL     OW33706   0.256   1.100   2.034  0.5406 -0.0903  0.0400
 7416SOL    HW133707   0.348   1.123   2.044 -0.1354  2.4873  0.3232
 7416SOL    HW233708   0.232   1.155   1.960  1.1885 -0.1717 -0.2279
 7417SOL     OW33709   3.304   2.035   5.437  0.5678 -0.0141 -0.3837
 7417SOL    HW133710   3.389   1.992   5.427  0.3023 -0.8861  0.9904
 7417SOL    HW233711   3.335   2.124   5.455 -1.7613  0.2827  2.2220
 7418SOL     OW33712   0.134   1.478   3.709  0.0032 -0.2858 -0.2447
 7418SOL    HW133713   0.139   1.568   3.739  3.5871 -0.4466 -0.4435
 7418SOL    HW233714   0.121   1.495   3.615 -1.9133 -0.0843  0.0512
 7419SOL     OW33715   3.598   2.013  16.441 -0.3264  0.2476  0.0357
 7419SOL    HW133716   3.597   1.957  16.518  0.3743 -0.0418 -0.1604
 7419SOL    HW233717   3.558   2.093  16.474  0.4992  0.6966 -0.0474
 7420SOL     OW33718   0.970   1.954   7.507  0.0796 -1.0973 -0.4924
 7420SOL    HW133719   1.006   2.038   7.534 -0.7489 -0.1530 -2.2989
 7420SOL    HW233720   1.047   1.899   7.496  1.2847  0.7817 -1.5207
 7421SOL     OW33721   1.172   0.817   8.575 -0.7381  0.1521  0.4234
 7421SOL    HW133722   1.139   0.738   8.534  0.5587 -1.1468  1.8780
 7421SOL    HW233723   1.090   0.864   8.590 -0.9845 -0.0691 -0.2362
 7422SOL     OW33724   2.761   0.415   8.637 -0.2391 -0.6937  0.1369
 7422SOL    HW133725   2.727   0.491   8.589  0.9222  1.0522  2.0621
 7422SOL    HW233726   2.825   0.388   8.572 -1.9708  2.0977 -2.6917
 7423SOL     OW33727   1.566   1.064   0.598 -0.6464 -0.1369  0.4077
 7423SOL    HW133728   1.503   1.111   0.652 -1.9800 -2.4817  0.9071
 7423SOL    HW233729   1.576   0.979   0.642 -0.3284 -0.2523  0.1145
 7424SOL     OW33730   4.493   1.989  13.807  0.0629  0.3797 -0.0983
 7424SOL    HW133731   4.556   1.955  13.743  1.0775  0.5562  0.8065
 7424SOL    HW233732   4.424   2.028  13.753  0.0151  1.0047  0.4050
 7425SOL     OW33733   4.252   2.469   3.929 -0.0393 -0.1709  0.0758
 7425SOL    HW133734   4.186   2.539   3.929 -0.0567 -0.1879 -0.0362
 7425SOL    HW233735   4.275   2.458   3.837  0.2558 -0.4072  0.1769
 7426SOL     OW33736   2.625   1.579   3.758 -0.2825  0.2572  0.1366
 7426SOL    HW133737   2.684   1.573   3.683  1.0098  2.2432  0.9922
 7426SOL    HW233738   2.551   1.595   3.700 -1.1290 -0.3508  1.0410
 7427SOL     OW33739   4.117   2.113  17.650  0.6743 -0.4279  0.1240
 7427SOL    HW133740   4.101   2.077  17.563  1.0841 -1.9612  0.6938
 7427SOL    HW233741   4.157   2.198  17.632 -0.9883  0.6162  1.3549
 7428SOL     OW33742   4.427   3.959   8.634 -0.0955  0.2287 -0.9440
 7428SOL    HW133743   4.338   3.987   8.657  0.5577 -0.4073  2.3822
 7428SOL    HW233744   4.476   4.039   8.616  0.1136 -0.0746 -1.6957
 7429SOL     OW33745   4.609   1.436   3.789  0.0329  0.0643 -0.3447
 7429SOL    HW133746   4.562   1.389   3.720  1.6722 -0.4541 -1.1147
 7429SOL    HW233747   4.694   1.452   3.748 -0.3648 -2.1843 -1.9977
 7430SOL     OW33748   4.277   0.606   7.912 -0.0749 -0.4028 -0.2498
 7430SOL    HW133749   4.188   0.575   7.896  0.1209 -1.0783  0.0053
 7430SOL    HW233750   4.280   0.687   7.860  0.0784  0.0980  0.5368
 7431SOL     OW33751   2.448   4.566  11.711 -0.1708 -0.5641 -0.1793
 7431SOL    HW133752   2.397   4.595  11.787 -0.0568  0.0808 -0.3517
 7431SOL    HW233753   2.520   4.628  11.719  0.8429 -1.7407 -0.0765
 7432SOL     OW33754   4.098   2.435   8.885  0.2326 -0.0585 -0.4000
 7432SOL    HW133755   4.173   2.469   8.935  0.2534 -0.6829 -0.0107
 7432SOL    HW233756   4.136   2.353   8.852  0.6520 -0.3900  0.8943
 7433SOL     OW33757   4.412   2.923   7.706 -0.3081 -0.0495  0.1197
 7433SOL    HW133758   4.507   2.913   7.709 -0.1972  0.1747 -3.1786
 7433SOL    HW233759   4.413   3.009   7.749 -0.7290  1.2040 -2.3348
 7434SOL     OW33760   2.714   4.454   7.858  0.4472 -0.6519  0.1934
 7434SOL    HW133761   2.637   4.399   7.843  0.2171 -0.0582 -0.7785
 7434SOL    HW233762   2.780   4.390   7.832 -1.0759 -1.8673 -0.6455
 7435SOL     OW33763   3.260   1.279   5.576  0.4414 -0.0386 -0.3806
 7435SOL    HW133764   3.218   1.195   5.559  0.2136 -0.5484  2.5826
 7435SOL    HW233765   3.220   1.309   5.658  1.7804 -1.1875  0.7041
 7436SOL     OW33766   2.142   3.122   2.767 -0.0002  0.4348 -0.0547
 7436SOL    HW133767   2.120   3.053   2.829 -2.9734  1.9766  0.6504
 7436SOL    HW233768   2.170   3.194   2.824 -1.9160  1.6661 -0.6567
 7437SOL     OW33769   2.664   4.068  16.931 -0.0311  0.3320  0.0369
 7437SOL    HW133770   2.666   4.069  16.836 -1.3289  0.1893  0.0051
 7437SOL    HW233771   2.582   4.118  16.939 -1.0618 -1.3336 -0.0653
 7438SOL     OW33772   1.582   0.905  11.053 -0.3941 -0.3250 -0.1589
 7438SOL    HW133773   1.659   0.849  11.057  1.1653  1.8933  0.9522
 7438SOL    HW233774   1.625   0.991  11.054  0.5461 -0.7938 -0.8454
 7439SOL     OW33775   0.919   1.743   8.992  0.0342 -0.1348 -0.5433
 7439SOL    HW133776   0.873   1.659   8.994  0.2082 -0.2025  0.7287
 7439SOL    HW233777   0.904   1.779   9.079  1.6205 -0.6453 -0.0702
 7440SOL     OW33778   2.844   2.366   2.639 -0.4398  0.0217  0.1392
 7440SOL    HW133779   2.842   2.441   2.580 -0.2423  1.0074  1.3798
 7440SOL    HW233780   2.907   2.402   2.701 -1.7592  0.1879  1.3957
 7441SOL     OW33781   0.427   2.050  15.693  0.7119  1.0186 -0.4160
 7441SOL    HW133782   0.448   2.006  15.610  1.0571  0.0428  0.1848
 7441SOL    HW233783   0.435   1.977  15.755  1.6388  1.1498 -0.3830
 7442SOL     OW33784   4.290   0.858   1.990  0.0914 -0.5029  0.4504
 7442SOL    HW133785   4.329   0.789   1.937 -1.9435  0.3053 -2.1024
 7442SOL    HW233786   4.328   0.929   1.938 -1.6865  0.4750  0.4754
 7443SOL     OW33787   2.152   3.809  15.884 -0.8682  0.4400  0.7018
 7443SOL    HW133788   2.139   3.805  15.789  0.2516  0.0804  0.5635
 7443SOL    HW233789   2.224   3.873  15.884 -2.3718  2.1295  1.0689
 7444SOL     OW33790   1.275   3.779   3.452  0.0993  0.2593 -0.1131
 7444SOL    HW133791   1.343   3.723   3.492  0.1991  0.0397 -0.5867
 7444SOL    HW233792   1.205   3.714   3.444  0.6102 -0.0570 -1.9595
 7445SOL     OW33793   0.008   2.964  15.727  0.1749  1.1267 -0.1940
 7445SOL    HW133794   0.055   2.958  15.810  1.1466 -0.7878 -0.8840
 7445SOL    HW233795   4.646   2.937  15.745 -0.0426  1.4307 -0.8232
 7446SOL     OW33796   3.408   4.198   0.230 -0.1695 -0.6233 -0.3306
 7446SOL    HW133797   3.326   4.237   0.201 -0.3926  1.8724  3.6564
 7446SOL    HW233798   3.372   4.120   0.274 -1.3004  0.1790  0.1633
 7447SOL     OW33799   0.335   2.659   8.353 -0.4298 -0.3642 -0.4415
 7447SOL    HW133800   0.331   2.589   8.288 -2.6966 -2.0114  1.4599
 7447SOL    HW233801   0.263   2.642   8.415 -0.0754  1.5757  0.5117
 7448SOL     OW33802   2.571   3.089  11.718  0.4080 -0.1292 -0.1203
 7448SOL    HW133803   2.653   3.063  11.675  1.0127 -1.6556  1.9361
 7448SOL    HW233804   2.509   3.066  11.649  0.1732 -1.0169  0.3874
 7449SOL     OW33805   2.016   2.698   0.626  0.2607  0.3360 -0.0985
 7449SOL    HW133806   1.998   2.786   0.595 -0.2278  0.7103  1.2333
 7449SOL    HW233807   2.051   2.723   0.712  0.8569 -0.4078 -0.1188
 7450SOL     OW33808   3.877   3.407   3.487  0.0180  0.1099  0.1593
 7450SOL    HW133809   3.889   3.494   3.525  1.7818 -0.2295  0.3927
 7450SOL    HW233810   3.890   3.425   3.394  0.3269  1.5790  0.4861
 7451SOL     OW33811   2.611   2.015   2.868  0.1266  0.2341  0.4190
 7451SOL    HW133812   2.652   2.039   2.785 -0.7471  0.4708  0.0603
 7451SOL    HW233813   2.650   1.929   2.880  1.3723  0.7129 -0.1188
 7452SOL     OW33814   2.669   0.747   2.099 -0.6656  0.1495  0.4117
 7452SOL    HW133815   2.735   0.715   2.159 -0.6984  1.8870  1.3878
 7452SOL    HW233816   2.586   0.707   2.126  0.4603 -2.7271 -0.3969
 7453SOL     OW33817   2.368   4.271   9.659  0.5745  0.4004 -0.2747
 7453SOL    HW133818   2.306   4.230   9.720  0.2277  1.8583  0.3572
 7453SOL    HW233819   2.306   4.276   9.586  2.3922  1.7208 -1.7303
 7454SOL     OW33820   3.452   4.180  11.085  0.1240  0.3739 -0.6133
 7454SOL    HW133821   3.432   4.271  11.061 -0.7454  0.6221  1.0878
 7454SOL    HW233822   3.469   4.195  11.178  1.1217 -1.5832 -0.4917
 7455SOL     OW33823   2.209   1.079   5.984 -0.0283  0.5007 -0.5288
 7455SOL    HW133824   2.234   1.012   6.047 -1.9939 -0.4916 -0.8273
 7455SOL    HW233825   2.114   1.072   5.986  0.1229 -1.4188  0.2575
 7456SOL     OW33826   4.042   1.713   4.833  0.1723  0.1450  0.5635
 7456SOL    HW133827   4.133   1.712   4.804  0.8054  0.9583  2.5853
 7456SOL    HW233828   4.018   1.788   4.778  0.1851 -1.0405 -1.0677
 7457SOL     OW33829   4.056   2.785   9.024  0.0520 -0.3952 -0.1041
 7457SOL    HW133830   4.022   2.701   9.053 -1.0387  0.0644 -0.0504
 7457SOL    HW233831   4.127   2.808   9.085 -0.0756 -3.3770  1.1877
 7458SOL     OW33832   2.303   0.907   6.164 -0.4097 -0.5805  0.0019
 7458SOL    HW133833   2.393   0.909   6.195 -0.3103  2.3494 -0.4270
 7458SOL    HW233834   2.299   0.829   6.109  3.2043 -0.7532 -0.0366
 7459SOL     OW33835   1.296   0.846   6.779  0.7452  0.3649  0.1064
 7459SOL    HW133836   1.352   0.787   6.728 -0.3967 -0.8337  0.2304
 7459SOL    HW233837   1.233   0.881   6.717 -0.4691 -1.6164  0.2144
 7460SOL     OW33838   4.512   1.412  12.694 -0.5528  0.6075 -0.0921
 7460SOL    HW133839   4.568   1.341  12.724  1.1473  0.8013 -2.8335
 7460SOL    HW233840   4.441   1.373  12.642  0.5603 -0.9385 -0.4189
 7461SOL     OW33841   0.202   1.759   7.639  0.0007  0.5219  0.4508
 7461SOL    HW133842   0.264   1.808   7.585 -0.7690 -0.7859 -1.6101
 7461SOL    HW233843   0.268   1.728   7.701 -0.8141 -0.7006  0.7024
 7462SOL     OW33844   1.979   1.625   7.783 -0.6594 -0.4333 -0.2819
 7462SOL    HW133845   1.958   1.612   7.875 -0.2646  1.3861  0.0579
 7462SOL    HW233846   2.058   1.571   7.781  0.2788  0.9019  0.6134
 7463SOL     OW33847   0.957   1.493  10.500 -0.1325 -0.6413 -0.2093
 7463SOL    HW133848   0.963   1.433  10.425  0.1165 -0.0122 -0.6944
 7463SOL    HW233849   0.973   1.430  10.571 -0.5504  0.3311  0.7471
 7464SOL     OW33850   2.233   2.435   3.046 -0.2461  0.4400 -0.2156
 7464SOL    HW133851   2.296   2.376   3.004 -0.0853  1.0850 -0.8966
 7464SOL    HW233852   2.291   2.489   3.099 -0.2206 -0.6830  0.8705
 7465SOL     OW33853   4.243   2.426   3.649 -0.4073 -0.1111  0.3164
 7465SOL    HW133854   4.301   2.413   3.575 -0.8606  0.1956 -0.0908
 7465SOL    HW233855   4.167   2.456   3.599 -0.6057 -0.1193  0.6073
 7466SOL     OW33856   0.876   4.031   8.676  0.3440  0.2005 -0.1127
 7466SOL    HW133857   0.963   4.065   8.654  1.2872 -1.8080  0.4650
 7466SOL    HW233858   0.856   4.065   8.763  1.7333 -1.2196  0.7664
 7467SOL     OW33859   3.667   4.486   4.233 -0.6120  0.1301  0.2465
 7467SOL    HW133860   3.647   4.580   4.235 -2.9985 -0.3762 -0.2057
 7467SOL    HW233861   3.636   4.439   4.311 -1.1449  0.7208  0.3998
 7468SOL     OW33862   3.585   2.383  16.597  0.0471  0.0093  0.8823
 7468SOL    HW133863   3.667   2.334  16.591  1.2933  2.2235 -0.2477
 7468SOL    HW233864   3.610   2.472  16.622 -1.6779  0.7309  0.0818
 7469SOL     OW33865   1.969   0.831   8.025 -0.4109 -0.0594 -0.2862
 7469SOL    HW133866   2.054   0.797   8.054  1.2401  2.4883 -2.1601
 7469SOL    HW233867   1.999   0.882   7.950  0.9742  0.4689  0.6186
 7470SOL     OW33868   2.425   3.206   4.927 -0.1415  0.2379 -0.8258
 7470SOL    HW133869   2.346   3.252   4.901 -1.3268 -1.0860  0.4253
 7470SOL    HW233870   2.466   3.271   4.984  0.9541  0.8429 -2.3087
 7471SOL     OW33871   0.264   3.502  11.405 -0.1368 -1.1278 -0.2868
 7471SOL    HW133872   0.277   3.431  11.468 -0.1813 -0.5737  0.3506
 7471SOL    HW233873   0.262   3.454  11.323  1.4759  0.2258 -1.1069
 7472SOL     OW33874   0.106   1.732   3.802 -1.1984 -0.4365 -0.0248
 7472SOL    HW133875   0.072   1.762   3.886  3.2558  1.7419  0.9898
 7472SOL    HW233876   0.033   1.747   3.742  0.4419 -0.2971 -1.9709
 7473SOL     OW33877   4.303   3.428   3.792  0.5267 -0.0050 -0.3730
 7473SOL    HW133878   4.308   3.479   3.712  0.1632  1.2859  0.4354
 7473SOL    HW233879   4.345   3.486   3.855 -0.6398  0.8441 -0.3904
 7474SOL     OW33880   3.992   3.885  13.702 -1.1300  0.3481  0.1930
 7474SOL    HW133881   3.923   3.838  13.655 -0.5796  0.9900 -1.2449
 7474SOL    HW233882   3.985   3.847  13.790  0.6024  0.4005  0.3561
 7475SOL     OW33883   4.669   0.460   5.047  0.2018 -0.0463  0.7599
 7475SOL    HW133884   4.611   0.526   5.008 -0.5375 -2.7309 -2.6237
 7475SOL    HW233885   4.610   0.391   5.077  0.5363 -0.4267  0.5359
 7476SOL     OW33886   1.854   2.297   0.792  0.0833 -0.1599 -0.3101
 7476SOL    HW133887   1.788   2.236   0.761 -1.3920  0.0035  2.5398
 7476SOL    HW233888   1.877   2.345   0.712  0.3810  1.2806  0.6520
 7477SOL     OW33889   0.465   2.655   1.080 -0.0110  0.1244 -0.3124
 7477SOL    HW133890   0.435   2.730   1.131  1.0800 -0.6363  1.4694
 7477SOL    HW233891   0.498   2.596   1.148  0.4596  1.1002  0.3110
 7478SOL     OW33892   3.102   0.854   7.489  0.1891  0.3421  0.0814
 7478SOL    HW133893   3.085   0.915   7.560  3.1075  2.5688 -1.1554
 7478SOL    HW233894   3.085   0.912   7.415 -0.9047 -0.0598  0.0105
 7479SOL     OW33895   2.726   1.349   7.842 -0.6567  0.8824  0.7394
 7479SOL    HW133896   2.810   1.314   7.813 -0.7683  1.5707 -0.4254
 7479SOL    HW233897   2.708   1.292   7.917 -0.3549 -1.6471 -1.1131
 7480SOL     OW33898   3.020   2.220   4.132  0.2585  0.1861  0.1545
 7480SOL    HW133899   2.955   2.229   4.202  0.7673  0.3134  0.6023
 7480SOL    HW233900   3.057   2.308   4.143  1.9823 -0.3017 -1.8250
 7481SOL     OW33901   4.267   1.610  12.657  0.6155 -0.3674 -0.4958
 7481SOL    HW133902   4.226   1.555  12.589  0.5394 -2.5515  1.3103
 7481SOL    HW233903   4.322   1.661  12.598  1.8896  2.2608  2.9523
 7482SOL     OW33904   3.477   0.130   6.035  0.3878  0.3359 -0.5929
 7482SOL    HW133905   3.384   0.135   6.010  0.0016  0.8422  0.9326
 7482SOL    HW233906   3.473   0.170   6.121 -1.4602 -4.8336  1.7459
 7483SOL     OW33907   0.630   4.465   8.484  0.1993  0.2407 -0.9127
 7483SOL    HW133908   0.560   4.405   8.456  0.8950 -1.1330  0.2354
 7483SOL    HW233909   0.711   4.415   8.471 -0.0691 -0.2972 -0.5306
 7484SOL     OW33910   1.675   2.652   2.396  0.6221  0.2483 -0.0110
 7484SOL    HW133911   1.656   2.692   2.311 -1.4686  0.1933  0.4341
 7484SOL    HW233912   1.763   2.620   2.378  0.0137 -0.6500 -1.4403
 7485SOL     OW33913   2.095   4.625   8.175  0.9075 -0.0490 -0.0205
 7485SOL    HW133914   2.079   4.554   8.237 -0.4317  0.8957  0.7226
 7485SOL    HW233915   2.097   4.706   8.226  1.2914  0.3345 -0.6429
 7486SOL     OW33916   2.780   0.175   5.115  0.2468 -0.2435  0.0145
 7486SOL    HW133917   2.867   0.143   5.092 -0.4682 -0.4370 -2.4871
 7486SOL    HW233918   2.796   0.259   5.071 -2.7967  0.6502  0.6528
 7487SOL     OW33919   2.543   2.554   0.935 -0.0395  0.6103  0.4747
 7487SOL    HW133920   2.624   2.577   0.889 -0.9444  0.1587 -1.3323
 7487SOL    HW233921   2.482   2.621   0.907  1.4817  1.4948 -0.7386
 7488SOL     OW33922   1.314   1.269   8.862  0.8269  0.2410  0.0260
 7488SOL    HW133923   1.234   1.321   8.872 -0.4397 -1.6775 -0.0807
 7488SOL    HW233924   1.320   1.217   8.942  2.1398 -0.3279 -0.4408
 7489SOL     OW33925   3.313   0.765  10.336 -0.1791  0.9814  0.0620
 7489SOL    HW133926   3.395   0.815  10.327 -1.2762  2.3800 -2.0212
 7489SOL    HW233927   3.291   0.785  10.427 -0.4870  1.1255 -0.0476
 7490SOL     OW33928   0.099   2.210   4.408  0.2873 -0.3996 -0.1679
 7490SOL    HW133929   0.180   2.187   4.361  1.6894  0.1520  1.9875
 7490SOL    HW233930   0.129   2.167   4.488 -0.7163 -0.9129 -0.0770
 7491SOL     OW33931   2.588   1.068  15.710 -0.2257 -0.4959 -0.2421
 7491SOL    HW133932   2.612   1.147  15.661  0.4722  0.9287  2.3664
 7491SOL    HW233933   2.494   1.080  15.721 -0.5807 -1.2355 -2.5103
 7492SOL     OW33934   1.956   1.631   8.052  0.2474  0.1721 -0.0413
 7492SOL    HW133935   1.892   1.651   8.120  0.5084 -0.1049  0.2822
 7492SOL    HW233936   2.034   1.620   8.106 -0.2860 -2.0184  0.2996
 7493SOL     OW33937   3.976   1.782   3.353  0.6134  0.5410 -0.3148
 7493SOL    HW133938   3.893   1.826   3.337  1.5699  2.6233  0.5384
 7493SOL    HW233939   3.976   1.771   3.448 -0.1960  1.2358 -0.2381
 7494SOL     OW33940   2.667   3.942   8.667 -0.8375  0.3143  0.2951
 7494SOL    HW133941   2.751   3.985   8.651 -0.0728 -0.2858  2.6793
 7494SOL    HW233942   2.696   3.892   8.743  0.7582 -0.2111 -0.6456
 7495SOL     OW33943   0.805   1.108   2.348  0.2479  0.7643  0.7183
 7495SOL    HW133944   0.711   1.128   2.348 -0.3050 -1.8498 -1.3226
 7495SOL    HW233945   0.816   1.093   2.442  2.3587 -1.1495  0.1459
 7496SOL     OW33946   1.106   4.372   8.829  0.6463  0.8896  0.1176
 7496SOL    HW133947   1.180   4.427   8.805  1.5971 -1.0176 -1.3503
 7496SOL    HW233948   1.150   4.296   8.867  0.6503  0.9348  0.2033
 7497SOL     OW33949   4.582   0.444   8.897 -0.2189  0.2115 -0.7041
 7497SOL    HW133950   4.620   0.430   8.984  0.8572  2.5954 -0.8106
 7497SOL    HW233951   4.611   0.533   8.877 -0.7527  0.7245  0.7802
 7498SOL     OW33952   1.579   2.264   7.838  0.1370 -0.4884 -0.6218
 7498SOL    HW133953   1.599   2.173   7.863 -0.8607  0.4053  3.3057
 7498SOL    HW233954   1.514   2.242   7.771 -1.2942  0.8634  0.3250
 7499SOL     OW33955   1.796   2.223   3.054 -0.0135 -0.3482  0.3924
 7499SOL    HW133956   1.702   2.208   3.064 -0.1514  0.7957  0.8387
 7499SOL    HW233957   1.838   2.156   3.108  1.1561  0.1578  0.1214
 7500SOL     OW33958   3.121   0.383   5.865  0.5846 -0.0401 -0.4018
 7500SOL    HW133959   3.077   0.326   5.928  1.9030 -1.4836 -0.8021
 7500SOL    HW233960   3.179   0.317   5.826 -0.4126  0.3171 -2.4871
 7501SOL     OW33961   1.611   1.865   3.048 -0.8665  0.0892  0.2987
 7501SOL    HW133962   1.586   1.779   3.079  0.4920 -0.7522 -0.9284
 7501SOL    HW233963   1.627   1.857   2.954  0.0679 -1.8121  0.6179
 7502SOL     OW33964   2.720   0.161   0.867  0.4036 -0.3668  0.1179
 7502SOL    HW133965   2.723   0.223   0.794  3.0274 -3.8945 -2.7319
 7502SOL    HW233966   2.709   0.075   0.827  1.3538 -1.4091  2.0959
 7503SOL     OW33967   3.220   4.333  15.638 -0.4564  0.4969  0.3161
 7503SOL    HW133968   3.170   4.401  15.684 -3.0891 -2.0363  1.2559
 7503SOL    HW233969   3.171   4.251  15.650  1.4190 -0.4956  1.0894
 7504SOL     OW33970   4.230   0.180   5.740  0.5544 -0.6635 -0.7552
 7504SOL    HW133971   4.252   0.217   5.654  1.6656  0.3646 -0.0219
 7504SOL    HW233972   4.134   0.176   5.735  0.4626  0.9798 -0.4666
 7505SOL     OW33973   0.795   2.447   2.448 -0.3500  0.3319 -0.2451
 7505SOL    HW133974   0.881   2.422   2.481  0.2033  1.7921 -0.5602
 7505SOL    HW233975   0.743   2.378   2.489 -1.7786  2.3612  1.4077
 7506SOL     OW33976   1.274   0.306  10.490  0.2639  0.2603 -0.1654
 7506SOL    HW133977   1.224   0.236  10.447  0.6436  0.5435 -1.0757
 7506SOL    HW233978   1.362   0.274  10.471  0.7991  1.5430  0.1335
 7507SOL     OW33979   4.043   1.419   2.093 -0.4758  0.2474 -0.3299
 7507SOL    HW133980   4.067   1.446   2.182  0.1389  2.3379 -1.1226
 7507SOL    HW233981   3.948   1.414   2.095 -0.4449 -0.6741 -1.2919
 7508SOL     OW33982   1.109   2.996   7.283  0.1352  0.3750 -0.2768
 7508SOL    HW133983   1.119   3.064   7.350 -1.7265 -1.4187  1.8085
 7508SOL    HW233984   1.017   2.972   7.293  0.8061 -2.3388 -0.7765
 7509SOL     OW33985   0.803   0.364  16.051 -0.1623  0.3015  0.4548
 7509SOL    HW133986   0.826   0.450  16.016  0.6984 -1.0303 -2.2120
 7509SOL    HW233987   0.744   0.329  15.984 -0.7738 -0.9450  1.6422
 7510SOL     OW33988   1.399   1.077  17.630 -0.0879  0.5152 -0.7075
 7510SOL    HW133989   1.312   1.038  17.622  0.6809 -1.6637  1.5516
 7510SOL    HW233990   1.382   1.163  17.669  0.6820  0.2875  0.1349
 7511SOL     OW33991   4.075   2.438   4.384 -0.7684 -0.2862 -0.4464
 7511SOL    HW133992   4.120   2.449   4.468  0.7571  1.0806 -1.4325
 7511SOL    HW233993   4.148   2.400   4.336 -1.0574 -0.6302 -0.6095
 7512SOL     OW33994   2.711   2.123   2.621  0.0399 -0.7425 -0.1094
 7512SOL    HW133995   2.663   2.110   2.539 -2.8792  5.0370  0.6717
 7512SOL    HW233996   2.735   2.215   2.607 -0.5123 -1.2203 -4.2807
 7513SOL     OW33997   0.411   4.595   7.657 -0.9435 -0.1939  0.0334
 7513SOL    HW133998   0.423   4.508   7.618 -2.9823  0.0496 -1.1582
 7513SOL    HW233999   0.463   4.648   7.598  1.1595 -1.5753  0.6505
 7514SOL     OW34000   0.611   0.609   3.979  0.1532 -0.3395  0.2093
 7514SOL    HW134001   0.610   0.525   3.933 -4.5210 -0.0447 -0.2502
 7514SOL    HW234002   0.637   0.581   4.067 -1.7133 -1.5838  0.3740
 7515SOL     OW34003   0.019   2.674   4.510 -0.2184 -0.3721 -0.4718
 7515SOL    HW134004   4.717   2.586   4.487 -1.8491  0.4098 -1.3887
 7515SOL    HW234005   0.015   2.718   4.425 -1.9395  0.9831  0.3097
 7516SOL     OW34006   4.568   1.825  13.329  0.6922 -0.7141 -0.0372
 7516SOL    HW134007   4.611   1.851  13.247  0.0780  2.7741  0.7432
 7516SOL    HW234008   4.607   1.739  13.341 -0.0827 -0.7009  2.3989
 7517SOL     OW34009   1.584   1.183  14.619  0.5653  0.3613 -0.4326
 7517SOL    HW134010   1.624   1.132  14.549 -1.4840  1.1672 -2.2003
 7517SOL    HW234011   1.641   1.260  14.617 -2.9042  2.9780  1.6065
 7518SOL     OW34012   4.367   2.412   8.124 -0.2400 -0.3403 -0.0419
 7518SOL    HW134013   4.343   2.336   8.072 -1.4873 -0.0033  0.0534
 7518SOL    HW234014   4.391   2.371   8.207 -1.3515 -0.3785  0.2563
 7519SOL     OW34015   4.020   2.186  16.206  0.1761  0.5929 -0.7822
 7519SOL    HW134016   3.977   2.152  16.127  0.5867  0.3414 -0.8953
 7519SOL    HW234017   4.070   2.110  16.237 -0.3000 -0.2229 -2.0379
 7520SOL     OW34018   3.701   3.916   0.228 -0.0061 -0.4441 -0.3463
 7520SOL    HW134019   3.681   3.902   0.320  0.5834 -1.3493 -0.3468
 7520SOL    HW234020   3.730   3.829   0.199  2.9528  0.0535  1.1361
 7521SOL     OW34021   2.980   0.894  10.035  0.2582  0.4182  0.2691
 7521SOL    HW134022   2.993   0.824  10.100 -0.1020  0.8242  0.7769
 7521SOL    HW234023   3.066   0.918  10.002 -1.0046  0.2706 -3.1314
 7522SOL     OW34024   3.141   2.886   6.729  0.1947  0.1217  0.4322
 7522SOL    HW134025   3.178   2.818   6.673 -0.4732  0.9918 -1.0808
 7522SOL    HW234026   3.154   2.956   6.664  0.0644 -1.8907 -1.7383
 7523SOL     OW34027   0.640   2.916   3.001  0.1173  0.0494 -0.3677
 7523SOL    HW134028   0.606   2.827   2.998  0.0415  0.0771 -0.3555
 7523SOL    HW234029   0.666   2.934   2.910 -0.5995  0.3928 -0.5112
 7524SOL     OW34030   4.010   0.428   8.962  0.1929 -0.0355 -0.0852
 7524SOL    HW134031   4.105   0.434   8.971  0.0372  2.1250  0.1362
 7524SOL    HW234032   3.979   0.440   9.051 -1.6887 -1.4113 -0.5540
 7525SOL     OW34033   4.467   4.549  15.058  0.2796  0.0462 -0.5280
 7525SOL    HW134034   4.402   4.529  14.991 -1.0242 -0.1103  0.7955
 7525SOL    HW234035   4.406   4.549  15.132 -0.2422 -1.7156 -0.9509
 7526SOL     OW34036   2.824   2.644   3.977  0.7531 -0.3236 -0.1151
 7526SOL    HW134037   2.786   2.681   3.897  3.6736  0.4522 -1.1393
 7526SOL    HW234038   2.907   2.610   3.945  1.0298 -0.3519  0.6172
 7527SOL     OW34039   0.476   3.562   7.821  0.3554  0.0799  0.8652
 7527SOL    HW134040   0.423   3.640   7.806 -1.1536 -0.8409  1.3628
 7527SOL    HW234041   0.405   3.500   7.839 -0.0302 -0.0327 -1.0315
 7528SOL     OW34042   4.644   2.342   4.995  0.1917  0.0469  0.0871
 7528SOL    HW134043   4.610   2.407   5.057 -4.3302 -1.6786 -0.5549
 7528SOL    HW234044   4.611   2.257   5.026  0.7555 -0.0352  0.4713
 7529SOL     OW34045   0.450   0.313   3.011 -0.5735 -0.4790 -0.0898
 7529SOL    HW134046   0.385   0.244   3.017 -0.5295 -0.5521 -0.4499
 7529SOL    HW234047   0.532   0.262   3.014 -1.4544 -1.8760  0.0649
 7530SOL     OW34048   0.116   4.148   3.775  0.2832  0.5397  0.4603
 7530SOL    HW134049   0.110   4.241   3.753  0.1972  0.2557 -0.7253
 7530SOL    HW234050   0.137   4.122   3.685  0.1132  0.1729  0.5291
 7531SOL     OW34051   2.605   4.403   6.778  0.2040 -0.5109  0.4509
 7531SOL    HW134052   2.613   4.493   6.809 -0.5128 -0.6589  1.0469
 7531SOL    HW234053   2.613   4.420   6.684  3.7897  2.1776  1.2330
 7532SOL     OW34054   2.410   1.544   3.573 -0.0750 -0.2579  0.6341
 7532SOL    HW134055   2.339   1.488   3.602  0.1711 -1.1752 -0.5386
 7532SOL    HW234056   2.400   1.514   3.483 -1.8005  0.2063  0.6837
 7533SOL     OW34057   3.448   0.556   4.988 -0.0813 -0.3430 -0.4306
 7533SOL    HW134058   3.517   0.494   4.961 -1.0717 -1.3832 -0.5709
 7533SOL    HW234059   3.405   0.503   5.055  0.3554  1.8800  1.5645
 7534SOL     OW34060   1.830   1.397   7.059  0.4087 -0.0939  0.3237
 7534SOL    HW134061   1.779   1.458   7.112 -0.6961 -2.2586  1.7438
 7534SOL    HW234062   1.870   1.454   6.993  0.4145 -0.6202 -0.1327
 7535SOL     OW34063   0.558   2.301   1.203  0.3942  0.1039  0.2172
 7535SOL    HW134064   0.586   2.223   1.155 -0.8796 -0.0413 -0.3047
 7535SOL    HW234065   0.464   2.281   1.206  0.2271  0.8356 -0.0758
 7536SOL     OW34066   1.143   2.213   7.287  0.3738 -0.3356 -0.5401
 7536SOL    HW134067   1.092   2.289   7.316  1.0573 -0.3101  0.5926
 7536SOL    HW234068   1.072   2.156   7.257  0.0751  0.2751 -0.9893
 7537SOL     OW34069   4.333   2.973   3.668 -0.3632 -0.3451 -0.2849
 7537SOL    HW134070   4.319   2.897   3.611 -1.3434  0.1954 -0.7723
 7537SOL    HW234071   4.405   2.937   3.721  0.8805  2.3744 -0.1290
 7538SOL     OW34072   4.125   2.586  10.524  0.0906 -0.3261  0.7253
 7538SOL    HW134073   4.125   2.547  10.612  0.8854  0.6580  1.1647
 7538SOL    HW234074   4.051   2.647  10.534  0.2873  0.2335 -1.3203
 7539SOL     OW34075   0.647   0.914   4.671 -0.4512 -0.2087  0.0032
 7539SOL    HW134076   0.610   0.956   4.749 -0.7782  0.3124 -0.4351
 7539SOL    HW234077   0.713   0.972   4.632  0.5646  1.2101  3.7932
 7540SOL     OW34078   1.177   1.929   7.827 -0.2380  0.1919 -0.3089
 7540SOL    HW134079   1.112   1.871   7.867  0.2068 -0.9283 -1.1968
 7540SOL    HW234080   1.144   2.018   7.818 -3.0186 -0.8967 -0.7414
 7541SOL     OW34081   3.158   2.336   3.064 -0.2779 -0.2336 -0.0824
 7541SOL    HW134082   3.197   2.301   3.144 -2.3845 -0.1116  0.9831
 7541SOL    HW234083   3.225   2.345   2.996  2.0377 -0.0400  2.2236
 7542SOL     OW34084   1.511   0.491   8.165  0.1155 -0.2089  0.1785
 7542SOL    HW134085   1.490   0.564   8.224 -0.8815  1.4879 -2.2788
 7542SOL    HW234086   1.559   0.435   8.225 -0.1720 -0.9860 -0.3227
 7543SOL     OW34087   1.144   2.397   4.587  0.5149  0.7365  0.6574
 7543SOL    HW134088   1.096   2.476   4.566  1.3627  0.6032 -1.7540
 7543SOL    HW234089   1.234   2.430   4.583  1.8386 -2.7310  1.3149
 7544SOL     OW34090   0.324   3.797   7.844 -0.0112 -0.0032 -0.0742
 7544SOL    HW134091   0.322   3.892   7.845  0.0044  0.0056 -2.6174
 7544SOL    HW234092   0.278   3.777   7.926 -0.2819  2.2906  0.3196
 7545SOL     OW34093   1.626   0.747   2.394 -0.0148 -0.1078  0.3991
 7545SOL    HW134094   1.581   0.812   2.340 -0.3545  0.4208  1.3218
 7545SOL    HW234095   1.714   0.760   2.359 -0.0948 -0.3550  0.0979
 7546SOL     OW34096   3.897   4.235  12.816  0.1656  0.6987 -0.1065
 7546SOL    HW134097   3.982   4.249  12.774  1.0282 -2.1756  0.6857
 7546SOL    HW234098   3.846   4.306  12.776  0.3328  0.9266  0.0864
 7547SOL     OW34099   3.388   3.921   3.020  0.1267 -0.2453 -0.3213
 7547SOL    HW134100   3.378   4.008   2.981 -1.3805 -0.4364 -0.3402
 7547SOL    HW234101   3.478   3.931   3.051  0.7964  1.5863 -2.7624
 7548SOL     OW34102   1.867   1.022   2.822  0.5156 -0.6405  0.7392
 7548SOL    HW134103   1.905   0.979   2.745  1.3266 -0.8061  1.2307
 7548SOL    HW234104   1.798   1.061   2.769  0.2631 -0.8415  0.9224
 7549SOL     OW34105   2.026   0.979  12.595 -0.7516  0.1682  0.0031
 7549SOL    HW134106   2.088   1.018  12.657  0.1816  1.7252 -1.9158
 7549SOL    HW234107   2.006   1.046  12.530  2.4125 -0.4427 -1.6303
 7550SOL     OW34108   0.722   1.312  17.413 -0.3822  0.1541 -0.1495
 7550SOL    HW134109   0.739   1.407  17.415 -3.0828  0.7161 -3.0159
 7550SOL    HW234110   0.628   1.312  17.434 -0.2012  1.3303  0.7088
 7551SOL     OW34111   0.810   0.895  10.049 -0.2169  0.7005  0.1770
 7551SOL    HW134112   0.799   0.931   9.961 -2.0542 -3.0176 -1.0916
 7551SOL    HW234113   0.793   0.970  10.107  2.1128  0.9881  0.4732
 7552SOL     OW34114   2.597   4.388  12.646 -0.0196 -0.4802 -0.4755
 7552SOL    HW134115   2.508   4.406  12.674  0.4110  1.4956 -0.3821
 7552SOL    HW234116   2.626   4.348  12.728  0.0686  0.1782 -0.1814
 7553SOL     OW34117   3.617   0.188   2.018  0.5610  0.5868 -0.3483
 7553SOL    HW134118   3.662   0.177   1.934  1.3384  0.5926  0.0641
 7553SOL    HW234119   3.665   0.121   2.066 -0.7819 -1.3705 -1.7508
 7554SOL     OW34120   3.295   3.854   8.488  0.2711 -0.2956  0.2504
 7554SOL    HW134121   3.241   3.923   8.526  1.3362  0.2994  0.6967
 7554SOL    HW234122   3.361   3.843   8.557  0.1275  0.8505  0.5821
 7555SOL     OW34123   2.802   4.251   3.979  0.4386  0.0676  0.2759
 7555SOL    HW134124   2.843   4.171   3.945  2.3069  1.1994 -0.1053
 7555SOL    HW234125   2.870   4.317   3.976 -0.2674  0.7980  0.3800
 7556SOL     OW34126   0.790   3.720   3.154  0.5524 -0.0639 -0.7892
 7556SOL    HW134127   0.821   3.639   3.115  0.2116  0.2081 -1.6128
 7556SOL    HW234128   0.848   3.793   3.132 -0.0579  0.5363 -0.4137
 7557SOL     OW34129   0.830   0.724  17.227  0.2160 -0.5820 -0.3836
 7557SOL    HW134130   0.836   0.806  17.179  2.3623 -0.6315 -0.2176
 7557SOL    HW234131   0.890   0.676  17.170  0.5511 -1.5502  0.7780
 7558SOL     OW34132   2.164   1.146  10.265  0.5422 -0.2420 -0.2518
 7558SOL    HW134133   2.094   1.179  10.320  2.6264  0.1630  2.1604
 7558SOL    HW234134   2.182   1.222  10.209  0.4905 -0.0478  0.0007
 7559SOL     OW34135   0.831   1.469   3.126  0.0785  0.1630 -0.0966
 7559SOL    HW134136   0.737   1.486   3.117  0.2774  0.9044 -0.8001
 7559SOL    HW234137   0.861   1.517   3.049 -0.7757 -2.3117 -1.9587
 7560SOL     OW34138   1.130   2.881   3.566 -0.6349 -0.0462 -0.7549
 7560SOL    HW134139   1.185   2.848   3.636  0.4877 -0.2746 -1.7428
 7560SOL    HW234140   1.067   2.934   3.615 -1.0102  0.4183 -1.7281
 7561SOL     OW34141   1.734   1.486   8.911  0.1938 -0.3801  0.6261
 7561SOL    HW134142   1.813   1.504   8.860  1.1999 -0.6340  2.0936
 7561SOL    HW234143   1.694   1.573   8.905 -1.1969 -0.9118  2.3104
 7562SOL     OW34144   2.018   3.619   7.123 -0.1899 -0.3783 -0.0062
 7562SOL    HW134145   2.034   3.591   7.033 -1.2240 -1.9698  0.3015
 7562SOL    HW234146   1.957   3.690   7.106  1.2144  0.3074 -2.1940
 7563SOL     OW34147   1.486   3.870   6.121  0.1306 -0.3563  0.2675
 7563SOL    HW134148   1.576   3.855   6.149  0.5575  1.2172 -0.2925
 7563SOL    HW234149   1.500   3.943   6.062  0.9895 -0.2330  0.6159
 7564SOL     OW34150   2.267   2.578   2.769 -0.1967 -0.6663 -0.2732
 7564SOL    HW134151   2.330   2.602   2.701  0.2630 -1.7605 -0.2360
 7564SOL    HW234152   2.310   2.579   2.855 -3.5485  0.3456  1.3936
 7565SOL     OW34153   2.888   4.263   7.734  0.2743  0.0335 -0.0065
 7565SOL    HW134154   2.862   4.284   7.644 -3.3582 -2.5916  0.4454
 7565SOL    HW234155   2.972   4.221   7.715  0.1864 -1.0062  1.9528
 7566SOL     OW34156   1.019   3.817   5.198 -0.1792 -0.6159  0.3589
 7566SOL    HW134157   0.948   3.880   5.189  0.5654  0.3242  0.9928
 7566SOL    HW234158   1.059   3.835   5.283 -0.1710  0.8205  0.0564
 7567SOL     OW34159   0.830   2.076   3.909  0.2421  0.4186 -0.1694
 7567SOL    HW134160   0.881   2.025   3.847 -2.2180 -2.9782  0.6115
 7567SOL    HW234161   0.754   2.020   3.922  0.6147  0.3457  1.6991
 7568SOL     OW34162   1.448   2.906   4.198  0.1454 -0.1847  0.2114
 7568SOL    HW134163   1.489   2.920   4.284 -0.7799  0.6701  0.5209
 7568SOL    HW234164   1.515   2.953   4.148  0.6392 -1.0589  0.0660
 7569SOL     OW34165   4.437   2.368   7.189 -0.4242 -0.4031 -0.0108
 7569SOL    HW134166   4.494   2.443   7.169 -0.9048  0.5143  2.0344
 7569SOL    HW234167   4.412   2.341   7.101  0.5967 -0.6907 -0.2180
 7570SOL     OW34168   0.902   3.732   2.770  0.7177  0.0176 -0.0459
 7570SOL    HW134169   0.968   3.690   2.825  0.4793 -1.7683 -1.1058
 7570SOL    HW234170   0.844   3.782   2.828  1.4699  1.5775 -0.6308
 7571SOL     OW34171   0.235   3.862   3.223 -0.2461  0.2212  0.4969
 7571SOL    HW134172   0.246   3.799   3.295  2.9907  2.7673  2.2708
 7571SOL    HW234173   0.291   3.936   3.249 -0.5076  0.2594  0.9527
 7572SOL     OW34174   2.619   0.505   2.363 -0.0093  0.3655 -0.0796
 7572SOL    HW134175   2.622   0.488   2.457  0.3626  1.4508  0.1049
 7572SOL    HW234176   2.662   0.590   2.362  1.2436 -0.2542  2.0702
 7573SOL     OW34177   4.030   2.738  10.863 -0.2057 -0.5249 -0.7100
 7573SOL    HW134178   4.092   2.809  10.849  0.5412 -0.6558  1.8838
 7573SOL    HW234179   4.071   2.671  10.809 -2.5951 -1.8557 -0.8934
 7574SOL     OW34180   1.426   4.154  11.754 -0.6829 -0.7944 -0.8196
 7574SOL    HW134181   1.396   4.098  11.826 -2.0475 -0.9584 -1.5151
 7574SOL    HW234182   1.402   4.095  11.683 -1.3521  1.3430 -2.3784
 7575SOL     OW34183   1.581   1.201   1.672  0.1622 -0.1159  0.4224
 7575SOL    HW134184   1.528   1.272   1.711 -0.3982 -0.7764  0.8712
 7575SOL    HW234185   1.509   1.142   1.650  1.2539 -1.0702 -0.5558
 7576SOL     OW34186   1.512   0.969  17.400 -0.3225  0.1145 -0.1863
 7576SOL    HW134187   1.432   0.942  17.356  0.4187 -0.1017 -1.4160
 7576SOL    HW234188   1.476   1.008  17.480 -1.8337  1.7767 -1.6713
 7577SOL     OW34189   3.887   0.254   3.630  0.2454  0.1726  0.2451
 7577SOL    HW134190   3.912   0.165   3.653 -1.4808 -0.6150 -0.9429
 7577SOL    HW234191   3.962   0.274   3.574  1.3733 -1.3696  1.1918
 7578SOL     OW34192   4.323   1.578   8.113 -0.4370  0.7081  0.5675
 7578SOL    HW134193   4.388   1.632   8.159 -0.4219  1.8888 -0.8486
 7578SOL    HW234194   4.331   1.617   8.027 -1.1594  0.3898  0.3561
 7579SOL     OW34195   4.158   0.640  13.991 -0.3440  0.2418  0.0946
 7579SOL    HW134196   4.210   0.720  14.001 -0.6545  0.4843 -0.2072
 7579SOL    HW234197   4.107   0.659  13.912  0.3881  1.5540 -0.0699
 7580SOL     OW34198   0.805   2.718  13.811  0.1160  0.3361  0.0286
 7580SOL    HW134199   0.769   2.803  13.785 -2.9655 -0.4037  1.9031
 7580SOL    HW234200   0.727   2.665  13.796  0.7595 -0.3340 -0.9672
 7581SOL     OW34201   0.367   4.230   5.658 -0.0958 -0.4966  0.0268
 7581SOL    HW134202   0.414   4.234   5.741  0.8581  2.2590 -0.6520
 7581SOL    HW234203   0.348   4.323   5.650  0.9529 -0.4028 -1.4215
 7582SOL     OW34204   4.650   1.512   4.314  0.1309  0.0626 -0.0892
 7582SOL    HW134205   4.660   1.580   4.247  0.4575  1.4507  1.3974
 7582SOL    HW234206   4.690   1.440   4.265 -1.3393 -0.0626 -1.0999
 7583SOL     OW34207   2.707   4.036   4.161  0.0835 -0.0670 -0.0124
 7583SOL    HW134208   2.790   4.072   4.131  0.9101 -2.2232 -0.2937
 7583SOL    HW234209   2.710   3.942   4.144  1.3974  0.2631 -1.5643
 7584SOL     OW34210   1.567   1.430  14.944  0.3184 -0.6818  0.2089
 7584SOL    HW134211   1.612   1.437  15.029  0.5217  1.0700 -0.0590
 7584SOL    HW234212   1.496   1.494  14.949  0.8426 -0.1118  0.3676
 7585SOL     OW34213   4.632   0.774   6.188 -0.0288 -0.0545  0.1237
 7585SOL    HW134214   4.680   0.745   6.266  0.6336 -0.5917 -0.4782
 7585SOL    HW234215   4.701   0.807   6.130 -0.8939  1.2635 -0.1511
 7586SOL     OW34216   0.619   2.468   7.003  0.1389 -0.1886  0.3474
 7586SOL    HW134217   0.690   2.412   7.034  0.3962 -0.7341 -1.2719
 7586SOL    HW234218   0.547   2.406   6.996  0.7096 -0.7001 -0.9043
 7587SOL     OW34219   3.069   2.593   3.136 -0.4707 -0.1463  0.2679
 7587SOL    HW134220   3.034   2.594   3.047  0.0062 -0.1766  0.0796
 7587SOL    HW234221   3.104   2.504   3.132  1.8047  0.8696 -2.5299
 7588SOL     OW34222   3.879   2.175   5.672 -0.4780  0.0223 -0.0993
 7588SOL    HW134223   3.891   2.235   5.745  1.6982 -0.2358 -0.2373
 7588SOL    HW234224   3.793   2.209   5.649 -1.5054 -1.9609  0.7859
 7589SOL     OW34225   3.670   4.048   3.032 -0.0655 -0.3384  0.2403
 7589SOL    HW134226   3.746   3.989   3.028  0.2352  0.0322  0.3802
 7589SOL    HW234227   3.702   4.126   3.078 -0.3850  1.3892 -2.4921
 7590SOL     OW34228   2.963   1.670  15.788  0.4765  0.4144 -0.1441
 7590SOL    HW134229   3.033   1.652  15.725 -0.9783 -3.0483 -0.7150
 7590SOL    HW234230   3.012   1.645  15.866  2.5391  1.9719 -0.9236
 7591SOL     OW34231   4.074   1.759   0.925  0.0925 -0.5272 -0.0513
 7591SOL    HW134232   4.003   1.720   0.976 -1.0617  2.3516  0.5699
 7591SOL    HW234233   4.095   1.681   0.874 -0.3565 -0.1129 -0.8866
 7592SOL     OW34234   2.982   0.358   6.975  0.5554  0.0083  0.1775
 7592SOL    HW134235   2.930   0.298   7.028  1.6751 -0.7488  0.4289
 7592SOL    HW234236   2.914   0.422   6.957  2.0169  1.7132  0.6781
 7593SOL     OW34237   4.370   4.403   1.463 -0.0681 -0.3584  0.0198
 7593SOL    HW134238   4.323   4.328   1.427 -0.5536  0.2784 -0.7013
 7593SOL    HW234239   4.361   4.390   1.557  2.2613  0.2212  0.3359
 7594SOL     OW34240   0.013   4.357   4.457  0.5997 -0.5940  0.2029
 7594SOL    HW134241   4.676   4.291   4.481  0.0662 -0.5749 -1.1413
 7594SOL    HW234242   0.097   4.313   4.473  1.0150 -0.4375 -1.4818
 7595SOL     OW34243   4.405   1.140  13.244 -0.1717 -0.2287  0.2150
 7595SOL    HW134244   4.465   1.075  13.208 -0.5507 -0.1821 -0.5026
 7595SOL    HW234245   4.450   1.222  13.227  1.0473 -1.0181 -0.3563
 7596SOL     OW34246   0.391   3.773   7.208 -0.3784 -0.2215  0.3415
 7596SOL    HW134247   0.338   3.810   7.278 -1.6236  1.9615 -1.7316
 7596SOL    HW234248   0.376   3.836   7.138  2.2560  0.8791  0.7533
 7597SOL     OW34249   1.569   0.648  17.176 -0.4864  0.1478  0.6109
 7597SOL    HW134250   1.616   0.616  17.099 -2.8833  0.9133 -1.1494
 7597SOL    HW234251   1.540   0.565  17.216 -1.6510  0.6035  0.7052
 7598SOL     OW34252   0.661   1.321  11.504  1.1386  0.7747  0.2206
 7598SOL    HW134253   0.625   1.237  11.532  2.6543  0.3096  0.7551
 7598SOL    HW234254   0.581   1.374  11.499  1.3205  1.0708  0.4539
 7599SOL     OW34255   0.446   3.322   5.256  0.0811 -0.5667  0.4647
 7599SOL    HW134256   0.469   3.374   5.333 -1.3530 -0.0886  0.5848
 7599SOL    HW234257   0.353   3.318   5.281 -0.1960  0.5095 -0.3830
 7600SOL     OW34258   4.417   2.600   3.167 -0.1849  0.3328  0.0690
 7600SOL    HW134259   4.487   2.536   3.155  0.8565  1.3158  0.9658
 7600SOL    HW234260   4.471   2.678   3.178  1.0511 -0.2139 -2.1021
 7601SOL     OW34261   3.032   4.511  12.191  0.0680 -0.2158 -0.1603
 7601SOL    HW134262   2.997   4.424  12.209  0.8519 -0.8318 -1.6024
 7601SOL    HW234263   3.112   4.511  12.243  0.5219 -0.3459 -0.8664
 7602SOL     OW34264   3.348   2.284   2.879 -0.0313  0.3099  0.3380
 7602SOL    HW134265   3.386   2.196   2.884  1.6389  0.9218 -1.6313
 7602SOL    HW234266   3.292   2.259   2.806  1.6898 -0.1444 -0.8258
 7603SOL     OW34267   0.605   2.855   4.317  0.0215 -0.3408 -0.1561
 7603SOL    HW134268   0.610   2.780   4.258  0.6574  0.6485 -1.3384
 7603SOL    HW234269   0.509   2.862   4.319 -0.0783 -1.7497  0.0968
 7604SOL     OW34270   1.007   2.389   3.775  0.0715 -0.1442 -0.4426
 7604SOL    HW134271   1.030   2.476   3.807 -0.8624  1.0551 -3.0577
 7604SOL    HW234272   1.090   2.350   3.802 -0.7380 -2.7001 -1.6069
 7605SOL     OW34273   0.228   2.368   3.053  0.1524 -0.0829 -0.3386
 7605SOL    HW134274   0.224   2.462   3.073 -1.1799  0.1675 -1.7465
 7605SOL    HW234275   0.210   2.372   2.959 -3.3565 -1.1183  0.2746
 7606SOL     OW34276   4.213   1.081   5.356 -0.3741  0.1852 -0.1403
 7606SOL    HW134277   4.279   1.116   5.416  0.5483 -1.7988 -0.0102
 7606SOL    HW234278   4.160   1.032   5.419 -0.5272 -0.9500 -1.1701
 7607SOL     OW34279   3.820   1.416   3.988  0.0004  0.4197  0.0098
 7607SOL    HW134280   3.820   1.429   4.083 -0.0233  2.8603 -0.3139
 7607SOL    HW234281   3.899   1.363   3.978 -0.8322 -1.1568  1.6560
 7608SOL     OW34282   3.113   0.823   6.254 -0.0591  0.6977  0.1338
 7608SOL    HW134283   3.069   0.812   6.339  0.7393  2.9530  0.8495
 7608SOL    HW234284   3.162   0.741   6.258 -1.2018  0.0519  0.9713
 7609SOL     OW34285   3.125   0.113   4.518 -0.3562 -0.2645 -0.1316
 7609SOL    HW134286   3.068   0.164   4.461  0.9791  0.0604 -1.1754
 7609SOL    HW234287   3.176   0.090   4.440  1.8358 -2.5146  1.9880
 7610SOL     OW34288   4.258   2.951  12.899 -0.0316 -0.0872 -0.2475
 7610SOL    HW134289   4.191   2.990  12.842 -1.8614  0.3609  2.2385
 7610SOL    HW234290   4.336   2.993  12.862  0.9141 -1.5321  0.0791
 7611SOL     OW34291   1.566   1.868   2.506 -0.0215  0.3489 -0.0530
 7611SOL    HW134292   1.625   1.928   2.551  2.0795 -1.4162 -0.4733
 7611SOL    HW234293   1.520   1.946   2.475 -0.5738 -1.2258 -3.1535
 7612SOL     OW34294   2.408   2.150   7.796  0.2023 -0.5214  0.5523
 7612SOL    HW134295   2.448   2.119   7.878 -0.1929 -1.5764  0.3392
 7612SOL    HW234296   2.388   2.237   7.831 -0.3316 -0.6105  0.4684
 7613SOL     OW34297   3.837   4.090   6.847 -0.4136 -0.0063 -0.1359
 7613SOL    HW134298   3.833   4.010   6.900  0.3872  1.0540  1.5423
 7613SOL    HW234299   3.807   4.062   6.761 -1.6597 -1.9059  0.9118
 7614SOL     OW34300   0.626   4.396   5.056 -0.1379 -0.5787 -0.2847
 7614SOL    HW134301   0.713   4.391   5.018 -0.0610 -0.1232 -0.1708
 7614SOL    HW234302   0.654   4.377   5.146 -2.5279  1.1031  0.8346
 7615SOL     OW34303   1.147   4.389  13.305 -0.1497  0.3508 -0.2109
 7615SOL    HW134304   1.222   4.448  13.318 -0.6432  0.4020  2.5666
 7615SOL    HW234305   1.079   4.449  13.274  0.6020 -1.3714 -5.0352
 7616SOL     OW34306   4.699   3.819   6.915  0.6286  0.0438 -0.3549
 7616SOL    HW134307   4.606   3.832   6.936  0.5379  0.7224 -1.1848
 7616SOL    HW234308   4.720   3.753   6.981 -0.6843  0.5409  0.5709
 7617SOL     OW34309   4.568   4.391   4.086  0.2916 -0.3972 -0.0935
 7617SOL    HW134310   4.506   4.408   4.157  0.7605 -0.4446  0.3266
 7617SOL    HW234311   4.512   4.326   4.042  0.8360 -1.3498  0.6188
 7618SOL     OW34312   1.773   0.633   4.351 -0.4719 -0.8787 -0.0652
 7618SOL    HW134313   1.798   0.570   4.284  0.6108 -1.1168  0.5525
 7618SOL    HW234314   1.835   0.704   4.337 -0.3762 -0.8406  0.5585
 7619SOL     OW34315   2.402   4.001   8.743  0.3826  0.4977 -0.4487
 7619SOL    HW134316   2.431   3.980   8.832 -2.1731 -3.1900 -0.4910
 7619SOL    HW234317   2.479   3.983   8.690  0.3513  0.0592 -0.3472
 7620SOL     OW34318   1.254   4.596   1.618  0.1433 -0.2280 -0.0972
 7620SOL    HW134319   1.276   4.656   1.689  2.2691 -2.5288  1.1988
 7620SOL    HW234320   1.308   4.638   1.551 -1.0595  1.0970 -0.2246
 7621SOL     OW34321   1.838   4.258   8.464 -0.0877 -0.1670 -0.2019
 7621SOL    HW134322   1.876   4.340   8.496 -0.0392 -1.0787  2.1004
 7621SOL    HW234323   1.744   4.263   8.478  0.1243 -0.2295  1.3621
 7622SOL     OW34324   3.524   0.985  10.279  0.8403  0.3235 -0.0025
 7622SOL    HW134325   3.462   1.052  10.308  1.5625 -0.0999  2.5712
 7622SOL    HW234326   3.605   1.019  10.319  0.5481 -0.7059  1.4575
 7623SOL     OW34327   2.238   3.278   0.263  0.2529  0.0069 -0.1967
 7623SOL    HW134328   2.191   3.201   0.231 -2.3712  1.2223  0.7518
 7623SOL    HW234329   2.259   3.257   0.354 -0.7014  2.5340  0.6282
 7624SOL     OW34330   3.005   1.114   1.396  0.0820  0.0610  0.3655
 7624SOL    HW134331   2.934   1.143   1.339  1.2101  0.2206 -0.9588
 7624SOL    HW234332   2.975   1.043   1.452 -0.2182  0.5602  0.8474
 7625SOL     OW34333   1.441   1.975   7.738  0.4026  0.0987 -0.3137
 7625SOL    HW134334   1.349   1.957   7.761  0.3230 -2.2217 -2.4065
 7625SOL    HW234335   1.490   1.915   7.795  0.8644  1.1425  0.3778
 7626SOL     OW34336   2.892   4.001  10.563 -0.1793  0.4296  0.6464
 7626SOL    HW134337   2.819   3.957  10.606 -0.8734  1.1996  0.2553
 7626SOL    HW234338   2.948   3.941  10.514  1.6700  1.5438  1.3948
 7627SOL     OW34339   0.711   0.705  12.566 -0.1093 -0.7579  0.0815
 7627SOL    HW134340   0.798   0.719  12.603  0.0815  0.0219 -0.6565
 7627SOL    HW234341   0.706   0.610  12.550 -0.4119 -0.7790  0.2871
 7628SOL     OW34342   2.207   1.231   1.763 -0.8861 -0.1030 -0.4507
 7628SOL    HW134343   2.168   1.257   1.680 -1.6775  0.0878 -0.0162
 7628SOL    HW234344   2.302   1.242   1.753 -0.7705 -0.2194  0.5641
 7629SOL     OW34345   1.051   1.035   5.497  0.5506 -0.2510  0.0467
 7629SOL    HW134346   1.086   0.951   5.527  0.4525 -0.5299 -0.6111
 7629SOL    HW234347   0.994   1.003   5.426 -0.5680  0.4093  0.6552
 7630SOL     OW34348   4.185   4.318   4.620 -0.1080 -0.1699  0.2342
 7630SOL    HW134349   4.272   4.278   4.616  0.3857  0.9866 -0.5034
 7630SOL    HW234350   4.206   4.405   4.655 -3.4764  1.1535 -1.0057
 7631SOL     OW34351   1.298   0.162   5.509 -0.2532  0.5792  0.5077
 7631SOL    HW134352   1.274   0.185   5.599 -0.8695  0.5254  0.3570
 7631SOL    HW234353   1.216   0.170   5.460  1.5899  0.1360 -2.6585
 7632SOL     OW34354   2.739   3.612  10.888  0.1039  0.3439  0.2170
 7632SOL    HW134355   2.731   3.660  10.806 -1.4019 -0.9067 -0.3597
 7632SOL    HW234356   2.653   3.573  10.896  0.3671 -0.2140  0.2976
 7633SOL     OW34357   2.113   2.428  10.359 -0.2655  0.3185  0.3283
 7633SOL    HW134358   2.156   2.405  10.276 -1.1246  2.3510 -0.6947
 7633SOL    HW234359   2.024   2.401  10.341 -0.5821  1.0705  0.7625
 7634SOL     OW34360   3.222   2.090   3.416 -0.2877 -0.5469 -0.2120
 7634SOL    HW134361   3.282   2.157   3.384  0.0293 -0.5563  0.3764
 7634SOL    HW234362   3.171   2.144   3.475 -2.8382 -2.8448 -0.2801
 7635SOL     OW34363   0.365   4.306   6.368  0.2245  0.2383 -0.4663
 7635SOL    HW134364   0.331   4.295   6.279 -0.6249 -0.3157 -0.0730
 7635SOL    HW234365   0.316   4.231   6.399 -0.4168  0.7766 -0.1728
 7636SOL     OW34366   2.180   4.458   4.880  0.3767  0.5078  0.1939
 7636SOL    HW134367   2.174   4.506   4.798  0.3780 -1.0423 -0.7013
 7636SOL    HW234368   2.116   4.508   4.931 -1.3086 -2.8375  1.3482
 7637SOL     OW34369   1.039   0.148   8.680  0.7031  0.2421 -0.4984
 7637SOL    HW134370   1.084   0.129   8.762  1.8876 -0.5009 -1.3328
 7637SOL    HW234371   1.030   0.061   8.643 -1.4486  0.7246 -1.1074
 7638SOL     OW34372   2.632   2.714   2.625  0.6664  0.3320  0.4663
 7638SOL    HW134373   2.554   2.681   2.580 -0.0830  0.9442  1.3307
 7638SOL    HW234374   2.614   2.684   2.714  0.3277 -1.6197 -0.2650
 7639SOL     OW34375   1.337   0.720  12.856  0.1686 -0.6198  0.2768
 7639SOL    HW134376   1.293   0.764  12.783 -0.0491  0.0798  0.8233
 7639SOL    HW234377   1.427   0.724  12.822 -0.6246 -0.3333 -1.8062
 7640SOL     OW34378   1.587   4.198  14.997 -0.8369 -0.6838  0.6968
 7640SOL    HW134379   1.635   4.140  14.939  1.3277  2.5581 -0.8065
 7640SOL    HW234380   1.596   4.275  14.941 -1.5804 -1.6940 -0.7960
 7641SOL     OW34381   2.539   4.707   0.481  0.8480 -0.6687  0.4567
 7641SOL    HW134382   2.563   0.055   0.428  0.3212  0.3750  1.7267
 7641SOL    HW234383   2.449   4.691   0.451  0.1472  1.9211  1.1966
 7642SOL     OW34384   3.947   1.447   6.175 -0.3551 -0.0057  0.0407
 7642SOL    HW134385   3.964   1.455   6.269  0.8247  2.2082 -0.3555
 7642SOL    HW234386   4.002   1.374   6.148 -1.5715 -0.4055 -1.3522
 7643SOL     OW34387   4.530   3.417   0.523  0.1749 -0.0827  0.3383
 7643SOL    HW134388   4.600   3.476   0.497  0.0395 -0.1250 -0.1169
 7643SOL    HW234389   4.471   3.440   0.451 -1.3117  0.3979  1.7022
 7644SOL     OW34390   1.585   4.081   9.155 -0.5365 -0.2757 -0.0738
 7644SOL    HW134391   1.526   4.071   9.229 -0.2955 -1.2136 -0.0056
 7644SOL    HW234392   1.668   4.056   9.196  0.1480 -0.1620 -1.3945
 7645SOL     OW34393   2.091   0.291   1.692 -0.2699  0.3565 -0.2355
 7645SOL    HW134394   2.117   0.323   1.779 -0.4632  0.7786 -0.3319
 7645SOL    HW234395   2.019   0.352   1.677 -0.7323 -0.4353 -1.2275
 7646SOL     OW34396   0.524   1.349   7.072 -0.1601  0.3078  0.4766
 7646SOL    HW134397   0.468   1.396   7.012  1.0964  1.4920  0.2380
 7646SOL    HW234398   0.517   1.410   7.146 -3.2466  0.4973  0.0208
 7647SOL     OW34399   2.232   0.184   1.149  0.5167 -0.2173  0.1274
 7647SOL    HW134400   2.305   0.142   1.105  0.8281 -1.2752  1.6394
 7647SOL    HW234401   2.166   0.115   1.142  1.4701 -1.1477  0.2760
 7648SOL     OW34402   1.989   3.940   8.193  0.1247  0.0055 -0.2257
 7648SOL    HW134403   2.026   3.896   8.116  2.3761 -2.6490  2.3964
 7648SOL    HW234404   1.933   4.006   8.151 -1.3389 -0.5085  0.8923
 7649SOL     OW34405   0.006   3.446   9.358  0.5719 -0.7833  0.1432
 7649SOL    HW134406   4.664   3.482   9.303  1.0384 -2.5746 -1.6401
 7649SOL    HW234407   0.062   3.431   9.281  1.4694  1.7904  0.3184
 7650SOL     OW34408   3.623   0.541   7.595  0.2417  0.0783  0.0894
 7650SOL    HW134409   3.658   0.616   7.548  0.1960  0.5140  0.7579
 7650SOL    HW234410   3.559   0.512   7.529  1.9586 -1.0830 -1.0460
 7651SOL     OW34411   2.882   2.548   0.000 -0.2033 -0.2303  0.0668
 7651SOL    HW134412   2.799   2.501   0.006 -1.1284  1.3632 -0.0793
 7651SOL    HW234413   2.840   2.635  17.709  0.0855 -0.1078 -0.7080
 7652SOL     OW34414   1.985   1.199   2.455 -0.0194  0.1647 -0.4957
 7652SOL    HW134415   2.062   1.182   2.402  0.3361  0.8997 -0.2064
 7652SOL    HW234416   1.981   1.110   2.492  1.2146 -0.1987 -1.2395
 7653SOL     OW34417   1.123   4.028  11.072  0.0731  0.2444 -0.0792
 7653SOL    HW134418   1.214   4.055  11.079 -0.4787  1.9186  0.4567
 7653SOL    HW234419   1.064   4.097  11.101  0.8142  1.0236 -0.4265
 7654SOL     OW34420   4.271   4.255   4.114 -0.0855  0.2045 -0.0632
 7654SOL    HW134421   4.235   4.193   4.177 -0.1447  0.6467  0.3403
 7654SOL    HW234422   4.215   4.246   4.037  0.4776 -0.9499 -0.3483
 7655SOL     OW34423   3.906   1.625  12.560  0.2956  0.0001 -0.0494
 7655SOL    HW134424   3.951   1.710  12.555  2.1123 -0.9167  0.5895
 7655SOL    HW234425   3.839   1.659  12.619  0.8897  2.7527 -0.9283
 7656SOL     OW34426   4.647   0.493   9.165  0.9107 -0.0389 -0.1800
 7656SOL    HW134427   4.624   0.526   9.252 -2.6140 -1.9752 -0.3632
 7656SOL    HW234428   4.669   0.406   9.200  0.3997  0.0109  0.2753
 7657SOL     OW34429   1.220   3.923   9.895 -0.6018  0.4069 -0.2347
 7657SOL    HW134430   1.127   3.934   9.879 -0.6821  0.9517  0.6187
 7657SOL    HW234431   1.225   3.828   9.894  2.0929  0.4952  2.1147
 7658SOL     OW34432   4.083   1.276   7.619  0.6979  0.0753  0.4853
 7658SOL    HW134433   4.090   1.372   7.616  3.6957 -0.1435 -0.0548
 7658SOL    HW234434   4.077   1.263   7.713 -2.8643 -2.8522 -0.1724
 7659SOL     OW34435   2.345   2.332   2.448  0.7799  0.4820  0.7684
 7659SOL    HW134436   2.338   2.237   2.460 -0.6718  0.4415 -0.4269
 7659SOL    HW234437   2.396   2.364   2.522  1.5173 -0.7572  0.8029
 7660SOL     OW34438   4.295   3.122   6.415  0.0267 -0.5694 -0.5736
 7660SOL    HW134439   4.379   3.163   6.433 -0.5810 -0.3475  1.8405
 7660SOL    HW234440   4.316   3.036   6.380 -0.3668 -0.5110 -0.9582
 7661SOL     OW34441   3.823   2.958   5.246 -0.3966 -0.3385  0.4516
 7661SOL    HW134442   3.738   2.918   5.227 -1.3105  0.0569  3.6357
 7661SOL    HW234443   3.879   2.882   5.226  1.3934  0.7654  1.2529
 7662SOL     OW34444   2.329   3.013   0.454 -0.1281 -0.5123  0.9992
 7662SOL    HW134445   2.270   2.942   0.429 -0.3181 -0.6899  1.9426
 7662SOL    HW234446   2.398   2.954   0.484  0.4513 -0.3922 -0.0911
 7663SOL     OW34447   4.712   3.471   3.462  0.0099  0.3489  0.1205
 7663SOL    HW134448   0.064   3.423   3.435 -0.4738  0.0045 -0.6863
 7663SOL    HW234449   4.713   3.551   3.409  0.8207 -0.0617 -0.4883
 7664SOL     OW34450   3.100   0.996   2.337  0.3385 -0.0298 -0.2641
 7664SOL    HW134451   3.131   0.921   2.286  0.2287  1.0420 -1.9203
 7664SOL    HW234452   3.182   1.009   2.384  0.3965  1.9760 -0.9534
 7665SOL     OW34453   2.936   1.832   9.978  0.1519 -0.8754 -0.2877
 7665SOL    HW134454   2.959   1.805   9.889 -0.7811 -1.7687 -0.2587
 7665SOL    HW234455   2.862   1.888   9.955  0.2200 -0.9412 -0.6685
 7666SOL     OW34456   2.644   1.046   5.285 -0.0206 -0.5268  0.6915
 7666SOL    HW134457   2.620   0.972   5.340 -4.6923 -1.6095 -2.7265
 7666SOL    HW234458   2.594   1.034   5.203  0.5351  2.4732 -0.0919
 7667SOL     OW34459   0.078   0.480   3.464  0.0197 -0.1463  0.2010
 7667SOL    HW134460   0.080   0.469   3.559  1.1315 -0.4520  0.1387
 7667SOL    HW234461   0.023   0.557   3.449  0.2555 -0.2159 -0.9927
 7668SOL     OW34462   1.724   4.302   4.290 -0.1306  0.5577  0.2909
 7668SOL    HW134463   1.816   4.277   4.282  0.0382  1.1270  0.4685
 7668SOL    HW234464   1.720   4.395   4.311 -1.4364  0.9994 -1.7970
 7669SOL     OW34465   2.994   3.548   5.886 -0.2645  0.7850 -0.4650
 7669SOL    HW134466   2.959   3.583   5.968 -2.1387 -0.5051 -0.7316
 7669SOL    HW234467   3.032   3.630   5.853 -0.1280  1.0903  0.4226
 7670SOL     OW34468   2.173   0.693  10.816 -0.6894  0.1714  0.2123
 7670SOL    HW134469   2.150   0.711  10.907  1.0419 -0.1438  0.7102
 7670SOL    HW234470   2.183   0.783  10.785 -1.5395  0.0993 -0.2556
 7671SOL     OW34471   1.559   0.916   4.822  0.1059 -0.8914  0.6353
 7671SOL    HW134472   1.640   0.945   4.782 -0.4069 -0.4799 -0.1091
 7671SOL    HW234473   1.497   0.980   4.787  2.6601 -0.2058 -2.5599
 7672SOL     OW34474   0.362   0.479   0.821 -0.0384 -0.4614  0.0962
 7672SOL    HW134475   0.284   0.506   0.773  0.7018  1.0728 -0.2485
 7672SOL    HW234476   0.327   0.492   0.909 -2.6301  0.0377 -1.0053
 7673SOL     OW34477   0.136   2.375   9.491 -0.0078 -0.1603 -0.2156
 7673SOL    HW134478   0.130   2.279   9.491  0.6923 -0.2038 -0.2972
 7673SOL    HW234479   0.045   2.400   9.470 -0.1111 -0.1082  0.2985
 7674SOL     OW34480   3.724   2.369   6.069 -0.0697 -0.4403 -0.5237
 7674SOL    HW134481   3.665   2.317   6.015  0.0565 -1.5754  0.4256
 7674SOL    HW234482   3.742   2.304   6.137  0.1466 -0.5925 -0.7290
 7675SOL     OW34483   4.115   2.498   7.737  0.0344  0.7207  0.0773
 7675SOL    HW134484   4.138   2.588   7.710 -0.5500 -0.1007 -3.1346
 7675SOL    HW234485   4.129   2.515   7.830  0.2977  0.7421  0.0353
 7676SOL     OW34486   0.126   2.135   4.741 -0.1112 -0.3745  0.0444
 7676SOL    HW134487   0.155   2.221   4.773  2.0479 -1.1065  0.0236
 7676SOL    HW234488   0.199   2.097   4.692  1.0554  2.0872 -0.1064
 7677SOL     OW34489   4.623   1.666   1.724  0.0593  0.3947  0.4790
 7677SOL    HW134490   4.539   1.631   1.695  1.6027 -0.3965 -2.9928
 7677SOL    HW234491   4.645   1.610   1.798 -0.6962  0.8857  1.0715
 7678SOL     OW34492   1.226   0.256   5.751 -0.0209 -0.2107 -0.3945
 7678SOL    HW134493   1.221   0.180   5.809  0.0782 -0.7585 -1.0995
 7678SOL    HW234494   1.134   0.276   5.735 -0.0987 -1.1130 -1.0800
 7679SOL     OW34495   1.131   1.994   4.106 -0.5218  0.4282 -0.1453
 7679SOL    HW134496   1.142   1.904   4.135  1.0754  0.7642  0.2913
 7679SOL    HW234497   1.119   1.970   4.014  0.0020  1.2112 -0.4178
 7680SOL     OW34498   4.625   4.652   2.358 -0.0001 -0.3856 -0.2521
 7680SOL    HW134499   4.668   0.008   2.378 -1.0083  0.0218  0.1960
 7680SOL    HW234500   4.581   4.626   2.439  1.8918 -1.3800  0.4623
 7681SOL     OW34501   0.341   2.529  17.255 -0.4937  0.3399  1.2406
 7681SOL    HW134502   0.276   2.460  17.258 -0.2801  0.1061  0.5586
 7681SOL    HW234503   0.295   2.591  17.311 -3.8373 -0.3158 -0.8202
 7682SOL     OW34504   3.380   4.676  14.304  0.2305 -0.0568  0.5130
 7682SOL    HW134505   3.297   4.628  14.311  1.5524 -2.7106 -2.0090
 7682SOL    HW234506   3.427   4.632  14.374 -2.4018 -0.7463  1.8612
 7683SOL     OW34507   1.386   0.180   3.150  0.0774 -0.0893 -0.5030
 7683SOL    HW134508   1.353   0.098   3.184 -1.0954  0.8597  0.6498
 7683SOL    HW234509   1.306   0.223   3.118 -1.3531 -1.7936  0.7997
 7684SOL     OW34510   3.919   1.031   7.260  0.3949 -0.2033  0.5742
 7684SOL    HW134511   3.878   0.952   7.294 -1.7365  1.6462  2.3817
 7684SOL    HW234512   3.949   0.977   7.188 -2.7621  0.2105 -1.0603
 7685SOL     OW34513   1.235   0.206   7.768 -0.4327 -0.1685 -0.2268
 7685SOL    HW134514   1.150   0.250   7.764 -0.9993 -1.4105 -1.6715
 7685SOL    HW234515   1.258   0.207   7.675 -0.3420  3.0131 -0.1795
 7686SOL     OW34516   1.572   4.234   8.438 -0.4916  0.3349 -0.1694
 7686SOL    HW134517   1.519   4.173   8.388 -1.8941  0.5387  1.0558
 7686SOL    HW234518   1.513   4.308   8.451 -1.2903 -0.4991  0.9959
 7687SOL     OW34519   1.478   0.077   8.315 -0.1462 -0.3861 -0.3948
 7687SOL    HW134520   1.522   0.084   8.399  0.3769 -1.8915 -0.5329
 7687SOL    HW234521   1.558   0.086   8.263 -0.5681 -0.1109 -1.0011
 7688SOL     OW34522   0.288   2.115   3.119  0.1961 -0.4944  0.6056
 7688SOL    HW134523   0.275   2.208   3.103 -1.0665 -0.8410 -0.3899
 7688SOL    HW234524   0.209   2.070   3.088 -0.8575  0.2509  2.1836
 7689SOL     OW34525   1.301   0.812   8.000 -0.0569  0.1189  0.1434
 7689SOL    HW134526   1.280   0.753   8.072  0.3002  0.1835  0.3047
 7689SOL    HW234527   1.395   0.794   8.013 -0.6990 -3.6115 -0.3565
 7690SOL     OW34528   0.306   4.307   7.955  0.3232  0.2228  0.2600
 7690SOL    HW134529   0.305   4.211   7.957  1.8594  0.2075  0.9389
 7690SOL    HW234530   0.366   4.326   8.027 -1.6874 -0.6288  2.1628
 7691SOL     OW34531   4.050   3.585  11.418 -0.1178 -0.5167  0.3380
 7691SOL    HW134532   4.082   3.508  11.370  0.9622  0.5395 -0.6372
 7691SOL    HW234533   4.087   3.643  11.352  0.6442 -2.2853 -0.7990
 7692SOL     OW34534   1.993   3.117   3.354  0.4711 -0.2079 -0.2827
 7692SOL    HW134535   1.941   3.076   3.286 -2.0806 -0.1634  1.6458
 7692SOL    HW234536   2.035   3.042   3.395  0.2626 -0.1810 -0.0231
 7693SOL     OW34537   3.236   2.977  12.413  0.1421  0.0810  0.5463
 7693SOL    HW134538   3.228   3.016  12.500  0.0471  0.0295  0.5594
 7693SOL    HW234539   3.181   3.037  12.363 -1.1340 -1.2718  0.3355
 7694SOL     OW34540   2.334   0.785  15.007  0.2018 -0.7536 -0.5086
 7694SOL    HW134541   2.385   0.859  15.040  0.4291 -1.3085  0.3952
 7694SOL    HW234542   2.356   0.700  15.046  1.0919 -0.6802 -0.8547
 7695SOL     OW34543   0.143   3.326   5.366 -0.4264  0.3755  0.0072
 7695SOL    HW134544   0.105   3.239   5.381  1.4878 -0.4900 -0.2193
 7695SOL    HW234545   0.113   3.371   5.445 -2.0426 -1.7930  0.6564
 7696SOL     OW34546   1.796   3.061   4.190 -0.8763 -0.1391 -0.2896
 7696SOL    HW134547   1.871   3.120   4.184 -0.9388  0.0776  0.9606
 7696SOL    HW234548   1.816   3.007   4.267  2.4438  1.7996  0.2072
 7697SOL     OW34549   2.994   1.543   6.854  0.0922  0.1883  0.3160
 7697SOL    HW134550   2.951   1.627   6.874  1.4573  1.3690 -1.6426
 7697SOL    HW234551   2.923   1.480   6.864  0.5235 -0.3648 -0.0932
 7698SOL     OW34552   3.006   1.289   5.131 -0.1280 -0.5583  1.0253
 7698SOL    HW134553   3.055   1.229   5.075  0.2973  2.9180 -2.2987
 7698SOL    HW234554   2.958   1.223   5.181 -1.4887 -0.5942 -0.3448
 7699SOL     OW34555   0.473   1.585   3.449  0.6492 -0.6409 -0.0587
 7699SOL    HW134556   0.511   1.664   3.411 -2.1400  0.7888  0.1495
 7699SOL    HW234557   0.430   1.613   3.530  0.2490  0.5042 -0.6756
 7700SOL     OW34558   3.940   0.974   3.623 -0.2439  0.8353 -0.4140
 7700SOL    HW134559   3.983   1.051   3.661 -0.8546  0.3897  1.1948
 7700SOL    HW234560   4.005   0.904   3.625 -1.4081 -0.1435  3.2298
 7701SOL     OW34561   1.606   4.680   6.385  0.2205  0.6095  0.1211
 7701SOL    HW134562   1.540   4.613   6.369  0.6032  0.3184 -0.2404
 7701SOL    HW234563   1.608   4.727   6.301  1.7747 -0.3549 -0.3895
 7702SOL     OW34564   2.401   4.691   4.696 -0.1786 -0.0659  0.4584
 7702SOL    HW134565   2.465   0.015   4.745  1.4559 -0.5809 -1.1271
 7702SOL    HW234566   2.453   4.634   4.640 -1.4177 -0.8738  0.1300
 7703SOL     OW34567   1.151   2.670  15.362  0.1568  0.3411  0.1770
 7703SOL    HW134568   1.111   2.756  15.356  1.6314  0.8868 -1.5013
 7703SOL    HW234569   1.072   2.625  15.393 -0.0572  0.0594 -0.7855
 7704SOL     OW34570   0.462   0.776   9.701  0.0346 -0.0343 -0.5123
 7704SOL    HW134571   0.511   0.856   9.682  0.1543 -0.0836 -0.4139
 7704SOL    HW234572   0.498   0.733   9.624 -1.8627  0.8202 -1.8751
 7705SOL     OW34573   3.801   2.258   4.885  0.0067 -0.3593 -0.1096
 7705SOL    HW134574   3.894   2.234   4.890  1.1626  3.6581 -1.7983
 7705SOL    HW234575   3.789   2.266   4.790 -0.3330  1.3895  0.0785
 7706SOL     OW34576   0.588   3.863   6.674  0.2027  0.1144 -0.2916
 7706SOL    HW134577   0.515   3.808   6.647 -0.5320  0.2940  1.2888
 7706SOL    HW234578   0.637   3.785   6.703  2.1548  1.1682 -0.7874
 7707SOL     OW34579   0.895   2.253   7.817  0.1909  0.0647 -0.8066
 7707SOL    HW134580   0.808   2.220   7.839 -0.0431  1.0490 -0.2787
 7707SOL    HW234581   0.881   2.348   7.820 -4.1125 -0.6039 -0.1106
 7708SOL     OW34582   1.665   3.083  15.341  0.0698 -0.2694  0.0327
 7708SOL    HW134583   1.625   3.116  15.260  0.8010 -0.0424 -0.2319
 7708SOL    HW234584   1.600   3.017  15.365 -0.0399  0.0949  0.7364
 7709SOL     OW34585   4.229   1.926  11.429  0.3764  0.3556 -0.3545
 7709SOL    HW134586   4.140   1.906  11.398 -0.5581  2.2659  1.0733
 7709SOL    HW234587   4.267   1.991  11.370 -0.3977  2.1954  1.1648
 7710SOL     OW34588   2.001   0.841   0.365 -0.7819  0.1999  0.1012
 7710SOL    HW134589   1.970   0.893   0.438  0.2035  0.3862  0.3751
 7710SOL    HW234590   2.072   0.898   0.337 -0.6235 -0.6669 -1.2622
 7711SOL     OW34591   3.645   1.827   3.082  0.1255 -0.3274  0.2236
 7711SOL    HW134592   3.556   1.827   3.117  0.0367 -3.8115  0.0640
 7711SOL    HW234593   3.619   1.855   2.994 -0.0153  0.5356  0.5424
 7712SOL     OW34594   1.939   4.298   2.835 -1.0104 -0.3353  0.2323
 7712SOL    HW134595   1.931   4.263   2.746 -0.7405  3.0587 -1.1180
 7712SOL    HW234596   1.910   4.223   2.888  2.6243 -0.0899  2.5005
 7713SOL     OW34597   0.208   0.595  16.441 -0.7654  0.0947  0.1180
 7713SOL    HW134598   0.278   0.564  16.499  0.6368  1.2403 -0.9605
 7713SOL    HW234599   0.251   0.571  16.359 -2.2521  1.3393 -1.0213
 7714SOL     OW34600   3.702   0.971  14.706 -0.1896 -0.6501  0.8567
 7714SOL    HW134601   3.680   0.883  14.736 -1.0741  0.1291  2.4668
 7714SOL    HW234602   3.613   0.996  14.681  0.0371 -0.8380 -0.1349
 7715SOL     OW34603   2.252   1.558   8.581  0.1893 -0.0406 -0.2460
 7715SOL    HW134604   2.237   1.647   8.550  1.0530  0.3070  0.3329
 7715SOL    HW234605   2.234   1.569   8.675  0.0553 -2.2343 -0.0013
 7716SOL     OW34606   3.796   3.450   2.156 -0.0727 -0.1057 -0.2147
 7716SOL    HW134607   3.792   3.411   2.068 -0.0873 -0.0533 -0.2376
 7716SOL    HW234608   3.886   3.483   2.159 -0.9754  2.1806  1.0373
 7717SOL     OW34609   0.840   3.113   2.607  0.4526  0.1538 -0.6917
 7717SOL    HW134610   0.916   3.060   2.584  1.0114  0.2933  0.8295
 7717SOL    HW234611   0.881   3.192   2.643 -1.1917  0.9189 -0.4856
 7718SOL     OW34612   3.981   4.481   8.523  0.2661 -0.4029  0.0302
 7718SOL    HW134613   4.003   4.450   8.611  1.2062  0.2129  0.0073
 7718SOL    HW234614   3.898   4.525   8.540 -0.8001 -2.5792  0.5167
 7719SOL     OW34615   3.390   1.192   8.036 -0.5320  0.2735 -0.0187
 7719SOL    HW134616   3.443   1.198   7.957  0.9525  1.0446  1.0239
 7719SOL    HW234617   3.342   1.274   8.033  2.2286  1.8660 -0.1185
 7720SOL     OW34618   3.423   1.969   7.480 -0.0079  0.1414 -0.3321
 7720SOL    HW134619   3.451   1.881   7.506 -0.9764 -0.3547 -0.9958
 7720SOL    HW234620   3.469   2.024   7.543 -2.1894 -1.0218  2.2979
 7721SOL     OW34621   2.151   0.148  12.151 -0.4053  0.6394 -0.1353
 7721SOL    HW134622   2.238   0.184  12.135 -0.1433  0.4501  0.8259
 7721SOL    HW234623   2.134   0.174  12.242 -3.3418 -0.5095 -0.3561
 7722SOL     OW34624   3.535   0.677   3.790 -0.2260 -0.9133 -0.1931
 7722SOL    HW134625   3.469   0.657   3.857 -0.8244 -1.8052 -1.0496
 7722SOL    HW234626   3.559   0.594   3.750  0.6629 -0.4400 -0.6278
 7723SOL     OW34627   0.260   2.619   8.758  0.1422  0.4163  0.0490
 7723SOL    HW134628   0.224   2.680   8.693 -0.0388  0.4038  0.1403
 7723SOL    HW234629   0.200   2.623   8.832 -1.4546 -0.9415 -1.1781
 7724SOL     OW34630   2.188   3.860   8.693 -0.5180 -0.3705  0.3551
 7724SOL    HW134631   2.167   3.850   8.600 -2.5200  2.0524  0.5531
 7724SOL    HW234632   2.260   3.924   8.686  0.3845 -1.3547  0.6120
 7725SOL     OW34633   1.092   2.883   8.770  0.3544  0.1865  0.0730
 7725SOL    HW134634   1.042   2.806   8.741  2.0850 -1.1251  0.5723
 7725SOL    HW234635   1.178   2.843   8.782 -0.4791 -0.8367  2.5946
 7726SOL     OW34636   4.495   1.347   6.918  0.0391 -0.4983 -0.3995
 7726SOL    HW134637   4.418   1.370   6.866 -0.8602 -1.9355  0.3036
 7726SOL    HW234638   4.501   1.256   6.890  1.9071 -1.3025  2.5387
 7727SOL     OW34639   1.979   3.710   2.122  0.1134  0.2619  0.1973
 7727SOL    HW134640   1.949   3.692   2.211  1.8560  0.4253  0.8269
 7727SOL    HW234641   2.072   3.688   2.124  0.1796  0.1655 -3.3445
 7728SOL     OW34642   4.206   1.591   8.617 -0.0284  0.5490 -0.6501
 7728SOL    HW134643   4.274   1.618   8.554 -0.6075  2.1152 -0.5971
 7728SOL    HW234644   4.124   1.601   8.570 -0.7768 -0.4284  0.4628
 7729SOL     OW34645   0.772   3.759  11.193  0.2819 -0.6300  0.1913
 7729SOL    HW134646   0.854   3.779  11.240  1.8068 -0.7207 -2.4345
 7729SOL    HW234647   0.807   3.788  11.109 -0.0544 -0.0227  0.2585
 7730SOL     OW34648   3.046   3.368   6.537 -0.1738  1.2071  0.0052
 7730SOL    HW134649   3.015   3.438   6.594  0.7333  1.5035  0.1241
 7730SOL    HW234650   2.961   3.338   6.505 -0.6653  0.1982  2.2245
 7731SOL     OW34651   3.991   2.809   2.043 -0.6148 -0.0981 -0.0936
 7731SOL    HW134652   3.933   2.827   2.117 -0.3892 -0.1197  0.0897
 7731SOL    HW234653   3.969   2.720   2.017 -0.2183 -0.4932  0.9325
 7732SOL     OW34654   2.678   0.666  17.005  0.1511 -0.1535  0.3687
 7732SOL    HW134655   2.701   0.724  16.932  3.5448  0.6363  2.0943
 7732SOL    HW234656   2.741   0.702  17.067  0.6353 -1.9449  0.9059
 7733SOL     OW34657   2.179   1.956   8.022  0.4331 -0.0454  0.6518
 7733SOL    HW134658   2.131   1.874   8.013 -2.7877  1.7549  1.6989
 7733SOL    HW234659   2.263   1.931   7.983 -0.0358  0.7085 -0.8746
 7734SOL     OW34660   3.386   4.693   3.699 -0.0446  0.3695  0.5752
 7734SOL    HW134661   3.389   4.598   3.705  0.2675  0.2499 -1.5886
 7734SOL    HW234662   3.474   4.718   3.669 -0.4212  2.2784  1.0352
 7735SOL     OW34663   2.559   1.399  14.711 -0.2992 -0.0909  0.0570
 7735SOL    HW134664   2.625   1.361  14.654  0.3402  0.1484  0.6401
 7735SOL    HW234665   2.483   1.396  14.653  0.5090  0.9481 -1.0529
 7736SOL     OW34666   3.813   0.288   0.304 -0.0175  0.9123 -0.3526
 7736SOL    HW134667   3.742   0.259   0.361 -0.4842  1.3509 -0.7079
 7736SOL    HW234668   3.854   0.360   0.353 -0.9450  1.7568 -0.8200
 7737SOL     OW34669   4.134   3.067  10.369 -0.5554  0.2848 -0.6865
 7737SOL    HW134670   4.165   3.157  10.363 -1.2743  0.5533 -0.2652
 7737SOL    HW234671   4.120   3.049  10.276 -2.3298 -0.3496 -0.2991
 7738SOL     OW34672   4.136   0.823   6.504 -0.0248 -0.2633  0.3036
 7738SOL    HW134673   4.060   0.777   6.539 -1.9156  0.9921 -2.1320
 7738SOL    HW234674   4.212   0.780   6.542  0.2608  0.9963  1.1444
 7739SOL     OW34675   4.219   1.084  16.224 -0.4992 -0.5121 -0.2722
 7739SOL    HW134676   4.293   1.036  16.186  0.6119  1.8607 -1.1036
 7739SOL    HW234677   4.254   1.171  16.245  1.6033 -1.6757  0.9888
 7740SOL     OW34678   2.660   4.330   7.317  0.5283 -0.2863  0.1582
 7740SOL    HW134679   2.569   4.304   7.327  0.0826  0.7917 -1.0165
 7740SOL    HW234680   2.673   4.340   7.222  1.4485  0.0948  0.3277
 7741SOL     OW34681   3.647   0.486   1.961  0.2064 -0.0510  0.1061
 7741SOL    HW134682   3.592   0.548   2.010  0.7480 -0.9405  1.8167
 7741SOL    HW234683   3.631   0.414   2.022 -0.1753  0.0695  0.1480
 7742SOL     OW34684   1.206   1.293   3.728  0.6313 -0.5574  0.1594
 7742SOL    HW134685   1.298   1.292   3.752  0.5745  1.8538  0.4631
 7742SOL    HW234686   1.184   1.383   3.703 -0.8634 -1.0040 -0.1879
 7743SOL     OW34687   4.574   1.770  14.863 -0.2333  0.0683  0.0645
 7743SOL    HW134688   4.631   1.711  14.911  0.1409 -0.6420 -1.2638
 7743SOL    HW234689   4.600   1.771  14.771  1.5465  0.8561  0.5741
 7744SOL     OW34690   0.336   0.549  15.941 -0.4509 -0.4019 -0.1996
 7744SOL    HW134691   0.307   0.637  15.919 -0.7025  0.1793  2.3769
 7744SOL    HW234692   0.359   0.521  15.853  0.6507  1.5280 -0.5197
 7745SOL     OW34693   4.482   1.909   4.017 -0.2811  0.3361  0.5749
 7745SOL    HW134694   4.556   1.868   4.064  0.9166  0.8825 -0.8499
 7745SOL    HW234695   4.495   1.879   3.927  1.9906  1.1875  0.6095
 7746SOL     OW34696   4.327   3.834  13.747 -0.3483  0.9073  0.0450
 7746SOL    HW134697   4.252   3.849  13.688 -1.4036  0.7842  1.3543
 7746SOL    HW234698   4.287   3.834  13.834 -0.3306  1.3868  0.0560
 7747SOL     OW34699   3.499   3.635  10.553  0.5973 -0.0590 -0.6312
 7747SOL    HW134700   3.438   3.572  10.593 -0.8103  0.2592 -2.2629
 7747SOL    HW234701   3.571   3.579  10.524  1.2842  1.3178 -1.5499
 7748SOL     OW34702   2.730   1.814   5.577 -0.3291  0.4796 -0.8658
 7748SOL    HW134703   2.676   1.744   5.541 -0.4059 -1.1125  2.3267
 7748SOL    HW234704   2.782   1.766   5.642 -2.8771  1.5218  1.9738
 7749SOL     OW34705   3.023   0.765  16.333  0.2355  0.0639 -0.2142
 7749SOL    HW134706   3.043   0.695  16.395  1.6311 -0.6470 -1.4651
 7749SOL    HW234707   2.956   0.719  16.282 -1.1475  0.3356  1.3333
 7750SOL     OW34708   4.515   2.617  12.810 -0.0289  0.8467  0.0238
 7750SOL    HW134709   4.574   2.607  12.735 -2.0094 -3.4221 -0.9602
 7750SOL    HW234710   4.477   2.530  12.822  1.3520  0.2732  0.2239
 7751SOL     OW34711   3.132   2.631   0.815 -0.3661 -0.2935  0.3191
 7751SOL    HW134712   3.137   2.610   0.722 -0.6071  0.8459  0.0506
 7751SOL    HW234713   3.207   2.689   0.826 -1.4274  0.8666  1.3904
 7752SOL     OW34714   1.354   1.626  15.024  0.2786 -0.0928  0.1924
 7752SOL    HW134715   1.325   1.630  14.933 -1.9065  2.1958  1.0075
 7752SOL    HW234716   1.272   1.656  15.062 -0.4221  0.6934 -1.9699
 7753SOL     OW34717   4.697   0.139   6.236 -0.9244 -0.1711 -0.0072
 7753SOL    HW134718   4.602   0.151   6.237 -0.9414 -0.2897 -0.0774
 7753SOL    HW234719   4.699   0.075   6.307  0.5605 -0.5315 -0.3731
 7754SOL     OW34720   2.146   3.831   6.789 -0.0598  0.0355 -0.4236
 7754SOL    HW134721   2.142   3.869   6.877  0.8556  1.6658 -1.0981
 7754SOL    HW234722   2.121   3.740   6.804 -1.2324 -0.1370 -3.5058
 7755SOL     OW34723   0.622   1.299   9.351  0.1281 -0.1923  0.0537
 7755SOL    HW134724   0.683   1.340   9.412 -0.6882 -0.6353  1.1688
 7755SOL    HW234725   0.540   1.316   9.397  1.2860  1.1895  1.5709
 7756SOL     OW34726   2.551   0.803   5.093 -0.8679 -0.3391 -0.5283
 7756SOL    HW134727   2.515   0.803   5.004 -1.8180  0.6624 -0.1531
 7756SOL    HW234728   2.466   0.813   5.135 -0.8958 -2.8616  0.0012
 7757SOL     OW34729   4.551   3.161   3.084  0.1673 -0.1601 -0.4150
 7757SOL    HW134730   4.546   3.246   3.127  0.3158  0.1549 -1.0177
 7757SOL    HW234731   4.461   3.129   3.087  0.0484  0.0913 -1.4518
 7758SOL     OW34732   0.177   3.506   5.164 -0.2398 -0.0311 -0.0890
 7758SOL    HW134733   0.089   3.492   5.128  0.5386 -0.3301 -1.8629
 7758SOL    HW234734   0.187   3.423   5.210 -1.5190  0.2389  0.6952
 7759SOL     OW34735   4.390   0.625   8.440 -0.0778 -0.1428  0.3755
 7759SOL    HW134736   4.327   0.584   8.499  0.1204  0.4769  1.0101
 7759SOL    HW234737   4.347   0.594   8.360 -0.1807 -1.2525  0.8652
 7760SOL     OW34738   3.743   4.136   2.561 -0.7115  0.0980  0.1743
 7760SOL    HW134739   3.679   4.087   2.613  0.7958 -3.2124 -1.0642
 7760SOL    HW234740   3.825   4.087   2.568 -0.9854 -0.1059  1.9971
 7761SOL     OW34741   2.080   4.320   2.111 -0.2282  0.4175 -0.0708
 7761SOL    HW134742   2.009   4.384   2.106 -0.7404 -0.2920 -1.6916
 7761SOL    HW234743   2.111   4.316   2.021 -0.6229 -1.3074 -0.1243
 7762SOL     OW34744   0.336   3.226   6.888  1.1556  0.2061  0.3153
 7762SOL    HW134745   0.299   3.269   6.966  0.2840 -0.3082  0.1841
 7762SOL    HW234746   0.432   3.235   6.892  1.1202  0.7487 -0.0565
 7763SOL     OW34747   1.899   3.947   6.752 -0.3845 -0.3165  0.0335
 7763SOL    HW134748   1.868   3.890   6.681 -0.5968  0.5285 -0.5548
 7763SOL    HW234749   1.990   3.918   6.750 -0.3630 -0.4121  2.3169
 7764SOL     OW34750   4.294   1.872   8.626 -0.2124 -0.6079  0.9202
 7764SOL    HW134751   4.243   1.905   8.552  1.5345 -0.9936 -0.4531
 7764SOL    HW234752   4.256   1.786   8.639 -0.0571 -0.9282 -0.6870
 7765SOL     OW34753   1.737   1.884   4.921  0.3675  0.0876  0.0565
 7765SOL    HW134754   1.669   1.889   4.853 -1.0810  0.8553  1.5741
 7765SOL    HW234755   1.806   1.858   4.860  1.6744 -0.3923  1.7566
 7766SOL     OW34756   1.786   1.360   5.087 -0.4555  0.0114  0.1800
 7766SOL    HW134757   1.748   1.446   5.105  0.4934  0.8051 -1.5972
 7766SOL    HW234758   1.706   1.309   5.101 -0.9215  0.8676  0.6502
 7767SOL     OW34759   0.136   1.548  15.486 -0.0869 -0.4903  0.0269
 7767SOL    HW134760   0.215   1.570  15.438 -1.6771  1.1319 -1.8485
 7767SOL    HW234761   0.090   1.498  15.419 -0.2765 -1.7351  1.0885
 7768SOL     OW34762   0.669   4.722   3.304  0.2656 -0.5530 -0.0501
 7768SOL    HW134763   0.574   0.000   3.296  0.2702 -0.2663  0.1148
 7768SOL    HW234764   0.696   0.000   3.396 -1.0510 -1.3979  0.3852
 7769SOL     OW34765   0.846   4.693   1.277  0.1226 -0.1766  0.1531
 7769SOL    HW134766   0.811   4.605   1.265  2.2804 -1.1133  0.7221
 7769SOL    HW234767   0.792   4.727   1.349  2.4112 -2.6028  2.9962
 7770SOL     OW34768   3.348   2.598  16.655  0.0096  0.2644 -0.3278
 7770SOL    HW134769   3.347   2.542  16.733 -0.2933  1.5160  0.5583
 7770SOL    HW234770   3.432   2.564  16.622 -0.3025 -1.5235  0.7041
 7771SOL     OW34771   3.554   1.977   5.547  0.2534 -0.0154  0.2521
 7771SOL    HW134772   3.636   1.927   5.544  0.8893  1.1118 -1.1908
 7771SOL    HW234773   3.541   2.006   5.637  3.9192 -1.9123  1.3851
 7772SOL     OW34774   0.777   2.375   5.858  0.1053 -0.2889  0.3129
 7772SOL    HW134775   0.753   2.419   5.939  0.2938 -0.3807  0.4185
 7772SOL    HW234776   0.871   2.394   5.850 -0.1854  0.2331 -1.9834
 7773SOL     OW34777   0.980   0.432  11.361  0.3550 -0.1082 -0.4812
 7773SOL    HW134778   1.025   0.501  11.312  0.1631  0.9427  0.8363
 7773SOL    HW234779   0.897   0.478  11.374  0.7905  0.7873 -0.8649
 7774SOL     OW34780   1.191   0.826   1.496 -0.5006 -0.1562 -0.2258
 7774SOL    HW134781   1.179   0.748   1.551 -0.7979  0.0824  0.0475
 7774SOL    HW234782   1.189   0.791   1.407 -0.1263  0.8957 -0.6401
 7775SOL     OW34783   2.235   2.443   0.884 -0.2934 -0.2270 -0.0109
 7775SOL    HW134784   2.191   2.527   0.898  2.6372  1.4893 -1.0940
 7775SOL    HW234785   2.322   2.464   0.917  0.7539 -2.5222 -1.2966
 7776SOL     OW34786   2.835   0.775  17.201  0.6095 -0.2495  0.3113
 7776SOL    HW134787   2.806   0.737  17.284 -1.9795  0.9254 -0.0627
 7776SOL    HW234788   2.825   0.869  17.218  0.5133  0.2309 -2.4012
 7777SOL     OW34789   0.993   0.867   2.720  0.3486  0.3823 -0.3542
 7777SOL    HW134790   0.928   0.820   2.772  0.7012 -0.0913 -0.3460
 7777SOL    HW234791   0.950   0.947   2.690 -2.0198 -0.3780  1.0771
 7778SOL     OW34792   2.868   0.468   3.268 -0.1761  0.0335 -0.7262
 7778SOL    HW134793   2.948   0.435   3.307  1.3200  2.3937 -1.7922
 7778SOL    HW234794   2.904   0.536   3.211  1.9764 -0.4233  0.1059
 7779SOL     OW34795   2.037   2.434  17.327  0.6726 -0.4586  0.1150
 7779SOL    HW134796   2.115   2.459  17.377 -0.9192  2.4413  1.1419
 7779SOL    HW234797   2.072   2.456  17.240  2.8536  1.2493  1.4336
 7780SOL     OW34798   0.057   3.323   7.799 -0.0723  0.1461 -0.0950
 7780SOL    HW134799   4.723   3.390   7.770 -0.6156 -0.3939 -0.1787
 7780SOL    HW234800   0.030   3.238   7.765 -0.1012 -0.2833  1.0100
 7781SOL     OW34801   3.200   3.725  17.701  0.1353 -0.5893 -0.4243
 7781SOL    HW134802   3.287   3.702  17.668  1.4625  2.6212  0.7696
 7781SOL    HW234803   3.206   3.720   0.086  0.6307  2.1556 -0.3095
 7782SOL     OW34804   4.413   0.855  11.890 -0.4992  0.0941  0.0765
 7782SOL    HW134805   4.418   0.772  11.936  0.8002  0.7360  1.0778
 7782SOL    HW234806   4.460   0.833  11.809 -0.9982  1.0031 -0.4710
 7783SOL     OW34807   1.895   3.894   7.166  0.3096 -0.6065 -0.0597
 7783SOL    HW134808   1.843   3.960   7.212 -2.7288 -2.0127 -1.5258
 7783SOL    HW234809   1.833   3.852   7.106 -1.8381  1.5285  0.6793
 7784SOL     OW34810   3.825   4.647   6.796  0.2840  0.3285 -0.5934
 7784SOL    HW134811   3.757   4.599   6.748 -0.8490 -0.5223  1.8760
 7784SOL    HW234812   3.785   0.006   6.797 -2.2316 -0.9395  3.6730
 7785SOL     OW34813   2.539   1.601   7.334  0.3090 -0.4541 -0.6532
 7785SOL    HW134814   2.508   1.587   7.424  2.2089 -0.7379 -0.0371
 7785SOL    HW234815   2.542   1.696   7.322 -2.6611 -0.5107 -1.8012
 7786SOL     OW34816   0.537   4.705   9.263  0.2350  0.8097  0.3039
 7786SOL    HW134817   0.630   4.725   9.268  0.2358  0.5752  1.2547
 7786SOL    HW234818   0.532   4.625   9.212 -1.8559  0.1151  1.5606
 7787SOL     OW34819   3.175   3.685   5.719  0.0219 -0.1358 -0.0364
 7787SOL    HW134820   3.202   3.600   5.683  0.0215 -0.7848  1.4824
 7787SOL    HW234821   3.253   3.723   5.759  0.0760  1.4098 -1.5813
 7788SOL     OW34822   2.583   3.238   6.300  0.2705  0.1307 -0.0862
 7788SOL    HW134823   2.630   3.276   6.375  1.4491 -0.8718 -0.3132
 7788SOL    HW234824   2.598   3.296   6.226 -1.7725 -0.8310 -1.2443
 7789SOL     OW34825   0.570   2.128   0.801  0.2378  0.1615 -0.6902
 7789SOL    HW134826   0.547   2.209   0.756  0.4183  0.9454  0.6417
 7789SOL    HW234827   0.616   2.083   0.730 -1.0472 -1.3200 -0.5961
 7790SOL     OW34828   4.702   2.410   4.522  0.3043  0.2300  0.1639
 7790SOL    HW134829   0.026   2.355   4.463 -0.2272 -1.4839  1.2764
 7790SOL    HW234830   4.648   2.339   4.557 -0.6272  1.6320  1.5661
 7791SOL     OW34831   4.029   0.153   9.206  0.3637 -0.5130 -0.0527
 7791SOL    HW134832   3.999   0.243   9.212  0.1999 -0.6337  0.8754
 7791SOL    HW234833   4.111   0.162   9.254  1.1521 -2.3501 -1.0256
 7792SOL     OW34834   4.265   4.488   7.573 -0.1618 -0.3946  0.0923
 7792SOL    HW134835   4.226   4.519   7.655  1.8776  2.9336 -0.1612
 7792SOL    HW234836   4.305   4.570   7.544  0.8789 -1.4136 -1.3791
 7793SOL     OW34837   1.096   3.064   2.445 -0.8164 -0.3747 -0.4629
 7793SOL    HW134838   1.113   3.105   2.530 -2.3622 -0.6863  0.0071
 7793SOL    HW234839   1.187   3.059   2.416 -0.8488 -1.3821 -0.3983
 7794SOL     OW34840   2.807   4.598   7.169  0.6039 -0.2356  0.0784
 7794SOL    HW134841   2.721   4.641   7.165 -0.2734 -1.8735  1.2916
 7794SOL    HW234842   2.790   4.529   7.106  2.3298 -0.7729  0.2132
 7795SOL     OW34843   3.585   2.951   8.517  0.2245  0.6186 -0.2803
 7795SOL    HW134844   3.631   3.016   8.569 -1.7546  1.5910  0.2307
 7795SOL    HW234845   3.638   2.875   8.539 -1.3678 -0.2850  0.4636
 7796SOL     OW34846   2.308   3.301   6.347  0.7161  0.3493  0.4084
 7796SOL    HW134847   2.300   3.286   6.441  0.7526 -0.0087  0.3533
 7796SOL    HW234848   2.398   3.271   6.333 -0.4076 -1.8932 -2.0070
 7797SOL     OW34849   1.382   0.693   4.863 -0.2284 -0.3523  0.0324
 7797SOL    HW134850   1.450   0.759   4.850  0.9898 -2.0652 -2.4500
 7797SOL    HW234851   1.314   0.724   4.804 -0.7152 -2.2862 -0.4398
 7798SOL     OW34852   3.213   1.575  15.662 -0.4974  0.3588 -0.0041
 7798SOL    HW134853   3.257   1.491  15.673  1.0566  1.0024 -1.3503
 7798SOL    HW234854   3.267   1.635  15.713 -0.3961 -1.4381  2.0012
 7799SOL     OW34855   4.245   4.156   3.179 -0.2481  0.4551 -0.0504
 7799SOL    HW134856   4.320   4.097   3.170  0.5886  1.6801 -1.1055
 7799SOL    HW234857   4.178   4.089   3.190 -1.0215  1.1441 -0.5635
 7800SOL     OW34858   3.855   1.941   2.370 -0.1122  0.2065  0.2527
 7800SOL    HW134859   3.771   1.959   2.328 -0.6814  0.2094  1.3643
 7800SOL    HW234860   3.838   1.978   2.457  3.7600 -0.8610  1.4832
 7801SOL     OW34861   4.442   4.146  14.763 -0.2634  0.0217 -0.5589
 7801SOL    HW134862   4.501   4.216  14.790 -1.1525  0.7248 -0.4334
 7801SOL    HW234863   4.383   4.198  14.707  0.5567  0.7449 -0.7412
 7802SOL     OW34864   3.753   1.759  16.677 -0.6120  0.0479  0.0657
 7802SOL    HW134865   3.680   1.820  16.690  0.3772  0.7690  2.2904
 7802SOL    HW234866   3.714   1.681  16.717 -0.8795  0.2304  0.1604
 7803SOL     OW34867   2.155   2.344   8.408 -0.2092  0.3470  0.0550
 7803SOL    HW134868   2.194   2.432   8.411 -0.5600  0.3677  3.4236
 7803SOL    HW234869   2.193   2.302   8.331  1.2305 -1.4949  1.8073
 7804SOL     OW34870   4.056   1.180   2.595  0.2553  0.1673 -0.2836
 7804SOL    HW134871   4.034   1.173   2.503  0.5335  1.6505 -0.4556
 7804SOL    HW234872   3.980   1.230   2.626 -0.2873  0.1748 -1.6597
 7805SOL     OW34873   3.453   1.015   3.870  0.4733 -0.0437 -0.6494
 7805SOL    HW134874   3.442   1.106   3.843 -0.3465 -0.5273 -1.9496
 7805SOL    HW234875   3.383   1.006   3.935  1.8941  0.7859  0.9659
 7806SOL     OW34876   4.246   3.492   2.443 -0.0107  0.2387 -0.1882
 7806SOL    HW134877   4.230   3.409   2.399 -1.7812  0.2255  0.5015
 7806SOL    HW234878   4.342   3.485   2.449 -0.1924 -1.6687  0.6702
 7807SOL     OW34879   3.562   0.132  11.318 -0.4563  0.2141  0.0882
 7807SOL    HW134880   3.654   0.149  11.338  0.1294 -2.0541 -0.6843
 7807SOL    HW234881   3.544   0.046  11.357 -0.2642  0.1584  0.0559
 7808SOL     OW34882   2.440   4.485   4.994 -0.1227  0.3114 -0.0801
 7808SOL    HW134883   2.426   4.422   5.064  1.5677  1.4878  1.3005
 7808SOL    HW234884   2.350   4.479   4.960  0.5206 -0.2773 -1.6799
 7809SOL     OW34885   1.113   2.340   4.331 -0.1309  0.3253 -0.3348
 7809SOL    HW134886   1.099   2.245   4.336 -1.1537  0.4796 -0.2327
 7809SOL    HW234887   1.100   2.367   4.422  1.1523 -0.0085 -0.0470
 7810SOL     OW34888   3.343   4.677  15.240  0.3239 -0.5429 -0.5577
 7810SOL    HW134889   3.343   0.006  15.318 -2.7816  0.1255 -1.0649
 7810SOL    HW234890   3.433   4.646  15.250  1.4235  2.4242 -1.1164
 7811SOL     OW34891   0.975   0.765  12.629 -0.8955 -0.5819 -0.5735
 7811SOL    HW134892   1.041   0.831  12.653  0.6003 -1.6651 -1.7424
 7811SOL    HW234893   1.031   0.692  12.603  1.2708  0.1733  1.8949
 7812SOL     OW34894   3.687   1.556  11.071  0.4108 -0.2915 -0.2012
 7812SOL    HW134895   3.601   1.515  11.062  1.1592 -1.5372 -1.7056
 7812SOL    HW234896   3.733   1.477  11.101  1.1445  0.3972  0.4990
 7813SOL     OW34897   1.231   1.572   5.150 -0.2577  0.0223 -0.8177
 7813SOL    HW134898   1.208   1.613   5.066  0.9311 -0.4506 -1.3869
 7813SOL    HW234899   1.153   1.525   5.180  1.2835 -0.8359  1.8405
 7814SOL     OW34900   2.378   3.895   1.974  0.0008  0.1062  0.6349
 7814SOL    HW134901   2.440   3.966   1.989 -0.9482  0.8251  1.1650
 7814SOL    HW234902   2.442   3.831   1.943  1.0814  1.8519 -0.7859
 7815SOL     OW34903   1.897   0.011  12.124 -0.1002  0.0672 -0.0888
 7815SOL    HW134904   1.977   0.053  12.093 -0.4343  2.1080  1.7778
 7815SOL    HW234905   1.896   0.036  12.217  0.2071  3.9601 -1.1466
 7816SOL     OW34906   3.938   3.539   4.792 -0.5453 -0.0477 -0.5080
 7816SOL    HW134907   3.866   3.597   4.816 -0.2158 -0.0960  0.5977
 7816SOL    HW234908   3.897   3.492   4.719  2.4932 -1.9805 -1.0242
 7817SOL     OW34909   0.817   3.281   3.164 -0.0714  0.3130 -0.2151
 7817SOL    HW134910   0.871   3.360   3.160  2.3742 -1.4088 -0.7713
 7817SOL    HW234911   0.754   3.305   3.097 -0.6900  1.8376  0.9112
 7818SOL     OW34912   1.158   4.677   2.471  0.1802 -0.4368  0.1554
 7818SOL    HW134913   1.247   4.675   2.436  0.2442 -0.1512  0.3028
 7818SOL    HW234914   1.149   4.586   2.499  1.2179 -1.2454 -2.1300
 7819SOL     OW34915   1.156   3.664   2.523 -0.3677 -0.4554 -0.1468
 7819SOL    HW134916   1.170   3.587   2.577  0.1722 -0.7592 -0.7130
 7819SOL    HW234917   1.213   3.717   2.579 -0.8750 -0.7201  0.6172
 7820SOL     OW34918   4.250   1.065   6.488 -0.0441 -0.0594 -0.3905
 7820SOL    HW134919   4.220   0.974   6.490  0.2094 -0.1424 -0.4566
 7820SOL    HW234920   4.179   1.102   6.435  0.6580 -0.5505 -1.6460
 7821SOL     OW34921   3.337   1.854   4.327  0.5723  0.7856 -0.4106
 7821SOL    HW134922   3.395   1.802   4.382  1.3709  1.7747 -0.3113
 7821SOL    HW234923   3.251   1.813   4.331  0.8145  0.2745 -0.5154
 7822SOL     OW34924   2.863   2.753  10.458 -0.0408  0.6085 -0.6583
 7822SOL    HW134925   2.867   2.788  10.369  1.1085 -1.7366 -1.5027
 7822SOL    HW234926   2.943   2.701  10.463  0.7582  1.7343 -1.7023
 7823SOL     OW34927   3.158   1.602   3.164 -0.1553 -0.1841 -0.0881
 7823SOL    HW134928   3.221   1.548   3.210  1.6282  0.6123 -1.5930
 7823SOL    HW234929   3.126   1.668   3.226 -0.1741  0.0174 -0.3096
 7824SOL     OW34930   2.377   1.883  14.012 -0.4848  0.0011 -0.0741
 7824SOL    HW134931   2.303   1.825  13.995  0.9699 -1.7294 -0.5201
 7824SOL    HW234932   2.414   1.904  13.926  0.6192  0.7218  0.5650
 7825SOL     OW34933   2.919   0.549   2.099 -0.2930 -0.1692  0.0188
 7825SOL    HW134934   2.850   0.502   2.053 -1.8912 -1.2602  3.4900
 7825SOL    HW234935   2.991   0.502   2.057  1.4090  2.2322  0.2396
 7826SOL     OW34936   2.237   2.956   9.267  0.4395 -0.3340 -0.0061
 7826SOL    HW134937   2.325   2.923   9.289 -0.1928 -1.7377  0.4295
 7826SOL    HW234938   2.221   2.895   9.194 -0.6548 -0.4244  0.3108
 7827SOL     OW34939   1.480   0.739   6.053 -0.1263 -0.3699 -0.1693
 7827SOL    HW134940   1.449   0.828   6.070  2.7916  0.4457  0.8210
 7827SOL    HW234941   1.410   0.688   6.094 -0.2476 -0.0477  0.0277
 7828SOL     OW34942   3.319   4.216   8.128  0.1433 -0.0607 -0.4417
 7828SOL    HW134943   3.391   4.258   8.174  1.4145 -2.1652 -0.4864
 7828SOL    HW234944   3.307   4.135   8.177 -0.3914  0.2934  0.0121
 7829SOL     OW34945   0.766   4.174   7.798  0.1525  0.1457  0.2097
 7829SOL    HW134946   0.805   4.233   7.862 -0.5616 -0.3708  1.1193
 7829SOL    HW234947   0.846   4.124   7.781  0.4707  0.5226  0.6121
 7830SOL     OW34948   2.089   1.316   1.549 -0.4142  0.2197 -0.8716
 7830SOL    HW134949   2.075   1.350   1.461 -1.1024  0.2345 -0.7535
 7830SOL    HW234950   2.002   1.305   1.586  0.2990  0.2283  0.8154
 7831SOL     OW34951   0.144   3.400   9.128  0.2270 -0.0418 -0.3310
 7831SOL    HW134952   0.147   3.432   9.038  1.0031  0.2549 -0.1994
 7831SOL    HW234953   0.233   3.365   9.137 -0.6885 -1.6454  2.1780
 7832SOL     OW34954   1.846   4.447  10.995  0.1687  0.0743 -0.3119
 7832SOL    HW134955   1.790   4.489  10.930  1.0331  0.0468 -1.0700
 7832SOL    HW234956   1.811   4.358  11.004  1.4812 -0.2791  1.2857
 7833SOL     OW34957   1.553   0.654   1.776 -0.2169  0.0168 -0.1400
 7833SOL    HW134958   1.540   0.603   1.697 -0.9563 -0.5635  0.3618
 7833SOL    HW234959   1.568   0.745   1.748  1.0139  0.7344  2.8262
 7834SOL     OW34960   1.290   2.666  16.841 -0.4429 -0.3052  0.0996
 7834SOL    HW134961   1.249   2.628  16.764  0.5850 -1.4437  0.1154
 7834SOL    HW234962   1.356   2.604  16.873  2.2736  2.1692 -0.7018
 7835SOL     OW34963   3.760   0.543   7.814 -0.4329 -0.2613  0.6904
 7835SOL    HW134964   3.698   0.532   7.741 -0.4575 -1.7322  0.9393
 7835SOL    HW234965   3.700   0.527   7.887 -1.7531 -1.3290 -0.6226
 7836SOL     OW34966   4.144   4.503   8.042  0.2384  0.6039  0.1571
 7836SOL    HW134967   4.071   4.511   8.104  2.1751  0.9971  2.4004
 7836SOL    HW234968   4.167   4.413   8.063  0.0849 -0.0962 -2.6388
 7837SOL     OW34969   2.540   1.021   3.740  0.4969  0.4874  0.1080
 7837SOL    HW134970   2.479   1.051   3.673  3.2214  0.4205 -2.4551
 7837SOL    HW234971   2.494   0.951   3.786 -0.7547  0.4228 -1.2194
 7838SOL     OW34972   0.403   0.958   5.739  0.2029 -0.0531 -0.1634
 7838SOL    HW134973   0.366   1.024   5.797 -0.3230  0.1789 -0.7542
 7838SOL    HW234974   0.490   0.940   5.773 -0.0292  0.4251  0.6732
 7839SOL     OW34975   1.079   2.078   1.489 -0.2151  0.2311  0.6254
 7839SOL    HW134976   1.142   2.044   1.426 -2.2381 -0.6612 -0.9063
 7839SOL    HW234977   1.026   2.001   1.512 -0.1754  0.0649  0.1646
 7840SOL     OW34978   4.318   1.914  13.407 -0.0824  0.4625 -0.5933
 7840SOL    HW134979   4.397   1.868  13.379 -0.3850 -1.3384  1.5464
 7840SOL    HW234980   4.252   1.867  13.357 -0.7360 -0.5507  1.2048
 7841SOL     OW34981   2.524   1.744  11.752  0.1086 -0.0999  0.2022
 7841SOL    HW134982   2.475   1.763  11.672 -0.5769  0.2023  0.6977
 7841SOL    HW234983   2.559   1.659  11.728 -1.2198 -0.5593 -0.0755
 7842SOL     OW34984   4.088   4.163   7.216 -0.1828  0.1596 -0.5704
 7842SOL    HW134985   4.029   4.200   7.150 -1.5884  0.7669  1.0148
 7842SOL    HW234986   4.091   4.230   7.285  1.3656 -0.9412  0.4256
 7843SOL     OW34987   3.594   0.207   5.784  0.4105  0.4357 -0.4748
 7843SOL    HW134988   3.649   0.261   5.842  0.7788 -2.3324  1.7404
 7843SOL    HW234989   3.542   0.167   5.853 -0.3128  0.5601 -0.9535
 7844SOL     OW34990   3.789   2.507  13.516 -0.3918 -0.0268 -0.3439
 7844SOL    HW134991   3.730   2.470  13.582 -0.1764 -0.1836 -0.2370
 7844SOL    HW234992   3.871   2.492  13.563 -1.1396  1.0476  1.3258
 7845SOL     OW34993   3.540   1.600   6.567 -0.0828  0.6569 -0.2254
 7845SOL    HW134994   3.497   1.523   6.605  2.3195 -0.4633  0.2048
 7845SOL    HW234995   3.469   1.638   6.515  0.7950  1.3831 -0.8946
 7846SOL     OW34996   2.441   3.860  17.351  0.7731  0.1245 -0.2263
 7846SOL    HW134997   2.408   3.946  17.324 -0.2350  0.2385  1.3762
 7846SOL    HW234998   2.438   3.815  17.267 -0.0565 -0.2309  0.0012
 7847SOL     OW34999   4.353   4.072   3.726  0.4856  0.0071 -0.0676
 7847SOL    HW135000   4.365   4.165   3.708  1.6602 -0.0106  0.6250
 7847SOL    HW235001   4.389   4.076   3.814 -0.3794 -0.1451  0.2939
 7848SOL     OW35002   2.265   3.260   0.561  0.5074 -0.1704 -0.2734
 7848SOL    HW135003   2.280   3.166   0.548 -1.5366 -0.1055 -3.0202
 7848SOL    HW235004   2.323   3.272   0.636  0.5684  1.9384 -0.6564
 7849SOL     OW35005   2.218   2.939   5.359 -0.5393  0.4581  0.0855
 7849SOL    HW135006   2.158   2.866   5.345 -0.1799  0.3777 -1.0658
 7849SOL    HW235007   2.213   2.946   5.454  1.7567  1.3211  0.1501
 7850SOL     OW35008   1.416   2.478   9.064  0.4127  0.4757  0.1829
 7850SOL    HW135009   1.379   2.567   9.061  1.3535  0.8021 -1.5351
 7850SOL    HW235010   1.482   2.476   9.134  1.2499 -1.3054 -0.6822
 7851SOL     OW35011   2.207   3.623   7.341 -0.0669 -0.3108 -0.0771
 7851SOL    HW135012   2.161   3.619   7.257 -0.0172  1.0736 -0.1725
 7851SOL    HW235013   2.266   3.694   7.314 -0.1812 -0.3669 -0.4696
 7852SOL     OW35014   2.921   1.131   2.197  0.4027  0.6491  0.1508
 7852SOL    HW135015   2.968   1.193   2.141 -1.7354 -0.1948 -2.5681
 7852SOL    HW235016   2.988   1.089   2.251  1.1628 -1.2275 -2.2868
 7853SOL     OW35017   0.317   1.054   5.297  0.7075  0.2383 -0.1423
 7853SOL    HW135018   0.347   0.996   5.228  0.9614  0.4869 -0.2421
 7853SOL    HW235019   0.306   1.003   5.377  1.5509  0.2460 -0.0204
 7854SOL     OW35020   2.905   3.101   4.360  0.3550  0.0812 -0.3756
 7854SOL    HW135021   2.946   3.174   4.406  0.9719 -0.3184 -0.2886
 7854SOL    HW235022   2.866   3.148   4.286 -2.0586 -0.8996  0.2817
 7855SOL     OW35023   0.547   1.716   7.649  0.3925 -1.1413  0.1830
 7855SOL    HW135024   0.532   1.707   7.743 -0.3315  1.6195  0.3383
 7855SOL    HW235025   0.642   1.717   7.640  0.5788 -0.8010  2.2507
 7856SOL     OW35026   1.037   0.423   8.212 -0.0040 -0.0261  0.2541
 7856SOL    HW135027   1.008   0.390   8.298  0.9848  2.6645  1.6308
 7856SOL    HW235028   1.121   0.378   8.208  1.0805  2.2475 -2.2327
 7857SOL     OW35029   1.555   3.953   3.301  0.1585 -0.2616 -0.4144
 7857SOL    HW135030   1.625   3.891   3.322  0.8778  0.2674 -1.2689
 7857SOL    HW235031   1.605   4.028   3.269 -2.7865  1.1182 -1.8557
 7858SOL     OW35032   4.318   4.328   7.816  0.1644  0.4159 -0.4777
 7858SOL    HW135033   4.255   4.374   7.873 -1.0469 -2.9148  0.8555
 7858SOL    HW235034   4.309   4.377   7.734  1.7451  2.4490  0.5536
 7859SOL     OW35035   3.972   2.740  17.563 -0.0793  0.2152 -0.4713
 7859SOL    HW135036   3.965   2.731  17.468  1.6515  1.2252 -0.6860
 7859SOL    HW235037   4.062   2.772  17.572 -0.8606  1.9128  1.4245
 7860SOL     OW35038   0.842   0.585   7.010 -0.1081  0.0946 -0.0905
 7860SOL    HW135039   0.902   0.531   7.063 -0.4741 -0.4438 -0.2208
 7860SOL    HW235040   0.793   0.518   6.962  2.2672 -0.1770 -2.1404
 7861SOL     OW35041   3.933   4.132  12.409  0.7234 -0.0725  0.0894
 7861SOL    HW135042   3.910   4.138  12.316 -0.3531  0.2706  0.3750
 7861SOL    HW235043   4.027   4.148  12.411  0.4408  1.5575  0.3294
 7862SOL     OW35044   0.862   1.145   0.591 -0.1955 -0.5508  0.0165
 7862SOL    HW135045   0.912   1.225   0.575 -0.2943 -0.3374  0.7643
 7862SOL    HW235046   0.819   1.184   0.667  0.7833  0.7859 -0.1123
 7863SOL     OW35047   2.013   3.297   6.763  0.1350 -0.1710 -0.2033
 7863SOL    HW135048   2.012   3.221   6.821 -2.7911  0.2710  0.3171
 7863SOL    HW235049   1.932   3.282   6.714  0.4547 -0.9375 -0.5080
 7864SOL     OW35050   1.487   1.384   2.823 -0.3939  0.1245  0.2393
 7864SOL    HW135051   1.556   1.386   2.889  0.1254  1.0240 -0.3239
 7864SOL    HW235052   1.500   1.293   2.797 -1.6745  0.0459 -0.1284
 7865SOL     OW35053   4.056   2.204   7.167 -0.6349  0.1148  0.1090
 7865SOL    HW135054   4.055   2.278   7.106  0.8943  0.5500  0.5991
 7865SOL    HW235055   4.092   2.233   7.251  1.0323 -0.3409 -0.4448
 7866SOL     OW35056   1.757   0.378  16.094 -0.2978  0.5329 -0.3504
 7866SOL    HW135057   1.807   0.404  16.017 -0.8904  0.3746 -0.7917
 7866SOL    HW235058   1.821   0.410  16.158  0.1662 -0.6476 -0.2244
 7867SOL     OW35059   2.015   3.106  10.891 -0.2716 -0.4834  0.0904
 7867SOL    HW135060   2.037   3.194  10.920 -2.8454 -0.3359  1.6171
 7867SOL    HW235061   2.079   3.096  10.821  1.6051  1.1345  1.5934
 7868SOL     OW35062   1.544   3.341   0.661 -0.1556  0.2904  0.7861
 7868SOL    HW135063   1.462   3.386   0.640  0.1978 -0.2271 -1.7188
 7868SOL    HW235064   1.523   3.249   0.671 -2.1059  0.5577 -0.8550
 7869SOL     OW35065   1.569   4.405   7.348 -0.2239 -0.2977  0.0584
 7869SOL    HW135066   1.555   4.499   7.341 -2.8681 -0.6493  0.7205
 7869SOL    HW235067   1.661   4.389   7.326 -0.3522 -0.4352 -0.3869
 7870SOL     OW35068   3.311   0.129   2.756 -0.1271  0.1318 -0.1262
 7870SOL    HW135069   3.284   0.132   2.848 -1.1198  1.4505 -0.4587
 7870SOL    HW235070   3.255   0.059   2.724 -1.1943  1.1752 -0.5781
 7871SOL     OW35071   4.554   3.115   1.269 -0.0344 -0.3456  0.7482
 7871SOL    HW135072   4.466   3.122   1.303 -0.0074  0.0637  0.7271
 7871SOL    HW235073   4.546   3.146   1.178  1.1152  0.5270  0.9421
 7872SOL     OW35074   0.708   2.335  17.429  0.4315  0.4149  0.2814
 7872SOL    HW135075   0.677   2.385  17.354  0.3356  2.5107  1.7023
 7872SOL    HW235076   0.801   2.318  17.410  0.2528  0.7110 -0.8708
 7873SOL     OW35077   2.526   3.412   5.040 -0.1493 -0.1047 -0.9078
 7873SOL    HW135078   2.539   3.455   5.125 -0.4046 -0.4156 -0.7095
 7873SOL    HW235079   2.589   3.467   4.994 -0.4895  1.4766  0.5163
 7874SOL     OW35080   0.570   4.304   7.457 -0.4597  0.0704  0.0322
 7874SOL    HW135081   0.569   4.209   7.472 -1.9153 -0.1549 -1.5291
 7874SOL    HW235082   0.478   4.328   7.454 -0.4401  0.2209  0.6018
 7875SOL     OW35083   2.977   0.398   0.387  0.5008 -0.1473 -0.2544
 7875SOL    HW135084   2.929   0.429   0.464  0.6801 -0.6593  0.0672
 7875SOL    HW235085   3.002   0.477   0.340 -0.0522 -0.1878 -0.6152
 7876SOL     OW35086   4.025   4.173   2.759  0.0069 -0.4547  0.1881
 7876SOL    HW135087   3.991   4.117   2.688  3.0879 -1.4790 -0.4656
 7876SOL    HW235088   4.062   4.245   2.708 -0.4037  0.6467  1.4445
 7877SOL     OW35089   4.224   0.628   6.974  0.0398  0.1891 -0.6391
 7877SOL    HW135090   4.177   0.650   6.894  0.5538 -0.5313 -1.1390
 7877SOL    HW235091   4.154   0.652   7.035  0.2363  0.9457 -0.7192
 7878SOL     OW35092   1.283   2.118   5.696 -1.1209 -0.2046  0.3041
 7878SOL    HW135093   1.220   2.058   5.656  0.3401 -2.6197  1.6363
 7878SOL    HW235094   1.357   2.061   5.715  0.0496  1.3944  0.6017
 7879SOL     OW35095   4.088   2.039   1.468  0.3051 -0.0788 -0.1651
 7879SOL    HW135096   4.104   2.018   1.376  0.9654  1.3496 -0.3846
 7879SOL    HW235097   4.088   1.958   1.520 -0.4503  0.4230  0.6266
 7880SOL     OW35098   2.263   0.357   1.909 -0.4213 -0.0509 -0.3308
 7880SOL    HW135099   2.255   0.432   1.968 -1.3775 -0.6034  0.2420
 7880SOL    HW235100   2.284   0.284   1.968  1.2179  1.1941  0.6050
 7881SOL     OW35101   2.269   3.778   3.301  0.0674  0.0040 -0.1628
 7881SOL    HW135102   2.290   3.865   3.266  0.5256  0.1842  0.5571
 7881SOL    HW235103   2.304   3.721   3.234 -0.5279 -2.0054  1.2404
 7882SOL     OW35104   3.993   0.075   8.333  0.7031  0.5346 -0.7497
 7882SOL    HW135105   3.906   0.074   8.294  1.0167  0.3381 -1.4400
 7882SOL    HW235106   4.031   4.716   8.317 -2.8018 -0.9813 -0.8346
 7883SOL     OW35107   2.494   0.717   1.092  0.2717 -0.4895  0.0259
 7883SOL    HW135108   2.451   0.699   1.008 -0.8362  1.0132  0.2581
 7883SOL    HW235109   2.564   0.776   1.065 -0.3203 -0.2436 -0.9621
 7884SOL     OW35110   4.218   3.374   6.757  0.0230  0.0453  0.0587
 7884SOL    HW135111   4.156   3.314   6.798  0.0573 -0.6959 -0.9641
 7884SOL    HW235112   4.177   3.416   6.682 -0.5194 -1.0145 -0.2361
 7885SOL     OW35113   2.935   0.364  14.821 -0.2548 -0.3386  0.5276
 7885SOL    HW135114   3.005   0.315  14.864  1.4296  0.1758 -1.6472
 7885SOL    HW235115   2.962   0.343  14.732 -1.6734 -1.1109  0.2864
 7886SOL     OW35116   2.149   3.211  15.824  0.6338  0.0062 -0.2447
 7886SOL    HW135117   2.139   3.225  15.919 -1.0115 -2.5386 -0.0332
 7886SOL    HW235118   2.204   3.134  15.811  1.1552  0.5457 -1.1883
 7887SOL     OW35119   0.237   3.968   2.464  0.1656  0.8299  0.0352
 7887SOL    HW135120   0.216   3.935   2.377  1.1945  2.3195 -0.7774
 7887SOL    HW235121   0.293   4.043   2.444 -0.4803  1.9830  2.5146
 7888SOL     OW35122   3.955   4.058   2.107 -0.0618  0.6496 -0.0774
 7888SOL    HW135123   4.048   4.044   2.092  0.5375  1.6751  2.7688
 7888SOL    HW235124   3.946   4.152   2.122 -3.2023  0.1566  1.1859
 7889SOL     OW35125   4.372   1.247   9.250  0.1436  0.0075  0.0353
 7889SOL    HW135126   4.458   1.223   9.284 -0.4595 -1.3916  0.5454
 7889SOL    HW235127   4.381   1.342   9.243 -2.8948  0.0712 -3.3868
 7890SOL     OW35128   4.216   0.945   2.229 -0.5851  0.4088  0.2237
 7890SOL    HW135129   4.273   0.902   2.293 -0.4962 -0.1722 -0.2506
 7890SOL    HW235130   4.248   0.921   2.142 -0.7643  1.2814 -0.0840
 7891SOL     OW35131   0.961   3.758  12.730 -0.1787 -0.1797  0.1139
 7891SOL    HW135132   0.930   3.730  12.815  0.0664 -0.2358  0.1855
 7891SOL    HW235133   0.883   3.804  12.699 -0.2783 -0.1113  0.4674
 7892SOL     OW35134   1.553   3.256   6.946  0.0466  0.6302  0.5715
 7892SOL    HW135135   1.494   3.226   7.016  0.1625  3.0254  1.6948
 7892SOL    HW235136   1.487   3.254   6.877 -0.0889 -1.9226  0.7728
 7893SOL     OW35137   4.478   2.908   6.398 -0.1504  0.0087 -0.6973
 7893SOL    HW135138   4.509   2.960   6.472 -1.2698  1.4873 -1.2774
 7893SOL    HW235139   4.549   2.844   6.392 -0.8870 -0.7238 -1.4995
 7894SOL     OW35140   1.453   2.179   8.604 -0.1064  0.1069  0.2498
 7894SOL    HW135141   1.433   2.256   8.657  2.2410 -0.6046  2.1598
 7894SOL    HW235142   1.422   2.110   8.663  1.5632 -0.3791  0.5625
 7895SOL     OW35143   4.421   4.615   5.837 -0.1740  0.1287  0.2783
 7895SOL    HW135144   4.457   4.534   5.873 -0.3374 -1.7768 -3.7979
 7895SOL    HW235145   4.486   4.681   5.858  0.6054 -0.6107  0.1911
 7896SOL     OW35146   4.694   2.186  12.654  0.3148 -0.3066 -0.1952
 7896SOL    HW135147   0.017   2.266  12.673  0.5236 -1.0971  2.5546
 7896SOL    HW235148   0.029   2.132  12.606  0.7817  0.6160 -0.6427
 7897SOL     OW35149   2.744   1.247  16.366 -0.0804  0.0213  0.2737
 7897SOL    HW135150   2.654   1.220  16.347 -0.4706  0.4834  1.5036
 7897SOL    HW235151   2.795   1.237  16.285  1.0925  0.5827  0.9410
 7898SOL     OW35152   0.623   0.035   6.808 -0.6200 -0.4221  0.0926
 7898SOL    HW135153   0.711   0.054   6.840 -0.7616 -0.8763  0.7752
 7898SOL    HW235154   0.654   0.018   6.719 -1.4597  0.3453 -0.3461
 7899SOL     OW35155   3.127   1.508   4.100 -0.9632  0.2642 -0.1025
 7899SOL    HW135156   3.099   1.427   4.057  1.8041 -0.1345 -1.1643
 7899SOL    HW235157   3.049   1.561   4.112  0.7775  2.8451 -0.0588
 7900SOL     OW35158   0.850   1.987   3.341  0.1555 -0.1962 -0.5996
 7900SOL    HW135159   0.921   2.028   3.291  0.6843 -2.0314 -1.3356
 7900SOL    HW235160   0.825   1.915   3.284 -0.1476  0.2649 -1.0447
 7901SOL     OW35161   1.944   3.705  16.583 -0.1133 -0.3043 -0.1495
 7901SOL    HW135162   1.914   3.731  16.496  2.0218 -0.4904 -0.9417
 7901SOL    HW235163   1.885   3.630  16.593 -0.3842 -0.0802 -0.0500
 7902SOL     OW35164   4.468   0.185   6.522 -0.9652  0.1551  0.0593
 7902SOL    HW135165   4.465   0.185   6.427  0.5119 -0.2578  0.0210
 7902SOL    HW235166   4.430   0.101   6.548 -0.3942 -0.0313  0.2884
 7903SOL     OW35167   2.088   2.898  14.466 -0.3717  0.6679  0.5899
 7903SOL    HW135168   2.052   2.871  14.382 -0.9479 -0.7949  1.3060
 7903SOL    HW235169   2.010   2.942  14.498  0.0295  0.1501  2.3083
 7904SOL     OW35170   0.202   1.394   6.973 -0.0426 -0.2608  0.3782
 7904SOL    HW135171   0.132   1.376   7.036 -0.5941 -2.2177 -0.8237
 7904SOL    HW235172   0.238   1.309   6.951  0.4159  0.2860 -0.9987
 7905SOL     OW35173   0.073   2.983   6.807 -0.3642  0.2708 -0.2459
 7905SOL    HW135174   0.051   3.028   6.726 -0.8148 -0.6203 -0.6214
 7905SOL    HW235175   0.163   3.010   6.825  0.3646 -1.0903 -1.8597
 7906SOL     OW35176   0.741   2.864  16.975 -0.0535 -0.0820 -0.1164
 7906SOL    HW135177   0.745   2.952  16.939  2.7865 -0.4637 -0.7410
 7906SOL    HW235178   0.662   2.842  16.926  1.7508 -0.3611 -2.9048
 7907SOL     OW35179   1.135   3.456   4.642 -0.5098 -0.1893  0.1174
 7907SOL    HW135180   1.124   3.423   4.553  1.6728 -0.2378 -0.1196
 7907SOL    HW235181   1.046   3.464   4.677  0.8724 -0.6065  3.7488
 7908SOL     OW35182   2.254   4.092   6.616 -0.2598 -0.3407 -0.4522
 7908SOL    HW135183   2.302   4.011   6.630  2.1011  1.2637  0.7204
 7908SOL    HW235184   2.209   4.097   6.701 -1.5350  0.2735 -1.1491
 7909SOL     OW35185   2.588   0.341   5.752  0.2225  0.2351  0.3128
 7909SOL    HW135186   2.595   0.287   5.673  0.6732 -0.8983  1.1225
 7909SOL    HW235187   2.636   0.288   5.816 -1.3519 -0.4593  0.9136
 7910SOL     OW35188   4.276   3.758  17.605  0.0146 -0.4126  0.0948
 7910SOL    HW135189   4.303   3.806  17.683  0.1411  0.4717 -0.4833
 7910SOL    HW235190   4.187   3.791  17.594 -0.6425 -2.5374 -0.8606
 7911SOL     OW35191   0.398   3.704   4.609  0.5071  0.9154  0.2980
 7911SOL    HW135192   0.375   3.621   4.566  0.4806  0.8944  0.3527
 7911SOL    HW235193   0.441   3.753   4.539  0.0273 -2.1840 -2.1525
 7912SOL     OW35194   3.648   2.784   6.896  0.1144  0.3638  0.1324
 7912SOL    HW135195   3.730   2.741   6.874  0.0648 -0.3820  1.4112
 7912SOL    HW235196   3.603   2.703   6.916  1.6235 -0.4228  0.3463
 7913SOL     OW35197   4.001   1.617  17.562 -0.6161  0.2802 -0.7118
 7913SOL    HW135198   4.050   1.658  17.490  0.6757  0.4726  0.2899
 7913SOL    HW235199   4.057   1.545  17.590  1.5028  1.5455 -1.6385
 7914SOL     OW35200   0.029   2.288   9.103 -0.2103 -0.5387 -0.0554
 7914SOL    HW135201   0.118   2.263   9.080 -0.2510 -0.0946 -0.6843
 7914SOL    HW235202   4.718   2.314   9.020  1.0761 -0.1781 -0.5380
 7915SOL     OW35203   2.250   0.166   2.572 -0.0027  0.5091  0.0532
 7915SOL    HW135204   2.315   0.199   2.634  1.1032 -0.0644 -0.7962
 7915SOL    HW235205   2.173   0.132   2.618  0.4281 -1.1005 -0.4396
 7916SOL     OW35206   4.297   0.526   4.564  0.4803  0.6065 -0.6570
 7916SOL    HW135207   4.215   0.549   4.608  0.2880 -1.5427  0.1285
 7916SOL    HW235208   4.315   0.604   4.512 -0.1464  1.2327  0.0524
 7917SOL     OW35209   4.476   4.010   3.117 -0.1229  0.2395 -0.0756
 7917SOL    HW135210   4.466   4.044   3.028 -3.1091  0.0774  0.1845
 7917SOL    HW235211   4.572   4.006   3.123 -0.2976 -2.4691  1.0296
 7918SOL     OW35212   1.513   1.597  15.250  0.0988  0.5570 -0.2765
 7918SOL    HW135213   1.492   1.673  15.303  0.0001 -0.7523  1.5578
 7918SOL    HW235214   1.450   1.610  15.179  1.6363 -1.0392 -1.9242
 7919SOL     OW35215   1.024   0.374   7.763 -0.5614 -0.0395 -0.2421
 7919SOL    HW135216   0.951   0.316   7.783  0.3589 -0.6258  1.4046
 7919SOL    HW235217   0.997   0.405   7.677 -1.9290 -0.0017  0.2079
 7920SOL     OW35218   0.708   1.066   9.225 -0.8970 -0.1315 -0.7098
 7920SOL    HW135219   0.689   1.128   9.296  0.8147 -0.9558  0.4718
 7920SOL    HW235220   0.630   1.014   9.209 -1.9012  1.6557 -1.6784
 7921SOL     OW35221   4.555   0.290   6.762  0.3507 -0.0643 -1.0336
 7921SOL    HW135222   4.480   0.286   6.821 -0.0147  0.1684 -1.4842
 7921SOL    HW235223   4.533   0.233   6.688  1.5749  1.2498 -2.3900
 7922SOL     OW35224   1.641   2.004   7.525  0.1096 -0.5828 -0.0363
 7922SOL    HW135225   1.658   2.099   7.521  0.4467 -0.4983  2.8399
 7922SOL    HW235226   1.580   1.992   7.598 -0.5628 -1.5861 -0.7704
 7923SOL     OW35227   0.919   0.932  17.091  0.6211  0.9140  0.5814
 7923SOL    HW135228   0.998   0.959  17.044  2.1131  1.7118  3.5147
 7923SOL    HW235229   0.896   1.018  17.127  1.2680  1.3767 -0.1078
 7924SOL     OW35230   1.396   3.036   8.171  0.3197  0.0223  0.0768
 7924SOL    HW135231   1.330   3.076   8.227  0.5748  0.4580  0.0615
 7924SOL    HW235232   1.461   3.106   8.170  0.5190 -0.1711 -0.5713
 7925SOL     OW35233   4.700   4.072  14.918  0.3852 -0.2191 -0.0590
 7925SOL    HW135234   4.698   4.165  14.894 -0.2542  0.2092  1.6829
 7925SOL    HW235235   4.674   4.082  15.010  0.4671  1.8561 -0.2652
 7926SOL     OW35236   1.133   3.945   7.292  0.7847  0.1356 -0.0099
 7926SOL    HW135237   1.052   3.977   7.332  2.2918  1.8818  1.6245
 7926SOL    HW235238   1.172   3.885   7.356 -0.8206 -0.6813  0.1997
 7927SOL     OW35239   0.470   1.500   6.077  0.1085 -0.6065  0.3185
 7927SOL    HW135240   0.452   1.469   6.166 -0.3330 -1.0130  0.0861
 7927SOL    HW235241   0.384   1.519   6.040  0.7162  0.8036 -0.3695
 7928SOL     OW35242   2.202   0.292   5.038 -0.6091 -0.4715  0.5622
 7928SOL    HW135243   2.248   0.324   4.960 -0.0172  0.4611  1.3034
 7928SOL    HW235244   2.216   0.204   5.002  0.4175 -0.1858  0.2667
 7929SOL     OW35245   3.384   2.746   0.834 -0.1916  0.2959  0.8701
 7929SOL    HW135246   3.428   2.717   0.754 -0.2066 -2.7874  2.0116
 7929SOL    HW235247   3.432   2.697   0.901 -0.8584 -0.2278  0.9566
 7930SOL     OW35248   2.410   2.148   1.984 -0.2721 -0.0009  0.0587
 7930SOL    HW135249   2.390   2.096   2.062 -0.5006 -0.5054 -0.3348
 7930SOL    HW235250   2.475   2.092   1.942 -2.7299 -0.6780 -2.8037
 7931SOL     OW35251   0.683   3.374   6.629  0.3626  0.0180 -0.0235
 7931SOL    HW135252   0.689   3.457   6.677 -0.6370 -0.2025  0.4886
 7931SOL    HW235253   0.743   3.322   6.682 -1.5093 -1.5988  0.5305
 7932SOL     OW35254   0.762   4.506   2.718  0.3259 -0.2261 -0.2476
 7932SOL    HW135255   0.757   4.513   2.623 -2.0897  2.3204  0.0806
 7932SOL    HW235256   0.826   4.574   2.739 -0.3501  0.2198  0.3530
 7933SOL     OW35257   2.178   2.850   3.685 -0.1362 -0.0985 -0.1729
 7933SOL    HW135258   2.261   2.855   3.732 -0.3767  0.5609  0.1754
 7933SOL    HW235259   2.143   2.920   3.739 -1.9456  0.1617 -1.6845
 7934SOL     OW35260   0.070   3.657   1.915 -0.2456 -0.5230 -0.1728
 7934SOL    HW135261   0.162   3.630   1.916  0.5233  2.1645  3.1002
 7934SOL    HW235262   0.026   3.572   1.909  0.8112 -1.1626  1.0248
 7935SOL     OW35263   4.265   4.285   8.397  0.1615 -0.1884 -0.5684
 7935SOL    HW135264   4.232   4.220   8.459 -0.8661  0.6914 -0.1872
 7935SOL    HW235265   4.351   4.266   8.359  2.1116  2.4841  2.5100
 7936SOL     OW35266   1.644   2.483   8.203 -0.2604  0.3241 -0.5274
 7936SOL    HW135267   1.714   2.419   8.219 -0.5982  0.3415  1.0598
 7936SOL    HW235268   1.695   2.564   8.210 -0.9541  0.6647  0.6438
 7937SOL     OW35269   4.495   4.261   8.206 -0.0950  0.0967  0.5279
 7937SOL    HW135270   4.525   4.349   8.230  2.2398 -0.9247  1.4125
 7937SOL    HW235271   4.457   4.280   8.121  1.4217 -0.8480 -0.3716
 7938SOL     OW35272   3.118   3.002   6.358  0.1925  0.4815 -0.3959
 7938SOL    HW135273   3.024   2.986   6.345  0.4602 -1.7156  0.3672
 7938SOL    HW235274   3.154   3.073   6.305  0.4332  0.2667 -0.5238
 7939SOL     OW35275   1.709   2.642  14.294 -0.6720 -0.4190  0.2428
 7939SOL    HW135276   1.708   2.649  14.198 -1.7400  1.4929  0.4066
 7939SOL    HW235277   1.787   2.586  14.302  0.4481  1.3712  1.6050
 7940SOL     OW35278   4.520   2.722  13.182 -0.0393 -0.1723  0.3288
 7940SOL    HW135279   4.452   2.722  13.114  2.0264  0.4330 -1.7587
 7940SOL    HW235280   4.494   2.799  13.233 -2.2869 -0.7064  0.0238
 7941SOL     OW35281   3.659   3.884   5.593 -0.1916  0.0796  0.3682
 7941SOL    HW135282   3.592   3.817   5.582 -0.6443  0.0112  3.7281
 7941SOL    HW235283   3.644   3.924   5.507 -1.8197 -1.7514 -0.2114
 7942SOL     OW35284   0.656   2.802   1.336  0.0804 -0.1489 -0.2579
 7942SOL    HW135285   0.621   2.716   1.316  1.1192 -0.0992 -2.3378
 7942SOL    HW235286   0.620   2.848   1.260 -0.0871 -0.4638 -0.3658
 7943SOL     OW35287   0.390   1.747   2.482 -0.1261  0.0215 -0.2244
 7943SOL    HW135288   0.407   1.743   2.388 -0.9177 -0.6326 -0.3343
 7943SOL    HW235289   0.363   1.839   2.486 -1.9082 -0.5397  0.4901
 7944SOL     OW35290   1.638   1.804   9.798  0.1527 -0.4039 -0.1240
 7944SOL    HW135291   1.724   1.838   9.774 -1.4357  0.9750 -4.0459
 7944SOL    HW235292   1.624   1.736   9.732  1.5689 -0.0972 -0.7257
 7945SOL     OW35293   4.530   2.624   1.879  0.4604  0.0166 -0.5512
 7945SOL    HW135294   4.517   2.698   1.937 -1.0340 -1.3947  0.9117
 7945SOL    HW235295   4.442   2.586   1.879 -0.2340  1.6206 -3.8088
 7946SOL     OW35296   2.343   2.142   6.416  0.0672 -0.1037 -0.7020
 7946SOL    HW135297   2.278   2.211   6.424 -0.8071 -0.8819 -1.0478
 7946SOL    HW235298   2.290   2.090   6.356  1.8797 -0.0729 -2.3390
 7947SOL     OW35299   2.868   0.237   5.934 -0.0382  0.4820 -0.3467
 7947SOL    HW135300   2.893   0.161   5.987 -1.0450 -0.7424 -1.6467
 7947SOL    HW235301   2.854   0.197   5.848  2.5871  1.8046 -1.3881
 7948SOL     OW35302   3.966   3.954  13.327 -0.6029  0.0701  0.2607
 7948SOL    HW135303   3.953   4.045  13.354 -1.9779 -0.0681  0.0278
 7948SOL    HW235304   3.943   3.955  13.234 -3.7399 -0.7752  1.0270
 7949SOL     OW35305   4.291   2.368  16.846  0.4553 -0.4427 -0.1265
 7949SOL    HW135306   4.293   2.272  16.845 -2.6527 -0.5520  2.3665
 7949SOL    HW235307   4.296   2.389  16.753  0.3777  0.0939 -0.0083
 7950SOL     OW35308   3.888   3.348   2.471  0.4022 -0.1301  0.1232
 7950SOL    HW135309   3.859   3.339   2.380  0.2306  2.2378 -0.0523
 7950SOL    HW235310   3.855   3.268   2.511  1.0546 -1.0305 -1.1374
 7951SOL     OW35311   0.188   4.589   2.196  0.3617  0.0595 -0.5203
 7951SOL    HW135312   0.205   4.677   2.229  4.1888 -0.5579 -0.8847
 7951SOL    HW235313   0.162   4.610   2.106 -1.5526  2.9185  0.7121
 7952SOL     OW35314   4.165   2.547   8.001  0.4692  0.7062 -0.3730
 7952SOL    HW135315   4.212   2.629   7.984 -0.0801  1.0225 -0.3707
 7952SOL    HW235316   4.235   2.500   8.046 -1.6202 -1.8353  0.2518
 7953SOL     OW35317   0.357   2.059   3.537  0.8235 -0.8596  0.0176
 7953SOL    HW135318   0.376   2.117   3.463 -1.8593 -1.6212 -1.2931
 7953SOL    HW235319   0.360   2.127   3.604 -1.3601 -0.6173 -0.1210
 7954SOL     OW35320   2.756   0.470  15.962 -0.6263 -0.1511  0.5249
 7954SOL    HW135321   2.785   0.379  15.952 -1.0517 -0.4247  1.7595
 7954SOL    HW235322   2.662   0.460  15.949 -0.8833  0.6435  1.6802
 7955SOL     OW35323   2.660   1.599   1.405  0.2355 -0.4141 -0.3341
 7955SOL    HW135324   2.626   1.592   1.494 -2.3374  0.2124 -1.2940
 7955SOL    HW235325   2.732   1.662   1.409  0.2362 -0.4867  0.9222
 7956SOL     OW35326   1.129   0.894   1.021  0.8787 -0.2672  0.7872
 7956SOL    HW135327   1.077   0.938   0.953  2.0537 -0.4703 -0.2513
 7956SOL    HW235328   1.209   0.878   0.971  1.0006  1.5357  0.3847
 7957SOL     OW35329   1.550   1.311   6.870 -0.2133 -0.1221 -0.3330
 7957SOL    HW135330   1.600   1.240   6.909  0.0789 -0.5792 -1.5351
 7957SOL    HW235331   1.458   1.287   6.883 -0.3324 -0.2135 -1.3762
 7958SOL     OW35332   0.966   3.017   1.700  0.3235  0.1923  0.2513
 7958SOL    HW135333   0.978   3.033   1.607  0.0027 -0.4630  0.0984
 7958SOL    HW235334   0.890   2.959   1.706 -0.4922  1.2522  0.2668
 7959SOL     OW35335   1.314   2.835   3.124 -0.3295 -0.4788  0.5456
 7959SOL    HW135336   1.375   2.761   3.123 -0.7137 -0.8214  1.5173
 7959SOL    HW235337   1.235   2.785   3.147 -1.4149  0.6472 -0.7801
 7960SOL     OW35338   1.375   0.205  17.452 -0.6090 -0.5515  0.4471
 7960SOL    HW135339   1.333   0.160  17.379  2.3233 -0.9329 -1.0030
 7960SOL    HW235340   1.404   0.124  17.495  1.1231 -0.5643 -0.7419
 7961SOL     OW35341   2.881   0.570   4.246 -0.3075 -0.2204 -0.1782
 7961SOL    HW135342   2.802   0.623   4.258  0.3969  0.2966  2.0303
 7961SOL    HW235343   2.863   0.518   4.324  2.0183  0.9394  1.1244
 7962SOL     OW35344   2.190   0.636   7.152  0.7708  0.7795  0.3578
 7962SOL    HW135345   2.142   0.598   7.225  0.0288 -0.6344 -0.8539
 7962SOL    HW235346   2.136   0.626   7.074 -0.0657 -1.6014  1.2542
 7963SOL     OW35347   3.478   2.772   2.255 -0.1530  0.1498  0.0600
 7963SOL    HW135348   3.426   2.763   2.175 -0.7470  2.2065  0.2057
 7963SOL    HW235349   3.494   2.679   2.270 -2.3409  0.1652  2.2701
 7964SOL     OW35350   0.207   0.732  11.702 -0.0373 -0.0208  0.1471
 7964SOL    HW135351   0.259   0.659  11.667 -0.3585 -0.7183  1.1281
 7964SOL    HW235352   0.179   0.773  11.621  1.2869  1.6038  0.5059
 7965SOL     OW35353   2.951   2.365   2.230 -0.2029  0.8188 -0.3050
 7965SOL    HW135354   2.958   2.303   2.303  0.5927 -1.0407 -1.9656
 7965SOL    HW235355   2.857   2.386   2.232 -0.0445  1.4334  0.4882
 7966SOL     OW35356   2.409   1.282  10.374  0.1213 -0.7123  0.2883
 7966SOL    HW135357   2.340   1.221  10.400 -0.1907  0.6635  2.7504
 7966SOL    HW235358   2.352   1.359  10.381  1.3090  0.0649  1.4805
 7967SOL     OW35359   1.653   1.622  13.019 -0.2531  0.2675  0.3611
 7967SOL    HW135360   1.582   1.594  13.076  1.3496 -0.9919  1.7534
 7967SOL    HW235361   1.615   1.587  12.938 -1.1608  0.1858  0.8344
 7968SOL     OW35362   2.222   2.367  10.646  0.0521 -0.1171 -0.2586
 7968SOL    HW135363   2.176   2.365  10.730  0.0809  0.6437 -0.2272
 7968SOL    HW235364   2.220   2.273  10.628  2.4610 -0.6034  1.9851
 7969SOL     OW35365   3.315   3.765   3.675  0.2678 -0.5432 -0.5603
 7969SOL    HW135366   3.367   3.689   3.701 -1.4171 -1.0815  1.3070
 7969SOL    HW235367   3.257   3.719   3.613 -3.8674  1.5882  1.7181
 7970SOL     OW35368   0.715   1.697   2.391 -0.3138  0.2607  0.4376
 7970SOL    HW135369   0.721   1.792   2.397  1.2722  0.0211  2.5742
 7970SOL    HW235370   0.672   1.683   2.475  1.3604  0.2192  1.2818
 7971SOL     OW35371   0.011   0.953  11.714  0.2219  0.0262 -0.2388
 7971SOL    HW135372   0.089   0.994  11.749 -0.8840  1.2357  0.8300
 7971SOL    HW235373   4.722   1.017  11.644  0.7556  1.3632  0.8613
 7972SOL     OW35374   1.745   2.299   8.639  0.2272  0.0031 -0.7005
 7972SOL    HW135375   1.650   2.287   8.638  0.2863 -0.3882 -1.4803
 7972SOL    HW235376   1.777   2.368   8.698  1.6881 -1.2372 -0.0408
 7973SOL     OW35377   4.711   2.915   9.395 -0.1702  0.2409  0.0707
 7973SOL    HW135378   4.671   3.002   9.382 -0.8919  0.1935  2.0312
 7973SOL    HW235379   0.036   2.923   9.474  2.0423 -0.0438 -1.3803
 7974SOL     OW35380   1.964   1.922   4.272 -0.0725  0.1495  0.1056
 7974SOL    HW135381   1.923   1.932   4.358  1.4026 -1.3849  0.9798
 7974SOL    HW235382   1.932   2.006   4.239 -0.9852 -0.4238 -0.4637
 7975SOL     OW35383   0.204   3.886  14.521  0.4803  0.4578 -0.0318
 7975SOL    HW135384   0.219   3.974  14.486 -0.0565  0.4205 -0.3510
 7975SOL    HW235385   0.141   3.905  14.591  1.1973  1.2554  0.3938
 7976SOL     OW35386   1.997   0.962   2.144  0.0690 -0.0255 -0.3909
 7976SOL    HW135387   2.052   0.937   2.070  1.6826  0.2374  0.7057
 7976SOL    HW235388   1.988   1.055   2.126 -3.1121 -1.0426 -4.0863
 7977SOL     OW35389   1.357   0.649   0.318 -0.4300  0.2493 -0.8551
 7977SOL    HW135390   1.372   0.623   0.227  0.3937  0.1928 -0.7031
 7977SOL    HW235391   1.434   0.620   0.366 -0.0410  0.7289 -1.1928
 7978SOL     OW35392   2.188   0.024   4.911 -0.0232 -0.3544  0.1815
 7978SOL    HW135393   2.265   4.699   4.891  0.6395  0.2973  1.0455
 7978SOL    HW235394   2.182   0.087   4.839  1.8152 -0.4697 -0.0541
 7979SOL     OW35395   3.414   0.712  16.524 -0.1818 -0.6399 -0.1923
 7979SOL    HW135396   3.456   0.695  16.608 -1.4156 -1.2750  0.3071
 7979SOL    HW235397   3.442   0.634  16.476 -0.2022 -0.3387 -0.6949
 7980SOL     OW35398   3.781   2.296  11.182  0.3891  0.1272 -0.5084
 7980SOL    HW135399   3.832   2.247  11.247  0.2466  0.1823 -0.3544
 7980SOL    HW235400   3.834   2.374  11.167  0.1053  0.2411 -0.9122
 7981SOL     OW35401   1.628   1.004   5.918 -0.4627  0.0538 -0.1013
 7981SOL    HW135402   1.620   0.977   6.010 -1.7669  1.1762  0.1073
 7981SOL    HW235403   1.619   1.099   5.916  0.0868  0.0738 -1.5819
 7982SOL     OW35404   0.192   3.968   6.844  0.4144 -0.5223 -0.8502
 7982SOL    HW135405   0.143   4.051   6.836  2.5894  0.9216  0.8568
 7982SOL    HW235406   0.116   3.912   6.856 -0.6662  1.0371 -0.3149
 7983SOL     OW35407   1.870   4.299   1.702  0.4064 -0.0100 -0.2618
 7983SOL    HW135408   1.923   4.222   1.724 -3.5395 -3.4161 -2.6182
 7983SOL    HW235409   1.933   4.365   1.730 -0.3324  0.4484  0.2925
 7984SOL     OW35410   1.886   3.196   8.231  0.7366 -0.0107 -0.1959
 7984SOL    HW135411   1.941   3.120   8.215  3.6676  2.0549 -0.1056
 7984SOL    HW235412   1.934   3.255   8.290  0.8153 -0.0505 -0.2210
 7985SOL     OW35413   4.563   0.126  14.632  0.0448  0.5168 -0.6764
 7985SOL    HW135414   4.623   0.200  14.641 -0.6633  1.1763 -1.3426
 7985SOL    HW235415   4.549   0.117  14.538 -0.8178 -0.6543 -0.4352
 7986SOL     OW35416   1.047   0.012   3.212 -0.4155 -0.3413  0.1592
 7986SOL    HW135417   0.980   0.064   3.258  1.0951  0.1090  1.8520
 7986SOL    HW235418   1.118   0.009   3.276 -1.3320  1.4283  1.2847
 7987SOL     OW35419   1.649   2.662   9.602 -0.0395 -0.3398  0.4281
 7987SOL    HW135420   1.627   2.571   9.618  0.9753 -0.3677  1.6035
 7987SOL    HW235421   1.598   2.667   9.521  0.1814  1.4766  0.3902
 7988SOL     OW35422   3.770   2.177  13.010 -0.2832 -0.1091 -0.0537
 7988SOL    HW135423   3.732   2.089  13.002  0.8390 -0.4880 -1.3385
 7988SOL    HW235424   3.693   2.233  13.000  0.9246  1.4517 -0.6597
 7989SOL     OW35425   0.636   4.115   5.097 -0.2453 -0.1789 -0.1849
 7989SOL    HW135426   0.580   4.127   5.174  1.9051  0.1066  1.3305
 7989SOL    HW235427   0.666   4.030   5.128  2.1178  0.8169  0.2311
 7990SOL     OW35428   0.234   1.840   4.469 -0.3242  0.4007 -0.2378
 7990SOL    HW135429   0.265   1.931   4.474 -1.1425  0.5543  2.0784
 7990SOL    HW235430   0.306   1.795   4.426  0.8332  1.2310  0.8265
 7991SOL     OW35431   2.586   3.925   3.768  0.0657 -0.3302 -0.0540
 7991SOL    HW135432   2.549   3.992   3.825  0.4793 -0.9199  0.9166
 7991SOL    HW235433   2.662   3.904   3.822  0.4437  0.0673 -0.4296
 7992SOL     OW35434   3.338   2.446   4.694 -0.1943  0.6016  0.2281
 7992SOL    HW135435   3.417   2.499   4.685  0.3863 -0.5191 -1.3355
 7992SOL    HW235436   3.299   2.477   4.776 -2.3685  1.4387 -1.1097
 7993SOL     OW35437   1.483   3.499  12.744 -0.1796 -0.6610  0.5114
 7993SOL    HW135438   1.497   3.407  12.765  0.0218 -0.5853  0.7094
 7993SOL    HW235439   1.560   3.552  12.767  0.1975 -1.2483  0.5936
 7994SOL     OW35440   3.440   3.074  12.828  0.0132  0.6670 -0.3335
 7994SOL    HW135441   3.481   3.142  12.881  1.2232 -0.5267  0.2852
 7994SOL    HW235442   3.466   3.002  12.885 -0.1124 -0.4217 -1.6346
 7995SOL     OW35443   0.558   3.243  13.074  0.1380  0.3251  0.1989
 7995SOL    HW135444   0.584   3.335  13.068 -2.5109  1.1430  1.1607
 7995SOL    HW235445   0.635   3.197  13.107  0.3247 -0.2361 -1.0027
 7996SOL     OW35446   1.662   2.681   6.566  0.3381 -0.1763 -0.5529
 7996SOL    HW135447   1.644   2.744   6.635 -0.5033  1.0470 -1.9008
 7996SOL    HW235448   1.601   2.610   6.586  0.1329  0.0326 -0.4435
 7997SOL     OW35449   2.176   2.325   3.396 -0.4221 -0.5526 -0.1806
 7997SOL    HW135450   2.137   2.242   3.422  0.1210 -1.0286 -0.8726
 7997SOL    HW235451   2.146   2.329   3.305  1.4469 -3.1644 -0.9254
 7998SOL     OW35452   3.379   1.362  15.753  0.3143  0.4767 -0.1811
 7998SOL    HW135453   3.300   1.346  15.804 -0.4827  0.0612 -1.5368
 7998SOL    HW235454   3.441   1.341  15.823 -0.8607  1.8060  1.2481
 7999SOL     OW35455   0.162   0.287   9.024  0.7107 -0.1720 -0.1293
 7999SOL    HW135456   0.100   0.231   9.071 -0.7906  2.0769  0.5707
 7999SOL    HW235457   0.246   0.267   9.065  0.6027  2.6606  1.5200
 8000SOL     OW35458   0.793   3.735   3.549 -0.4209 -0.5292 -0.1488
 8000SOL    HW135459   0.741   3.798   3.498  0.5320  0.4633  0.0940
 8000SOL    HW235460   0.844   3.801   3.597 -0.1943 -0.8866  0.0963
 8001SOL     OW35461   0.847   1.418   9.496 -0.1624  0.2341  0.1191
 8001SOL    HW135462   0.808   1.469   9.566  0.4902  2.5580 -1.1865
 8001SOL    HW235463   0.943   1.420   9.503 -0.1012  1.0532 -0.8749
 8002SOL     OW35464   1.677   3.015   7.503  0.3267 -0.3473  0.3267
 8002SOL    HW135465   1.647   3.080   7.440 -3.3832 -1.2496  1.1687
 8002SOL    HW235466   1.718   3.066   7.573 -1.0380 -0.5847  1.2991
 8003SOL     OW35467   1.919   3.693   1.078  0.0621 -0.2085  0.2130
 8003SOL    HW135468   1.983   3.710   1.009  0.9811 -1.4709  0.7567
 8003SOL    HW235469   1.879   3.779   1.091 -1.1494 -0.9362  1.3547
 8004SOL     OW35470   1.931   2.830   9.260  0.0228 -0.3660  0.1771
 8004SOL    HW135471   1.944   2.924   9.248  1.3387 -0.5843 -0.1883
 8004SOL    HW235472   1.980   2.791   9.187  4.2604 -0.6785  3.1484
 8005SOL     OW35473   0.055   4.053  13.612 -0.0431 -0.8390 -1.0479
 8005SOL    HW135474   0.061   4.126  13.551  1.1751  0.4775  0.6043
 8005SOL    HW235475   0.068   4.092  13.699 -2.6559 -0.8047 -0.6918
 8006SOL     OW35476   1.170   3.247   4.816  0.1976  0.6440 -0.2165
 8006SOL    HW135477   1.155   3.323   4.760  0.5589  1.1914  0.4333
 8006SOL    HW235478   1.228   3.289   4.879  0.8294  2.0190 -1.7051
 8007SOL     OW35479   2.196   4.015   2.868 -0.3656 -0.1159 -0.1559
 8007SOL    HW135480   2.287   3.985   2.863 -0.5002 -0.9624  2.5281
 8007SOL    HW235481   2.198   4.100   2.913 -1.5224 -1.3616  2.2187
 8008SOL     OW35482   1.677   2.411   1.905  0.0392  0.2963  0.0463
 8008SOL    HW135483   1.601   2.406   1.963  0.6941  1.8113  1.0389
 8008SOL    HW235484   1.656   2.490   1.855  1.3213 -0.4454 -1.6843
 8009SOL     OW35485   0.935   0.448   3.143  0.1443  0.0526  0.0969
 8009SOL    HW135486   0.939   0.487   3.231 -2.7491  0.9156 -0.1622
 8009SOL    HW235487   0.878   0.374   3.164 -0.0744  0.1178 -0.2829
 8010SOL     OW35488   3.749   3.139   3.139  0.6242  0.2978 -0.0918
 8010SOL    HW135489   3.670   3.137   3.085  1.7117  0.6299 -1.7330
 8010SOL    HW235490   3.804   3.195   3.084 -0.3573 -1.3279 -2.7439
 8011SOL     OW35491   3.904   3.291  12.282  0.0945 -0.0051  0.3076
 8011SOL    HW135492   3.827   3.237  12.262 -0.5788  0.7970  0.7801
 8011SOL    HW235493   3.946   3.292  12.196 -0.8108 -0.5045 -0.1467
 8012SOL     OW35494   3.207   2.751   3.601 -0.2756  0.1779 -0.0609
 8012SOL    HW135495   3.300   2.767   3.620 -0.3809  0.1960  0.4426
 8012SOL    HW235496   3.188   2.675   3.657 -1.2287  1.3856  1.2710
 8013SOL     OW35497   0.863   1.745   3.191  0.7387  0.3648  0.1821
 8013SOL    HW135498   0.920   1.764   3.117  0.1327 -1.5982 -0.7882
 8013SOL    HW235499   0.883   1.653   3.211 -0.6992 -0.3385 -1.6917
 8014SOL     OW35500   1.188   2.643   2.921 -0.3204 -0.5549 -0.0131
 8014SOL    HW135501   1.121   2.702   2.955 -0.6646 -0.8541 -0.1636
 8014SOL    HW235502   1.262   2.703   2.929  0.6216 -1.6319 -0.6649
 8015SOL     OW35503   4.559   2.973  15.163  0.2639  0.7019 -0.2033
 8015SOL    HW135504   4.621   2.905  15.137 -0.6671  0.1492 -0.9696
 8015SOL    HW235505   4.590   3.044  15.106 -0.9435  0.6341 -0.9362
 8016SOL     OW35506   0.159   2.400  14.557  0.2558  0.0314 -0.2046
 8016SOL    HW135507   0.181   2.364  14.643 -0.9122 -0.6160 -0.1690
 8016SOL    HW235508   0.084   2.342  14.545  0.3827  0.4426 -2.9612
 8017SOL     OW35509   1.333   1.335   5.001  0.0044 -0.6651  0.0421
 8017SOL    HW135510   1.418   1.307   5.037  0.4263  1.4713  0.7719
 8017SOL    HW235511   1.320   1.425   5.033 -2.1298 -1.7468  2.2017
 8018SOL     OW35512   2.190   2.385  10.098 -0.5480  0.4279 -0.0588
 8018SOL    HW135513   2.238   2.410  10.019  0.0707  1.6328  0.7137
 8018SOL    HW235514   2.199   2.290  10.097 -0.8918  0.3920  0.2698
 8019SOL     OW35515   1.129   0.119   6.304 -0.4394  0.3681 -0.5272
 8019SOL    HW135516   1.064   0.185   6.279  1.2563  1.5360 -1.7992
 8019SOL    HW235517   1.079   0.056   6.356  0.3398 -1.0394 -1.4776
 8020SOL     OW35518   2.594   3.542   4.377 -0.2090  0.6348 -0.3344
 8020SOL    HW135519   2.598   3.451   4.406  0.0018 -0.3624 -3.5194
 8020SOL    HW235520   2.639   3.581   4.452 -0.7357 -0.3331  0.4898
 8021SOL     OW35521   1.172   1.207   0.675  0.6176 -0.0027 -0.2761
 8021SOL    HW135522   1.101   1.207   0.739  0.7670  2.7224 -0.1104
 8021SOL    HW235523   1.140   1.127   0.634 -0.0520  0.4940 -0.7297
 8022SOL     OW35524   3.616   4.123   0.087  0.0655 -0.1821  0.5098
 8022SOL    HW135525   3.640   4.047   0.140  0.4810 -1.4592 -1.4898
 8022SOL    HW235526   3.544   4.157   0.140  0.5841  2.1785 -0.3149
 8023SOL     OW35527   2.145   1.008   7.564  0.1458 -0.1387  0.0959
 8023SOL    HW135528   2.090   1.041   7.493 -1.8456 -2.4274  0.5439
 8023SOL    HW235529   2.226   0.988   7.517  0.6302 -0.1779  0.9658
 8024SOL     OW35530   0.758   3.493  15.094 -0.0825 -0.2125 -0.3126
 8024SOL    HW135531   0.727   3.408  15.063 -1.1818  0.2530 -0.4932
 8024SOL    HW235532   0.721   3.556  15.032  0.9636  0.1524 -0.5694
 8025SOL     OW35533   4.182   3.059   5.733 -0.1420  0.1405 -0.2154
 8025SOL    HW135534   4.120   3.124   5.767  0.1215 -0.1414  0.8123
 8025SOL    HW235535   4.145   3.048   5.646  3.6726  2.0840 -2.0599
 8026SOL     OW35536   4.576   2.234   3.509  0.0010  0.6361  0.5518
 8026SOL    HW135537   4.665   2.265   3.523  0.8327 -1.3677 -0.3190
 8026SOL    HW235538   4.531   2.302   3.459  0.3006  2.1519  2.3714
 8027SOL     OW35539   1.768   0.901   0.762  0.1392 -0.2183  0.0402
 8027SOL    HW135540   1.788   0.934   0.850  2.1889  2.1557 -1.2994
 8027SOL    HW235541   1.769   0.806   0.772 -1.9713 -0.1412  1.0389
 8028SOL     OW35542   1.643   0.525  14.824  0.9147 -0.0326  0.2034
 8028SOL    HW135543   1.659   0.461  14.893  1.4827  1.9755  1.9501
 8028SOL    HW235544   1.555   0.555  14.849  0.1626 -1.8510 -0.2480
 8029SOL     OW35545   2.672   1.241  12.999  0.9442  0.0281 -0.3701
 8029SOL    HW135546   2.731   1.178  13.040 -1.8132 -0.6504  2.5429
 8029SOL    HW235547   2.699   1.324  13.039 -0.7574  0.9493 -1.1480
 8030SOL     OW35548   2.360   3.206  16.517  0.2224 -0.1692 -0.0865
 8030SOL    HW135549   2.289   3.229  16.457 -1.6525 -2.1809  1.3619
 8030SOL    HW235550   2.339   3.265  16.589  1.2186  2.9833 -2.3855
 8031SOL     OW35551   4.519   2.826   3.815  0.0790 -0.3608  0.9776
 8031SOL    HW135552   4.480   2.747   3.854 -0.0616 -1.7765 -2.0310
 8031SOL    HW235553   4.567   2.868   3.886  0.8603 -1.6317  1.1917
 8032SOL     OW35554   3.491   1.265  15.070 -0.0469 -0.1240 -0.1419
 8032SOL    HW135555   3.417   1.228  15.021  0.3704 -0.0780 -0.8023
 8032SOL    HW235556   3.453   1.281  15.156  0.2496 -0.1312 -0.0137
 8033SOL     OW35557   1.135   4.361  13.720  0.0869  0.4768  0.0086
 8033SOL    HW135558   1.079   4.338  13.794  2.8478 -2.1944  1.2727
 8033SOL    HW235559   1.212   4.394  13.766  1.8088 -1.9325 -1.1744
 8034SOL     OW35560   2.833   3.342  10.518 -0.0701  0.3079 -0.0443
 8034SOL    HW135561   2.737   3.349  10.518 -0.2123 -1.6375  0.1442
 8034SOL    HW235562   2.848   3.263  10.569 -1.1747  0.4600  0.5155
 8035SOL     OW35563   0.328   1.887   6.192 -0.5488  0.0585 -0.1943
 8035SOL    HW135564   0.397   1.856   6.250  0.9268 -1.1570 -2.5774
 8035SOL    HW235565   0.378   1.944   6.133 -1.1001  0.6898 -0.0531
 8036SOL     OW35566   4.693   4.085   4.140  0.2278 -0.0307 -0.5532
 8036SOL    HW135567   0.054   4.112   4.167 -0.7034  2.6155 -0.1414
 8036SOL    HW235568   4.670   4.055   4.227 -1.0410 -0.9636 -1.2129
 8037SOL     OW35569   0.853   1.719   0.169  0.0731 -0.0060  0.3158
 8037SOL    HW135570   0.780   1.661   0.188  0.1875 -0.5009 -0.7606
 8037SOL    HW235571   0.888   1.674   0.092 -0.1990 -0.4964  0.4813
 8038SOL     OW35572   4.398   2.669  10.964  0.3584  0.7982 -0.6445
 8038SOL    HW135573   4.395   2.673  10.869 -1.0917  0.1176 -0.6425
 8038SOL    HW235574   4.471   2.611  10.982 -0.2216  0.0339 -0.7497
 8039SOL     OW35575   3.623   0.677   5.532  0.0614 -0.0495 -0.3589
 8039SOL    HW135576   3.611   0.582   5.535 -2.7040  0.2837 -0.8222
 8039SOL    HW235577   3.562   0.703   5.463 -0.0793  0.0442 -0.1985
 8040SOL     OW35578   1.095   1.342   2.834 -0.1038 -0.0562  0.2029
 8040SOL    HW135579   1.017   1.330   2.780  0.8620 -1.1268 -0.9355
 8040SOL    HW235580   1.116   1.254   2.863  0.1055  0.0741  0.4513
 8041SOL     OW35581   3.946   3.429   7.231  0.3202 -0.7716  0.1572
 8041SOL    HW135582   3.947   3.425   7.327  0.3492 -2.2046  0.0964
 8041SOL    HW235583   4.039   3.432   7.209 -0.1739  2.1413 -1.6782
 8042SOL     OW35584   0.392   4.718   3.236 -1.0219  0.4473  0.3607
 8042SOL    HW135585   0.334   4.652   3.275 -0.7630  2.3197  3.8810
 8042SOL    HW235586   0.333   0.044   3.183  0.9158  1.8698 -0.3544
 8043SOL     OW35587   0.879   1.206   6.679  0.3555  0.5305 -0.3803
 8043SOL    HW135588   0.791   1.210   6.641  0.9170  1.8132 -1.5262
 8043SOL    HW235589   0.858   1.213   6.772 -0.3774  0.6976 -0.5559
 8044SOL     OW35590   1.941   0.679  16.487 -0.4171 -0.5023  0.3478
 8044SOL    HW135591   1.855   0.709  16.458 -0.0849  0.4446  0.3564
 8044SOL    HW235592   1.924   0.690  16.580  0.3255  3.0292  0.0578
 8045SOL     OW35593   0.105   0.845  11.130  0.0716  0.2004 -0.3354
 8045SOL    HW135594   0.116   0.899  11.208  1.9286 -0.0675 -0.4116
 8045SOL    HW235595   0.126   0.914  11.067 -0.3190 -0.2809 -0.9943
 8046SOL     OW35596   3.221   1.020   4.047 -0.2890 -0.2640 -0.4817
 8046SOL    HW135597   3.184   0.997   4.132 -0.9118  0.7298 -0.4881
 8046SOL    HW235598   3.189   1.110   4.053 -0.3889 -0.3806  0.7889
 8047SOL     OW35599   1.749   3.029  12.614 -0.2293 -0.4900 -0.1900
 8047SOL    HW135600   1.738   2.961  12.681 -0.6319  0.4932  0.7486
 8047SOL    HW235601   1.661   3.065  12.607  0.5162  1.6620  1.5255
 8048SOL     OW35602   1.194   3.159   8.310  0.0646  0.3907 -0.6542
 8048SOL    HW135603   1.108   3.125   8.336  0.3548  0.3196  0.1935
 8048SOL    HW235604   1.199   3.241   8.359 -0.0720 -0.2898  0.4963
 8049SOL     OW35605   0.883   3.646   9.458 -0.4349 -0.0523 -0.0174
 8049SOL    HW135606   0.823   3.716   9.430  0.8156  2.0481  2.6270
 8049SOL    HW235607   0.846   3.576   9.404 -2.2936  1.1934 -0.3968
 8050SOL     OW35608   3.227   0.194   8.558  0.4717  0.2001 -1.1984
 8050SOL    HW135609   3.170   0.267   8.531 -0.9530 -1.3430 -2.3325
 8050SOL    HW235610   3.311   0.239   8.555  0.7320 -0.0739  1.5512
 8051SOL     OW35611   0.621   3.494   5.128  0.0478 -0.2724  0.4454
 8051SOL    HW135612   0.565   3.429   5.169  0.7430 -2.6150 -2.2742
 8051SOL    HW235613   0.653   3.442   5.055  0.4639  1.3475 -0.5432
 8052SOL     OW35614   1.274   3.912   5.632  0.4630  0.1231 -0.4635
 8052SOL    HW135615   1.346   3.947   5.685  0.2392  0.5766 -0.4618
 8052SOL    HW235616   1.318   3.839   5.587  1.2286  0.8976 -0.9854
 8053SOL     OW35617   0.605   2.522   1.340 -0.6265  1.1012 -0.1179
 8053SOL    HW135618   0.656   2.494   1.416 -1.1832  1.2626  0.3196
 8053SOL    HW235619   0.606   2.445   1.283  2.2786  0.0850  1.3175
 8054SOL     OW35620   4.539   2.414   8.564 -0.3144 -0.2325  0.1287
 8054SOL    HW135621   4.596   2.348   8.602  0.2089 -0.2431 -0.6793
 8054SOL    HW235622   4.583   2.490   8.603  0.4630 -0.7086  0.1627
 8055SOL     OW35623   4.177   2.572   7.300 -0.0848 -0.1422  0.0458
 8055SOL    HW135624   4.084   2.564   7.322  0.0010  1.2662  0.8859
 8055SOL    HW235625   4.217   2.495   7.340  1.1239 -1.0343 -2.8665
 8056SOL     OW35626   2.596   1.487   4.999  0.1408  0.2696 -0.4130
 8056SOL    HW135627   2.522   1.466   5.056  1.8682  0.9351  2.0820
 8056SOL    HW235628   2.575   1.572   4.961  0.4605  0.9277  0.8907
 8057SOL     OW35629   0.020   3.573   3.040 -0.3261  0.0845  0.3559
 8057SOL    HW135630   4.651   3.577   3.039 -0.2265  1.7694 -2.2903
 8057SOL    HW235631   0.033   3.650   2.984  0.3379 -0.8634 -0.7898
 8058SOL     OW35632   4.113   0.301   8.424  0.1797 -0.7796  0.4476
 8058SOL    HW135633   4.041   0.341   8.474  0.9029  0.9812  0.0664
 8058SOL    HW235634   4.076   0.215   8.401  1.2267 -1.2913  0.6872
 8059SOL     OW35635   3.661   3.976   3.761 -0.0874 -1.1241  0.2787
 8059SOL    HW135636   3.654   4.037   3.835  1.7660  0.1731 -0.6023
 8059SOL    HW235637   3.645   3.893   3.805 -3.5071  0.0597  1.2627
 8060SOL     OW35638   0.023   0.955   2.040  0.4425 -0.3165 -0.3741
 8060SOL    HW135639   0.115   0.974   2.026  0.0877  0.4037 -1.7525
 8060SOL    HW235640   4.722   1.047   2.041 -1.0024 -0.8119  3.9785
 8061SOL     OW35641   3.775   1.408   7.441  0.3125  0.0180  0.4319
 8061SOL    HW135642   3.852   1.363   7.407 -0.5586  0.2383 -1.8894
 8061SOL    HW235643   3.741   1.453   7.363  1.6057 -1.1119 -0.7641
 8062SOL     OW35644   1.984   1.629  15.895  0.4073  0.1097  0.0414
 8062SOL    HW135645   1.987   1.710  15.844 -2.0174  0.9561  1.2276
 8062SOL    HW235646   2.048   1.646  15.964 -1.0335 -2.3884  1.9879
 8063SOL     OW35647   1.303   1.021  13.982  0.2641 -0.1599 -0.7054
 8063SOL    HW135648   1.358   1.098  13.970  1.6137 -1.2884 -1.7422
 8063SOL    HW235649   1.368   0.954  13.960 -0.9963 -1.8245  0.5979
 8064SOL     OW35650   2.852   0.351   4.478 -0.1033 -0.3505  0.2723
 8064SOL    HW135651   2.830   0.306   4.397  2.3120 -0.5301 -0.2845
 8064SOL    HW235652   2.768   0.340   4.523 -0.1832  0.7139  0.3895
 8065SOL     OW35653   4.137   0.967   5.940 -0.4847  0.0179  0.1239
 8065SOL    HW135654   4.055   0.951   5.893 -0.0459 -1.1607 -0.2513
 8065SOL    HW235655   4.135   0.882   5.985 -1.5984 -0.9048 -1.6581
 8066SOL     OW35656   1.738   1.681   2.445 -0.8169 -0.3127 -0.5589
 8066SOL    HW135657   1.690   1.761   2.467 -1.2214 -0.5543 -0.5597
 8066SOL    HW235658   1.684   1.621   2.498  0.0026 -1.4890 -1.0435
 8067SOL     OW35659   2.555   2.029   0.652  0.1701  0.3357  0.1446
 8067SOL    HW135660   2.483   2.090   0.668  0.5300  0.4403  1.3378
 8067SOL    HW235661   2.508   1.953   0.686 -0.4970  0.0812 -1.3421
 8068SOL     OW35662   0.147   0.566   8.200  0.0925  0.8642  0.2910
 8068SOL    HW135663   0.140   0.550   8.294 -0.6094 -1.6885 -0.2171
 8068SOL    HW235664   0.222   0.627   8.197  0.5049  0.2567 -1.5983
 8069SOL     OW35665   2.753   4.056   0.864  0.0146  0.5210  0.5956
 8069SOL    HW135666   2.799   3.981   0.827 -1.3631 -0.4278  0.8003
 8069SOL    HW235667   2.670   4.016   0.889  0.5612  0.2537  2.0272
 8070SOL     OW35668   3.321   3.433  10.625  0.2743  0.6402 -0.5569
 8070SOL    HW135669   3.255   3.417  10.694 -0.2663 -1.5297 -1.5899
 8070SOL    HW235670   3.267   3.413  10.549  0.6468  0.3569 -0.7438
 8071SOL     OW35671   4.273   0.184   1.815 -0.1615  0.5608  0.2224
 8071SOL    HW135672   4.216   0.111   1.790  0.3962  0.3937 -0.5552
 8071SOL    HW235673   4.352   0.158   1.769 -0.3625 -1.5957  1.1140
 8072SOL     OW35674   4.556   4.200   6.147 -0.4897  0.3335  0.0173
 8072SOL    HW135675   4.620   4.170   6.212 -1.1627 -1.7452 -0.2912
 8072SOL    HW235676   4.512   4.115   6.145 -0.4267  0.3120 -0.5125
 8073SOL     OW35677   4.299   3.630   4.011  0.2079 -0.5386 -0.1267
 8073SOL    HW135678   4.209   3.602   3.998 -0.2023  0.3781  0.7913
 8073SOL    HW235679   4.301   3.693   3.939 -0.7650  2.1481  2.2012
 8074SOL     OW35680   0.830   2.339   3.964  0.0829  0.0342 -0.0701
 8074SOL    HW135681   0.875   2.364   3.884 -0.1576  1.1648  0.1413
 8074SOL    HW235682   0.817   2.244   3.956  1.4914 -0.1600 -0.0942
 8075SOL     OW35683   3.462   2.079   3.037  0.4452  0.8418  0.2247
 8075SOL    HW135684   3.527   2.149   3.046  1.8399 -0.6484  1.7509
 8075SOL    HW235685   3.447   2.053   3.128  0.0942  0.4621  0.0566
 8076SOL     OW35686   3.971   0.320   6.518  0.5428 -0.0683 -0.3089
 8076SOL    HW135687   3.908   0.272   6.464  1.7692 -0.6572 -1.2211
 8076SOL    HW235688   4.017   0.376   6.454  2.4415  0.1310  1.2400
 8077SOL     OW35689   4.665   0.695   3.359  0.3587  0.1134 -0.2514
 8077SOL    HW135690   4.600   0.664   3.296  0.5946 -0.8461 -0.0283
 8077SOL    HW235691   4.685   0.782   3.324  1.5334  0.3639  1.0247
 8078SOL     OW35692   0.414   2.929   6.335  0.4602 -0.1256  0.3318
 8078SOL    HW135693   0.333   2.980   6.327  0.1580 -0.7710 -0.6534
 8078SOL    HW235694   0.382   2.841   6.355 -1.0575  0.1390 -1.0023
 8079SOL     OW35695   2.516   3.623  11.183 -0.1107 -0.1934 -0.0628
 8079SOL    HW135696   2.539   3.608  11.091  1.0628 -3.3719  0.7344
 8079SOL    HW235697   2.534   3.716  11.198 -1.3413  0.2479 -1.3702
 8080SOL     OW35698   3.114   0.931  15.933 -0.5181  0.1913  0.1192
 8080SOL    HW135699   3.180   0.974  15.877 -0.5527  0.1714  0.0628
 8080SOL    HW235700   3.152   0.931  16.021  1.0986  0.8470 -0.5653
 8081SOL     OW35701   1.867   4.130   6.932  0.0895 -0.0107 -0.0900
 8081SOL    HW135702   1.777   4.146   6.961  0.4309  1.8653 -0.1119
 8081SOL    HW235703   1.856   4.061   6.866 -0.1652  2.2858 -2.4214
 8082SOL     OW35704   1.019   2.034   3.086 -0.2234 -0.3823 -0.4284
 8082SOL    HW135705   1.095   1.976   3.074  0.3977  0.6712 -1.5633
 8082SOL    HW235706   1.039   2.101   3.021 -0.2723 -1.7956 -1.9153
 8083SOL     OW35707   2.763   1.227   3.071  0.3547  0.0247 -0.0497
 8083SOL    HW135708   2.691   1.280   3.037  0.9107 -0.7028 -2.4148
 8083SOL    HW235709   2.816   1.288   3.121  0.2590 -0.4992  0.6806
 8084SOL     OW35710   0.733   0.778   4.451  0.1345  0.1964 -0.2109
 8084SOL    HW135711   0.701   0.829   4.376  2.3456  0.0083 -1.2784
 8084SOL    HW235712   0.706   0.833   4.524  0.0404  0.6577 -0.5917
 8085SOL     OW35713   0.176   1.196   3.758 -0.1532  0.5427 -0.0493
 8085SOL    HW135714   0.113   1.162   3.822  0.0985  0.8357  0.3521
 8085SOL    HW235715   0.152   1.289   3.756  0.1782  0.6662  1.6121
 8086SOL     OW35716   3.588   3.512   6.001 -0.8700  0.0949 -0.0400
 8086SOL    HW135717   3.510   3.560   6.032  0.0099 -0.2921  2.7486
 8086SOL    HW235718   3.578   3.439   6.062 -0.8095 -0.7222 -1.0225
 8087SOL     OW35719   4.323   1.777   4.463 -0.6785 -0.0311  0.0071
 8087SOL    HW135720   4.322   1.807   4.372 -2.5757 -0.5663 -0.1581
 8087SOL    HW235721   4.283   1.692   4.446 -1.4191  0.3717 -0.2637
 8088SOL     OW35722   4.231   4.623  16.030  0.5196 -0.6652  0.6646
 8088SOL    HW135723   4.169   4.695  16.018  2.9721  1.4084  0.4281
 8088SOL    HW235724   4.206   4.588  16.116 -0.2132 -2.1053 -0.1213
 8089SOL     OW35725   1.713   3.033   3.410  0.4585 -0.5862 -0.5727
 8089SOL    HW135726   1.675   3.108   3.364 -0.1260 -0.5507 -0.0266
 8089SOL    HW235727   1.750   3.069   3.490 -1.3616  0.2926 -0.1300
 8090SOL     OW35728   3.859   2.582   8.826  0.0567  0.3530  0.9555
 8090SOL    HW135729   3.919   2.623   8.888  0.0364  2.9127 -0.7572
 8090SOL    HW235730   3.914   2.511   8.792  0.7081  0.3730  1.9658
 8091SOL     OW35731   0.316   0.335  13.022  0.1429  0.0136  0.3148
 8091SOL    HW135732   0.310   0.304  12.932 -0.1703 -2.7126  1.2532
 8091SOL    HW235733   0.398   0.385  13.016 -0.0611  0.2091 -0.8426
 8092SOL     OW35734   0.041   1.030   3.933 -0.0661 -0.3020  0.0191
 8092SOL    HW135735   0.063   0.937   3.937  0.7797 -0.0649  0.8768
 8092SOL    HW235736   4.674   1.027   3.947  0.0117  0.1157  0.6343
 8093SOL     OW35737   2.064   1.217   8.463  0.0464 -0.0551  0.4213
 8093SOL    HW135738   2.001   1.210   8.392 -0.0989  2.6391  0.2927
 8093SOL    HW235739   2.022   1.176   8.539 -1.2269  0.8636  0.2078
 8094SOL     OW35740   2.454   3.517   4.753 -0.2590  0.3921 -0.8299
 8094SOL    HW135741   2.428   3.481   4.669 -0.7446  2.7681 -1.7076
 8094SOL    HW235742   2.548   3.519   4.734 -0.5141  1.5131 -1.9579
 8095SOL     OW35743   0.523   0.916   3.697  0.1562 -0.0235  0.2273
 8095SOL    HW135744   0.510   0.862   3.619  0.3442  2.0386 -1.2376
 8095SOL    HW235745   0.491   1.001   3.667  1.7195 -0.1786 -1.8409
 8096SOL     OW35746   0.973   2.104   8.068 -0.7498  0.1289  0.8108
 8096SOL    HW135747   1.035   2.169   8.101 -0.1926 -0.5259  1.0499
 8096SOL    HW235748   0.927   2.159   8.004 -0.6629  0.1379  0.7558
 8097SOL     OW35749   2.695   0.030   4.590  0.2422  0.1230 -0.1052
 8097SOL    HW135750   2.760   4.687   4.583  0.0596  0.1997 -2.5251
 8097SOL    HW235751   2.750   0.090   4.640  0.9892 -1.0987  0.5562
 8098SOL     OW35752   1.975   2.394   0.358 -0.7695 -0.4521 -0.1209
 8098SOL    HW135753   1.978   2.298   0.361 -0.5044 -0.4660 -0.8925
 8098SOL    HW235754   2.066   2.409   0.331 -0.7246 -1.2377 -0.3980
 8099SOL     OW35755   1.142   0.752   0.058 -0.6527  0.5740 -0.2820
 8099SOL    HW135756   1.052   0.747   0.027 -0.7131  0.2944 -0.0665
 8099SOL    HW235757   1.151   0.846   0.074 -1.3448  0.7391 -0.8489
 8100SOL     OW35758   1.106   3.328   6.822  0.0917  0.3688 -0.2468
 8100SOL    HW135759   1.020   3.329   6.862  1.2757 -0.0238  2.3110
 8100SOL    HW235760   1.084   3.389   6.751 -1.1942  0.4219  0.2095
 8101SOL     OW35761   2.943   1.012  16.199 -0.5712 -0.3464  0.0007
 8101SOL    HW135762   2.913   0.969  16.279  0.2743 -0.3684  0.3043
 8101SOL    HW235763   2.981   0.942  16.145  0.9095  1.8693 -1.7889
 8102SOL     OW35764   2.305   3.299   2.477 -0.3373  0.0472  0.6153
 8102SOL    HW135765   2.373   3.298   2.409 -1.5170 -0.1269 -0.5643
 8102SOL    HW235766   2.311   3.211   2.514 -0.7047 -0.1905  0.1106
 8103SOL     OW35767   2.430   0.460   7.510  0.0383  0.1972 -0.6983
 8103SOL    HW135768   2.433   0.508   7.592 -1.8190 -0.5350 -0.1906
 8103SOL    HW235769   2.338   0.476   7.487 -0.4972 -1.4288  0.3266
 8104SOL     OW35770   3.093   1.000   8.457  0.2630 -0.0881 -0.0774
 8104SOL    HW135771   3.139   1.079   8.427  1.3239 -0.4752  0.5185
 8104SOL    HW235772   3.156   0.964   8.520 -0.2838 -1.5385 -0.3556
 8105SOL     OW35773   1.593   1.647  10.022  0.2869  0.3501  0.3957
 8105SOL    HW135774   1.616   1.705   9.949  0.6645 -0.1359  0.1297
 8105SOL    HW235775   1.513   1.603   9.994  0.1024  2.2027 -2.0748
 8106SOL     OW35776   2.808   4.085   7.207 -0.2229  0.4414  0.0271
 8106SOL    HW135777   2.732   4.108   7.262 -0.6046  0.9625 -0.7079
 8106SOL    HW235778   2.871   4.058   7.273  0.4595  0.7111 -0.5100
 8107SOL     OW35779   1.811   4.421   8.845 -0.3645 -0.5940 -0.7158
 8107SOL    HW135780   1.849   4.491   8.791  0.1849 -0.5563 -0.2861
 8107SOL    HW235781   1.878   4.353   8.839 -1.9064 -2.2522  0.8089
 8108SOL     OW35782   1.069   0.500   7.146  0.2800  0.5714 -0.1043
 8108SOL    HW135783   1.100   0.583   7.110 -0.3768  0.8438 -0.0401
 8108SOL    HW235784   1.112   0.497   7.232 -0.4770 -1.4077  0.2209
 8109SOL     OW35785   3.229   0.184   5.710 -0.2509 -0.4467  0.1666
 8109SOL    HW135786   3.282   0.178   5.631 -4.1665 -0.2149 -2.4842
 8109SOL    HW235787   3.144   0.175   5.668 -0.6961 -3.7890  1.7340
 8110SOL     OW35788   0.818   0.079   2.383 -0.1043 -0.1334  0.2676
 8110SOL    HW135789   0.741   0.125   2.418 -0.3288 -1.8383  1.9911
 8110SOL    HW235790   0.784   0.053   2.297 -1.2903  0.6713  0.4870
 8111SOL     OW35791   0.570   4.471   3.161  0.2835 -0.1812  0.1584
 8111SOL    HW135792   0.603   4.557   3.186 -0.1782 -0.5688  2.1066
 8111SOL    HW235793   0.533   4.483   3.073 -0.7778  1.0541  0.7710
 8112SOL     OW35794   3.880   0.139  14.995 -0.0767  0.1085  0.2738
 8112SOL    HW135795   3.797   0.125  14.948 -1.1353  0.7730  1.9318
 8112SOL    HW235796   3.888   0.051  15.033 -1.1715 -1.4346 -3.0157
 8113SOL     OW35797   3.698   3.687   3.813 -0.4709  0.6289  0.3442
 8113SOL    HW135798   3.654   3.648   3.738  2.0434  1.1477 -1.4216
 8113SOL    HW235799   3.790   3.692   3.786 -0.4153  0.7786  0.5604
 8114SOL     OW35800   2.544   4.150   1.831  0.4854 -0.5714 -0.0759
 8114SOL    HW135801   2.621   4.097   1.809  1.0831 -0.5870  2.1107
 8114SOL    HW235802   2.512   4.162   1.741 -0.7449  1.9221  0.7084
 8115SOL     OW35803   4.495   2.034   5.762 -0.5959  0.2290  0.4590
 8115SOL    HW135804   4.574   1.983   5.780 -0.2018  0.1591 -1.5020
 8115SOL    HW235805   4.541   2.115   5.740 -0.1375  0.7297  3.3239
 8116SOL     OW35806   0.019   3.571   6.112 -0.3630 -0.4986 -0.7444
 8116SOL    HW135807   4.691   3.516   6.057 -1.7431  1.2409 -1.1049
 8116SOL    HW235808   0.029   3.648   6.056 -3.0583  0.6463  0.3192
 8117SOL     OW35809   3.344   2.140   4.419 -0.2492 -0.3317  0.0326
 8117SOL    HW135810   3.313   2.079   4.352  2.3842 -2.9927  1.2295
 8117SOL    HW235811   3.437   2.141   4.394 -1.1360  2.3391 -3.1613
 8118SOL     OW35812   4.174   3.497   2.853  0.2062 -0.1740  0.0742
 8118SOL    HW135813   4.250   3.451   2.817 -0.5507 -2.2684  1.1650
 8118SOL    HW235814   4.122   3.495   2.773 -1.6681  0.4787  1.2874
 8119SOL     OW35815   3.958   0.408   1.821  0.0259  0.0814  0.6277
 8119SOL    HW135816   3.999   0.361   1.748  0.6196  1.1151  0.3007
 8119SOL    HW235817   3.880   0.442   1.777  0.2190 -0.2895 -0.0038
 8120SOL     OW35818   2.345   4.550   5.472 -0.0730  0.1967  0.1412
 8120SOL    HW135819   2.422   4.494   5.479 -0.2795 -0.2859 -1.3956
 8120SOL    HW235820   2.350   4.593   5.387  0.8894  2.1915  1.2115
 8121SOL     OW35821   3.969   4.657   0.409  0.4338  0.0705 -0.2070
 8121SOL    HW135822   3.924   4.670   0.326 -0.7250 -1.5827  0.1662
 8121SOL    HW235823   4.024   4.585   0.379 -0.2351 -1.2352  1.7020
 8122SOL     OW35824   3.413   3.117  16.696 -0.1801 -0.3014 -0.3691
 8122SOL    HW135825   3.390   3.025  16.688  1.0851 -0.5609 -1.0376
 8122SOL    HW235826   3.357   3.143  16.623 -0.9960 -0.5228  0.1741
 8123SOL     OW35827   1.962   3.760   9.498  0.0981  0.0602 -0.3579
 8123SOL    HW135828   2.007   3.696   9.443  1.6286 -0.0477  1.0325
 8123SOL    HW235829   1.982   3.735   9.588  3.6113  0.1266 -1.1160
 8124SOL     OW35830   0.250   3.722   6.202  0.3644 -0.1360 -0.1927
 8124SOL    HW135831   0.166   3.728   6.156  0.5186  1.6519 -0.2252
 8124SOL    HW235832   0.254   3.627   6.213 -0.6790 -0.4287 -2.3431
 8125SOL     OW35833   4.227   2.004   8.125 -0.0343  0.6432  0.0394
 8125SOL    HW135834   4.190   1.927   8.082  1.5341  0.0966 -0.3357
 8125SOL    HW235835   4.316   1.987   8.156 -0.3827  1.4212  1.4332
 8126SOL     OW35836   2.219   0.006   4.170  0.1847 -0.4740  0.2539
 8126SOL    HW135837   2.290   4.669   4.166  0.5240  0.0518 -2.6262
 8126SOL    HW235838   2.263   0.090   4.157 -1.3050  0.0513 -1.3747
 8127SOL     OW35839   3.787   2.366   2.162 -0.1517  0.4620 -0.0527
 8127SOL    HW135840   3.716   2.378   2.099  0.1357 -0.1194 -0.4815
 8127SOL    HW235841   3.811   2.274   2.152  1.9088  1.0043 -0.0502
 8128SOL     OW35842   1.712   4.559   7.093  1.0673  0.6834 -0.0472
 8128SOL    HW135843   1.730   4.477   7.139  0.5685  1.1813  1.0444
 8128SOL    HW235844   1.730   4.535   7.002 -2.1118  1.5456 -0.9013
 8129SOL     OW35845   1.437   4.216  17.640  0.1213  0.2748  0.1650
 8129SOL    HW135846   1.352   4.180  17.615  0.1016  1.9132 -2.2006
 8129SOL    HW235847   1.466   4.173   0.010 -0.0113 -0.1729 -0.0287
 8130SOL     OW35848   4.238   0.654  16.416 -0.2044  0.2168 -0.2475
 8130SOL    HW135849   4.185   0.733  16.425  1.7729  1.5360 -0.1149
 8130SOL    HW235850   4.284   0.676  16.335  2.2774 -1.1103  0.8142
 8131SOL     OW35851   2.850   1.797   4.093  0.7338  0.3111  0.0707
 8131SOL    HW135852   2.784   1.835   4.035  1.0805 -2.6959 -2.2772
 8131SOL    HW235853   2.910   1.871   4.083  2.2518 -0.6196  2.3643
 8132SOL     OW35854   3.488   3.055   7.823  0.5081 -0.7274 -0.4318
 8132SOL    HW135855   3.472   3.083   7.913  0.1525 -1.1228 -0.3727
 8132SOL    HW235856   3.584   3.049   7.824  0.5243 -0.1472  1.3798
 8133SOL     OW35857   4.226   0.362   0.057 -0.1546  0.1533  0.2439
 8133SOL    HW135858   4.147   0.398   0.098 -0.9162 -3.4166  1.8994
 8133SOL    HW235859   4.271   0.441   0.026 -1.0608  0.0587 -1.3295
 8134SOL     OW35860   3.999   1.585   8.444 -0.0308  0.0856 -0.4031
 8134SOL    HW135861   3.996   1.494   8.416  0.2774  0.8512 -2.9077
 8134SOL    HW235862   3.925   1.625   8.397  0.4713  1.4565 -0.0483
 8135SOL     OW35863   1.834   2.897  10.711 -0.1363  0.4330 -0.3031
 8135SOL    HW135864   1.860   2.828  10.772 -0.5802  0.0612 -0.5368
 8135SOL    HW235865   1.876   2.964  10.766  1.5679 -0.3240 -0.6958
 8136SOL     OW35866   3.878   4.299   1.643 -0.2227 -0.0955 -0.8614
 8136SOL    HW135867   3.807   4.270   1.585  0.3511  2.6122 -2.9024
 8136SOL    HW235868   3.878   4.224   1.702  0.3089 -0.9346 -1.9181
 8137SOL     OW35869   1.045   1.269   1.443 -0.0711  0.0068 -0.1272
 8137SOL    HW135870   1.026   1.231   1.357  1.7200  0.3498 -0.6678
 8137SOL    HW235871   1.013   1.195   1.495  1.0213 -0.1881  0.2665
 8138SOL     OW35872   3.064   3.610  11.743  0.3288 -0.0415 -0.0946
 8138SOL    HW135873   3.063   3.516  11.729 -0.8006 -0.2403  1.3589
 8138SOL    HW235874   3.156   3.628  11.761  0.3524 -0.2534 -0.0040
 8139SOL     OW35875   2.372   2.573   6.235  0.0725 -0.1289  0.0353
 8139SOL    HW135876   2.308   2.506   6.209  0.0052  0.5414 -1.5238
 8139SOL    HW235877   2.397   2.538   6.320  2.2461  2.3404  0.4248
 8140SOL     OW35878   0.706   2.738  12.318  0.0283  0.9054 -0.4020
 8140SOL    HW135879   0.673   2.698  12.398 -0.4312  2.6643  0.2840
 8140SOL    HW235880   0.677   2.666  12.262  0.8472  1.8600 -2.0707
 8141SOL     OW35881   0.907   0.767   6.520  0.4851  0.0960 -0.2829
 8141SOL    HW135882   0.814   0.770   6.541  0.5845 -1.3978  0.3648
 8141SOL    HW235883   0.937   0.705   6.587  0.7004  1.0954  0.5407
 8142SOL     OW35884   2.418   0.273   1.380 -0.3512 -0.1946 -0.1455
 8142SOL    HW135885   2.471   0.257   1.302  1.0388  0.7348  0.6153
 8142SOL    HW235886   2.347   0.212   1.360  1.9489 -2.8706 -0.0099
 8143SOL     OW35887   3.446   4.089  11.639  0.0222  0.2245 -0.2949
 8143SOL    HW135888   3.415   4.001  11.617 -0.8881  0.7468 -1.1051
 8143SOL    HW235889   3.420   4.091  11.731 -0.6634  0.0070 -0.4824
 8144SOL     OW35890   3.393   4.634   4.637  0.1769  0.1846 -0.2170
 8144SOL    HW135891   3.396   4.628   4.733  0.2674 -0.6405 -0.2762
 8144SOL    HW235892   3.302   4.606   4.627  0.2591 -0.5149  0.9353
 8145SOL     OW35893   0.348   3.107   6.648  0.0074  0.8555 -0.5936
 8145SOL    HW135894   0.327   3.142   6.734 -0.3747  0.2028 -0.4173
 8145SOL    HW235895   0.335   3.179   6.587 -1.7108  1.1162  0.0783
 8146SOL     OW35896   2.229   4.585   1.532  0.0108  0.4081 -0.0258
 8146SOL    HW135897   2.215   4.521   1.463  0.9725  1.3630 -1.1113
 8146SOL    HW235898   2.150   4.639   1.541 -1.1106 -1.7149  2.5888
 8147SOL     OW35899   0.594   3.198   6.950  0.7666  0.1435 -0.5839
 8147SOL    HW135900   0.617   3.110   6.921  0.4132 -0.2157  0.2160
 8147SOL    HW235901   0.677   3.239   6.973  0.0627  2.2326 -1.7886
 8148SOL     OW35902   1.500   0.777   6.605 -0.3454 -0.0896 -0.2019
 8148SOL    HW135903   1.565   0.731   6.657 -0.3283  1.1170  0.8414
 8148SOL    HW235904   1.551   0.832   6.546  0.1443 -1.0022 -0.6300
 8149SOL     OW35905   1.361   4.332   6.597  0.4339 -0.4153 -0.1827
 8149SOL    HW135906   1.284   4.332   6.540  1.1468  0.0356 -1.1539
 8149SOL    HW235907   1.331   4.265   6.658 -0.0837 -0.7978 -0.8624
 8150SOL     OW35908   3.079   3.682   8.384 -0.2510 -0.5237 -0.1174
 8150SOL    HW135909   3.026   3.689   8.463  1.3262 -0.8524  0.9769
 8150SOL    HW235910   3.127   3.765   8.385 -1.4981  0.1789  1.5236
 8151SOL     OW35911   3.301   3.605   1.475 -0.1416 -0.0907  0.2657
 8151SOL    HW135912   3.352   3.655   1.539  0.3428 -3.2270  2.3198
 8151SOL    HW235913   3.351   3.617   1.394 -0.4764 -0.7424 -0.0384
 8152SOL     OW35914   2.606   3.067  11.020  0.1875  0.3157  0.2004
 8152SOL    HW135915   2.621   3.045  11.112 -0.8675 -2.8001 -0.3583
 8152SOL    HW235916   2.598   2.978  10.985 -0.1018  1.0920 -1.7083
 8153SOL     OW35917   0.810   0.246   7.864  0.7680  0.4311  0.1822
 8153SOL    HW135918   0.824   0.208   7.951 -0.2994 -0.2133  0.0775
 8153SOL    HW235919   0.789   0.171   7.807  1.5776 -0.0512  0.5275
 8154SOL     OW35920   1.684   0.064   9.137  0.3178 -0.1996  0.2691
 8154SOL    HW135921   1.678   0.152   9.173  1.4259 -0.2248  0.5024
 8154SOL    HW235922   1.727   0.016   9.208 -2.0172 -0.0465  1.8164
 8155SOL     OW35923   1.899   4.528   2.002  0.3380 -0.2858 -0.2476
 8155SOL    HW135924   1.903   4.619   2.034 -0.1089 -0.3748  0.0618
 8155SOL    HW235925   1.954   4.532   1.924  0.5257  2.3423 -0.0124
 8156SOL     OW35926   2.153   3.921   5.701  0.0879  0.8092 -0.0709
 8156SOL    HW135927   2.099   3.934   5.780  2.3479  1.6689  1.3423
 8156SOL    HW235928   2.230   3.975   5.720  0.5829  1.1973 -3.3159
 8157SOL     OW35929   2.923   3.744   6.660  0.0001  0.2910 -0.0181
 8157SOL    HW135930   2.920   3.652   6.687 -0.6106  0.3410  0.0963
 8157SOL    HW235931   2.998   3.770   6.712 -1.1866  1.4464  1.0971
 8158SOL     OW35932   4.519   4.368   6.918 -0.9587 -0.0259 -0.6912
 8158SOL    HW135933   4.499   4.453   6.880 -1.5910 -0.3600 -1.1102
 8158SOL    HW235934   4.599   4.384   6.968 -0.1066 -1.0954 -1.7120
 8159SOL     OW35935   2.604   3.388   3.270  0.2268  0.0842  0.0158
 8159SOL    HW135936   2.567   3.363   3.185 -0.1473 -1.2131  0.5585
 8159SOL    HW235937   2.683   3.433   3.239  0.2415 -0.5040 -0.8338
 8160SOL     OW35938   1.093   1.867   2.175 -0.4787  0.7237 -0.4141
 8160SOL    HW135939   1.045   1.946   2.148  1.0536  1.4345 -1.0390
 8160SOL    HW235940   1.177   1.912   2.178 -0.2523  0.3525 -1.3784
 8161SOL     OW35941   4.043   0.953   7.017  0.4109  0.3330  0.2149
 8161SOL    HW135942   4.030   0.860   6.999 -0.6339  0.6119 -0.4663
 8161SOL    HW235943   4.024   0.987   6.929 -0.5732 -0.9478 -0.0889
 8162SOL     OW35944   1.356   2.323   8.819 -0.0491 -0.3790 -0.5259
 8162SOL    HW135945   1.408   2.264   8.873 -2.4890 -0.2273  1.9979
 8162SOL    HW235946   1.349   2.403   8.871 -1.0390  0.9537 -2.6890
 8163SOL     OW35947   1.184   2.543   7.099  0.2193 -0.2802 -0.3181
 8163SOL    HW135948   1.179   2.618   7.040  1.8122 -0.6648 -0.9415
 8163SOL    HW235949   1.201   2.574   7.188 -0.9377  1.6919 -0.7676
 8164SOL     OW35950   0.770   2.426   1.526  0.3706  0.2674  0.5652
 8164SOL    HW135951   0.777   2.381   1.610  0.2392  0.0128  0.4382
 8164SOL    HW235952   0.840   2.386   1.475 -0.5263 -0.5369 -0.0154
 8165SOL     OW35953   1.925   2.103   8.700  0.1605  0.0285 -0.1401
 8165SOL    HW135954   1.999   2.159   8.724  0.3929 -0.1121 -0.5203
 8165SOL    HW235955   1.864   2.173   8.678 -1.7286 -1.6088 -0.0954
 8166SOL     OW35956   2.216   4.166  10.611 -0.8016  0.5581 -0.3173
 8166SOL    HW135957   2.267   4.230  10.561  0.5348 -0.5389 -0.3797
 8166SOL    HW235958   2.158   4.220  10.665 -1.1175  0.1980 -0.3017
 8167SOL     OW35959   2.166   1.585   6.403  0.0212 -0.1047 -0.3593
 8167SOL    HW135960   2.182   1.590   6.497 -2.2418  0.7943 -0.0301
 8167SOL    HW235961   2.214   1.659   6.367 -0.0751  0.1862  0.1132
 8168SOL     OW35962   2.484   1.466  17.250  0.0363 -0.0534 -0.4974
 8168SOL    HW135963   2.448   1.377  17.254  1.0340 -0.4286  0.2739
 8168SOL    HW235964   2.479   1.495  17.341  2.5172  1.2035 -0.7809
 8169SOL     OW35965   3.395   1.370   6.654 -0.3167 -0.3488 -0.3036
 8169SOL    HW135966   3.356   1.345   6.570 -1.1732  1.7380 -0.5307
 8169SOL    HW235967   3.448   1.292   6.670  1.0292  0.7177  0.4933
 8170SOL     OW35968   1.263   1.529  10.574  0.0820 -0.0102 -0.3965
 8170SOL    HW135969   1.281   1.448  10.526  0.9112 -0.7858  1.2283
 8170SOL    HW235970   1.197   1.487  10.630  0.4641 -1.6122 -1.1484
 8171SOL     OW35971   1.548   1.858   3.407 -0.2582 -0.3901  0.3024
 8171SOL    HW135972   1.524   1.798   3.336 -2.4096  0.5762  0.1956
 8171SOL    HW235973   1.463   1.863   3.452 -0.3806  0.5773 -0.0300
 8172SOL     OW35974   3.304   3.670   7.236  0.2926  0.0187  0.5629
 8172SOL    HW135975   3.312   3.761   7.264 -0.1912  0.4536 -0.7259
 8172SOL    HW235976   3.388   3.633   7.262  0.7971  0.5349 -0.3126
 8173SOL     OW35977   2.368   0.523   3.942  0.3724 -0.1196  0.7654
 8173SOL    HW135978   2.426   0.454   3.908 -1.4403 -1.0449 -0.4346
 8173SOL    HW235979   2.281   0.485   3.935  0.2780  0.6109 -1.8487
 8174SOL     OW35980   1.528   0.550  10.399 -0.3149  0.0557 -0.2206
 8174SOL    HW135981   1.555   0.475  10.453 -1.4753  0.4704  0.9314
 8174SOL    HW235982   1.605   0.606  10.411  0.0782 -0.8610  1.5124
 8175SOL     OW35983   3.235   0.446   7.627  0.2192  0.3588  0.2863
 8175SOL    HW135984   3.205   0.433   7.537  2.0712  0.4035 -0.3292
 8175SOL    HW235985   3.290   0.368   7.639 -2.0464 -1.1860  0.7015
 8176SOL     OW35986   1.586   2.770   2.166  0.1587  0.4327  0.5619
 8176SOL    HW135987   1.515   2.834   2.171  0.4050  0.6140  1.9465
 8176SOL    HW235988   1.546   2.701   2.113 -0.6532  0.5023  1.0861
 8177SOL     OW35989   2.647   1.943   5.136  0.0311  0.1926  0.1980
 8177SOL    HW135990   2.640   1.965   5.228  2.5262 -3.7233  1.3525
 8177SOL    HW235991   2.725   1.887   5.134  0.3191  0.5770  0.7571
 8178SOL     OW35992   4.000   4.100   8.441  0.1855  0.4037 -0.5327
 8178SOL    HW135993   4.023   4.018   8.485  0.5842  0.3893 -0.7611
 8178SOL    HW235994   3.966   4.151   8.515  2.9429 -0.8146  1.5568
 8179SOL     OW35995   3.927   4.118   9.289  0.1716  0.1737 -0.0452
 8179SOL    HW135996   3.907   4.209   9.311  0.4140  0.3224 -0.4239
 8179SOL    HW235997   3.872   4.073   9.352 -2.4724  0.3450 -2.2241
 8180SOL     OW35998   2.143   3.563   9.324 -0.4165  0.1560 -0.2142
 8180SOL    HW135999   2.122   3.578   9.232 -0.1860 -1.7801 -0.5836
 8180SOL    HW236000   2.205   3.635   9.338  0.0289 -0.2161 -0.2922
 8181SOL     OW36001   1.293   0.858   5.258  0.3135  0.3847 -0.6680
 8181SOL    HW136002   1.331   0.777   5.225 -2.8199 -0.9693 -0.9864
 8181SOL    HW236003   1.200   0.846   5.237 -0.6260  2.6644  2.2175
 8182SOL     OW36004   2.021   0.347   2.778  0.7888 -0.4736  0.0421
 8182SOL    HW136005   2.045   0.316   2.865  2.9005 -1.7055 -0.9764
 8182SOL    HW236006   1.938   0.302   2.765  1.4322 -0.9918 -2.3126
 8183SOL     OW36007   3.329   4.368   0.977  0.0719 -0.8981 -0.2891
 8183SOL    HW136008   3.342   4.448   0.926 -3.2339  0.1667  0.5311
 8183SOL    HW236009   3.238   4.342   0.963  0.7253 -3.0201 -0.6059
 8184SOL     OW36010   0.492   4.505   6.005  0.2279 -0.0512 -0.8366
 8184SOL    HW136011   0.539   4.470   6.081  1.5785  3.1475 -0.2129
 8184SOL    HW236012   0.489   4.431   5.944  2.6482 -1.5018  0.7859
 8185SOL     OW36013   0.205   1.268   9.275  0.3253 -0.2140 -0.0495
 8185SOL    HW136014   0.154   1.201   9.320  1.9751 -0.4900  1.4021
 8185SOL    HW236015   0.128   1.309   9.235  0.2004  0.1850  0.5814
 8186SOL     OW36016   3.965   2.819   4.784 -0.3540 -0.0602 -0.0644
 8186SOL    HW136017   4.024   2.750   4.753  1.1462  0.6565  1.2241
 8186SOL    HW236018   3.928   2.848   4.701 -0.2685  0.1591 -0.0258
 8187SOL     OW36019   2.016   3.168   0.906 -0.3219 -0.2499  0.1097
 8187SOL    HW136020   1.969   3.186   0.988  1.9676  2.1407  0.8704
 8187SOL    HW236021   2.000   3.253   0.867 -2.1455 -0.9794 -0.7413
 8188SOL     OW36022   1.219   0.345   0.396  0.3952  0.2917 -0.6654
 8188SOL    HW136023   1.301   0.295   0.397  1.7828  2.5780  0.2707
 8188SOL    HW236024   1.161   0.273   0.373  0.0938  0.7770 -1.4328
 8189SOL     OW36025   2.030   3.011  13.658  0.0558  0.2959 -0.4296
 8189SOL    HW136026   2.084   2.965  13.722  0.9251  1.1800 -0.5277
 8189SOL    HW236027   2.095   3.022  13.589 -0.4856 -0.8543 -1.1279
 8190SOL     OW36028   0.421   0.622  12.249 -0.3259 -0.1871 -0.2513
 8190SOL    HW136029   0.359   0.550  12.235 -0.2530 -0.7729  2.4487
 8190SOL    HW236030   0.472   0.579  12.318  0.7941 -0.4908 -1.2592
 8191SOL     OW36031   0.321   1.498   5.231  0.1510  0.3245 -0.3854
 8191SOL    HW136032   0.351   1.502   5.322 -2.2966 -1.1821  0.4725
 8191SOL    HW236033   0.393   1.537   5.180  0.5399  1.7404  1.2513
 8192SOL     OW36034   2.437   1.127  10.147 -0.5629  0.5457  0.1109
 8192SOL    HW136035   2.447   1.180  10.225 -1.2253  0.4073  0.2855
 8192SOL    HW236036   2.484   1.177  10.080 -1.1486 -0.1519 -0.8285
 8193SOL     OW36037   4.185   1.760  12.375  0.1667  0.1881  0.5589
 8193SOL    HW136038   4.158   1.669  12.387  2.4375 -0.5806 -0.0371
 8193SOL    HW236039   4.102   1.801  12.398 -0.1527 -0.2739  0.2376
 8194SOL     OW36040   3.060   0.455   8.167  0.7899  0.6048 -0.4260
 8194SOL    HW136041   2.992   0.472   8.103 -0.9628  1.2771  1.6253
 8194SOL    HW236042   3.093   0.540   8.195 -0.4589  0.4673  1.4836
 8195SOL     OW36043   2.019   4.114   6.238 -0.0577  0.6555 -0.3465
 8195SOL    HW136044   1.942   4.081   6.191  1.6894 -2.1292 -1.2610
 8195SOL    HW236045   2.003   4.074   6.324 -0.4860  2.0714  0.2290
 8196SOL     OW36046   1.735   4.171   1.520  0.4036 -0.7963 -0.4452
 8196SOL    HW136047   1.648   4.146   1.552 -0.4629 -0.9224 -2.8323
 8196SOL    HW236048   1.780   4.210   1.594 -1.3324 -1.0156  0.7128
 8197SOL     OW36049   2.318   2.546   4.356 -0.2933 -0.1896  0.2014
 8197SOL    HW136050   2.358   2.540   4.443  0.1635 -0.3524 -0.0180
 8197SOL    HW236051   2.357   2.474   4.306 -1.5524 -1.0488  0.4404
 8198SOL     OW36052   0.528   0.530  13.666  0.3315  0.7752  0.8081
 8198SOL    HW136053   0.456   0.582  13.631 -0.2333 -1.0733 -0.8037
 8198SOL    HW236054   0.553   0.582  13.742  0.3833 -1.6820  2.4594
 8199SOL     OW36055   4.235   2.961   7.966  0.0594  0.1770  0.0491
 8199SOL    HW136056   4.262   2.904   8.038 -1.6634 -1.1897 -0.4069
 8199SOL    HW236057   4.140   2.961   7.981 -0.2059  0.6756 -1.6654
 8200SOL     OW36058   2.463   1.458   2.228 -0.4006  0.0359 -0.1700
 8200SOL    HW136059   2.558   1.451   2.235 -0.2309  1.6365 -0.7833
 8200SOL    HW236060   2.440   1.456   2.321  0.1486  2.0992  0.0267
 8201SOL     OW36061   1.113   2.576   3.965  0.6183  0.0535  0.1949
 8201SOL    HW136062   1.205   2.576   3.993  0.2817 -1.1251  1.2978
 8201SOL    HW236063   1.070   2.553   4.047 -2.8260  0.5181 -1.4983
 8202SOL     OW36064   2.225   4.184   8.816 -0.1900 -0.0001  0.2878
 8202SOL    HW136065   2.279   4.110   8.786  2.7247  2.2503 -0.0688
 8202SOL    HW236066   2.294   4.237   8.857 -1.2171  0.5789  1.2497
 8203SOL     OW36067   0.486   0.615   6.079  0.3020  0.8069  0.2133
 8203SOL    HW136068   0.475   0.637   6.172 -1.9466  0.5707  0.0094
 8203SOL    HW236069   0.564   0.561   6.076  0.9730  1.8616 -1.2057
 8204SOL     OW36070   4.643   1.491   3.033 -0.1155 -0.5062 -0.1740
 8204SOL    HW136071   4.617   1.456   2.948 -0.2072 -2.0188  0.4856
 8204SOL    HW236072   4.556   1.515   3.067  1.2310  1.4581  1.9044
 8205SOL     OW36073   1.388   0.516   9.885 -0.1310  0.5155  0.3906
 8205SOL    HW136074   1.388   0.523   9.789 -0.8340  2.4868  0.5157
 8205SOL    HW236075   1.451   0.584   9.911  1.4685 -1.1625  0.8459
 8206SOL     OW36076   2.148   0.163  12.658 -0.0821 -0.0780  0.5204
 8206SOL    HW136077   2.179   0.234  12.714 -0.0211 -0.2988  0.7649
 8206SOL    HW236078   2.217   0.098  12.643 -0.4686  0.6244 -4.2160
 8207SOL     OW36079   0.793   0.276  13.200 -0.1507  0.0634 -0.2150
 8207SOL    HW136080   0.798   0.333  13.277  1.2740 -2.4452  1.5736
 8207SOL    HW236081   0.799   0.337  13.126 -0.3211  2.3113  1.6356
 8208SOL     OW36082   1.710   0.872   3.158 -0.6499  0.5525  0.2770
 8208SOL    HW136083   1.787   0.825   3.127 -3.0116 -1.9364 -1.7352
 8208SOL    HW236084   1.750   0.925   3.227 -0.7121  0.7787  0.1396
 8209SOL     OW36085   4.494   1.789   7.899 -0.0215  0.0563  0.0455
 8209SOL    HW136086   4.487   1.882   7.878  0.3749 -0.0064 -0.3778
 8209SOL    HW236087   4.561   1.759   7.837  0.7567 -0.1280  0.9789
 8210SOL     OW36088   3.949   1.879   0.395  0.0530  0.1104  0.2757
 8210SOL    HW136089   3.950   1.788   0.365 -0.8278 -0.1924  1.1662
 8210SOL    HW236090   3.891   1.877   0.471  0.9439  0.4232  0.9636
 8211SOL     OW36091   2.730   3.465   3.974  0.0762 -0.5678 -0.3375
 8211SOL    HW136092   2.704   3.384   3.930  1.6156 -0.2592 -1.8175
 8211SOL    HW236093   2.665   3.476   4.043  1.1079 -1.5807  0.8025
 8212SOL     OW36094   4.409   0.988  16.822 -0.2919  0.1215 -0.2209
 8212SOL    HW136095   4.369   0.908  16.788 -1.1926  0.2259  0.5838
 8212SOL    HW236096   4.330   1.007  16.872 -0.4595  1.6003 -1.0199
 8213SOL     OW36097   4.132   1.769  17.390  0.4026  0.1348  0.0176
 8213SOL    HW136098   4.133   1.864  17.393  1.0738  0.1424 -0.3599
 8213SOL    HW236099   4.215   1.744  17.432 -0.0540  0.6981  1.2579
 8214SOL     OW36100   3.402   3.247  12.338  0.0989 -0.4145  0.2189
 8214SOL    HW136101   3.323   3.299  12.324  0.7025  0.3158 -0.4603
 8214SOL    HW236102   3.396   3.236  12.433  2.3674  2.3622  0.6672
 8215SOL     OW36103   1.480   0.933   0.139 -0.0948  0.1905  0.5137
 8215SOL    HW136104   1.417   0.976   0.196  1.7055  1.4927  1.5308
 8215SOL    HW236105   1.470   0.983   0.058  0.3886 -1.3962 -0.5191
 8216SOL     OW36106   2.151   1.559   2.280 -0.3950 -0.3140 -0.0294
 8216SOL    HW136107   2.135   1.472   2.245  0.5330  0.2363 -1.7882
 8216SOL    HW236108   2.069   1.608   2.276 -0.5648 -0.9129 -3.5579
 8217SOL     OW36109   3.507   4.363   6.509  0.2157 -0.3063 -0.1278
 8217SOL    HW136110   3.520   4.282   6.459 -0.5765  0.7994 -2.1092
 8217SOL    HW236111   3.540   4.319   6.588  0.0940  0.8228  0.5464
 8218SOL     OW36112   2.736   3.784   2.544  0.9020 -0.3969  0.1078
 8218SOL    HW136113   2.711   3.694   2.521 -2.5053  0.5752 -0.1069
 8218SOL    HW236114   2.810   3.796   2.485 -1.7188  0.3471 -3.0243
 8219SOL     OW36115   2.320   0.640  12.342  0.9452  0.2323 -0.2682
 8219SOL    HW136116   2.340   0.601  12.257  3.3330  1.3527 -0.2413
 8219SOL    HW236117   2.335   0.564  12.398  0.7785 -0.3819 -1.0763
 8220SOL     OW36118   2.485   3.813  12.346 -0.7430  0.4546  0.4363
 8220SOL    HW136119   2.538   3.878  12.300  0.8992 -0.8543  0.4834
 8220SOL    HW236120   2.547   3.768  12.403  0.3516  0.2200 -0.9249
 8221SOL     OW36121   0.341   2.575   1.929  0.0665  0.2697  0.1768
 8221SOL    HW136122   0.284   2.620   1.991 -0.6741  2.9130 -2.4554
 8221SOL    HW236123   0.281   2.513   1.888 -0.2260 -0.3762  1.5706
 8222SOL     OW36124   0.084   3.883   3.950 -0.0656  0.3665  0.5224
 8222SOL    HW136125   0.050   3.953   4.006 -0.5770  0.7150 -0.2366
 8222SOL    HW236126   0.105   3.932   3.871 -1.5026 -0.5283 -0.4100
 8223SOL     OW36127   3.912   3.816  12.289  0.0276  0.8709  0.0839
 8223SOL    HW136128   3.939   3.724  12.284 -1.5412  0.6423 -3.4827
 8223SOL    HW236129   3.901   3.826  12.384  1.9662  0.1760  0.3870
 8224SOL     OW36130   4.310   2.846   4.284  0.5473  0.1550 -0.3568
 8224SOL    HW136131   4.341   2.930   4.316 -1.5189  1.1723 -0.9977
 8224SOL    HW236132   4.217   2.850   4.305  1.0074  1.0421  1.5080
 8225SOL     OW36133   2.065   2.883   4.671 -0.0017  0.1573  0.1165
 8225SOL    HW136134   2.019   2.907   4.751  0.7191  1.4564  0.1362
 8225SOL    HW236135   2.141   2.941   4.677  1.7223 -2.0594 -0.6125
 8226SOL     OW36136   3.264   1.890   6.211 -0.0917 -0.0728 -0.1050
 8226SOL    HW136137   3.326   1.955   6.245 -0.2984 -0.0552  0.2416
 8226SOL    HW236138   3.185   1.943   6.197 -0.5624 -1.1515 -1.5269
 8227SOL     OW36139   0.902   0.520   8.784  0.2463 -0.8297  0.2960
 8227SOL    HW136140   0.924   0.604   8.825  0.2749 -1.7529  2.1763
 8227SOL    HW236141   0.822   0.531   8.733 -0.1262 -0.8888  0.8681
 8228SOL     OW36142   3.663   1.270   5.681  0.0332 -0.3297 -0.7283
 8228SOL    HW136143   3.615   1.279   5.599 -1.7583 -1.1009  0.2309
 8228SOL    HW236144   3.601   1.234   5.744  0.9422 -0.7817 -0.0935
 8229SOL     OW36145   2.773   1.517   1.861  0.1706 -0.2285  0.1434
 8229SOL    HW136146   2.735   1.605   1.857 -0.6581 -0.6263 -0.4747
 8229SOL    HW236147   2.865   1.526   1.834  1.1000  1.1153  3.7348
 8230SOL     OW36148   3.083   2.628  14.784  0.1434  0.0954  0.8154
 8230SOL    HW136149   3.109   2.598  14.697 -1.8364 -0.5022  0.4177
 8230SOL    HW236150   3.137   2.705  14.800 -0.7340  1.0469 -0.7135
 8231SOL     OW36151   3.341   2.660   2.067 -0.9232  0.0755 -0.4069
 8231SOL    HW136152   3.338   2.717   1.990  2.3401  0.7509 -0.0213
 8231SOL    HW236153   3.247   2.642   2.066 -1.3172  2.1420 -0.4785
 8232SOL     OW36154   2.132   2.274   8.766  0.4344 -0.3853 -0.2131
 8232SOL    HW136155   2.121   2.303   8.856 -1.2763  0.4559 -0.7051
 8232SOL    HW236156   2.157   2.357   8.726  1.7792 -0.6020  0.1714
 8233SOL     OW36157   2.553   2.474   2.066 -0.0094  0.6807 -0.3444
 8233SOL    HW136158   2.467   2.431   2.064  0.1329  0.5268 -2.7300
 8233SOL    HW236159   2.538   2.569   2.070 -3.0870  0.2447 -0.9796
 8234SOL     OW36160   4.029   1.605   4.459  0.2394 -0.1331  0.0422
 8234SOL    HW136161   4.037   1.555   4.540 -0.9642  0.6573  0.6530
 8234SOL    HW236162   4.098   1.566   4.405  1.7055  2.8648 -0.2781
 8235SOL     OW36163   0.501   2.912   6.725  0.0690  0.1445 -0.1953
 8235SOL    HW136164   0.503   2.844   6.657 -1.4461 -0.0818 -0.0001
 8235SOL    HW236165   0.444   2.979   6.687 -0.9255  1.1652  3.1249
 8236SOL     OW36166   3.984   4.683  17.425  0.3026 -0.2147  0.3505
 8236SOL    HW136167   3.897   4.657  17.455  0.8722 -2.8115 -0.3054
 8236SOL    HW236168   4.028   4.677  17.510  0.5259 -1.3949  0.1460
 8237SOL     OW36169   3.345   1.984   8.631  0.4751  0.5863  0.0187
 8237SOL    HW136170   3.348   2.029   8.715 -1.3600 -1.3296  1.1180
 8237SOL    HW236171   3.392   2.044   8.573  1.4648  0.0232  0.2360
 8238SOL     OW36172   3.234   0.114  11.595  0.7183 -0.2117  0.8288
 8238SOL    HW136173   3.144   0.113  11.564  1.6834  2.2358 -2.0925
 8238SOL    HW236174   3.256   0.174  11.524  1.1766 -1.4408 -0.0671
 8239SOL     OW36175   2.906   1.819   4.673  0.4729  0.2390  0.4041
 8239SOL    HW136176   2.892   1.811   4.578  0.7779 -0.9687  0.4608
 8239SOL    HW236177   2.865   1.901   4.698 -1.1272 -0.0632 -1.2473
 8240SOL     OW36178   3.596   0.722   2.612 -0.0569  0.0004 -0.1719
 8240SOL    HW136179   3.676   0.737   2.662 -1.3861 -0.9662  2.2632
 8240SOL    HW236180   3.560   0.811   2.608 -0.0079  0.0561  0.5395
 8241SOL     OW36181   0.478   0.883   0.743  0.1394  0.0242  0.3465
 8241SOL    HW136182   0.420   0.851   0.674 -0.6133  1.9498  0.0918
 8241SOL    HW236183   0.553   0.923   0.698 -0.5482  0.3761 -0.4760
 8242SOL     OW36184   3.448   3.667   4.493 -0.6381 -0.2020  0.0773
 8242SOL    HW136185   3.465   3.632   4.405  2.1696 -2.8643  1.6843
 8242SOL    HW236186   3.364   3.627   4.515  0.0714 -1.5611  0.3171
 8243SOL     OW36187   2.928   4.028   5.212 -0.3079  0.1523 -0.7241
 8243SOL    HW136188   2.971   4.098   5.164  0.7104 -0.6647 -0.9974
 8243SOL    HW236189   2.867   3.994   5.148 -1.4566  1.0814 -0.1157
 8244SOL     OW36190   1.013   3.656   8.258 -0.2505 -0.0628  0.2442
 8244SOL    HW136191   1.036   3.572   8.298 -1.8450 -1.2309 -1.2985
 8244SOL    HW236192   1.035   3.623   8.171  2.6063  1.0349  0.5400
 8245SOL     OW36193   4.370   3.071   0.850  0.1007 -0.0033  0.0093
 8245SOL    HW136194   4.434   3.014   0.891  0.9602  0.9084 -0.0739
 8245SOL    HW236195   4.426   3.133   0.804 -0.4698 -1.0088 -2.0356
 8246SOL     OW36196   1.499   2.631   5.765  0.4768  0.3318  0.0623
 8246SOL    HW136197   1.495   2.608   5.673 -0.1889  1.4623 -0.2028
 8246SOL    HW236198   1.424   2.691   5.763  0.3784  0.2187  0.4102
 8247SOL     OW36199   0.407   0.050   1.319  0.0255 -0.2022  0.4546
 8247SOL    HW136200   0.436   0.062   1.229 -2.5914  0.6222 -0.2848
 8247SOL    HW236201   0.312   0.045   1.308 -0.0791  3.6591 -0.1024
 8248SOL     OW36202   2.138   4.605   5.999  0.4729 -0.0206 -0.1648
 8248SOL    HW136203   2.132   4.561   6.084  0.2486 -0.5235 -0.4471
 8248SOL    HW236204   2.055   4.586   5.956 -0.2332  2.1436  0.2113
 8249SOL     OW36205   2.589   2.119   3.596 -0.1322  0.3288  0.4355
 8249SOL    HW136206   2.495   2.103   3.602 -0.5808  2.8905  0.3186
 8249SOL    HW236207   2.590   2.140   3.502  0.1660  0.1184  0.3938
 8250SOL     OW36208   2.926   1.231   7.121  0.4498 -0.5315 -0.0044
 8250SOL    HW136209   2.997   1.295   7.114 -0.8831  0.7616 -1.6577
 8250SOL    HW236210   2.857   1.272   7.069  2.0910  2.9605  0.5943
 8251SOL     OW36211   2.461   2.207   5.112 -0.1269  0.1312  0.4426
 8251SOL    HW136212   2.478   2.259   5.191 -0.7794  0.0839  0.6159
 8251SOL    HW236213   2.553   2.215   5.086 -0.3039  0.5594 -0.0388
 8252SOL     OW36214   2.884   4.544   9.058 -0.2313  0.5792 -0.4730
 8252SOL    HW136215   2.976   4.571   9.049 -0.4930  0.5610 -3.2460
 8252SOL    HW236216   2.900   4.468   9.113 -1.8418  0.4730 -0.1515
 8253SOL     OW36217   4.292   1.372   2.833 -0.0870 -0.1682 -0.1200
 8253SOL    HW136218   4.279   1.384   2.739 -2.3706 -0.5130  0.1736
 8253SOL    HW236219   4.202   1.376   2.863  0.4739 -1.4075  1.6997
 8254SOL     OW36220   2.422   1.702  14.815  0.0237  0.0643 -0.3505
 8254SOL    HW136221   2.507   1.747  14.820 -0.4186  0.8109  0.5199
 8254SOL    HW236222   2.396   1.712  14.723 -1.4790 -0.9257 -0.0235
 8255SOL     OW36223   3.094   1.280  12.059 -0.8951  0.4762 -0.1361
 8255SOL    HW136224   3.142   1.248  11.983  2.0760  3.1004  0.6632
 8255SOL    HW236225   3.143   1.359  12.078  0.1281  0.1460 -1.4104
 8256SOL     OW36226   0.206   4.531  13.430  0.0667 -0.1767 -0.3319
 8256SOL    HW136227   0.205   4.597  13.361  1.1065 -0.5410 -0.7116
 8256SOL    HW236228   0.237   4.585  13.502  0.7105 -0.4751 -0.3839
 8257SOL     OW36229   3.626   1.318   0.697  0.0566  0.5278 -0.2316
 8257SOL    HW136230   3.597   1.246   0.754 -1.3147  0.9693 -0.3603
 8257SOL    HW236231   3.706   1.348   0.740  0.2290  1.4103 -1.1733
 8258SOL     OW36232   0.577   2.135   8.634  0.0804  0.3326 -0.5418
 8258SOL    HW136233   0.668   2.120   8.660 -0.1999 -1.4255 -0.5624
 8258SOL    HW236234   0.533   2.094   8.709 -0.5225  1.7677 -0.1112
 8259SOL     OW36235   4.654   0.982   4.527 -0.1413  0.4385 -0.2541
 8259SOL    HW136236   4.562   1.003   4.510  0.0554  1.7635  0.3621
 8259SOL    HW236237   4.657   0.902   4.475  0.6660 -1.7624  3.1595
 8260SOL     OW36238   0.928   4.268   6.802 -0.0168  0.3577  0.2463
 8260SOL    HW136239   0.872   4.273   6.724 -1.6749  1.9970  1.5639
 8260SOL    HW236240   0.863   4.242   6.867  0.4205 -2.8915 -0.5946
 8261SOL     OW36241   2.474   2.840   0.608 -0.2546  0.4989 -0.1708
 8261SOL    HW136242   2.557   2.885   0.623  0.2776  0.0413 -1.7664
 8261SOL    HW236243   2.438   2.813   0.692 -2.5040 -0.3433 -1.4074
 8262SOL     OW36244   3.831   1.087   4.973 -0.0258  0.2870 -0.2571
 8262SOL    HW136245   3.879   1.064   4.894  1.2720 -0.2996  0.6920
 8262SOL    HW236246   3.758   1.138   4.937 -1.2252 -2.0531 -1.1947
 8263SOL     OW36247   0.851   0.379  10.043  0.0675  0.3896  0.3655
 8263SOL    HW136248   0.758   0.355  10.036 -0.0913  0.5679  1.7880
 8263SOL    HW236249   0.852   0.455   9.985  1.3238 -0.1433 -0.3068
 8264SOL     OW36250   4.123   2.257   8.299  0.0249  0.5381 -1.0318
 8264SOL    HW136251   4.058   2.326   8.284 -1.4278 -1.3318 -3.3076
 8264SOL    HW236252   4.152   2.248   8.209  2.0171 -1.2393 -0.1871
 8265SOL     OW36253   0.324   3.808  14.137  1.2040 -0.1712 -0.0299
 8265SOL    HW136254   0.303   3.803  14.044  1.5469 -0.5246 -0.0866
 8265SOL    HW236255   0.247   3.846  14.180  1.2127 -0.7687  0.5108
 8266SOL     OW36256   2.608   1.426   6.730  0.1349  0.5083  0.1219
 8266SOL    HW136257   2.532   1.485   6.736 -1.2726 -1.3304  0.6102
 8266SOL    HW236258   2.599   1.404   6.638 -0.2103 -0.5848  0.4162
 8267SOL     OW36259   3.216   0.489  16.217 -0.5307 -0.1472 -0.1145
 8267SOL    HW136260   3.265   0.424  16.166  0.6641  1.2658 -0.7680
 8267SOL    HW236261   3.126   0.468  16.195  0.2034 -0.5784 -2.7018
 8268SOL     OW36262   4.146   3.655   9.085  0.3154 -0.5585  0.2950
 8268SOL    HW136263   4.198   3.592   9.134  0.9106  0.0351  0.4256
 8268SOL    HW236264   4.149   3.735   9.139  1.3442 -0.9312  0.7828
 8269SOL     OW36265   1.592   0.201   7.750 -0.1537  0.2207 -0.0664
 8269SOL    HW136266   1.539   0.247   7.814  1.3403  0.4528  1.0126
 8269SOL    HW236267   1.679   0.229   7.779  0.3058  0.3275 -1.5175
 8270SOL     OW36268   4.466   0.562   7.063 -0.3206  0.2665  0.3242
 8270SOL    HW136269   4.510   0.597   6.986 -1.3992 -0.6395 -0.7171
 8270SOL    HW236270   4.373   0.577   7.042  0.4780  2.5924 -1.5519
 8271SOL     OW36271   2.386   0.252   6.405 -0.3087 -0.1165  0.4332
 8271SOL    HW136272   2.351   0.341   6.405  0.7113  0.2781 -0.5020
 8271SOL    HW236273   2.476   0.277   6.387 -0.0858 -2.6023 -1.8750
 8272SOL     OW36274   2.328   0.544   7.919 -0.1134  0.0856  0.0550
 8272SOL    HW136275   2.243   0.530   7.962  0.2017 -2.0666 -0.0458
 8272SOL    HW236276   2.389   0.514   7.986 -0.2800 -0.5398 -0.0745
 8273SOL     OW36277   4.170   0.507   8.674  0.0303 -0.4334 -0.3445
 8273SOL    HW136278   4.162   0.411   8.679 -0.2869 -0.2626  2.1129
 8273SOL    HW236279   4.218   0.530   8.753 -2.5022 -0.9740  1.3506
 8274SOL     OW36280   2.442   4.325   8.939 -0.4743 -0.1960 -0.4934
 8274SOL    HW136281   2.535   4.337   8.918 -0.2706 -0.2767  0.3438
 8274SOL    HW236282   2.426   4.405   8.988  0.4318  0.6421 -1.5723
 8275SOL     OW36283   2.911   1.323   8.351  0.2776  0.1934  0.6596
 8275SOL    HW136284   2.857   1.245   8.365 -0.5280  0.5288 -0.6335
 8275SOL    HW236285   2.843   1.380   8.316  1.3217  2.0340  1.6366
 8276SOL     OW36286   0.390   3.898   6.062 -0.0948  0.2239 -0.5007
 8276SOL    HW136287   0.422   3.829   6.003  0.6642 -0.7280  1.0289
 8276SOL    HW236288   0.347   3.854   6.135 -0.3565  0.2520 -0.6390
 8277SOL     OW36289   2.494   0.764   3.939  0.2518 -0.0065 -0.0197
 8277SOL    HW136290   2.427   0.827   3.914 -1.5805 -1.4446  1.3663
 8277SOL    HW236291   2.430   0.695   3.956 -0.0953 -0.2427 -2.3218
 8278SOL     OW36292   2.025   4.416   9.702  0.0416 -0.3102 -0.1375
 8278SOL    HW136293   1.970   4.344   9.734  0.5768 -0.9831 -0.7429
 8278SOL    HW236294   1.982   4.491   9.744  0.3815  0.4295 -1.0883
 8279SOL     OW36295   1.669   1.879   3.790  0.4134  0.0295  0.2218
 8279SOL    HW136296   1.697   1.945   3.726  2.1913  2.1680  3.2056
 8279SOL    HW236297   1.652   1.927   3.871  1.4484  1.1708 -0.2259
 8280SOL     OW36298   0.007   3.065   3.616 -0.1697 -0.0835  0.1570
 8280SOL    HW136299   0.003   3.035   3.707 -1.7510 -1.3367 -0.3241
 8280SOL    HW236300   4.667   3.132   3.625 -2.0046 -1.6285 -2.1722
 8281SOL     OW36301   1.249   2.546   8.139 -0.1179  0.1100 -0.1906
 8281SOL    HW136302   1.302   2.499   8.075  1.1151  0.8942  0.2469
 8281SOL    HW236303   1.244   2.485   8.213 -3.1530  0.2809 -0.2569
 8282SOL     OW36304   1.710   0.549   2.944 -0.0189 -0.2384 -0.4122
 8282SOL    HW136305   1.648   0.618   2.968  2.7198  1.3887  1.9581
 8282SOL    HW236306   1.699   0.501   3.026  0.1607 -1.8603 -1.3353
 8283SOL     OW36307   4.157   2.706  13.685  0.2180 -0.5861  0.9030
 8283SOL    HW136308   4.154   2.759  13.605 -0.0403 -3.7303 -1.2226
 8283SOL    HW236309   4.246   2.675  13.667  0.7431  1.2905  0.3222
 8284SOL     OW36310   4.199   2.408   5.917 -0.3619 -0.3374  0.2679
 8284SOL    HW136311   4.129   2.450   5.867  1.8443 -0.8654 -3.2645
 8284SOL    HW236312   4.153   2.408   6.001  1.9782 -2.4803  1.5233
 8285SOL     OW36313   4.514   0.104   7.022 -0.7901  0.2567  0.9081
 8285SOL    HW136314   4.460   0.148   6.956  0.6633  0.4113 -0.1797
 8285SOL    HW236315   4.526   0.180   7.078 -1.6359 -0.5798  2.2121
 8286SOL     OW36316   3.329   3.903   2.317  0.7190 -0.0497 -0.4143
 8286SOL    HW136317   3.409   3.915   2.266 -0.9213  0.9027 -2.7647
 8286SOL    HW236318   3.277   3.831   2.281 -1.5505  1.1313  0.5560
 8287SOL     OW36319   2.321   3.711  14.774 -0.1704 -0.3943  0.1480
 8287SOL    HW136320   2.229   3.695  14.753  0.1172 -1.0228 -0.5927
 8287SOL    HW236321   2.367   3.712  14.690 -0.6416 -0.0235 -0.1078
 8288SOL     OW36322   1.971   1.619  13.231 -0.1346  0.0722 -0.2857
 8288SOL    HW136323   1.962   1.601  13.138 -0.5527  2.0601 -0.6153
 8288SOL    HW236324   2.064   1.643  13.231  0.0919 -0.8262  3.2342
 8289SOL     OW36325   0.999   2.867   9.026 -0.1279 -0.0923  0.0128
 8289SOL    HW136326   0.906   2.888   9.023  0.0584  0.6378 -0.7514
 8289SOL    HW236327   1.026   2.891   8.937  1.7194  1.1127  0.9058
 8290SOL     OW36328   2.074   3.431   3.953 -0.3117  0.0814 -0.6193
 8290SOL    HW136329   2.143   3.489   3.984  0.4807 -1.0832 -0.1861
 8290SOL    HW236330   1.997   3.484   3.933 -1.3939 -0.9464  0.7892
 8291SOL     OW36331   3.917   2.708   5.220  0.2431  0.3505  0.5077
 8291SOL    HW136332   3.996   2.662   5.248 -0.3337 -0.8317  0.2025
 8291SOL    HW236333   3.864   2.643   5.173 -3.2701  1.4696  2.9572
 8292SOL     OW36334   0.967   3.280   2.871 -0.2915 -0.8372  0.2912
 8292SOL    HW136335   0.905   3.322   2.812  0.2230  0.9954  1.0603
 8292SOL    HW236336   0.970   3.331   2.952 -1.1626  1.3102 -1.0309
 8293SOL     OW36337   0.038   1.178   8.701 -0.6146 -0.2687  0.0525
 8293SOL    HW136338   4.688   1.224   8.667 -0.8766 -1.4245 -0.9225
 8293SOL    HW236339   0.035   1.091   8.661 -0.8669  0.0055 -0.5210
 8294SOL     OW36340   2.170   4.421   5.197 -0.7997 -0.6416  0.3255
 8294SOL    HW136341   2.097   4.484   5.194  0.0828  0.3887  0.3807
 8294SOL    HW236342   2.238   4.482   5.167 -1.6182  1.0878  1.9639
 8295SOL     OW36343   3.265   3.381   6.844 -0.4050 -0.4856  0.2342
 8295SOL    HW136344   3.291   3.469   6.871  1.1933 -0.3963 -1.5968
 8295SOL    HW236345   3.325   3.335   6.903 -1.4062  0.7196  2.1861
 8296SOL     OW36346   3.314   3.927  11.931  0.1384 -0.7479 -0.6601
 8296SOL    HW136347   3.319   3.889  11.844  0.8340 -2.6656  0.2218
 8296SOL    HW236348   3.221   3.950  11.934  0.2855 -0.1358 -0.6805
 8297SOL     OW36349   3.621   1.928  13.583  0.4364  0.5509 -0.5549
 8297SOL    HW136350   3.668   1.865  13.528  0.7605 -1.2116  1.7204
 8297SOL    HW236351   3.557   1.871  13.627  0.6229 -1.5731 -3.0389
 8298SOL     OW36352   2.862   4.277   6.584  0.1759 -0.3048 -0.5682
 8298SOL    HW136353   2.810   4.199   6.565 -0.1562 -0.0277 -0.7797
 8298SOL    HW236354   2.804   4.349   6.561  0.0120 -0.7629 -1.5826
 8299SOL     OW36355   1.976   0.823   4.306 -0.0524 -1.4968  0.0188
 8299SOL    HW136356   2.052   0.846   4.251 -1.7749 -0.9411 -2.1332
 8299SOL    HW236357   1.989   0.885   4.378  1.1352  0.2188 -1.6586
 8300SOL     OW36358   4.189   0.299  11.721 -0.7701  0.2968 -0.3477
 8300SOL    HW136359   4.140   0.336  11.794  2.2130 -0.6384  2.1121
 8300SOL    HW236360   4.274   0.292  11.764 -0.4918  0.7158 -0.8317
 8301SOL     OW36361   3.820   2.558   6.824  0.0670  0.1362 -0.3432
 8301SOL    HW136362   3.760   2.509   6.768  1.5567 -0.7895 -1.1070
 8301SOL    HW236363   3.903   2.539   6.781 -0.4597 -0.0027 -1.2752
 8302SOL     OW36364   1.517   2.985  11.741  0.5827  0.1561  0.0648
 8302SOL    HW136365   1.523   3.059  11.801 -0.4963  0.5126 -0.2703
 8302SOL    HW236366   1.457   2.926  11.786 -2.1843  0.4467 -3.1952
 8303SOL     OW36367   3.713   1.095  11.101 -0.8058  0.4854 -0.1458
 8303SOL    HW136368   3.681   1.066  11.186  0.4704  1.9517  0.8315
 8303SOL    HW236369   3.763   1.018  11.073  2.7842  3.2180 -1.2507
 8304SOL     OW36370   4.487   3.128   8.641  0.0793 -0.0985  0.7274
 8304SOL    HW136371   4.410   3.182   8.621  0.0731 -0.4501 -0.2219
 8304SOL    HW236372   4.552   3.198   8.642 -0.2681  0.2163  1.0974
 8305SOL     OW36373   3.622   1.189   7.554 -0.8179 -0.1765  0.7514
 8305SOL    HW136374   3.679   1.248   7.504  0.9441 -0.8254  2.0202
 8305SOL    HW236375   3.551   1.177   7.490  0.3355  0.1328 -0.5835
 8306SOL     OW36376   0.549   1.246   0.719 -0.2988  0.4633 -0.1216
 8306SOL    HW136377   0.532   1.174   0.657  0.1840 -0.2544  0.5756
 8306SOL    HW236378   0.549   1.324   0.664  2.5398  0.2268 -0.4621
 8307SOL     OW36379   0.674   0.469   4.203  0.1427 -0.7515 -0.4287
 8307SOL    HW136380   0.675   0.456   4.298 -1.9164 -3.8167 -0.8408
 8307SOL    HW236381   0.767   0.460   4.183  0.6445  0.2062  1.4541
 8308SOL     OW36382   0.331   1.288   9.585 -0.2642  0.1221  0.1779
 8308SOL    HW136383   0.318   1.310   9.493 -0.8295 -1.5697 -0.1607
 8308SOL    HW236384   0.421   1.315   9.604  0.0608 -0.2341 -0.8607
 8309SOL     OW36385   0.740   1.550   3.589  0.4325  0.5938  0.2652
 8309SOL    HW136386   0.661   1.571   3.540  1.6903  1.7825 -1.2428
 8309SOL    HW236387   0.803   1.604   3.541  1.0274 -1.7752 -1.6413
 8310SOL     OW36388   4.240   2.631   5.263 -0.5976 -0.2059  0.1933
 8310SOL    HW136389   4.243   2.681   5.344  2.1096  1.8244 -1.1702
 8310SOL    HW236390   4.274   2.553   5.307  0.8451  0.5615  0.4412
 8311SOL     OW36391   1.575   2.456   4.081 -0.2937  0.0380  0.4639
 8311SOL    HW136392   1.481   2.466   4.098 -0.6104 -0.6114 -0.8920
 8311SOL    HW236393   1.586   2.392   4.151  2.6867  1.0603  0.9192
 8312SOL     OW36394   1.151   0.925   8.973  0.4119 -0.0584 -0.0410
 8312SOL    HW136395   1.067   0.943   9.015 -0.8370 -0.5687 -2.2873
 8312SOL    HW236396   1.188   1.013   8.967 -0.9343  0.6083  1.4222
 8313SOL     OW36397   3.890   0.492   0.607  0.1498  0.4156 -0.4809
 8313SOL    HW136398   3.802   0.454   0.600 -0.4162  1.2448  2.1973
 8313SOL    HW236399   3.868   0.585   0.615 -0.7061  0.0442  1.5492
 8314SOL     OW36400   4.399   2.227   7.763  0.0557 -0.1192  0.3156
 8314SOL    HW136401   4.454   2.174   7.821  1.2719 -0.6334 -1.2992
 8314SOL    HW236402   4.319   2.229   7.817  0.5562 -1.8728  1.1126
 8315SOL     OW36403   3.190   0.341   6.799  0.1587 -0.6062 -0.5005
 8315SOL    HW136404   3.131   0.350   6.874 -0.7062 -4.4120 -0.7221
 8315SOL    HW236405   3.202   0.431   6.770 -0.1224  0.2338  2.0050
 8316SOL     OW36406   2.052   0.051   4.383 -0.5778  0.3077  0.8694
 8316SOL    HW136407   1.981   0.101   4.344  1.7391  0.4519 -3.0840
 8316SOL    HW236408   2.115   0.040   4.311 -0.6713 -0.4182  0.8914
 8317SOL     OW36409   3.616   2.011   7.709  0.0797 -0.5472 -0.4372
 8317SOL    HW136410   3.617   1.935   7.767 -3.2562  0.1272  0.5274
 8317SOL    HW236411   3.660   2.080   7.759 -0.4600 -3.9537  4.7671
 8318SOL     OW36412   0.136   3.631  11.620 -0.0588 -0.3781 -0.7078
 8318SOL    HW136413   0.179   3.616  11.536 -0.2306  0.5084 -0.9529
 8318SOL    HW236414   0.132   3.542  11.656  3.0723 -0.3829 -0.3067
 8319SOL     OW36415   2.358   1.333   7.552 -0.1276  0.3678 -0.2238
 8319SOL    HW136416   2.325   1.255   7.507  1.9441  0.4590 -1.9248
 8319SOL    HW236417   2.450   1.320   7.531  0.2920  1.3874  1.0380
 8320SOL     OW36418   3.471   0.193  14.382 -0.3377 -0.1707  0.4793
 8320SOL    HW136419   3.424   0.127  14.331  1.2611  0.6079 -1.9989
 8320SOL    HW236420   3.552   0.209  14.335 -0.5308 -1.5643 -0.3108
 8321SOL     OW36421   0.755   2.383  17.004 -0.2570 -0.9920  0.1121
 8321SOL    HW136422   0.724   2.409  17.091 -0.3152  3.1090 -1.1324
 8321SOL    HW236423   0.790   2.467  16.973 -0.4605 -0.4132  1.4280
 8322SOL     OW36424   3.681   3.993   1.405 -0.0660  0.1640  0.2074
 8322SOL    HW136425   3.653   4.081   1.430  0.2908 -0.3105  2.2270
 8322SOL    HW236426   3.618   3.970   1.337 -1.1867 -1.4456  1.7858
 8323SOL     OW36427   4.499   0.794  14.994 -0.3435  0.3039 -0.6618
 8323SOL    HW136428   4.571   0.856  15.007 -1.6870  2.2644 -2.4790
 8323SOL    HW236429   4.541   0.708  14.998  1.0598  1.0542  0.7199
 8324SOL     OW36430   1.602   0.091   7.091  0.7263  0.3794  0.2636
 8324SOL    HW136431   1.591   0.139   7.009  3.0851 -0.4016 -0.5154
 8324SOL    HW236432   1.649   0.014   7.058  0.7575 -0.1866  1.6280
 8325SOL     OW36433   1.485   1.452   9.868 -0.2351 -0.1652 -0.3269
 8325SOL    HW136434   1.405   1.404   9.886  0.6829 -2.3928 -2.2494
 8325SOL    HW236435   1.554   1.392   9.895 -0.4494 -0.4569 -0.4351
 8326SOL     OW36436   1.048   1.385   8.230  0.4405 -0.1617  0.1329
 8326SOL    HW136437   1.133   1.396   8.187  0.0991  0.6963 -0.3232
 8326SOL    HW236438   1.016   1.305   8.189  0.7031  1.7120 -3.6737
 8327SOL     OW36439   0.163   4.423   5.263  0.6336  0.4829  0.1197
 8327SOL    HW136440   0.071   4.444   5.277 -0.1888 -1.8392 -1.9848
 8327SOL    HW236441   0.175   4.420   5.358  1.2622 -1.1845 -0.0083
 8328SOL     OW36442   3.159   3.170   3.654 -0.3161  0.2330 -0.4876
 8328SOL    HW136443   3.249   3.149   3.626  0.1820 -0.9562  2.0166
 8328SOL    HW236444   3.169   3.189   3.747  1.0436 -3.1152  0.0688
 8329SOL     OW36445   4.610   1.015   3.158 -0.6693  0.0363 -0.4773
 8329SOL    HW136446   4.562   1.006   3.076  1.5049  0.7932 -1.8468
 8329SOL    HW236447   4.546   0.998   3.226 -1.6396  0.5250 -1.2701
 8330SOL     OW36448   3.993   1.563   8.953  0.3226  0.6563 -0.5759
 8330SOL    HW136449   3.915   1.544   8.901 -0.8162  1.8813  0.6691
 8330SOL    HW236450   4.016   1.650   8.920  0.7156  0.3225 -1.1659
 8331SOL     OW36451   3.455   2.467  13.338  0.6444  0.6269  0.6800
 8331SOL    HW136452   3.457   2.378  13.373 -0.8906  0.7809  1.1304
 8331SOL    HW236453   3.444   2.452  13.244  3.1365 -0.4202  0.5460
 8332SOL     OW36454   0.234   2.132   7.447 -0.2318  0.8030 -0.5186
 8332SOL    HW136455   0.277   2.046   7.449 -2.2188 -0.2355 -1.5827
 8332SOL    HW236456   0.144   2.099   7.454  0.8637 -1.5271  2.7835
 8333SOL     OW36457   0.620   0.254  11.359 -0.3159  0.0672 -0.5876
 8333SOL    HW136458   0.585   0.182  11.411  1.2217 -0.2239  0.0196
 8333SOL    HW236459   0.712   0.245  11.382  0.1605  2.9362 -1.4574
 8334SOL     OW36460   0.496   1.566   8.900 -0.1851 -0.1108 -0.1831
 8334SOL    HW136461   0.548   1.553   8.979 -0.2086 -2.0026 -0.4850
 8334SOL    HW236462   0.412   1.524   8.919 -0.2491  0.5490  0.9752
 8335SOL     OW36463   3.568   4.141   6.365 -0.0984  0.0837 -0.2418
 8335SOL    HW136464   3.499   4.079   6.342 -0.0469  0.0335 -0.2621
 8335SOL    HW236465   3.616   4.163   6.285  0.5347  0.5721  0.2787
 8336SOL     OW36466   3.598   3.625   7.033 -0.1832  0.5850 -0.1307
 8336SOL    HW136467   3.560   3.628   7.121 -0.4545  1.1365 -0.2683
 8336SOL    HW236468   3.676   3.573   7.052 -2.4969 -2.3489  1.3628
 8337SOL     OW36469   3.677   3.692   8.913  0.0447 -0.1349  1.1967
 8337SOL    HW136470   3.606   3.751   8.938 -0.3156  0.7741 -2.0199
 8337SOL    HW236471   3.715   3.665   8.997  1.1288  0.0520  0.7612
 8338SOL     OW36472   1.876   1.213   3.144  0.7122  0.2425  0.3477
 8338SOL    HW136473   1.921   1.285   3.189  0.8989 -0.4479  1.2532
 8338SOL    HW236474   1.840   1.159   3.214 -0.6145 -2.0975 -2.1485
 8339SOL     OW36475   1.960   1.273   4.178 -0.0965 -0.1761  0.0496
 8339SOL    HW136476   1.888   1.213   4.165  0.3046 -0.5099 -0.6794
 8339SOL    HW236477   1.924   1.352   4.137 -2.1251 -1.1278  0.0280
 8340SOL     OW36478   1.489   4.347  13.266  0.0784 -0.9741 -0.1988
 8340SOL    HW136479   1.567   4.390  13.232 -0.1875 -0.2565  0.0943
 8340SOL    HW236480   1.517   4.325  13.354  1.1796  2.0568  0.1899
 8341SOL     OW36481   0.662   2.744   6.296 -0.0024 -0.0585 -0.0319
 8341SOL    HW136482   0.600   2.815   6.313 -0.0008 -0.1345  0.2889
 8341SOL    HW236483   0.633   2.677   6.358  1.2232 -1.5644 -1.0948
 8342SOL     OW36484   1.481   1.277   7.626  0.7057 -0.3986  0.1885
 8342SOL    HW136485   1.576   1.264   7.618  0.2655 -1.7977 -2.6844
 8342SOL    HW236486   1.479   1.319   7.712 -0.4185  0.8722 -0.4638
 8343SOL     OW36487   0.936   1.856   5.619 -0.2467  0.2399  0.2999
 8343SOL    HW136488   1.028   1.844   5.645 -0.1297  0.1515 -0.1550
 8343SOL    HW236489   0.909   1.928   5.676 -1.0267  0.1268  0.0718
 8344SOL     OW36490   2.523   3.462   7.427  0.7496 -0.1897  0.8529
 8344SOL    HW136491   2.599   3.506   7.465  0.2362 -0.7201  2.5054
 8344SOL    HW236492   2.468   3.453   7.505  0.9171 -1.9712  0.7632
 8345SOL     OW36493   4.651   3.943   1.397 -0.2558 -0.2014  0.8564
 8345SOL    HW136494   4.567   3.932   1.441 -1.0392 -0.3245 -0.6667
 8345SOL    HW236495   4.722   3.931   1.461  0.5722 -1.3917 -0.2709
 8346SOL     OW36496   2.221   1.498   7.771 -0.1864 -0.0486 -0.2485
 8346SOL    HW136497   2.250   1.439   7.702 -1.0030  1.4758 -1.8983
 8346SOL    HW236498   2.286   1.484   7.840 -0.6233  1.3494  0.4468
 8347SOL     OW36499   1.908   3.191  13.425 -0.0224 -0.2617 -0.2452
 8347SOL    HW136500   1.813   3.191  13.417 -0.1587  0.7410  1.2744
 8347SOL    HW236501   1.921   3.283  13.447 -0.6924  0.2828 -2.1534
 8348SOL     OW36502   0.619   4.705   3.972  0.2670  0.0607 -0.5426
 8348SOL    HW136503   0.633   4.642   4.043 -0.1038  0.8273  0.2098
 8348SOL    HW236504   0.628   0.064   4.012  1.0501  0.8634 -2.4980
 8349SOL     OW36505   0.284   1.701  11.580 -0.6236  0.5222 -0.5862
 8349SOL    HW136506   0.199   1.744  11.590 -0.7894 -0.0220  0.2923
 8349SOL    HW236507   0.337   1.750  11.642 -0.6743  2.5905 -2.1491
 8350SOL     OW36508   4.597   2.978   7.402  0.6841 -0.8394 -0.7670
 8350SOL    HW136509   4.590   3.013   7.314 -1.4513  0.4852 -0.0939
 8350SOL    HW236510   4.685   2.941   7.405  0.1040 -2.2928 -1.7099
 8351SOL     OW36511   4.521   3.400  14.689 -0.3174  0.0433 -0.0293
 8351SOL    HW136512   4.575   3.472  14.658  0.0807 -1.3828 -2.7028
 8351SOL    HW236513   4.574   3.320  14.693  0.2348  0.4982  1.5661
 8352SOL     OW36514   4.404   0.798   4.744  0.3477 -0.5627 -0.6418
 8352SOL    HW136515   4.339   0.774   4.677  0.2515 -1.3560 -0.2607
 8352SOL    HW236516   4.382   0.880   4.788  0.3041 -1.1606  0.4565
 8353SOL     OW36517   2.328   1.577  13.474 -0.2320  0.1564 -0.7002
 8353SOL    HW136518   2.274   1.622  13.539  2.8386  0.9391  1.2712
 8353SOL    HW236519   2.414   1.603  13.505 -0.5136  1.5272 -1.0664
 8354SOL     OW36520   2.724   2.271  15.281  0.1414 -0.1672  0.5441
 8354SOL    HW136521   2.646   2.313  15.245  0.8106  0.5830 -0.0264
 8354SOL    HW236522   2.751   2.212  15.211 -0.4064 -0.1558  0.3210
 8355SOL     OW36523   2.194   1.994   1.694  0.3184  0.1798 -0.3074
 8355SOL    HW136524   2.107   2.029   1.676  0.9557  1.4994 -0.8310
 8355SOL    HW236525   2.243   2.069   1.728 -1.3026 -0.4494  3.4704
 8356SOL     OW36526   2.188   0.116   0.041 -0.1548 -0.2233 -1.0131
 8356SOL    HW136527   2.281   0.116   0.019 -0.4716  1.5358 -2.3796
 8356SOL    HW236528   2.159   0.041  17.700 -0.0336 -1.1572  0.2832
 8357SOL     OW36529   1.897   0.004  10.665  0.2835  1.0410  0.1080
 8357SOL    HW136530   1.882   0.003  10.570  1.5627  2.2910 -0.1068
 8357SOL    HW236531   1.806   0.011  10.695  0.0773 -3.1971  0.4217
 8358SOL     OW36532   0.775   4.509   2.435 -0.3801 -0.1117  0.1124
 8358SOL    HW136533   0.866   4.491   2.411  0.2163  0.9640  1.5721
 8358SOL    HW236534   0.773   4.604   2.421  4.1456 -0.1331 -0.5630
 8359SOL     OW36535   2.118   2.899   6.196 -0.0523 -0.2035 -0.0471
 8359SOL    HW136536   2.036   2.935   6.229  0.7707  0.5519  1.1481
 8359SOL    HW236537   2.136   2.836   6.266 -1.7214 -1.1289 -0.4414
 8360SOL     OW36538   1.991   3.551   9.095 -0.4024  0.2020 -0.5554
 8360SOL    HW136539   1.920   3.507   9.141 -0.1179  0.2568 -0.0658
 8360SOL    HW236540   1.932   3.608   9.045 -0.2883 -0.2535 -1.2071
 8361SOL     OW36541   1.172   3.533   3.635 -0.2286  0.8327 -0.3124
 8361SOL    HW136542   1.121   3.452   3.637  1.6320 -0.3728 -1.3037
 8361SOL    HW236543   1.185   3.552   3.728 -1.3517  0.3424 -0.0606
 8362SOL     OW36544   2.946   3.389   5.186 -0.2478  0.6548 -0.2950
 8362SOL    HW136545   2.883   3.377   5.257  1.2275  0.3078  0.9751
 8362SOL    HW236546   3.017   3.425   5.241 -2.5649  1.8935  1.9206
 8363SOL     OW36547   3.446   1.715  16.473 -0.7916 -0.7443 -0.0241
 8363SOL    HW136548   3.499   1.670  16.539  0.9152 -0.4508 -1.1980
 8363SOL    HW236549   3.388   1.765  16.530  1.9941  0.7926  1.4917
 8364SOL     OW36550   1.032   0.760   0.373  0.3820  0.0773  0.0620
 8364SOL    HW136551   0.957   0.706   0.349  0.0194  0.7525 -0.3238
 8364SOL    HW236552   1.010   0.828   0.309  0.7129 -0.1841 -0.3360
 8365SOL     OW36553   1.020   0.832   5.054 -0.1969  0.4474  0.1109
 8365SOL    HW136554   1.086   0.766   5.035  1.0464  1.9755 -0.9076
 8365SOL    HW236555   0.980   0.838   4.967  0.1773  1.6741  0.0160
 8366SOL     OW36556   1.026   0.146  13.297  0.1642 -0.0129 -0.0886
 8366SOL    HW136557   0.947   0.193  13.270 -0.5414 -2.6159 -2.6041
 8366SOL    HW236558   1.025   0.177  13.387 -2.5811 -1.8884  0.5346
 8367SOL     OW36559   3.979   2.775   6.358 -0.3094  0.3597 -0.1367
 8367SOL    HW136560   3.900   2.791   6.409 -0.8422  0.3719 -0.9711
 8367SOL    HW236561   4.054   2.811   6.406 -0.3486 -2.1709  1.8654
 8368SOL     OW36562   2.833   4.559  12.525 -0.0961 -0.5506  0.0329
 8368SOL    HW136563   2.806   4.644  12.560 -1.3595 -1.1064  0.4324
 8368SOL    HW236564   2.927   4.563  12.539 -0.3622 -1.4762  2.0193
 8369SOL     OW36565   2.676   0.700  17.428  0.2734  0.0858  0.0437
 8369SOL    HW136566   2.598   0.748  17.399  2.4901  2.0891 -2.5316
 8369SOL    HW236567   2.630   0.632  17.478  0.7367  0.0426  0.4029
 8370SOL     OW36568   3.071   1.388  16.677 -0.2048 -0.8407 -0.4360
 8370SOL    HW136569   2.980   1.419  16.680  0.8348  2.2068 -0.7265
 8370SOL    HW236570   3.114   1.454  16.731  0.9694 -0.8926 -1.2911
 8371SOL     OW36571   0.837   0.620  15.945  0.0484 -0.1696 -0.1485
 8371SOL    HW136572   0.870   0.700  15.986 -1.7243  0.4970 -0.0120
 8371SOL    HW236573   0.862   0.619  15.853  0.6897 -1.6659  0.0484
 8372SOL     OW36574   1.981   2.092   9.930 -0.5335 -0.0719 -0.0948
 8372SOL    HW136575   2.022   2.075  10.014 -1.1930 -2.7324 -0.3012
 8372SOL    HW236576   1.989   2.187   9.924  0.2692 -0.1799 -0.7324
 8373SOL     OW36577   2.490   2.383   2.944  0.1581 -0.1499  0.6390
 8373SOL    HW136578   2.542   2.321   2.995 -0.0327  0.1730  1.2228
 8373SOL    HW236579   2.543   2.463   2.942  0.9267 -0.7107 -1.6306
 8374SOL     OW36580   4.466   3.621   6.184 -0.6501 -0.0333  0.0680
 8374SOL    HW136581   4.391   3.622   6.244 -0.4154 -2.3918  0.3821
 8374SOL    HW236582   4.538   3.629   6.246 -0.5873  1.2320 -0.1577
 8375SOL     OW36583   0.985   2.691  10.843  0.5200  0.4876 -1.3045
 8375SOL    HW136584   0.912   2.641  10.880  0.9484 -1.4706 -3.0564
 8375SOL    HW236585   1.047   2.632  10.886 -1.3632  0.6213  1.5946
 8376SOL     OW36586   0.654   2.955  17.381  0.0711 -0.1519 -0.0030
 8376SOL    HW136587   0.730   2.999  17.420  0.7786  0.8509 -2.5032
 8376SOL    HW236588   0.607   2.952  17.464  0.5609  1.9171  0.3440
 8377SOL     OW36589   4.159   2.367  11.732 -0.4583  0.3255  0.3026
 8377SOL    HW136590   4.129   2.458  11.730 -0.2769  0.3539 -1.5038
 8377SOL    HW236591   4.254   2.376  11.725 -0.5131  0.7935  0.1125
 8378SOL     OW36592   2.931   1.624  17.463  0.4215  0.1724 -0.3058
 8378SOL    HW136593   2.845   1.583  17.477 -0.2871  1.9057  0.4144
 8378SOL    HW236594   2.925   1.686  17.535  1.1928 -0.1920  0.0624
 8379SOL     OW36595   3.902   2.166   9.078 -0.0005  0.2849  0.3238
 8379SOL    HW136596   3.968   2.216   9.125  0.1055 -0.5014  1.0001
 8379SOL    HW236597   3.879   2.105   9.147  1.8841 -1.5299 -0.6499
 8380SOL     OW36598   1.614   3.746   4.974 -0.2258  0.2468  0.1729
 8380SOL    HW136599   1.541   3.793   4.934  0.7383 -1.1964 -3.2356
 8380SOL    HW236600   1.575   3.711   5.055 -3.5986 -1.2905 -2.1007
 8381SOL     OW36601   4.535   0.305   3.131 -0.2141 -0.2468 -0.4606
 8381SOL    HW136602   4.456   0.279   3.084 -0.5532 -1.2542  0.6832
 8381SOL    HW236603   4.519   0.263   3.216  1.4041 -1.8953 -0.9560
 8382SOL     OW36604   2.698   0.988   2.949  0.1117 -0.0756  0.1919
 8382SOL    HW136605   2.766   0.923   2.969  1.6630  1.3108 -0.5574
 8382SOL    HW236606   2.711   1.066   3.003 -1.2177  0.0049  0.3973
 8383SOL     OW36607   3.071   0.211   1.733 -0.2453 -0.1496 -0.1430
 8383SOL    HW136608   3.121   0.235   1.655  0.3476 -1.0709 -0.0437
 8383SOL    HW236609   2.989   0.260   1.728 -1.0928 -1.8440 -2.6432
 8384SOL     OW36610   2.181   1.550   0.922 -0.2175 -0.1161 -0.0658
 8384SOL    HW136611   2.107   1.545   0.983  0.7800  1.0283  1.1927
 8384SOL    HW236612   2.205   1.640   0.942 -0.9516 -0.0910  0.7337
 8385SOL     OW36613   1.883   1.846   6.498  0.3879 -0.1367  0.2020
 8385SOL    HW136614   1.910   1.790   6.425  2.1040  1.2936 -0.2908
 8385SOL    HW236615   1.834   1.789   6.557 -2.8468  0.6119 -1.7635
 8386SOL     OW36616   4.679   2.364   8.197  0.1823 -0.1443 -0.2884
 8386SOL    HW136617   4.610   2.303   8.173  0.7030 -0.8547  0.0284
 8386SOL    HW236618   0.031   2.311   8.191  0.7382  0.7593 -0.9840
 8387SOL     OW36619   0.313   3.432  13.208 -0.5036 -0.1242 -0.2156
 8387SOL    HW136620   0.361   3.440  13.126  0.7105 -1.4268  0.3648
 8387SOL    HW236621   0.259   3.511  13.212  1.0107  0.8501  1.4765
 8388SOL     OW36622   1.403   2.556  12.831  0.0944  0.1275  0.1462
 8388SOL    HW136623   1.494   2.549  12.800 -0.0734 -1.2048 -0.0493
 8388SOL    HW236624   1.362   2.606  12.760  0.9235 -0.5369 -0.8140
 8389SOL     OW36625   2.763   0.681   8.051  0.5107 -0.4387  0.7230
 8389SOL    HW136626   2.672   0.652   8.050 -0.0536  1.4043 -1.0148
 8389SOL    HW236627   2.783   0.599   8.005 -0.0246 -0.9980  1.5031
 8390SOL     OW36628   3.600   0.498   8.044 -0.7206  0.6376  0.2394
 8390SOL    HW136629   3.573   0.588   8.066 -1.5377  1.0280 -2.3371
 8390SOL    HW236630   3.514   0.464   8.017  0.2833 -1.8407  0.2012
 8391SOL     OW36631   2.884   3.722   0.081  0.2280  0.2959 -0.5215
 8391SOL    HW136632   2.953   3.711   0.147 -2.3455  1.2517  2.2922
 8391SOL    HW236633   2.922   3.659   0.019  1.1238 -1.0373  1.3956
 8392SOL     OW36634   0.297   1.420  14.320  0.5428 -0.1343  0.0969
 8392SOL    HW136635   0.360   1.356  14.285  0.6254  0.4613 -0.8399
 8392SOL    HW236636   0.232   1.365  14.363 -0.8663  1.6371  0.2062
 8393SOL     OW36637   4.040   2.350   2.616 -0.3631 -0.6521 -0.3250
 8393SOL    HW136638   4.090   2.430   2.602  1.1979 -0.8941  3.9184
 8393SOL    HW236639   3.984   2.387   2.684 -0.4027  1.5452 -1.5465
 8394SOL     OW36640   3.238   3.045  10.869 -0.2600  0.1446 -0.0191
 8394SOL    HW136641   3.300   2.988  10.914  0.9037  2.0000  0.7296
 8394SOL    HW236642   3.195   3.004  10.794 -0.9090  0.6391  0.0797
 8395SOL     OW36643   3.299   2.157  16.635 -0.1437 -0.3836  0.3044
 8395SOL    HW136644   3.227   2.219  16.623 -0.9217 -0.8898  2.5204
 8395SOL    HW236645   3.315   2.159  16.729  0.5592  2.6446  0.1313
 8396SOL     OW36646   2.503   0.800  13.437 -0.1772 -0.2294 -0.3074
 8396SOL    HW136647   2.522   0.754  13.355 -1.3934 -0.2387 -0.5879
 8396SOL    HW236648   2.552   0.880  13.422  1.1424 -1.0737 -0.5279
 8397SOL     OW36649   3.558   0.157   5.313  0.2280 -0.1493  0.7065
 8397SOL    HW136650   3.593   0.145   5.225  2.7066  2.5815  1.3035
 8397SOL    HW236651   3.463   0.163   5.309 -0.0068 -4.5536 -0.0171
 8398SOL     OW36652   1.033   2.934   6.996 -0.5439  0.0429  0.3457
 8398SOL    HW136653   0.985   3.016   6.985  2.5609  1.7428 -0.4094
 8398SOL    HW236654   1.074   2.940   7.083 -1.1538 -0.8605  0.6924
 8399SOL     OW36655   1.550   1.898  11.211 -0.3770  0.1739  0.0909
 8399SOL    HW136656   1.595   1.978  11.184 -2.5963  1.2186 -0.4830
 8399SOL    HW236657   1.617   1.829  11.220  0.5136  0.9846 -0.3964
 8400SOL     OW36658   1.655   3.785  11.476  0.0204 -0.2228  0.4196
 8400SOL    HW136659   1.732   3.815  11.524  0.9351  1.1240 -1.8647
 8400SOL    HW236660   1.689   3.719  11.415 -0.5011 -1.3149  1.3118
 8401SOL     OW36661   0.832   3.730  12.994  0.3696  0.4667 -0.1242
 8401SOL    HW136662   0.747   3.765  13.020  1.7642  3.1360  0.7366
 8401SOL    HW236663   0.879   3.809  13.020  1.3858 -0.1921  0.0471
 8402SOL     OW36664   0.122   2.047   1.848 -0.1734 -0.8014  0.2232
 8402SOL    HW136665   0.147   2.126   1.895 -1.1663 -0.2145 -0.2437
 8402SOL    HW236666   0.202   2.028   1.799  0.6986 -2.3549  2.2523
 8403SOL     OW36667   3.895   1.218  13.964  0.1433  0.3296 -0.3255
 8403SOL    HW136668   3.957   1.169  13.910 -1.5544 -0.3088 -1.6814
 8403SOL    HW236669   3.943   1.275  14.023 -1.1455  0.4727  0.5842
 8404SOL     OW36670   4.032   3.052   3.774  0.6873  0.2049 -0.2336
 8404SOL    HW136671   4.105   3.051   3.714 -0.2276 -2.5220 -1.3077
 8404SOL    HW236672   3.958   3.081   3.721  0.3660  0.6988  0.4824
 8405SOL     OW36673   3.804   2.771   7.158 -0.5087  0.6805 -0.8935
 8405SOL    HW136674   3.723   2.811   7.124 -1.5627  0.3543  1.2329
 8405SOL    HW236675   3.875   2.834   7.150  0.1565  0.0171 -0.0989
 8406SOL     OW36676   0.904   1.573   2.890 -0.2978  0.1896 -0.4404
 8406SOL    HW136677   0.898   1.616   2.804  0.5245  2.4570  0.6471
 8406SOL    HW236678   0.996   1.550   2.881 -1.1530 -3.0511 -0.7610
 8407SOL     OW36679   0.352   0.395  14.976  0.1348 -0.0983 -0.0446
 8407SOL    HW136680   0.429   0.421  14.926  0.7555 -0.4363  0.7361
 8407SOL    HW236681   0.354   0.455  15.050 -2.7735  0.5466 -0.5002
 8408SOL     OW36682   3.765   2.589   5.920  0.4705 -0.4005 -0.3071
 8408SOL    HW136683   3.727   2.673   5.948  0.6052 -0.4120 -0.0874
 8408SOL    HW236684   3.756   2.536   6.000  2.0659 -0.2681 -0.0292
 8409SOL     OW36685   3.777   2.336   7.322 -0.7643 -0.2638 -0.2154
 8409SOL    HW136686   3.696   2.312   7.366 -0.3728  0.5691  0.9463
 8409SOL    HW236687   3.835   2.350   7.396 -1.4293  2.2581 -0.1819
 8410SOL     OW36688   3.283   0.697   1.354  0.3500  0.2032  0.3482
 8410SOL    HW136689   3.283   0.700   1.449 -0.5453  0.6724  0.3310
 8410SOL    HW236690   3.190   0.675   1.344 -0.0687  1.2737  1.9644
 8411SOL     OW36691   3.391   1.407   4.689 -0.6987  0.5853  0.2725
 8411SOL    HW136692   3.398   1.450   4.604 -1.4030  1.4408  0.6458
 8411SOL    HW236693   3.319   1.444   4.741 -0.4201 -0.6337  1.5195
 8412SOL     OW36694   4.094   2.021  13.493  0.5054 -0.2042  0.1567
 8412SOL    HW136695   4.182   1.982  13.494  0.0237 -1.2786  0.1589
 8412SOL    HW236696   4.112   2.110  13.465 -0.1812 -0.2777 -0.5039
 8413SOL     OW36697   4.248   2.377   8.643  0.2528  0.8545 -0.3266
 8413SOL    HW136698   4.336   2.377   8.605  0.4986  2.9877  0.2385
 8413SOL    HW236699   4.243   2.464   8.682 -1.0231  1.4412 -1.7440
 8414SOL     OW36700   3.016   2.949   3.645 -0.7014 -0.1226 -0.1393
 8414SOL    HW136701   3.083   2.882   3.632 -0.1787  0.0230  1.8236
 8414SOL    HW236702   3.056   3.035   3.634 -1.3952  0.0755 -1.1631
 8415SOL     OW36703   3.738   4.222   5.638  0.5285  0.3605 -0.0844
 8415SOL    HW136704   3.703   4.248   5.552  1.9211 -0.4718 -0.8945
 8415SOL    HW236705   3.710   4.297   5.691 -2.2204 -0.5903 -0.1620
 8416SOL     OW36706   4.456   1.831  12.464  0.6157 -0.9093  0.3913
 8416SOL    HW136707   4.438   1.888  12.538  0.4062  2.0905 -1.9637
 8416SOL    HW236708   4.371   1.821  12.421  1.5423 -1.9026 -1.2344
 8417SOL     OW36709   2.190   1.569   1.839 -0.3650  0.0559  0.4155
 8417SOL    HW136710   2.116   1.543   1.894  1.2979 -1.5628  1.8977
 8417SOL    HW236711   2.162   1.549   1.749 -0.9007  1.1491  0.3462
 8418SOL     OW36712   0.696   2.086   7.326  0.2519 -0.3050 -0.2833
 8418SOL    HW136713   0.651   2.151   7.380  0.0556 -0.7864  0.1395
 8418SOL    HW236714   0.740   2.034   7.393 -3.4510 -2.2705  0.6692
 8419SOL     OW36715   3.196   3.229   5.763 -0.0112 -0.3089 -0.3632
 8419SOL    HW136716   3.251   3.154   5.742  0.9014  1.1152 -2.9695
 8419SOL    HW236717   3.113   3.181   5.767 -0.7638  1.3023  3.7051
 8420SOL     OW36718   1.083   1.859   8.170 -0.4098 -0.0697 -0.7031
 8420SOL    HW136719   1.173   1.864   8.201 -0.5150 -1.3596 -0.1757
 8420SOL    HW236720   1.066   1.946   8.132 -0.3737  0.4359  0.4443
 8421SOL     OW36721   4.409   0.131   6.243 -0.4136 -0.1266 -0.0066
 8421SOL    HW136722   4.415   0.171   6.156  0.0089  1.8841  0.9584
 8421SOL    HW236723   4.315   0.137   6.261 -0.9641 -1.8866 -2.2802
 8422SOL     OW36724   2.417   4.321  10.215  0.2926  0.2105  0.1274
 8422SOL    HW136725   2.434   4.412  10.192  0.6258 -0.2910 -1.6262
 8422SOL    HW236726   2.391   4.322  10.307 -0.1418  1.7058 -0.0133
 8423SOL     OW36727   0.401   3.509   1.054  0.7884 -0.2183 -0.5029
 8423SOL    HW136728   0.357   3.593   1.068  2.2062  0.1703  1.6378
 8423SOL    HW236729   0.345   3.458   1.113  0.8100  0.5969  0.2284
 8424SOL     OW36730   3.448   4.459   6.934  0.0630  0.1718 -0.1933
 8424SOL    HW136731   3.454   4.489   7.025 -1.9888  0.3468 -0.1044
 8424SOL    HW236732   3.353   4.469   6.928 -0.3120 -2.9176  0.5065
 8425SOL     OW36733   0.201   2.944   9.585 -0.4902  0.1484 -0.0130
 8425SOL    HW136734   0.236   3.001   9.653 -0.8841 -1.7000  1.7471
 8425SOL    HW236735   0.279   2.889   9.574  0.0327  0.7021  0.9827
 8426SOL     OW36736   1.905   1.481  10.270  0.0259  0.1399 -0.1368
 8426SOL    HW136737   1.903   1.528  10.353 -1.1380  0.2478 -0.2194
 8426SOL    HW236738   1.998   1.461  10.266 -0.1723 -0.9576  0.6858
 8427SOL     OW36739   2.227   0.829   8.069 -0.7430 -0.3377  0.2540
 8427SOL    HW136740   2.280   0.828   7.989 -0.9108  0.3688  0.1374
 8427SOL    HW236741   2.255   0.747   8.110  0.5021  0.5852  1.2442
 8428SOL     OW36742   0.719   1.568   9.077  0.7093 -0.0104  0.0879
 8428SOL    HW136743   0.705   1.603   9.165 -0.0221 -0.9963  0.3720
 8428SOL    HW236744   0.774   1.496   9.109 -0.1549 -1.0316 -0.7633
 8429SOL     OW36745   1.974   0.318   2.182  0.5193 -0.2026  0.4055
 8429SOL    HW136746   2.056   0.337   2.228  2.3394 -1.7405 -2.1906
 8429SOL    HW236747   1.908   0.352   2.242  2.6912 -0.2920  2.8031
 8430SOL     OW36748   3.607   2.714   8.806  0.0355  0.6611  0.2407
 8430SOL    HW136749   3.670   2.664   8.857 -2.9203 -0.3523  2.9032
 8430SOL    HW236750   3.650   2.713   8.720  0.4410  3.0218  0.4068
 8431SOL     OW36751   2.349   4.137   5.736  0.1761  0.4137 -0.2877
 8431SOL    HW136752   2.423   4.153   5.794 -0.5475  1.4084  0.3610
 8431SOL    HW236753   2.328   4.223   5.699  0.0075  0.2500 -0.5715
 8432SOL     OW36754   0.141   0.518   6.067  0.1519  0.0243 -0.5792
 8432SOL    HW136755   0.110   0.524   5.977  0.5672  0.3164 -0.7036
 8432SOL    HW236756   0.161   0.610   6.081  0.5136 -0.3375  1.2773
 8433SOL     OW36757   2.859   3.495   3.234  0.0193  0.1111  0.2339
 8433SOL    HW136758   2.869   3.433   3.307  1.1453  0.5483  0.4548
 8433SOL    HW236759   2.881   3.431   3.166  1.0892  1.5812 -0.8172
 8434SOL     OW36760   3.441   3.047   6.714  0.2078  0.2446  0.5438
 8434SOL    HW136761   3.364   3.088   6.675  1.3718  1.1998 -0.7657
 8434SOL    HW236762   3.450   2.971   6.657  1.3307  1.5150 -1.0039
 8435SOL     OW36763   1.025   4.688   6.492  0.0249  0.4560 -0.3446
 8435SOL    HW136764   1.036   4.690   6.587  1.3687 -0.4162 -0.4791
 8435SOL    HW236765   0.941   0.006   6.486 -0.8785 -1.4179 -1.5843
 8436SOL     OW36766   1.668   0.515  17.546 -0.7700  0.5140  0.0887
 8436SOL    HW136767   1.682   0.536  17.638  0.0051  1.0016 -0.1391
 8436SOL    HW236768   1.759   0.519  17.518 -0.8125 -1.5722 -0.3905
 8437SOL     OW36769   2.779   1.364   1.540  0.3108  0.3802 -0.1379
 8437SOL    HW136770   2.853   1.334   1.593  1.0709  0.8234 -0.9479
 8437SOL    HW236771   2.815   1.441   1.495  1.8590  0.7953  1.8049
 8438SOL     OW36772   0.343   4.368   4.095 -0.0919  0.0461  1.0473
 8438SOL    HW136773   0.263   4.409   4.063  0.3938  0.0137 -0.2423
 8438SOL    HW236774   0.332   4.284   4.049 -0.9092  2.2343 -2.7624
 8439SOL     OW36775   0.002   2.641   4.786  0.6280 -0.1839  0.1727
 8439SOL    HW136776   0.050   2.561   4.811 -0.6463 -0.7550  0.7747
 8439SOL    HW236777   4.716   2.636   4.691 -0.7927  1.5372  0.2968
 8440SOL     OW36778   0.208   1.241   8.257 -0.1067 -0.3449 -0.2536
 8440SOL    HW136779   0.120   1.203   8.264 -0.0210 -0.3282  1.0216
 8440SOL    HW236780   0.198   1.307   8.325 -1.0934  1.8650 -2.5556
 8441SOL     OW36781   0.175   1.110   7.992  0.1221 -0.0378  0.0493
 8441SOL    HW136782   0.181   1.173   8.064  1.5072 -1.6563  1.3305
 8441SOL    HW236783   0.195   1.161   7.913  2.6467 -0.9930  0.0694
 8442SOL     OW36784   4.043   1.831   2.868  0.4315  0.2876 -0.3173
 8442SOL    HW136785   4.022   1.846   2.961  2.3899  2.7651 -0.2687
 8442SOL    HW236786   3.988   1.894   2.821 -1.2955 -0.1218  1.1249
 8443SOL     OW36787   3.477   2.655  11.606  0.2357 -0.2171  0.0503
 8443SOL    HW136788   3.494   2.581  11.664 -1.3928 -1.5684 -1.2191
 8443SOL    HW236789   3.423   2.615  11.538  0.0547 -0.7965  0.5358
 8444SOL     OW36790   1.437   2.546   6.615  0.1475  0.3062 -0.2156
 8444SOL    HW136791   1.353   2.546   6.660 -0.5945  0.8591 -1.6069
 8444SOL    HW236792   1.429   2.470   6.557 -1.7113  0.0130  0.4277
 8445SOL     OW36793   1.661   3.368   0.418  0.5465 -0.4051  0.4335
 8445SOL    HW136794   1.586   3.342   0.364  1.1151  1.3056 -1.1673
 8445SOL    HW236795   1.629   3.366   0.508  1.0008  3.2137  0.6743
 8446SOL     OW36796   2.871   2.279   7.291 -0.2175 -0.6055 -0.2971
 8446SOL    HW136797   2.899   2.350   7.232 -1.6379  0.8383  0.7513
 8446SOL    HW236798   2.882   2.315   7.379 -3.1828 -0.7190  0.1139
 8447SOL     OW36799   4.234   3.259   2.314  0.2915  0.0490 -0.1655
 8447SOL    HW136800   4.302   3.200   2.280 -0.9194 -0.1846 -2.1598
 8447SOL    HW236801   4.154   3.208   2.302 -0.0983  0.1974  1.7122
 8448SOL     OW36802   0.632   3.218   4.823 -0.0885  0.1344 -0.0978
 8448SOL    HW136803   0.576   3.163   4.768 -1.2968  0.8908  0.3677
 8448SOL    HW236804   0.638   3.294   4.765  0.7447 -0.4909 -0.8391
 8449SOL     OW36805   1.135   1.890   3.851 -0.4771 -0.5186 -1.0969
 8449SOL    HW136806   1.176   1.945   3.785  1.6501 -0.3312  0.3819
 8449SOL    HW236807   1.108   1.808   3.809 -1.4858 -1.4733  1.4054
 8450SOL     OW36808   3.915   1.962   8.636 -0.2342 -0.4158 -0.0325
 8450SOL    HW136809   3.844   2.025   8.632 -1.3205 -1.6129  0.6651
 8450SOL    HW236810   3.986   2.027   8.629  0.2273 -1.0230 -0.9930
 8451SOL     OW36811   1.950   0.822   4.903 -0.1925 -0.0906  1.3502
 8451SOL    HW136812   1.976   0.909   4.934  0.8163  0.1607 -0.2536
 8451SOL    HW236813   1.902   0.847   4.824  1.8692  2.4754  0.9112
 8452SOL     OW36814   3.877   3.380   5.571 -0.1551  0.2155 -0.3005
 8452SOL    HW136815   3.870   3.284   5.564  0.2303  0.2626 -1.4239
 8452SOL    HW236816   3.817   3.396   5.644  2.9893  1.5125  1.9687
 8453SOL     OW36817   2.240   0.123   8.533 -0.4014 -0.0774 -0.0089
 8453SOL    HW136818   2.266   0.042   8.577 -2.4811 -0.2255  0.9749
 8453SOL    HW236819   2.156   0.132   8.577  0.2330  0.6777  1.0370
 8454SOL     OW36820   0.653   3.180   9.062  0.4698  0.2349  0.0773
 8454SOL    HW136821   0.692   3.127   9.132 -1.6204  0.4151  1.3646
 8454SOL    HW236822   0.568   3.206   9.097 -1.0733 -0.4564 -3.2058
 8455SOL     OW36823   1.198   0.250   1.246 -0.0762 -0.0512  0.7909
 8455SOL    HW136824   1.175   0.269   1.155 -2.1581 -2.4748  0.8237
 8455SOL    HW236825   1.116   0.262   1.293 -1.5042 -1.0188 -1.4443
 8456SOL     OW36826   2.318   3.876  16.884 -0.2277  0.1135  0.2930
 8456SOL    HW136827   2.324   3.971  16.871 -2.6080 -0.1652 -2.9688
 8456SOL    HW236828   2.251   3.864  16.816 -0.3736 -0.7704  0.5908
 8457SOL     OW36829   1.018   0.496   9.119 -0.4723  0.2107  0.1213
 8457SOL    HW136830   1.017   0.568   9.055  0.1966 -1.9621 -2.3148
 8457SOL    HW236831   1.038   0.427   9.056 -1.5252 -1.6736  1.8534
 8458SOL     OW36832   4.448   2.080   6.381  0.6872  0.2391 -0.1990
 8458SOL    HW136833   4.416   1.997   6.345 -1.7187  0.5205  1.2404
 8458SOL    HW236834   4.530   2.039   6.409 -0.6532 -1.6501  1.0129
 8459SOL     OW36835   1.075   1.329   3.390  0.0220 -0.0787  0.3152
 8459SOL    HW136836   1.113   1.305   3.306 -0.1483 -2.1238  0.8091
 8459SOL    HW236837   1.040   1.247   3.424  0.8375 -0.4907  0.1744
 8460SOL     OW36838   4.168   0.627   2.097 -0.2060  0.3186  0.3034
 8460SOL    HW136839   4.079   0.609   2.065  0.8808 -0.8148 -2.1276
 8460SOL    HW236840   4.204   0.695   2.040 -0.5174 -1.4601 -2.0207
 8461SOL     OW36841   1.399   3.194   3.918 -0.2000 -0.6749  0.1435
 8461SOL    HW136842   1.420   3.101   3.907  1.3645 -0.3867  0.7034
 8461SOL    HW236843   1.338   3.192   3.992  0.0418  1.5323  0.3998
 8462SOL     OW36844   2.557   3.166   2.729 -0.1829 -0.1936 -0.1798
 8462SOL    HW136845   2.535   3.096   2.791 -0.9554 -0.0346 -0.2710
 8462SOL    HW236846   2.599   3.112   2.662 -1.8397  0.7245 -1.9589
 8463SOL     OW36847   3.707   2.090  16.111 -0.6345 -0.0931 -0.2642
 8463SOL    HW136848   3.769   2.046  16.170  1.6557  2.2369 -0.9201
 8463SOL    HW236849   3.630   2.098  16.168  0.1628  0.9744  0.6763
 8464SOL     OW36850   4.364   2.143  11.344 -0.3606  0.4108  0.1339
 8464SOL    HW136851   4.420   2.172  11.416  0.7548 -2.3855  0.3822
 8464SOL    HW236852   4.298   2.210  11.325  1.5824  2.5345  0.9732
 8465SOL     OW36853   0.417   0.334   7.548  0.0292 -0.2687  0.3040
 8465SOL    HW136854   0.449   0.284   7.624 -1.4972  0.1485  1.2129
 8465SOL    HW236855   0.475   0.410   7.542  0.8602 -1.0253 -1.1994
 8466SOL     OW36856   1.998   4.530   6.234 -0.5701 -0.4395 -0.0766
 8466SOL    HW136857   1.927   4.519   6.171  0.8074  2.0729 -2.0432
 8466SOL    HW236858   2.021   4.622   6.224  0.1214 -0.6526 -0.4269
 8467SOL     OW36859   2.796   0.925   8.002  0.3795 -0.5724  0.1990
 8467SOL    HW136860   2.786   0.830   8.013  0.8386 -0.8694 -1.9237
 8467SOL    HW236861   2.728   0.959   8.061 -2.1325 -1.2437 -2.2768
 8468SOL     OW36862   4.648   3.841  11.625  0.3149  0.2533  0.3617
 8468SOL    HW136863   4.686   3.928  11.612  0.2593 -0.1476 -2.5873
 8468SOL    HW236864   4.718   3.777  11.626  1.1715  1.1592 -1.1930
 8469SOL     OW36865   3.948   4.397   3.475  0.2631  0.7406  0.3155
 8469SOL    HW136866   3.922   4.347   3.397 -0.0251  0.1639  0.7830
 8469SOL    HW236867   3.880   4.375   3.539  0.1608 -0.5804 -0.2357
 8470SOL     OW36868   0.808   0.487  13.725 -0.1054 -0.1823  0.6315
 8470SOL    HW136869   0.712   0.486  13.720 -0.0508 -2.2571  0.0533
 8470SOL    HW236870   0.834   0.561  13.780 -2.0941  0.9912 -0.0256
 8471SOL     OW36871   3.601   0.074   4.866  0.4962 -0.5407 -0.0065
 8471SOL    HW136872   3.670   0.035   4.811  0.3428 -2.5420  1.2196
 8471SOL    HW236873   3.548   4.722   4.876 -0.3764 -0.1188 -1.2326
 8472SOL     OW36874   3.093   0.906  16.963  0.1908 -0.1872 -0.1714
 8472SOL    HW136875   3.172   0.887  16.912 -1.7731 -3.1049 -2.1034
 8472SOL    HW236876   3.062   0.818  16.985  1.5163 -0.7105 -0.4003
 8473SOL     OW36877   0.412   0.776   3.892 -0.3023  0.6891  0.0081
 8473SOL    HW136878   0.470   0.703   3.913  0.9723  1.2806 -1.4957
 8473SOL    HW236879   0.458   0.823   3.823 -1.2345  0.3019 -0.8758
 8474SOL     OW36880   0.115   0.251   5.091  0.3409  0.1433  0.3988
 8474SOL    HW136881   0.154   0.209   5.014 -0.1709  0.4389 -0.0256
 8474SOL    HW236882   0.070   0.321   5.043 -3.7631 -1.2832  2.1948
 8475SOL     OW36883   1.505   1.994  15.088  0.5539  0.6675  0.2311
 8475SOL    HW136884   1.415   1.974  15.062  1.8290 -0.5170 -3.3612
 8475SOL    HW236885   1.508   1.937  15.164  2.9464  0.1832 -0.2157
 8476SOL     OW36886   2.176   4.180   9.191  0.0828 -0.2875  0.4728
 8476SOL    HW136887   2.121   4.144   9.260  1.2604 -2.6263  0.1966
 8476SOL    HW236888   2.199   4.270   9.211 -3.2974  0.4455  1.1107
 8477SOL     OW36889   3.096   4.328   8.398  0.3011 -0.3560 -0.8248
 8477SOL    HW136890   3.036   4.401   8.411  0.6244  0.1051 -1.9938
 8477SOL    HW236891   3.175   4.371   8.432 -0.8351  1.8518 -1.0275
 8478SOL     OW36892   2.108   4.714  16.554  0.3220 -0.1613  0.4612
 8478SOL    HW136893   2.089   0.029  16.471  1.6907 -2.3675 -0.9556
 8478SOL    HW236894   2.197   0.016  16.572  0.7217 -0.9482 -0.2787
 8479SOL     OW36895   3.399   2.240  11.891 -0.3700  0.3367  0.5978
 8479SOL    HW136896   3.478   2.207  11.933  2.0944  0.7552 -3.8443
 8479SOL    HW236897   3.420   2.220  11.800  0.7392 -0.5514  1.0470
 8480SOL     OW36898   0.496   0.130   7.726 -0.4343 -0.6322 -0.2626
 8480SOL    HW136899   0.516   0.055   7.671 -1.6469 -0.3094 -1.1439
 8480SOL    HW236900   0.515   0.098   7.815  2.3541  2.3286  0.1690
 8481SOL     OW36901   4.532   1.971   8.714  0.1374 -0.2872  0.1836
 8481SOL    HW136902   4.470   1.919   8.663 -2.1166  0.5738  2.0544
 8481SOL    HW236903   4.492   1.949   8.798 -3.2703 -3.4184 -2.2611
 8482SOL     OW36904   1.563   0.631  15.408  0.1449  0.5595 -0.4979
 8482SOL    HW136905   1.477   0.647  15.446 -0.4214 -0.8067 -1.1827
 8482SOL    HW236906   1.622   0.660  15.477  0.6038  3.0119 -1.9058
 8483SOL     OW36907   2.545   0.289   8.805  0.4251  0.6917  0.1300
 8483SOL    HW136908   2.605   0.281   8.880  1.1148 -1.2216 -0.6363
 8483SOL    HW236909   2.600   0.347   8.752 -0.4727  1.6831  0.2762
 8484SOL     OW36910   3.123   2.894  12.910  0.4694 -0.0438  0.5504
 8484SOL    HW136911   3.078   2.978  12.917 -0.3174 -0.4380  0.2201
 8484SOL    HW236912   3.148   2.881  13.001  1.6686 -1.7763 -0.0266
 8485SOL     OW36913   0.073   0.219   8.615 -0.4500 -0.3982 -0.6287
 8485SOL    HW136914   0.042   0.154   8.552 -0.5099  0.1430 -1.1595
 8485SOL    HW236915   0.156   0.183   8.646  0.5000  1.0508 -1.4938
 8486SOL     OW36916   3.002   3.557  17.640  0.0638 -0.3041 -0.1625
 8486SOL    HW136917   3.081   3.596  17.677  0.2149 -1.7879  1.0843
 8486SOL    HW236918   3.005   3.566  17.545 -1.2393  1.0964 -0.0750
 8487SOL     OW36919   0.153   3.654  13.721 -0.1605  0.1308  0.5160
 8487SOL    HW136920   0.058   3.669  13.718 -0.4467 -1.4929  1.5339
 8487SOL    HW236921   0.182   3.725  13.777 -1.9905  1.6247 -0.4227
 8488SOL     OW36922   1.494   0.586   4.480  0.5192 -0.1177  0.0204
 8488SOL    HW136923   1.513   0.674   4.513 -0.4977 -0.3239  1.1313
 8488SOL    HW236924   1.546   0.601   4.401  1.5307 -0.7245  0.5794
 8489SOL     OW36925   1.944   1.004   6.979  0.0471 -0.4121  0.3536
 8489SOL    HW136926   1.942   1.002   6.883  0.9181  1.2111  0.2971
 8489SOL    HW236927   2.037   1.013   6.999 -0.4195 -0.0434  2.2704
 8490SOL     OW36928   0.830   2.986  10.757  0.0935  0.7409  0.0198
 8490SOL    HW136929   0.866   2.897  10.759  2.3830  1.6922  0.6858
 8490SOL    HW236930   0.775   2.972  10.680  1.5976  0.2542 -0.9674
 8491SOL     OW36931   2.642   4.032  11.627 -0.9109 -0.7569 -0.0277
 8491SOL    HW136932   2.694   4.059  11.551  1.7665 -2.2221  1.3210
 8491SOL    HW236933   2.666   4.100  11.690  0.3210 -0.8395 -0.4110
 8492SOL     OW36934   4.350   3.820   6.536 -0.6562 -0.0978 -0.0330
 8492SOL    HW136935   4.303   3.767   6.472  1.8315 -1.2311 -0.9017
 8492SOL    HW236936   4.380   3.899   6.491  1.1202 -0.8493 -0.1793
 8493SOL     OW36937   0.267   0.386   2.448 -0.0043 -0.4332 -0.0207
 8493SOL    HW136938   0.338   0.450   2.435  0.1004 -0.9261 -1.8493
 8493SOL    HW236939   0.194   0.443   2.426  0.2111 -0.9446 -1.9884
 8494SOL     OW36940   0.066   0.130  12.012  0.1361 -0.5240 -0.4141
 8494SOL    HW136941   0.036   0.069  12.080 -2.7772 -0.9255 -2.1016
 8494SOL    HW236942   0.001   0.197  11.992  0.3815  0.2377  1.3006
 8495SOL     OW36943   3.149   4.183  13.687  0.7303  0.6642  0.7562
 8495SOL    HW136944   3.209   4.171  13.613  0.7048 -1.2522  1.0564
 8495SOL    HW236945   3.211   4.185  13.760 -0.2952  0.6063  1.6170
 8496SOL     OW36946   4.175   2.217   3.168  0.0556  0.5145 -1.0067
 8496SOL    HW136947   4.230   2.283   3.125  0.0916  0.0333 -1.7093
 8496SOL    HW236948   4.240   2.148   3.153  0.7380  1.0941 -0.6777
 8497SOL     OW36949   3.892   0.290   0.789 -0.2292  0.4305  0.4091
 8497SOL    HW136950   3.910   0.229   0.718  0.7976  1.1948  0.0099
 8497SOL    HW236951   3.930   0.371   0.755  1.1945 -0.2010  0.5265
 8498SOL     OW36952   0.754   0.592  11.396  0.5126  0.3203  0.6799
 8498SOL    HW136953   0.724   0.594  11.487  0.2181 -1.5244  0.6277
 8498SOL    HW236954   0.668   0.572  11.358  0.7235  0.6456  0.0355
 8499SOL     OW36955   1.598   2.285   4.363 -0.3240  0.1643  0.0876
 8499SOL    HW136956   1.675   2.323   4.407 -2.3600 -0.3594  4.1493
 8499SOL    HW236957   1.597   2.198   4.402  0.7420  0.2092  0.2229
 8500SOL     OW36958   0.644   1.046   4.237  0.8439 -0.3479 -0.2961
 8500SOL    HW136959   0.679   1.075   4.153 -1.7738  3.1947 -0.1529
 8500SOL    HW236960   0.561   1.007   4.210  0.5541  0.6960 -0.8914
 8501SOL     OW36961   2.379   2.730  15.082 -0.1667 -0.3504  0.2904
 8501SOL    HW136962   2.334   2.692  15.157  0.4658  1.1582  1.4291
 8501SOL    HW236963   2.309   2.727  15.017 -2.3762 -0.3306  2.7096
 8502SOL     OW36964   2.926   1.442   3.110 -0.7242 -0.1035  0.0695
 8502SOL    HW136965   2.912   1.471   3.200  0.9547  1.9802 -0.3443
 8502SOL    HW236966   3.012   1.483   3.107 -1.7920  2.3539  3.9087
 8503SOL     OW36967   3.545   3.317  14.913  0.2252 -0.3260 -0.2339
 8503SOL    HW136968   3.452   3.340  14.920  1.4981  4.5923  0.2522
 8503SOL    HW236969   3.569   3.305  15.005 -0.1720  0.1187 -0.0713
 8504SOL     OW36970   1.732   3.657   2.034  0.0205 -0.3122 -0.0257
 8504SOL    HW136971   1.816   3.686   2.070  0.9390 -0.5669 -1.9827
 8504SOL    HW236972   1.756   3.565   2.034 -2.2259 -0.8998  0.6707
 8505SOL     OW36973   0.049   2.507  17.045 -0.1135 -1.2848 -0.3252
 8505SOL    HW136974   4.699   2.560  17.023  0.8365  0.3362  0.2727
 8505SOL    HW236975   0.013   2.469  17.125  2.3432 -1.4057  0.7127
 8506SOL     OW36976   3.826   1.829   3.882  0.0817 -0.1297 -0.0625
 8506SOL    HW136977   3.804   1.901   3.942  0.6586 -0.6625  0.7885
 8506SOL    HW236978   3.743   1.820   3.834  1.1626  4.2592 -2.7247
 8507SOL     OW36979   3.370   0.038   8.394 -0.0091 -0.3039 -0.1795
 8507SOL    HW136980   3.376   0.086   8.311  1.4268 -0.0136  0.0890
 8507SOL    HW236981   3.304   0.086   8.443 -0.3147  0.0771 -0.9494
 8508SOL     OW36982   1.453   1.456   4.641 -0.6909 -0.2923  0.2803
 8508SOL    HW136983   1.455   1.435   4.548 -0.0613 -0.2191  0.2768
 8508SOL    HW236984   1.428   1.548   4.639  1.3612  0.3152  2.8201
 8509SOL     OW36985   1.109   1.385  15.049  0.1742 -0.4670 -0.2819
 8509SOL    HW136986   1.087   1.424  14.965  1.6004  0.2761 -0.3118
 8509SOL    HW236987   1.033   1.395  15.106 -0.0186 -0.6843 -0.5010
 8510SOL     OW36988   3.485   2.588  17.549  0.0423  0.6514  0.9142
 8510SOL    HW136989   3.575   2.564  17.526 -1.1941 -3.5457  0.3605
 8510SOL    HW236990   3.444   2.517  17.599  0.5406 -0.5859 -0.4123
 8511SOL     OW36991   2.597   1.818   7.785 -0.1837 -0.3702 -0.3093
 8511SOL    HW136992   2.638   1.886   7.732 -0.6618 -0.0389 -0.2542
 8511SOL    HW236993   2.664   1.749   7.780  0.1952 -0.0915  0.7407
 8512SOL     OW36994   2.900   2.616   0.979  0.2395 -0.1115  0.5296
 8512SOL    HW136995   2.831   2.632   0.914  1.1422  2.7003  0.2609
 8512SOL    HW236996   2.977   2.610   0.923  1.0996  0.1050  1.6904
 8513SOL     OW36997   1.219   0.272   0.712 -0.0809 -0.0448 -0.3574
 8513SOL    HW136998   1.245   0.204   0.650  1.0089 -0.4819  0.5934
 8513SOL    HW236999   1.282   0.342   0.695  0.0975 -0.4541 -1.3758
 8514SOL     OW37000   0.692   0.517   9.726 -0.5200 -0.4012  0.8481
 8514SOL    HW137001   0.706   0.532   9.633 -0.4935 -0.0503  0.9081
 8514SOL    HW237002   0.761   0.569   9.768 -0.0611  0.1633 -0.6043
 8515SOL     OW37003   0.472   4.162   3.660  0.1656 -0.2770 -0.4750
 8515SOL    HW137004   0.465   4.164   3.564  1.7738 -1.0215 -0.6073
 8515SOL    HW237005   0.465   4.252   3.691 -2.8699 -1.1531  1.3453
 8516SOL     OW37006   2.054   2.916  12.952 -0.1926  0.1866  0.7653
 8516SOL    HW137007   2.084   2.934  12.862  0.3158  0.2627  0.9492
 8516SOL    HW237008   1.960   2.932  12.945 -0.4757 -1.4885  0.5546
 8517SOL     OW37009   2.463   3.242  17.630  0.5176  0.1330 -0.0920
 8517SOL    HW137010   2.539   3.289  17.595  1.3409  0.2565  1.8448
 8517SOL    HW237011   2.399   3.260  17.562 -0.4932 -1.2481  0.5060
 8518SOL     OW37012   3.372   0.720   7.455  0.6048  0.5675  0.1209
 8518SOL    HW137013   3.408   0.799   7.413  0.1863  1.9584  2.3869
 8518SOL    HW237014   3.285   0.747   7.482  0.8095  1.6028 -0.2352
 8519SOL     OW37015   0.396   3.714  14.433 -0.4150 -0.5425 -0.4245
 8519SOL    HW137016   0.324   3.767  14.465  1.3060  1.6762 -0.2148
 8519SOL    HW237017   0.376   3.725  14.340  0.4046  1.2089 -0.3940
 8520SOL     OW37018   4.623   3.049  17.552 -0.2522 -0.5837 -0.0015
 8520SOL    HW137019   4.659   3.126  17.508 -2.0924 -0.1025 -0.6861
 8520SOL    HW237020   4.684   3.043  17.625 -1.5675  1.8209  1.2785
 8521SOL     OW37021   4.610   3.381   5.855 -0.3865  0.4329 -0.2528
 8521SOL    HW137022   4.588   3.351   5.766  0.3233 -1.0713  0.0788
 8521SOL    HW237023   4.701   3.409   5.849 -0.4095  0.4403 -0.5746
 8522SOL     OW37024   4.479   3.406   2.175  0.1417 -0.2341  0.6003
 8522SOL    HW137025   4.490   3.434   2.266 -2.5424 -1.5274  1.3058
 8522SOL    HW237026   4.557   3.354   2.153  0.2952  0.8179 -1.3894
 8523SOL     OW37027   2.853   1.647   5.801  0.2567 -0.0166 -0.5094
 8523SOL    HW137028   2.935   1.605   5.774  0.6159  0.4320 -0.1076
 8523SOL    HW237029   2.872   1.713   5.867  1.4411 -1.4665  0.6062
 8524SOL     OW37030   2.114   3.781   4.885  0.2851  0.6650 -0.3296
 8524SOL    HW137031   2.030   3.740   4.906 -0.8384  2.6624 -0.9330
 8524SOL    HW237032   2.155   3.708   4.839  0.5575  0.7361 -0.1973
 8525SOL     OW37033   4.325   3.192   5.477  0.1260 -0.4839 -0.0264
 8525SOL    HW137034   4.281   3.107   5.478 -2.2118  0.7433  1.9209
 8525SOL    HW237035   4.253   3.256   5.476 -1.3569 -2.1608  0.6727
 8526SOL     OW37036   4.651   0.051   5.942  0.1619 -0.4236  0.0370
 8526SOL    HW137037   4.714   0.122   5.930  1.0282 -1.5852 -2.3731
 8526SOL    HW237038   4.653   0.027   6.035  0.6381  0.2898  0.2044
 8527SOL     OW37039   1.957   3.437   2.889  0.3751  0.7494 -0.8038
 8527SOL    HW137040   1.924   3.357   2.930  0.3346  1.2419  0.1421
 8527SOL    HW237041   2.040   3.431   2.937  0.2145  1.0670 -0.4877
 8528SOL     OW37042   3.459   0.446   3.456  0.3504  0.0082 -0.4475
 8528SOL    HW137043   3.367   0.471   3.458  0.7685  1.3578  1.5914
 8528SOL    HW237044   3.453   0.368   3.511 -2.6142  0.2928 -0.3617
 8529SOL     OW37045   4.096   4.150   9.036 -0.1394 -0.0325 -0.4355
 8529SOL    HW137046   4.144   4.120   9.114 -0.9476  1.3643  0.5968
 8529SOL    HW237047   4.068   4.237   9.064  1.4552  0.4606 -0.3415
 8530SOL     OW37048   0.680   3.585   6.810  0.1507  0.2478 -0.2373
 8530SOL    HW137049   0.748   3.608   6.874  2.1197 -2.5613 -1.3226
 8530SOL    HW237050   0.605   3.620   6.857 -0.8718 -1.9508 -0.2239
 8531SOL     OW37051   0.592   0.046   9.601 -0.4209  0.3107  0.0705
 8531SOL    HW137052   0.591   0.105   9.676 -0.3726 -0.6987  0.8707
 8531SOL    HW237053   0.648   0.097   9.543 -0.6562 -0.8228 -1.1743
 8532SOL     OW37054   2.908   0.385   2.825 -0.3627  0.4529  0.3579
 8532SOL    HW137055   2.838   0.417   2.882 -1.8643 -0.7633 -0.8108
 8532SOL    HW237056   2.978   0.444   2.851  0.8484 -0.7874 -0.0880
 8533SOL     OW37057   3.403   0.885  17.557  0.2358  0.0869  0.0821
 8533SOL    HW137058   3.478   0.918  17.608  0.1792  2.3882 -1.3238
 8533SOL    HW237059   3.426   0.793  17.545  0.5974 -0.1836  2.8107
 8534SOL     OW37060   2.911   3.632   6.122 -0.2073 -0.5597  0.5015
 8534SOL    HW137061   2.865   3.568   6.176 -2.2737 -0.2825 -0.8943
 8534SOL    HW237062   2.961   3.678   6.190 -0.7818  2.0672 -0.8167
 8535SOL     OW37063   1.194   2.454   7.790  0.3092 -0.3660 -0.0356
 8535SOL    HW137064   1.186   2.464   7.695  3.0940 -0.1784 -0.2512
 8535SOL    HW237065   1.259   2.384   7.799 -1.2724 -1.9558 -1.0198
 8536SOL     OW37066   4.233   0.661  14.997 -0.6664  0.0334  0.1060
 8536SOL    HW137067   4.319   0.689  15.028 -1.0967 -1.0377  2.2047
 8536SOL    HW237068   4.250   0.668  14.903 -1.7615 -0.6857 -0.1437
 8537SOL     OW37069   0.260   1.555   6.533 -0.0098 -0.0976  0.3143
 8537SOL    HW137070   0.272   1.482   6.593 -0.3120 -0.2087  0.2415
 8537SOL    HW237071   0.184   1.541   6.476 -1.2327 -1.3791  2.2648
 8538SOL     OW37072   4.408   0.856  12.579  0.2157 -0.8106 -0.1837
 8538SOL    HW137073   4.343   0.926  12.576 -0.3950 -1.3704  0.1062
 8538SOL    HW237074   4.369   0.787  12.525 -0.0468 -1.0063  0.2633
 8539SOL     OW37075   3.862   3.947   6.056 -0.1709 -0.1739 -0.4876
 8539SOL    HW137076   3.811   3.867   6.070 -0.3232 -0.0115 -0.0940
 8539SOL    HW237077   3.855   3.966   5.963 -1.8749  2.0947  0.0927
 8540SOL     OW37078   3.569   2.972  13.436 -0.3059  0.4501 -0.4124
 8540SOL    HW137079   3.549   2.957  13.528  1.0424  0.4267 -0.1224
 8540SOL    HW237080   3.600   2.887  13.404 -0.8162 -0.8195  2.5074
 8541SOL     OW37081   3.122   0.291  11.144  0.3571  0.3541  0.5340
 8541SOL    HW137082   3.157   0.218  11.092 -2.2700 -1.5636  1.4291
 8541SOL    HW237083   3.183   0.301  11.217  1.6372  0.6168 -0.5713
 8542SOL     OW37084   1.788   3.253   3.019  0.6819 -0.4509  0.4655
 8542SOL    HW137085   1.822   3.180   3.071 -0.2945 -2.0053 -1.0873
 8542SOL    HW237086   1.715   3.211   2.974  0.7257  1.3614 -1.2883
 8543SOL     OW37087   2.174   4.342   6.325 -0.2895 -0.1112 -0.4192
 8543SOL    HW137088   2.106   4.406   6.306  0.1767  0.2529 -0.8657
 8543SOL    HW237089   2.135   4.264   6.285 -2.6902  0.6885  0.3930
 8544SOL     OW37090   3.712   1.297  14.704  0.3520  0.6176  0.2691
 8544SOL    HW137091   3.799   1.261  14.724  0.4482 -0.1799 -1.5848
 8544SOL    HW237092   3.731   1.330  14.616 -1.8795 -0.8088 -0.7263
 8545SOL     OW37093   2.503   4.287   5.170 -0.2478 -0.0606  0.0496
 8545SOL    HW137094   2.499   4.198   5.206 -0.4150  0.1913  0.6481
 8545SOL    HW237095   2.552   4.329   5.240 -1.3608  0.3471  0.5879
 8546SOL     OW37096   1.967   0.684   6.995 -0.2202 -0.0184 -0.4080
 8546SOL    HW137097   1.878   0.682   7.030  0.9092 -0.7543  2.4082
 8546SOL    HW237098   1.965   0.780   6.991 -4.1719 -0.1289 -0.4902
 8547SOL     OW37099   2.742   1.137   3.899 -0.3959  0.4612 -0.3780
 8547SOL    HW137100   2.749   1.042   3.891 -1.9485  0.1797  1.7665
 8547SOL    HW237101   2.671   1.148   3.835 -1.8348  1.7166  1.4472
 8548SOL     OW37102   2.633   4.273  10.546 -0.4516 -0.0720  0.4476
 8548SOL    HW137103   2.661   4.300  10.633  1.6442 -1.2929  0.1545
 8548SOL    HW237104   2.715   4.298  10.504  1.2396 -3.0178  2.0124
 8549SOL     OW37105   3.238   1.106   7.247 -0.4329 -0.5342 -0.2555
 8549SOL    HW137106   3.224   1.122   7.153  0.6173  3.1002  0.2095
 8549SOL    HW237107   3.147   1.107   7.277 -0.4720 -1.0935 -0.3510
 8550SOL     OW37108   3.219   3.474   1.940  0.0565 -0.4519  0.1630
 8550SOL    HW137109   3.239   3.430   1.857  0.2476 -1.1854  0.5961
 8550SOL    HW237110   3.255   3.414   2.005  0.3248 -1.0081 -0.5035
 8551SOL     OW37111   3.300   0.286   5.456 -0.2227 -0.1791  0.1047
 8551SOL    HW137112   3.325   0.305   5.366  0.7081  2.2957  0.8893
 8551SOL    HW237113   3.213   0.327   5.454 -0.0919  0.0472 -0.8826
 8552SOL     OW37114   4.567   3.658   3.655 -0.0247 -0.0430  0.0066
 8552SOL    HW137115   4.586   3.578   3.605  0.1858  0.6550 -1.0410
 8552SOL    HW237116   4.502   3.689   3.591  0.6607 -1.2920 -1.2921
 8553SOL     OW37117   2.058   2.389   4.844 -0.3706 -0.8141  0.5368
 8553SOL    HW137118   2.072   2.451   4.773  1.0595 -1.6122  0.1151
 8553SOL    HW237119   1.980   2.428   4.883  0.9130  1.9658  0.3009
 8554SOL     OW37120   3.407   4.086  14.124 -0.0823  0.2203  0.1251
 8554SOL    HW137121   3.372   3.997  14.130 -3.0132  1.4265  0.6765
 8554SOL    HW237122   3.481   4.062  14.068  1.0365 -0.9123  2.0535
 8555SOL     OW37123   1.395   2.555   3.201 -0.1702  0.1180 -0.3622
 8555SOL    HW137124   1.476   2.550   3.251 -0.8336 -2.7173  0.4322
 8555SOL    HW237125   1.335   2.558   3.276 -0.3470 -1.8110 -0.4102
 8556SOL     OW37126   1.220   3.670   9.134  0.1765  0.1738  0.5728
 8556SOL    HW137127   1.171   3.650   9.055 -0.1345 -1.2545  1.1246
 8556SOL    HW237128   1.161   3.623   9.193 -0.4712 -0.8040 -0.8688
 8557SOL     OW37129   3.885   3.908   3.005 -0.2603 -0.3870  0.7068
 8557SOL    HW137130   3.964   3.946   2.967  0.7423 -1.2539  1.9114
 8557SOL    HW237131   3.880   3.819   2.968  2.0655 -0.3281  0.2640
 8558SOL     OW37132   2.873   0.346   3.629  0.8866 -0.0668  0.5186
 8558SOL    HW137133   2.793   0.301   3.601  2.0184 -0.3513 -2.2470
 8558SOL    HW237134   2.931   0.273   3.606  0.1198 -0.4322 -0.2342
 8559SOL     OW37135   3.009   1.029  10.747 -0.7846 -0.1152  0.5081
 8559SOL    HW137136   2.941   0.974  10.785  1.3064 -1.1526  2.7557
 8559SOL    HW237137   3.086   0.985  10.783  0.4783  2.5874  1.1413
 8560SOL     OW37138   1.634   0.418  15.753 -0.4269  0.8806 -0.0981
 8560SOL    HW137139   1.619   0.501  15.709 -2.2871  0.6379  0.0834
 8560SOL    HW237140   1.715   0.439  15.800 -1.1015 -3.1100  2.8948
 8561SOL     OW37141   2.889   0.419   1.651  0.3668 -0.3818 -0.3597
 8561SOL    HW137142   2.797   0.432   1.629  0.2345  1.6747  1.4513
 8561SOL    HW237143   2.928   0.402   1.565 -1.2307 -0.0216 -1.1585
 8562SOL     OW37144   2.626   4.204   9.568 -0.3750 -0.0541 -0.6867
 8562SOL    HW137145   2.637   4.231   9.659 -3.5722 -1.0633  0.0354
 8562SOL    HW237146   2.532   4.223   9.561 -0.3635  0.6385  0.9512
 8563SOL     OW37147   2.879   1.034  17.583 -0.2234 -0.7830  0.1998
 8563SOL    HW137148   2.960   0.990  17.610 -0.2027 -0.7146  0.2498
 8563SOL    HW237149   2.807   0.972  17.593 -0.1781 -0.4530  2.6351
 8564SOL     OW37150   2.112   4.190   1.809  0.7615  0.4176 -0.3420
 8564SOL    HW137151   2.125   4.162   1.718 -0.6953  3.0399 -1.3482
 8564SOL    HW237152   2.107   4.104   1.850  0.2167 -0.0000 -1.2778
 8565SOL     OW37153   4.210   0.526   8.251 -0.5546 -0.1299 -0.6105
 8565SOL    HW137154   4.116   0.512   8.265 -0.5122  0.9050  0.6706
 8565SOL    HW237155   4.240   0.436   8.260 -2.1493 -0.5650  0.3334
 8566SOL     OW37156   3.805   1.746   0.610  0.0332 -0.5342 -0.5457
 8566SOL    HW137157   3.771   1.689   0.679  4.9136 -1.2610  1.2446
 8566SOL    HW237158   3.731   1.804   0.597  1.8421  1.5009 -1.7274
 8567SOL     OW37159   4.004   3.127   8.195  0.4265  0.1946  0.1505
 8567SOL    HW137160   3.914   3.133   8.225  1.0813  3.3049  1.4991
 8567SOL    HW237161   3.998   3.057   8.130 -1.1124  0.3857  0.0995
 8568SOL     OW37162   3.827   4.410   0.076 -0.2267 -0.6190  0.5818
 8568SOL    HW137163   3.756   4.380   0.132 -2.0288  0.3173 -1.2144
 8568SOL    HW237164   3.822   4.503   0.094 -0.7489 -0.2571 -1.4540
 8569SOL     OW37165   1.009   4.488   5.919  0.1671 -0.2173  0.3036
 8569SOL    HW137166   0.928   4.513   5.875 -0.1396 -0.9375  0.4604
 8569SOL    HW237167   0.990   4.472   6.011  0.1351 -1.4201  0.0948
 8570SOL     OW37168   2.441   4.327  11.852  0.1238 -0.0676 -0.2654
 8570SOL    HW137169   2.448   4.350  11.945 -0.5350  2.0487 -0.7387
 8570SOL    HW237170   2.440   4.411  11.806 -0.1268  0.6799  1.0838
 8571SOL     OW37171   3.971   0.718   6.885 -0.0715  0.1982 -0.4780
 8571SOL    HW137172   3.889   0.706   6.933 -0.3793  0.7193 -0.8775
 8571SOL    HW237173   3.938   0.749   6.801  0.0068  3.0773  0.5740
 8572SOL     OW37174   0.447   0.469  11.958 -0.6632 -0.2506 -0.4294
 8572SOL    HW137175   0.480   0.551  11.994 -1.2114 -0.7280  1.1640
 8572SOL    HW237176   0.373   0.450  12.016  0.8409 -2.4982  0.7555
 8573SOL     OW37177   2.099   2.858   4.299  0.5776 -0.3440  0.2165
 8573SOL    HW137178   2.099   2.773   4.253  0.4311 -1.2412  1.8933
 8573SOL    HW237179   2.192   2.869   4.320  0.6853 -0.3754 -0.2320
 8574SOL     OW37180   4.199   0.658  11.908 -0.0600 -0.0365  0.3738
 8574SOL    HW137181   4.169   0.572  11.938  1.7152 -0.6756  0.3301
 8574SOL    HW237182   4.133   0.721  11.936  0.1921  1.0033 -1.3358
 8575SOL     OW37183   2.103   1.629   4.927 -0.2186  0.0464 -0.2676
 8575SOL    HW137184   2.132   1.596   4.842 -2.6488 -2.1392 -0.2545
 8575SOL    HW237185   2.040   1.695   4.898 -0.5468  0.0924  0.5360
 8576SOL     OW37186   0.588   2.821  14.644  0.3745  0.1859 -0.0438
 8576SOL    HW137187   0.586   2.793  14.552 -3.4292 -0.3027  0.1870
 8576SOL    HW237188   0.503   2.788  14.674  0.8139 -0.6855  0.2133
 8577SOL     OW37189   1.897   2.678   5.711 -0.8573  0.2263 -0.1746
 8577SOL    HW137190   1.852   2.602   5.749 -1.3606  0.4084 -0.4105
 8577SOL    HW237191   1.974   2.638   5.672 -0.6129  2.1859 -1.7037
 8578SOL     OW37192   3.248   4.452   6.612 -0.4431  0.1748 -0.7801
 8578SOL    HW137193   3.335   4.430   6.580 -0.2878 -0.1112 -0.1614
 8578SOL    HW237194   3.201   4.371   6.591  1.3872 -1.1231  0.0824
 8579SOL     OW37195   0.943   1.808   0.796 -0.0333 -0.0085 -0.4858
 8579SOL    HW137196   0.965   1.891   0.753 -1.7797  1.2972  1.1429
 8579SOL    HW237197   0.863   1.841   0.838 -0.2608 -1.3403  0.1267
 8580SOL     OW37198   0.958   0.651  13.866 -0.3734 -0.0606 -0.4750
 8580SOL    HW137199   0.950   0.641  13.961  0.9974 -2.5416 -0.6335
 8580SOL    HW237200   1.014   0.728  13.854  2.9595 -2.8164 -2.6473
 8581SOL     OW37201   4.016   2.166   1.856  0.2113  0.0721  0.6575
 8581SOL    HW137202   4.052   2.255   1.854  0.0770  0.1523  1.6014
 8581SOL    HW237203   3.979   2.162   1.768 -0.2375  1.2687  0.7943
 8582SOL     OW37204   1.397   0.652  14.879  0.2268  0.2967  0.5997
 8582SOL    HW137205   1.345   0.727  14.852 -0.2795  0.0035  0.7719
 8582SOL    HW237206   1.338   0.582  14.850 -0.4899  1.1135  0.1038
 8583SOL     OW37207   0.872   1.384   9.178  0.2632  0.0676 -0.4787
 8583SOL    HW137208   0.954   1.343   9.206  1.1280  1.1466 -1.4668
 8583SOL    HW237209   0.834   1.398   9.265  1.0813 -1.1015  0.0701
 8584SOL     OW37210   3.739   4.710  14.079 -0.4247  0.3790 -0.1758
 8584SOL    HW137211   3.819   4.723  14.029 -0.2865  1.5603  0.3644
 8584SOL    HW237212   3.682   4.657  14.023 -1.3491  0.6364  0.5057
 8585SOL     OW37213   0.321   2.321   5.075 -0.2716 -0.3647 -0.1466
 8585SOL    HW137214   0.387   2.386   5.052  1.5659 -1.1301  3.0979
 8585SOL    HW237215   0.363   2.278   5.149  1.0886  1.5585  0.1805
 8586SOL     OW37216   2.405   4.194   4.401  0.2807  0.1583  0.0222
 8586SOL    HW137217   2.497   4.204   4.374  0.3165 -0.7182 -0.1561
 8586SOL    HW237218   2.408   4.124   4.465  0.0357  0.5906  0.5066
 8587SOL     OW37219   4.166   4.146  10.670  0.1585  0.5439  0.0599
 8587SOL    HW137220   4.098   4.209  10.695  0.3714  1.1158 -0.7603
 8587SOL    HW237221   4.111   4.068  10.674 -0.1577  0.8861  2.1688
 8588SOL     OW37222   3.852   2.517  14.143 -0.1785 -0.0957  0.1203
 8588SOL    HW137223   3.802   2.474  14.213 -1.1351  0.6152 -0.1298
 8588SOL    HW237224   3.834   2.453  14.074  0.7882 -0.4901  0.2385
 8589SOL     OW37225   1.657   3.041   9.077 -0.0960  0.5207 -0.5412
 8589SOL    HW137226   1.649   2.974   9.009  0.1889 -0.0761  0.0124
 8589SOL    HW237227   1.581   3.096   9.057 -0.5740  0.0789  0.0535
 8590SOL     OW37228   4.627   3.625   7.894 -0.0579 -0.3370  0.4162
 8590SOL    HW137229   4.558   3.570   7.856  0.2567 -0.2742 -0.2528
 8590SOL    HW237230   4.613   3.708   7.848  1.9130 -1.2156 -1.7919
 8591SOL     OW37231   4.133   2.983   9.569  0.0539 -0.9874  0.3954
 8591SOL    HW137232   4.162   2.905   9.617  0.5026 -1.7648 -1.1287
 8591SOL    HW237233   4.040   2.964   9.567 -0.1759  0.2441 -1.2530
 8592SOL     OW37234   1.255   2.659  17.454  0.0853  0.3551  0.3510
 8592SOL    HW137235   1.162   2.649  17.472  0.0461  0.3916  0.1605
 8592SOL    HW237236   1.289   2.607  17.528 -1.8763 -1.1797  0.1830
 8593SOL     OW37237   4.655   3.232   8.053 -0.5540  0.0220 -0.3481
 8593SOL    HW137238   4.680   3.281   7.975  0.5327 -0.7510 -0.4960
 8593SOL    HW237239   4.715   3.157   8.051  0.9305  1.1944  0.2013
 8594SOL     OW37240   3.704   2.813  10.388 -0.1371  0.3484 -0.0309
 8594SOL    HW137241   3.757   2.818  10.309  1.7467  0.0179  1.1968
 8594SOL    HW237242   3.740   2.736  10.433  0.2357  2.0905  2.6666
 8595SOL     OW37243   2.211   1.086  12.785  0.2062 -0.5142  0.4033
 8595SOL    HW137244   2.300   1.119  12.791 -1.0056  3.1161 -1.7029
 8595SOL    HW237245   2.219   1.011  12.845  0.3775  0.3987  1.5276
 8596SOL     OW37246   4.673   2.351  14.862 -0.3863  0.3274 -0.2662
 8596SOL    HW137247   4.670   2.349  14.767 -1.6937 -1.3749 -0.1696
 8596SOL    HW237248   4.655   2.258  14.866 -1.9282  0.5676 -2.1154
 8597SOL     OW37249   2.029   1.656   4.513 -0.0920  0.3840  0.0505
 8597SOL    HW137250   2.059   1.737   4.470 -0.3891  0.7832  0.5938
 8597SOL    HW237251   2.087   1.661   4.588  0.5190  0.0154 -0.4006
 8598SOL     OW37252   2.197   1.181   7.936 -0.5676 -0.3184 -0.0870
 8598SOL    HW137253   2.253   1.148   8.006  1.7772  1.4980 -1.0929
 8598SOL    HW237254   2.261   1.179   7.865 -1.2533 -2.0305 -0.6466
 8599SOL     OW37255   4.412   4.660   4.226 -0.0918  0.5779 -0.7120
 8599SOL    HW137256   4.320   4.658   4.200 -0.8306  1.8721  1.8595
 8599SOL    HW237257   4.412   4.569   4.255 -0.5985  0.9987  0.5867
 8600SOL     OW37258   1.020   1.791   0.362 -0.3719  0.3001 -0.4375
 8600SOL    HW137259   0.967   1.752   0.293  1.9161 -2.7870 -0.4216
 8600SOL    HW237260   1.013   1.880   0.326 -1.1843  1.2663  2.1322
 8601SOL     OW37261   3.998   1.191   4.169 -0.3099 -0.3275 -0.2383
 8601SOL    HW137262   3.941   1.257   4.209  0.7168  0.6044 -0.3296
 8601SOL    HW237263   4.046   1.241   4.102 -0.9559 -0.1528 -0.5691
 8602SOL     OW37264   2.647   2.790   5.644  0.0706  0.2801  0.5588
 8602SOL    HW137265   2.625   2.835   5.726 -0.7475  2.0382 -0.6341
 8602SOL    HW237266   2.612   2.851   5.579  0.6014  0.8733  0.8324
 8603SOL     OW37267   1.563   4.027   3.753  0.0778  0.6516  0.2531
 8603SOL    HW137268   1.483   4.072   3.781  1.4316  2.0752  1.8148
 8603SOL    HW237269   1.532   3.940   3.780  1.0137  0.8347  1.9326
 8604SOL     OW37270   0.108   3.563   4.274 -0.0611  0.0745  0.7439
 8604SOL    HW137271   0.115   3.611   4.357  0.8202  2.6989 -0.8746
 8604SOL    HW237272   0.015   3.540   4.278  0.4654 -2.2441 -0.2846
 8605SOL     OW37273   0.816   1.118   4.587 -0.1122  0.0886 -0.1976
 8605SOL    HW137274   0.780   1.166   4.662 -3.3216  0.1133 -1.7415
 8605SOL    HW237275   0.848   1.192   4.536  0.2502  0.7101  0.9303
 8606SOL     OW37276   4.537   3.773  13.960 -0.4750 -0.0852 -0.2183
 8606SOL    HW137277   4.618   3.751  14.007 -0.3789  2.7188  0.9247
 8606SOL    HW237278   4.547   3.868  13.955  0.0361 -0.2153 -1.4916
 8607SOL     OW37279   4.264   0.770  11.007 -0.0325 -0.1064  0.0060
 8607SOL    HW137280   4.277   0.699  11.071  0.1786  0.4470  0.5836
 8607SOL    HW237281   4.335   0.831  11.029  1.0935 -1.3610 -0.1579
 8608SOL     OW37282   1.164   4.242   9.834  0.2842  0.6916  0.5962
 8608SOL    HW137283   1.242   4.187   9.824 -1.0583 -1.1062  0.0893
 8608SOL    HW237284   1.208   4.316   9.878 -0.5703  1.5020  0.0862
 8609SOL     OW37285   1.517   0.040   8.709 -0.5387  0.2919  0.2617
 8609SOL    HW137286   1.461   0.118   8.715  0.0062  0.8654 -1.8025
 8609SOL    HW237287   1.579   0.071   8.775 -2.2049  2.3761  0.8608
 8610SOL     OW37288   3.703   0.448   3.714 -0.3227 -0.2702  0.2323
 8610SOL    HW137289   3.742   0.370   3.674 -1.8202  0.0864 -1.9174
 8610SOL    HW237290   3.777   0.508   3.706 -3.3277  3.6218  1.4635
 8611SOL     OW37291   2.923   2.335  10.422 -0.6876  0.5448  0.0744
 8611SOL    HW137292   2.990   2.353  10.489  1.7989 -1.7195 -1.8234
 8611SOL    HW237293   2.957   2.248  10.400 -2.6994 -0.4343  0.8895
 8612SOL     OW37294   1.262   0.513   6.718 -0.1185 -0.9771  0.0359
 8612SOL    HW137295   1.318   0.515   6.795  0.1910 -0.3186 -0.2022
 8612SOL    HW237296   1.262   0.418   6.704  0.2392 -1.0701  0.6560
 8613SOL     OW37297   0.088   1.714   2.997  0.3913 -0.2035  0.8871
 8613SOL    HW137298   0.029   1.652   3.040 -1.1222  0.3792 -0.3606
 8613SOL    HW237299   0.054   1.715   2.908  1.8595  0.8076  0.3364
 8614SOL     OW37300   2.499   4.454   2.453 -0.3052 -0.1123 -0.1300
 8614SOL    HW137301   2.422   4.423   2.501  1.2738  1.2222  3.2842
 8614SOL    HW237302   2.477   4.445   2.360 -2.3837 -0.2076  0.3937
 8615SOL     OW37303   0.111   0.651   6.351  0.3106 -0.1223  0.0907
 8615SOL    HW137304   0.179   0.675   6.414  2.6099 -0.1252 -2.3924
 8615SOL    HW237305   0.104   0.558   6.373  0.7884  0.3227  2.0777
 8616SOL     OW37306   3.909   2.373   7.584  0.2754 -0.3045 -0.4691
 8616SOL    HW137307   3.963   2.441   7.626 -1.2727  1.9936 -2.2175
 8616SOL    HW237308   3.877   2.331   7.664  0.5967 -1.1782 -0.7989
 8617SOL     OW37309   0.815   1.979   5.379 -0.0967 -0.2085 -0.1043
 8617SOL    HW137310   0.741   2.013   5.430 -0.5698 -1.0605 -0.2102
 8617SOL    HW237311   0.888   1.973   5.441  0.5892  1.8323 -0.7088
 8618SOL     OW37312   3.906   1.644   9.219 -0.2501 -0.7757 -0.3052
 8618SOL    HW137313   3.965   1.569   9.211  0.7308 -0.2444  1.9731
 8618SOL    HW237314   3.826   1.607   9.179 -1.3524  0.2369  0.9688
 8619SOL     OW37315   4.504   4.150  10.403  0.0308  0.0186  0.1396
 8619SOL    HW137316   4.548   4.082  10.454  0.3539  0.2981  0.2333
 8619SOL    HW237317   4.417   4.155  10.442 -0.8365 -1.5885 -1.6108
 8620SOL     OW37318   1.858   1.496   4.051 -0.2727  0.2255 -0.2189
 8620SOL    HW137319   1.815   1.530   3.972  0.4616 -0.2493 -0.8281
 8620SOL    HW237320   1.888   1.580   4.085  0.5236 -0.1317 -0.0489
 8621SOL     OW37321   2.293   3.524   7.888 -0.9435  0.1051  0.1770
 8621SOL    HW137322   2.211   3.492   7.850 -1.7578 -1.7462  3.4413
 8621SOL    HW237323   2.326   3.436   7.907 -1.7992 -0.8293 -2.6998
 8622SOL     OW37324   1.178   2.587   6.742 -0.2962  0.4312  0.4144
 8622SOL    HW137325   1.174   2.669   6.693 -0.2530 -0.0135 -0.3266
 8622SOL    HW237326   1.112   2.605   6.808 -0.7574  0.3545 -0.0298
 8623SOL     OW37327   0.362   3.895  17.124  0.7129  0.3634 -0.4501
 8623SOL    HW137328   0.415   3.960  17.170 -1.5704 -0.0063  2.6196
 8623SOL    HW237329   0.427   3.824  17.117 -0.0032 -0.1761 -1.7023
 8624SOL     OW37330   0.009   1.659   0.366  0.6965 -0.4537 -0.1400
 8624SOL    HW137331   0.044   1.690   0.282 -0.2061  2.2106  0.4672
 8624SOL    HW237332   0.066   1.709   0.424  0.3441  1.1352 -1.1578
 8625SOL     OW37333   2.403   2.840   2.760  0.2890  0.2565  0.3731
 8625SOL    HW137334   2.492   2.861   2.789 -0.5030  0.2336  2.7906
 8625SOL    HW237335   2.371   2.800   2.841  0.0981 -0.2392  0.0503
 8626SOL     OW37336   0.408   3.006   7.338  0.2735  0.9409  0.8638
 8626SOL    HW137337   0.380   3.092   7.309 -0.7233 -0.0081 -0.9662
 8626SOL    HW237338   0.431   3.047   7.421  0.6238  0.5089  0.9830
 8627SOL     OW37339   3.193   4.643   2.639  0.7355  0.0662 -0.1154
 8627SOL    HW137340   3.110   4.642   2.590  1.0085 -1.6610 -0.5435
 8627SOL    HW237341   3.182   4.570   2.700 -0.8120 -0.7815 -1.4073
 8628SOL     OW37342   0.960   1.243  17.673 -0.3881 -0.1679 -0.8644
 8628SOL    HW137343   0.935   1.335  17.663 -0.0155  0.2259  1.8347
 8628SOL    HW237344   0.997   1.250   0.050 -0.1689  0.3690 -0.9983
 8629SOL     OW37345   0.431   2.925   3.154 -0.0659  0.5219 -0.1840
 8629SOL    HW137346   0.508   2.955   3.106  1.4836 -0.6328  1.5353
 8629SOL    HW237347   0.467   2.906   3.241  1.3973  0.8872 -0.7111
 8630SOL     OW37348   3.813   0.623   3.948  0.5959  0.3224  0.0903
 8630SOL    HW137349   3.736   0.672   3.977  0.4240 -0.8312  1.5641
 8630SOL    HW237350   3.794   0.631   3.854  0.4516  0.7216  0.1503
 8631SOL     OW37351   1.345   3.219   6.761  0.1552 -0.4195 -0.6410
 8631SOL    HW137352   1.341   3.182   6.673  0.8636 -1.6649 -0.1372
 8631SOL    HW237353   1.255   3.246   6.779  0.6179  0.4651  0.4220
 8632SOL     OW37354   2.144   2.238  16.278  0.5702  0.3195  0.1429
 8632SOL    HW137355   2.073   2.246  16.342  0.3819 -0.3680  0.0122
 8632SOL    HW237356   2.210   2.183  16.322  0.9395  0.5764 -0.0836
 8633SOL     OW37357   0.036   2.782  15.140 -0.0317 -0.0978 -0.3358
 8633SOL    HW137358   0.067   2.724  15.209 -0.2998  0.4455  0.2473
 8633SOL    HW237359   0.010   2.713  15.080 -2.1064  1.1738 -0.9119
 8634SOL     OW37360   4.720   0.896  15.306  0.4325  0.2530  0.4399
 8634SOL    HW137361   0.062   0.870  15.246 -0.2686 -1.3752  0.3227
 8634SOL    HW237362   4.648   0.908  15.243  0.0252  2.2301  1.2940
 8635SOL     OW37363   0.157   2.000   9.219 -0.0856  0.2078  0.2168
 8635SOL    HW137364   0.147   2.095   9.231  0.8919  0.1850  1.1402
 8635SOL    HW237365   0.188   1.976   9.306 -1.7796  1.4308  1.1619
 8636SOL     OW37366   0.993   4.363  13.961  0.4966  0.3467  0.0370
 8636SOL    HW137367   0.956   4.449  13.982  0.4981  0.4605 -0.4198
 8636SOL    HW237368   1.043   4.343  14.040 -1.4522 -0.2806  1.1198
 8637SOL     OW37369   4.594   3.723   9.420  0.1096 -0.0612 -0.0524
 8637SOL    HW137370   4.508   3.686   9.406  0.1574 -0.6051  1.0746
 8637SOL    HW237371   4.655   3.655   9.390 -0.5792 -0.7431  0.1251
 8638SOL     OW37372   0.136   1.646  17.408 -0.3019  0.4498 -0.1273
 8638SOL    HW137373   0.164   1.554  17.401  3.3932  1.7510 -2.8867
 8638SOL    HW237374   0.081   1.641  17.486  0.3088 -1.4264  0.1964
 8639SOL     OW37375   2.606   1.544   8.363  0.3117  0.1534  0.0624
 8639SOL    HW137376   2.653   1.531   8.280 -1.9840  0.4743 -1.2850
 8639SOL    HW237377   2.540   1.605   8.330  2.2130  2.4395  0.5346
 8640SOL     OW37378   2.009   4.675  13.078 -0.3107 -0.2191  0.3596
 8640SOL    HW137379   1.946   4.718  13.020 -1.6823  0.0320  2.0438
 8640SOL    HW237380   2.030   4.594  13.032  0.0715 -0.1319  0.3801
 8641SOL     OW37381   4.230   3.228  15.433  0.1223  0.0564  0.0584
 8641SOL    HW137382   4.272   3.243  15.348 -2.3858  1.1073 -0.9941
 8641SOL    HW237383   4.225   3.133  15.430 -1.0353  0.2068 -3.5067
 8642SOL     OW37384   1.584   3.307  10.213  0.3301 -0.2542  0.3668
 8642SOL    HW137385   1.619   3.391  10.242  0.3108 -0.1721  0.1532
 8642SOL    HW237386   1.526   3.334  10.142  1.0901  2.3582  0.7401
 8643SOL     OW37387   4.235   3.567   8.631  0.1508  0.1350 -0.2808
 8643SOL    HW137388   4.145   3.537   8.643 -0.2578  0.9399 -1.3012
 8643SOL    HW237389   4.257   3.591   8.721 -0.2544 -1.2398  0.1828
 8644SOL     OW37390   0.932   1.681   2.635  0.1774 -0.0708 -0.1137
 8644SOL    HW137391   0.848   1.670   2.590 -0.3076  0.8265  0.5756
 8644SOL    HW237392   0.967   1.757   2.589  3.1371 -0.4017  1.5759
 8645SOL     OW37393   0.731   0.849   0.320 -0.1578 -0.5466  0.1597
 8645SOL    HW137394   0.728   0.885   0.409  2.3672 -2.1938  0.8971
 8645SOL    HW237395   0.743   0.930   0.270  0.0459 -0.0256  1.0436
 8646SOL     OW37396   2.668   0.073  12.181  0.3917 -0.2831 -0.1747
 8646SOL    HW137397   2.670   4.707  12.160  0.7381 -0.4892  0.7751
 8646SOL    HW237398   2.729   0.084  12.254 -0.9325 -1.5454  1.1016
 8647SOL     OW37399   3.876   1.059   0.753  0.2566 -0.6168 -0.1983
 8647SOL    HW137400   3.907   1.115   0.683  0.3388 -0.8161 -0.3203
 8647SOL    HW237401   3.903   0.975   0.715  1.0546  0.3106 -1.6538
 8648SOL     OW37402   3.763   4.556  13.713  0.6003  0.3809  0.5266
 8648SOL    HW137403   3.719   4.496  13.653  0.3538 -0.1555  1.2476
 8648SOL    HW237404   3.681   4.588  13.751  0.1959 -0.7723  0.6154
 8649SOL     OW37405   4.698   2.188   6.882 -0.5898 -0.7823  0.0266
 8649SOL    HW137406   4.722   2.103   6.918 -1.6602 -0.3968  1.6397
 8649SOL    HW237407   4.642   2.165   6.808 -0.7158  0.6031 -0.3134
 8650SOL     OW37408   2.521   2.757   7.706  0.0638 -0.3020  0.2372
 8650SOL    HW137409   2.517   2.849   7.680  1.8165 -0.2369  0.2322
 8650SOL    HW237410   2.465   2.705   7.648 -0.0659 -0.3316  0.3886
 8651SOL     OW37411   4.538   1.588   0.148  0.3464  0.0914  0.2110
 8651SOL    HW137412   4.447   1.609   0.127  0.5115  0.7821  0.1843
 8651SOL    HW237413   4.547   1.493   0.145 -2.8430 -0.2290  0.1807
 8652SOL     OW37414   3.038   0.200   5.046  0.1441 -0.5763 -0.0228
 8652SOL    HW137415   3.082   0.201   4.961 -1.6519  0.2511 -0.9361
 8652SOL    HW237416   3.088   0.269   5.089  2.0348 -1.2485 -1.1671
 8653SOL     OW37417   3.836   2.376   8.511 -0.4716 -0.0056  0.0333
 8653SOL    HW137418   3.811   2.416   8.427  1.2477 -0.1128 -0.5154
 8653SOL    HW237419   3.901   2.443   8.531 -1.3665  1.1730 -0.9584
 8654SOL     OW37420   2.034   0.596   6.130 -0.1400  0.2883 -0.2201
 8654SOL    HW137421   2.104   0.657   6.110  1.1815  0.0357  3.6285
 8654SOL    HW237422   2.048   0.515   6.082  0.5739  2.2278 -3.2454
 8655SOL     OW37423   2.486   1.040   7.641  0.1885  0.1732 -0.7107
 8655SOL    HW137424   2.480   0.982   7.565  1.6292 -0.8847 -0.0208
 8655SOL    HW237425   2.568   1.082   7.613  0.6208 -0.0860  0.1746
 8656SOL     OW37426   4.272   2.152  10.214  0.5395  0.8292  0.2586
 8656SOL    HW137427   4.261   2.118  10.126  1.2716 -0.2584  0.5792
 8656SOL    HW237428   4.191   2.121  10.255  0.4444  1.1588  0.3199
 8657SOL     OW37429   4.315   1.680  11.479  0.3968 -0.2166 -0.3453
 8657SOL    HW137430   4.247   1.626  11.438 -0.1152 -0.9638  1.4958
 8657SOL    HW237431   4.278   1.764  11.453 -0.0531  0.0773  1.2920
 8658SOL     OW37432   0.682   1.654   9.326 -0.3583  0.5765  0.3013
 8658SOL    HW137433   0.619   1.599   9.373  1.3821  0.1835  2.1775
 8658SOL    HW237434   0.756   1.658   9.386  1.1453 -0.3848 -1.4847
 8659SOL     OW37435   1.944   3.751  17.331  0.1881 -0.0128 -0.1100
 8659SOL    HW137436   1.850   3.764  17.340  0.1274 -0.0884 -0.6091
 8659SOL    HW237437   1.959   3.695  17.407  1.6917  1.4822  0.6857
 8660SOL     OW37438   2.288   2.597   1.990  0.6450 -0.6781 -0.2235
 8660SOL    HW137439   2.195   2.615   1.977  0.5118 -1.2355 -0.0383
 8660SOL    HW237440   2.275   2.555   2.075 -1.2227 -1.4142 -0.8679
 8661SOL     OW37441   1.228   4.167   5.257  0.0986 -0.4778 -0.2242
 8661SOL    HW137442   1.223   4.204   5.345  3.6740 -2.0544  0.6317
 8661SOL    HW237443   1.141   4.183   5.223  0.2210  3.8739  1.4924
 8662SOL     OW37444   1.860   0.548   6.308  0.1793 -0.0620  0.9458
 8662SOL    HW137445   1.919   0.568   6.235  0.2541 -2.4207  0.3548
 8662SOL    HW237446   1.784   0.600   6.281  0.0761 -0.3456  0.6867
 8663SOL     OW37447   2.085   3.440   5.038  0.5143  0.0026 -0.0596
 8663SOL    HW137448   2.134   3.497   4.979  0.1864 -1.5923 -1.8744
 8663SOL    HW237449   2.005   3.487   5.062  0.3309 -0.1039 -0.4570
 8664SOL     OW37450   1.731   0.202  10.249  0.5829 -0.0373 -0.0378
 8664SOL    HW137451   1.697   0.165  10.330 -0.5766 -0.5884 -0.7754
 8664SOL    HW237452   1.649   0.208  10.201  0.0038  0.5712  1.0379
 8665SOL     OW37453   1.352   2.969   7.495 -0.4296 -0.2984  0.4536
 8665SOL    HW137454   1.294   2.953   7.569  0.3243 -0.0763  1.0878
 8665SOL    HW237455   1.428   3.012   7.534  0.7268 -1.0617 -0.9424
 8666SOL     OW37456   4.110   0.864   8.803  0.2369 -1.4769  0.0872
 8666SOL    HW137457   4.095   0.943   8.855  1.5210 -0.4551 -1.0937
 8666SOL    HW237458   4.205   0.867   8.792  0.1895 -1.6585 -0.3520
 8667SOL     OW37459   4.226   2.440   2.822 -0.1005 -0.4296 -0.2556
 8667SOL    HW137460   4.267   2.357   2.796  0.8362 -0.8625  2.5819
 8667SOL    HW237461   4.251   2.491   2.745  2.4500 -1.4434 -0.1076
 8668SOL     OW37462   3.832   3.967   7.934  0.7953  0.5654  0.4687
 8668SOL    HW137463   3.852   3.977   8.027 -0.7870 -1.8494  1.0415
 8668SOL    HW237464   3.749   3.921   7.931 -0.4544  2.7955  0.5907
 8669SOL     OW37465   3.962   2.038   0.659  0.4818 -0.0373 -0.8186
 8669SOL    HW137466   3.927   1.953   0.686 -0.9978  0.0933 -2.2843
 8669SOL    HW237467   4.053   2.023   0.633  1.1524 -0.8104  1.9865
 8670SOL     OW37468   3.421   3.260   4.633  0.6872  0.0685  0.0831
 8670SOL    HW137469   3.438   3.194   4.565  2.2234  0.6987 -0.1506
 8670SOL    HW237470   3.505   3.261   4.679  0.3496  2.3767  0.6332
 8671SOL     OW37471   0.044   1.513  16.514 -0.0768  0.0213  0.2668
 8671SOL    HW137472   0.058   1.424  16.546  1.4293  0.8965  2.0546
 8671SOL    HW237473   0.120   1.530  16.459  0.8865 -1.3071  1.1831
 8672SOL     OW37474   4.601   2.586   7.130 -0.4555  0.0944 -0.2745
 8672SOL    HW137475   4.667   2.602   7.197 -1.3611 -0.7019  0.8185
 8672SOL    HW237476   4.649   2.612   7.051 -0.0811 -0.3633 -0.1961
 8673SOL     OW37477   3.896   4.389   4.409  0.4341 -0.1965  0.0291
 8673SOL    HW137478   3.815   4.408   4.457  0.7135  1.2195 -0.0481
 8673SOL    HW237479   3.948   4.465   4.436 -0.7582  1.3136 -1.8769
 8674SOL     OW37480   4.540   1.616  11.834  0.3103  0.2033  0.0380
 8674SOL    HW137481   4.522   1.559  11.759  0.9587  0.1115 -0.0422
 8674SOL    HW237482   4.457   1.663  11.845  0.4752  0.5324 -0.1375
 8675SOL     OW37483   0.895   1.274  11.603  0.5012  0.1077  0.0965
 8675SOL    HW137484   0.942   1.354  11.580  1.7337  0.1515  2.8291
 8675SOL    HW237485   0.813   1.286  11.554  2.6466  1.4325 -3.1295
 8676SOL     OW37486   4.366   1.825   1.004 -0.5022  0.0665 -0.2764
 8676SOL    HW137487   4.415   1.834   1.086 -0.7744  3.4682 -0.5084
 8676SOL    HW237488   4.290   1.777   1.037 -0.7580  1.2155  0.8030
 8677SOL     OW37489   4.505   0.973   7.191 -0.6448  0.1878 -0.3334
 8677SOL    HW137490   4.435   1.009   7.136 -1.3658 -0.3251  0.2345
 8677SOL    HW237491   4.541   1.054   7.227  2.5842 -1.2762 -0.3306
 8678SOL     OW37492   0.319   2.055   2.501 -0.2412  0.0881  0.2077
 8678SOL    HW137493   0.337   2.149   2.498  2.1854 -0.3832 -0.3316
 8678SOL    HW237494   0.349   2.027   2.414 -0.7251  0.0889  0.0403
 8679SOL     OW37495   3.907   3.089  16.693  0.0275  0.1637  0.0537
 8679SOL    HW137496   3.893   3.152  16.622  0.3688  0.2516  0.0635
 8679SOL    HW237497   3.819   3.050  16.686 -0.5586  1.4038  0.6146
 8680SOL     OW37498   0.781   4.271   3.607  0.4952 -0.2368 -0.2007
 8680SOL    HW137499   0.693   4.306   3.590 -0.3736 -0.0041  4.8960
 8680SOL    HW237500   0.784   4.278   3.702 -2.3499 -2.3749  0.0381
 8681SOL     OW37501   1.133   0.822   2.168 -0.5670 -0.3583 -0.0342
 8681SOL    HW137502   1.179   0.747   2.207 -2.6628 -1.8910 -0.5236
 8681SOL    HW237503   1.143   0.883   2.242  0.9244 -0.0910 -0.4555
 8682SOL     OW37504   2.548   4.488  13.675 -0.3594  0.0647  0.2897
 8682SOL    HW137505   2.590   4.555  13.730  1.2471  0.1145 -0.9753
 8682SOL    HW237506   2.580   4.416  13.730  0.5630  0.3386  0.1238
 8683SOL     OW37507   2.872   0.065   2.632 -0.1543 -0.7679  0.8335
 8683SOL    HW137508   2.921   0.081   2.552  1.6923  0.5655  2.2087
 8683SOL    HW237509   2.794   0.022   2.598 -0.4941  0.6850 -0.2262
 8684SOL     OW37510   3.084   1.636  16.876 -0.1482  0.2737  0.4979
 8684SOL    HW137511   3.009   1.694  16.886  1.9893  2.9543  0.9454
 8684SOL    HW237512   3.074   1.568  16.943  0.2587 -0.8025 -0.5446
 8685SOL     OW37513   0.880   3.052   7.613  0.2809  0.4793  0.3843
 8685SOL    HW137514   0.886   3.126   7.674 -1.2928  2.0877 -1.3897
 8685SOL    HW237515   0.821   3.004   7.671  0.1875  1.0651  0.7774
 8686SOL     OW37516   2.440   0.820   1.833  0.5705 -0.5274 -0.4000
 8686SOL    HW137517   2.504   0.749   1.839  0.1159 -0.6769  2.8373
 8686SOL    HW237518   2.429   0.822   1.738 -2.7760  1.0951  0.0265
 8687SOL     OW37519   2.189   2.101   6.184 -0.3956 -0.9625  0.5215
 8687SOL    HW137520   2.109   2.050   6.193 -0.2846 -1.1627  0.3723
 8687SOL    HW237521   2.172   2.195   6.193  1.1954 -0.7612  1.4964
 8688SOL     OW37522   1.641   1.147   3.520 -0.9056 -0.2072 -0.0468
 8688SOL    HW137523   1.597   1.232   3.524 -0.9091 -0.3038  1.7104
 8688SOL    HW237524   1.567   1.087   3.515  0.6554 -1.9851 -1.6359
 8689SOL     OW37525   2.904   3.175   6.707  0.1055  0.0326 -0.0430
 8689SOL    HW137526   2.975   3.113   6.689  1.0331  0.4899  2.0505
 8689SOL    HW237527   2.972   3.231   6.744 -0.7090  1.5998 -0.9006
 8690SOL     OW37528   2.179   1.746  12.225 -0.1283  0.6604 -0.3001
 8690SOL    HW137529   2.211   1.764  12.314  2.4698 -1.6136 -0.7819
 8690SOL    HW237530   2.178   1.832  12.184  0.4063  0.3345 -1.0024
 8691SOL     OW37531   3.392   3.741  15.392 -0.5260 -0.0153  0.4587
 8691SOL    HW137532   3.325   3.786  15.341 -0.3786 -0.2149  0.0827
 8691SOL    HW237533   3.469   3.798  15.379 -1.2403  0.6621 -0.8189
 8692SOL     OW37534   0.610   2.755  14.065  0.5167 -0.3705  0.7062
 8692SOL    HW137535   0.610   2.783  13.974 -1.8214  0.4426  0.9535
 8692SOL    HW237536   0.674   2.683  14.065  1.1070  0.1681 -2.7635
 8693SOL     OW37537   0.686   0.728   2.369  0.4950  0.2288  0.4993
 8693SOL    HW137538   0.595   0.698   2.356  0.3785  0.9133 -0.2755
 8693SOL    HW237539   0.678   0.770   2.454  0.2629  2.3158 -0.5471
 8694SOL     OW37540   1.417   3.678   7.122  0.0675 -0.2605 -0.4329
 8694SOL    HW137541   1.484   3.612   7.142 -0.8866 -1.1344 -0.0813
 8694SOL    HW237542   1.348   3.624   7.083  0.7569 -1.7337  0.3785
 8695SOL     OW37543   4.145   1.785   9.297 -0.4937 -0.1643 -0.2202
 8695SOL    HW137544   4.073   1.742   9.250  0.9673 -1.7069 -1.0580
 8695SOL    HW237545   4.199   1.706   9.304 -0.3398 -0.1853 -1.5914
 8696SOL     OW37546   1.519   1.564   8.334 -0.8016 -0.2117 -0.2199
 8696SOL    HW137547   1.562   1.484   8.365  1.3374  0.1860 -2.1094
 8696SOL    HW237548   1.457   1.586   8.403  0.6689  0.5008  0.8776
 8697SOL     OW37549   2.554   3.750   8.504  0.4515  0.2110 -0.4577
 8697SOL    HW137550   2.522   3.696   8.575  0.6192  2.1003  1.0682
 8697SOL    HW237551   2.586   3.817   8.564 -0.1108  0.8096 -0.8220
 8698SOL     OW37552   3.500   1.567  16.704  0.5571  0.5982 -0.3736
 8698SOL    HW137553   3.523   1.577  16.796  0.7467  0.9840 -0.4644
 8698SOL    HW237554   3.458   1.481  16.708  0.4537  0.6690  0.0833
 8699SOL     OW37555   2.997   0.911   7.808  0.3100  0.0859  0.5468
 8699SOL    HW137556   2.917   0.928   7.858  0.4063 -1.1698  1.1321
 8699SOL    HW237557   2.998   0.815   7.816  3.4145 -0.2066 -3.4069
 8700SOL     OW37558   0.828   1.311   5.991  0.1619  0.0236  0.1138
 8700SOL    HW137559   0.812   1.352   6.076 -0.4318 -0.1247  0.0721
 8700SOL    HW237560   0.771   1.234   5.990  0.1507  0.0123  1.0548
 8701SOL     OW37561   2.042   0.101   9.247  0.2145 -0.1919 -0.6936
 8701SOL    HW137562   2.053   0.140   9.334  0.8115 -1.8913 -0.0059
 8701SOL    HW237563   2.055   0.179   9.193  1.7274  0.7986  1.1398
 8702SOL     OW37564   1.478   1.450  14.497  0.5657 -0.0604 -0.5090
 8702SOL    HW137565   1.501   1.427  14.407  0.2739  0.3291 -0.6861
 8702SOL    HW237566   1.554   1.484  14.544 -1.0559  0.6199  1.6087
 8703SOL     OW37567   0.358   4.491  11.807  0.0429 -0.2372  0.3820
 8703SOL    HW137568   0.305   4.429  11.757 -0.8261  2.2344 -1.7696
 8703SOL    HW237569   0.368   4.556  11.737  0.9975 -2.4138 -1.5272
 8704SOL     OW37570   1.346   4.115  13.170  0.0411 -0.0002 -0.1332
 8704SOL    HW137571   1.373   4.070  13.250  0.7922  1.7554  0.5960
 8704SOL    HW237572   1.363   4.204  13.200  0.0489 -0.0659  0.0587
 8705SOL     OW37573   2.190   2.111   5.288  0.6631 -0.1131 -0.0089
 8705SOL    HW137574   2.121   2.163   5.328 -0.9849 -2.3624  0.0429
 8705SOL    HW237575   2.271   2.158   5.306  1.4262 -0.3902 -2.5841
 8706SOL     OW37576   0.908   4.435   4.055 -0.2530  0.3590 -0.1593
 8706SOL    HW137577   0.935   4.366   4.115  1.5225 -0.3629 -1.8001
 8706SOL    HW237578   0.814   4.419   4.045 -0.4293  0.8600  0.6854
 8707SOL     OW37579   0.546   2.162   1.818 -0.0738 -0.3763  0.0690
 8707SOL    HW137580   0.639   2.143   1.827 -0.1991 -0.1946  1.8660
 8707SOL    HW237581   0.552   2.256   1.834  0.9012 -0.6019  1.0342
 8708SOL     OW37582   3.910   4.635   6.382  0.1532  0.1043  0.2086
 8708SOL    HW137583   3.903   4.545   6.351  1.6504  0.0984 -0.1112
 8708SOL    HW237584   3.833   4.672   6.339 -0.4344 -0.5361  0.7114
 8709SOL     OW37585   2.414   1.368   4.159 -0.1216 -0.3638  0.3516
 8709SOL    HW137586   2.375   1.438   4.211  2.4071  1.8508 -0.7125
 8709SOL    HW237587   2.405   1.416   4.076  1.0614 -2.0273 -0.7474
 8710SOL     OW37588   0.661   0.884  12.879 -0.7791  0.1678 -0.1651
 8710SOL    HW137589   0.623   0.944  12.943  1.2634  2.5670 -1.2145
 8710SOL    HW237590   0.609   0.894  12.799 -0.1585  0.0393 -0.5901
 8711SOL     OW37591   2.106   0.325   6.018  0.0575  0.0345 -0.1197
 8711SOL    HW137592   2.051   0.247   6.019 -0.7580  0.5698 -1.9856
 8711SOL    HW237593   2.186   0.292   6.059  0.0591  0.4542  0.2113
 8712SOL     OW37594   0.958   0.971   9.155 -0.1334  0.1888 -0.3353
 8712SOL    HW137595   0.865   0.978   9.176 -1.0884  1.4597 -4.8785
 8712SOL    HW237596   0.991   0.981   9.244  0.3989 -1.5732 -0.3327
 8713SOL     OW37597   1.640   1.097   8.724 -0.3206  0.0758  0.8942
 8713SOL    HW137598   1.584   1.076   8.798 -1.9225 -1.0554 -0.6304
 8713SOL    HW237599   1.590   1.043   8.662  0.6631 -0.7604  0.8168
 8714SOL     OW37600   1.331   0.884   0.418 -0.1680 -0.2931  0.0372
 8714SOL    HW137601   1.290   0.945   0.357  0.3823  0.1615  0.1228
 8714SOL    HW237602   1.340   0.812   0.356  0.2490  1.8559 -2.4015
 8715SOL     OW37603   3.704   0.451   3.329 -0.4583  0.0991 -0.0452
 8715SOL    HW137604   3.681   0.365   3.293  1.1742 -0.0942 -0.6260
 8715SOL    HW237605   3.622   0.464   3.377 -0.9758 -0.4190 -0.7749
 8716SOL     OW37606   2.972   3.419   2.800 -0.2499 -0.1688  0.0579
 8716SOL    HW137607   2.989   3.492   2.859  0.9216 -0.5023  0.1266
 8716SOL    HW237608   2.964   3.464   2.716  0.1774 -1.5103 -0.7106
 8717SOL     OW37609   3.310   1.187   2.160  0.1820  0.5011  0.0399
 8717SOL    HW137610   3.358   1.107   2.183 -1.6834 -0.2573  1.3209
 8717SOL    HW237611   3.273   1.158   2.077 -0.0155  0.3973  0.1640
 8718SOL     OW37612   3.420   1.007   1.517 -0.3641 -0.1423  0.3204
 8718SOL    HW137613   3.340   1.056   1.535 -0.9131 -0.5730 -0.8982
 8718SOL    HW237614   3.434   1.019   1.423  0.2502  0.8183  0.5286
 8719SOL     OW37615   4.529   0.328   7.178  0.3191 -0.0294 -0.3987
 8719SOL    HW137616   4.600   0.361   7.233  1.4370 -0.5268 -1.5595
 8719SOL    HW237617   4.504   0.411   7.137  0.7360 -0.2044 -1.0067
 8720SOL     OW37618   3.163   1.231  10.606  0.4407  0.2021  0.0222
 8720SOL    HW137619   3.111   1.311  10.616 -0.7752 -0.7949  1.6405
 8720SOL    HW237620   3.126   1.168  10.667  1.5300 -0.5501 -0.0896
 8721SOL     OW37621   3.748   2.749   8.560  0.1182 -0.3236 -0.5104
 8721SOL    HW137622   3.753   2.686   8.488  1.3821 -0.1203 -0.6112
 8721SOL    HW237623   3.822   2.809   8.545 -0.2959  0.6515  1.3452
 8722SOL     OW37624   4.247   3.840   5.077  0.1443 -0.3686  0.2666
 8722SOL    HW137625   4.225   3.772   5.014 -0.3336  0.6299 -0.6421
 8722SOL    HW237626   4.342   3.848   5.072  0.2146 -0.9695  0.5917
 8723SOL     OW37627   1.041   0.033   8.132 -0.1942  0.1144  0.4671
 8723SOL    HW137628   1.100   0.003   8.063 -0.7598 -0.7034  0.3410
 8723SOL    HW237629   1.012   4.675   8.164  1.7081 -0.8022 -0.2604
 8724SOL     OW37630   3.611   3.371   6.253 -0.3241 -0.3051  0.0264
 8724SOL    HW137631   3.647   3.451   6.291  0.7606  0.0046 -1.6737
 8724SOL    HW237632   3.577   3.333   6.334 -0.3216 -3.2170 -1.3446
 8725SOL     OW37633   0.487   3.801   9.016  0.1871 -0.0465  0.2702
 8725SOL    HW137634   0.476   3.732   9.082  0.3696  0.1647  0.5232
 8725SOL    HW237635   0.396   3.831   9.012  0.5028  0.7371 -0.8906
 8726SOL     OW37636   2.721   1.417   3.951 -0.3078  0.5910 -0.2340
 8726SOL    HW137637   2.731   1.331   3.912 -0.6627  0.7111 -0.6004
 8726SOL    HW237638   2.680   1.465   3.878 -0.2622 -0.4402 -0.9376
 8727SOL     OW37639   4.026   2.414   6.123 -0.1199 -0.5095 -0.0517
 8727SOL    HW137640   3.934   2.394   6.104 -0.5766 -0.1934  1.8033
 8727SOL    HW237641   4.062   2.328   6.145 -0.6104 -1.1545 -1.7858
 8728SOL     OW37642   0.201   2.688   4.025  0.2942  0.7418 -0.5579
 8728SOL    HW137643   0.284   2.657   3.988  1.2526  1.6681  0.8329
 8728SOL    HW237644   0.146   2.622   3.983 -0.2967  1.6418 -1.1941
 8729SOL     OW37645   0.513   2.654   0.297 -0.6748  0.2539  0.1573
 8729SOL    HW137646   0.532   2.638   0.389  0.0120 -0.9304 -0.1937
 8729SOL    HW237647   0.420   2.678   0.301 -0.4147  1.1230  1.0860
 8730SOL     OW37648   4.312   3.469   7.019  0.1413  0.9631 -0.4135
 8730SOL    HW137649   4.289   3.376   7.013  1.7186  0.4766  0.9578
 8730SOL    HW237650   4.226   3.499   6.991 -0.6458 -2.0949 -1.3351
 8731SOL     OW37651   2.107   0.105  10.376 -0.0738 -0.0662  0.1019
 8731SOL    HW137652   2.095   0.200  10.386 -1.3344 -0.3268  0.9987
 8731SOL    HW237653   2.018   0.074  10.391  0.5767 -1.0448  2.0274
 8732SOL     OW37654   3.111   1.398  14.130 -0.0454 -0.0329 -0.5013
 8732SOL    HW137655   3.160   1.316  14.139  0.3962  0.3622  0.7160
 8732SOL    HW237656   3.031   1.373  14.176  1.4946 -0.4527  1.9584
 8733SOL     OW37657   2.783   3.305   6.484 -0.0949 -0.5493  0.3264
 8733SOL    HW137658   2.729   3.346   6.551  1.4709  0.2714  1.0794
 8733SOL    HW237659   2.790   3.219   6.525  2.7927  0.9069  2.8495
 8734SOL     OW37660   2.761   2.284  12.972 -0.0008  0.5631  0.0220
 8734SOL    HW137661   2.834   2.323  13.020  0.7604  0.0433 -0.7072
 8734SOL    HW237662   2.806   2.212  12.927  1.4202  1.1284  0.5565
 8735SOL     OW37663   3.680   2.541   1.601 -0.3874 -0.3627 -0.3075
 8735SOL    HW137664   3.700   2.475   1.535 -0.0503  0.5821 -1.1341
 8735SOL    HW237665   3.768   2.556   1.635 -0.2433  2.2536 -1.8454
 8736SOL     OW37666   0.236   3.730   5.731 -0.2915 -0.4037 -0.1434
 8736SOL    HW137667   0.307   3.703   5.789  0.7475 -0.6031 -1.5294
 8736SOL    HW237668   0.282   3.784   5.667  1.0331 -0.1391  1.0436
 8737SOL     OW37669   1.716   0.608   0.303 -0.4375  0.0328 -0.0573
 8737SOL    HW137670   1.805   0.643   0.297  0.6686 -2.6470  0.5415
 8737SOL    HW237671   1.676   0.644   0.225 -3.3817 -1.2014  0.8879
 8738SOL     OW37672   3.329   2.441  16.876 -0.3479  0.5519 -0.1973
 8738SOL    HW137673   3.338   2.482  16.962  0.6227  0.4224 -0.2385
 8738SOL    HW237674   3.302   2.351  16.896 -0.3486  0.2598 -1.5327
 8739SOL     OW37675   1.310   1.758   4.614  0.1779  0.2392 -0.5739
 8739SOL    HW137676   1.229   1.797   4.647 -0.3555 -1.2632 -0.1026
 8739SOL    HW237677   1.283   1.725   4.528  0.0408  1.3219 -0.9387
 8740SOL     OW37678   0.653   4.273   2.334 -0.7866 -0.0902  0.0273
 8740SOL    HW137679   0.602   4.307   2.261 -0.9220 -2.7642 -1.1536
 8740SOL    HW237680   0.701   4.344   2.375 -2.5078 -0.7458  3.1502
 8741SOL     OW37681   2.789   3.200   5.994  0.1298  0.0928  0.3052
 8741SOL    HW137682   2.728   3.145   6.044  0.2382 -0.2172  0.0946
 8741SOL    HW237683   2.795   3.279   6.049  1.7540 -0.5691  1.0661
 8742SOL     OW37684   3.080   3.153   4.866  0.2833 -0.1505  0.1424
 8742SOL    HW137685   3.149   3.174   4.929  0.6371  1.5027 -0.7786
 8742SOL    HW237686   3.057   3.063   4.887 -1.5606  0.0209 -1.0937
 8743SOL     OW37687   0.763   1.320   3.442 -0.4436 -0.1710 -0.5865
 8743SOL    HW137688   0.719   1.376   3.505 -0.3886 -2.8855  1.8417
 8743SOL    HW237689   0.845   1.369   3.435  0.1481 -1.0732 -0.0246
 8744SOL     OW37690   2.285   3.069  14.389  0.1213 -0.0415  0.7634
 8744SOL    HW137691   2.333   3.019  14.323 -1.3106  0.5643 -0.7367
 8744SOL    HW237692   2.224   3.001  14.420 -1.7018  1.6584  0.9520
 8745SOL     OW37693   2.742   4.560   5.926 -0.2696  0.0201  0.5850
 8745SOL    HW137694   2.676   4.546   5.994  0.7592  1.0203  1.7622
 8745SOL    HW237695   2.717   4.506   5.850 -0.2220  0.0391  0.5560
 8746SOL     OW37696   2.347   2.048   2.231  0.2025  0.1602  0.3650
 8746SOL    HW137697   2.337   1.968   2.281 -1.6260  0.3876  0.3867
 8746SOL    HW237698   2.257   2.080   2.226 -0.4092 -1.4362  1.1622
 8747SOL     OW37699   1.992   3.218  11.390  0.3986  0.4606  0.3522
 8747SOL    HW137700   2.005   3.198  11.483 -2.1547 -0.7452  0.4678
 8747SOL    HW237701   2.055   3.288  11.378  2.0508 -0.6778  2.3305
 8748SOL     OW37702   3.486   0.947   7.270  0.0674  0.1255  0.4731
 8748SOL    HW137703   3.412   1.001   7.242  0.4428  0.7148  0.6139
 8748SOL    HW237704   3.560   1.006   7.255  1.3730 -1.9315 -1.0865
 8749SOL     OW37705   3.018   4.179   5.576  0.5379 -1.0173  0.7746
 8749SOL    HW137706   3.011   4.088   5.549  1.9647 -0.7240 -0.5945
 8749SOL    HW237707   2.931   4.219   5.567  0.7309 -0.7714  0.0014
 8750SOL     OW37708   1.039   2.962  11.963 -0.0312 -0.0736 -0.4409
 8750SOL    HW137709   1.030   2.991  11.873 -1.3535 -0.2195 -0.3532
 8750SOL    HW237710   1.091   3.037  11.994 -1.3024  0.1583  1.1459
 8751SOL     OW37711   2.447   0.266   4.344 -0.1864 -0.3609  0.5448
 8751SOL    HW137712   2.471   0.179   4.375 -0.8072 -0.4352  0.8191
 8751SOL    HW237713   2.526   0.289   4.296  0.6780 -0.4682  1.9123
 8752SOL     OW37714   2.664   4.469   6.500 -0.2531  0.6065  0.3289
 8752SOL    HW137715   2.626   4.477   6.413  1.9202 -1.4730 -0.7848
 8752SOL    HW237716   2.702   4.556   6.508 -0.4190  0.8676 -1.8244
 8753SOL     OW37717   2.505   0.607  16.243  0.2625  0.0952 -0.9419
 8753SOL    HW137718   2.447   0.657  16.186 -0.6280  0.0009 -0.1240
 8753SOL    HW237719   2.447   0.531  16.251  0.2955  0.0977 -0.6795
 8754SOL     OW37720   2.233   3.921   7.397 -0.3280 -0.0509 -0.2936
 8754SOL    HW137721   2.306   3.876   7.356 -0.4668  0.4053 -1.0466
 8754SOL    HW237722   2.198   3.972   7.324 -1.5013  0.2259  0.4610
 8755SOL     OW37723   3.434   3.619  10.285 -0.4784  1.1929  0.6618
 8755SOL    HW137724   3.458   3.639  10.376  0.0338 -0.5377  0.9002
 8755SOL    HW237725   3.349   3.663  10.277 -2.2690 -2.6420 -1.1695
 8756SOL     OW37726   1.036   4.339   4.674 -1.6700  0.7378 -0.6022
 8756SOL    HW137727   1.102   4.290   4.625 -1.1220 -0.7783  1.6432
 8756SOL    HW237728   1.068   4.428   4.661 -0.5366  0.8870  3.2338
 8757SOL     OW37729   4.594   2.122   4.296 -0.1027  0.2338  0.1543
 8757SOL    HW137730   4.613   2.030   4.277 -1.8217 -0.3121  1.0433
 8757SOL    HW237731   4.680   2.161   4.310  0.0055  0.0249  0.0647
 8758SOL     OW37732   1.605   1.412   4.174 -0.1488 -0.3186  0.4334
 8758SOL    HW137733   1.683   1.466   4.187 -1.1308  0.8387  1.5206
 8758SOL    HW237734   1.630   1.377   4.088 -1.6479 -0.4618  0.0597
 8759SOL     OW37735   2.997   3.853  11.201 -0.0106 -0.2111 -0.2678
 8759SOL    HW137736   2.968   3.811  11.282 -0.0835  0.8016  0.2213
 8759SOL    HW237737   3.005   3.945  11.224 -0.0407 -0.2703 -0.0282
 8760SOL     OW37738   0.010   1.786   8.731  0.0426  0.0441  0.7425
 8760SOL    HW137739   4.677   1.855   8.703  2.2372  0.5053 -2.7596
 8760SOL    HW237740   0.078   1.837   8.776 -0.0834  2.2962 -1.6378
 8761SOL     OW37741   0.578   3.432   7.209 -0.0186 -0.0464  0.1972
 8761SOL    HW137742   0.669   3.451   7.231  0.5231  1.4152 -3.4404
 8761SOL    HW237743   0.588   3.337   7.204 -1.1497 -0.2233  1.0498
 8762SOL     OW37744   4.367   4.141   7.065  0.2049 -0.0913 -0.1658
 8762SOL    HW137745   4.314   4.197   7.008 -0.3153  0.4049  0.8013
 8762SOL    HW237746   4.295   4.136   7.128  0.9300 -0.6945  0.6026
 8763SOL     OW37747   4.313   3.802   3.777 -0.1293  0.4983 -0.0303
 8763SOL    HW137748   4.282   3.757   3.699  0.7579 -0.5679  0.2340
 8763SOL    HW237749   4.326   3.894   3.751  0.5796  0.0751 -1.1762
 8764SOL     OW37750   2.413   3.510   5.932  0.5869 -0.0543  0.2371
 8764SOL    HW137751   2.333   3.464   5.957 -0.3082  1.0536 -0.5687
 8764SOL    HW237752   2.400   3.594   5.975  0.5541  0.1763 -0.2266
 8765SOL     OW37753   3.881   3.072  16.955  0.5984 -0.3277  0.7124
 8765SOL    HW137754   3.886   3.070  16.859 -0.4900  1.4072  0.6121
 8765SOL    HW237755   3.959   3.126  16.968  1.3598 -1.1843 -0.3058
 8766SOL     OW37756   1.011   2.755   8.008 -0.1875 -0.1573 -0.0579
 8766SOL    HW137757   0.986   2.666   8.033  1.0352 -0.4006  0.2910
 8766SOL    HW237758   1.093   2.749   7.957  0.5043  2.9132  0.6979
 8767SOL     OW37759   0.137   3.912   4.998 -0.3885 -0.4593  0.7588
 8767SOL    HW137760   0.193   3.836   5.011  1.7197  0.8582 -0.7708
 8767SOL    HW237761   0.183   3.982   5.044 -0.6046  0.5458 -0.5817
 8768SOL     OW37762   1.833   2.116   5.591 -0.5306  0.0932 -0.4847
 8768SOL    HW137763   1.870   2.093   5.676  1.4013  1.5432 -0.9303
 8768SOL    HW237764   1.753   2.162   5.619 -1.2087 -0.1298 -2.0237
 8769SOL     OW37765   0.887   0.508   4.773 -0.4549  0.3376  0.6788
 8769SOL    HW137766   0.963   0.567   4.773 -1.2623  1.4044 -0.7538
 8769SOL    HW237767   0.830   0.557   4.832 -0.0459  0.8811  0.6245
 8770SOL     OW37768   4.314   2.731   7.036  0.0261  0.3298  0.1879
 8770SOL    HW137769   4.408   2.728   7.051  0.2248  0.4828 -1.0553
 8770SOL    HW237770   4.283   2.657   7.090 -1.3461  0.7916  0.0369
 8771SOL     OW37771   3.512   0.122   6.295  0.0724  0.2379 -0.0238
 8771SOL    HW137772   3.481   0.031   6.306 -0.2350  0.3394 -0.0404
 8771SOL    HW237773   3.427   0.153   6.326 -0.6139 -1.4580 -0.1945
 8772SOL     OW37774   2.079   3.368   8.368 -0.5687  0.3447  0.0458
 8772SOL    HW137775   2.008   3.426   8.339 -2.2119 -2.0554 -0.7164
 8772SOL    HW237776   2.101   3.407   8.453 -0.9704 -0.4438  0.5141
 8773SOL     OW37777   2.163   1.939  15.399 -0.5717 -0.3331 -0.1579
 8773SOL    HW137778   2.223   1.891  15.342  0.6218  0.3826  0.5104
 8773SOL    HW237779   2.185   2.031  15.388  0.3795 -0.2858  2.2817
 8774SOL     OW37780   2.595   3.596   8.952 -0.0255 -0.0436  0.6569
 8774SOL    HW137781   2.612   3.515   8.903 -1.7568 -1.6309  2.7382
 8774SOL    HW237782   2.648   3.574   9.029  2.4266  1.9862 -0.4364
 8775SOL     OW37783   2.645   0.908  11.057  0.8766  0.2984 -0.2264
 8775SOL    HW137784   2.627   0.868  11.142 -1.1759  2.0344  0.1675
 8775SOL    HW237785   2.655   1.000  11.082 -3.2447  0.7653 -0.3896
 8776SOL     OW37786   0.958   3.181   5.239  0.6412 -0.0035 -0.5953
 8776SOL    HW137787   0.907   3.166   5.160 -2.0495 -1.2895  1.3919
 8776SOL    HW237788   1.010   3.257   5.211  2.0376 -0.4573  0.7785
 8777SOL     OW37789   1.931   0.065   2.103 -0.4653  0.4097 -0.2389
 8777SOL    HW137790   1.935   0.156   2.132 -0.3210 -0.2290  1.7442
 8777SOL    HW237791   2.005   0.070   2.043  1.5333 -1.3914  2.0981
 8778SOL     OW37792   0.195   3.485   3.218  0.3512  0.3331  0.6988
 8778SOL    HW137793   0.129   3.509   3.152  0.5139  2.3790  1.2802
 8778SOL    HW237794   0.176   3.392   3.212  3.4727 -0.2345 -0.4163
 8779SOL     OW37795   0.583   1.534   6.400  0.2273  0.4457  0.1770
 8779SOL    HW137796   0.626   1.492   6.474  0.0227  0.8148  0.5015
 8779SOL    HW237797   0.511   1.472   6.384  1.6392 -0.4884 -2.4773
 8780SOL     OW37798   2.031   3.202  12.666  0.0193  0.1790 -0.3697
 8780SOL    HW137799   2.025   3.107  12.652  1.0363 -0.1244  1.1956
 8780SOL    HW237800   2.081   3.207  12.748  1.4539  1.2895 -1.3187
 8781SOL     OW37801   1.815   4.661   8.694 -0.0867 -0.2686 -0.5637
 8781SOL    HW137802   1.748   4.615   8.642  1.2540 -2.0823 -0.7042
 8781SOL    HW237803   1.772   4.695   8.772  0.5275 -1.9753  0.5318
 8782SOL     OW37804   3.669   1.425   6.094  0.5481 -0.4578 -0.0980
 8782SOL    HW137805   3.634   1.337   6.103 -1.2725  0.0905 -1.7754
 8782SOL    HW237806   3.760   1.418   6.121  0.9713 -0.1180 -1.4449
 8783SOL     OW37807   2.605   0.567   4.946  0.0065 -0.0414 -0.2399
 8783SOL    HW137808   2.635   0.649   4.986  0.8565 -0.7426  0.5461
 8783SOL    HW237809   2.536   0.545   5.009 -1.4209 -0.5091 -1.9584
 8784SOL     OW37810   0.455   0.149   7.217  0.2932  0.0945 -0.4432
 8784SOL    HW137811   0.463   0.057   7.191 -0.2518 -0.2681  0.6655
 8784SOL    HW237812   0.531   0.191   7.177 -0.9908  1.2493 -1.7038
 8785SOL     OW37813   1.952   3.970   5.889 -0.1118 -0.5638 -0.4287
 8785SOL    HW137814   1.913   4.035   5.831  0.7591  1.9126  1.7969
 8785SOL    HW237815   1.891   3.969   5.962  0.9659 -1.8588  0.4595
 8786SOL     OW37816   2.359   2.021   8.405  0.0425 -0.2240  0.0639
 8786SOL    HW137817   2.445   2.039   8.369  0.4717 -0.5922  0.8984
 8786SOL    HW237818   2.315   1.981   8.330  0.9315  0.1364 -0.6382
 8787SOL     OW37819   1.794   3.948   9.364 -0.2130 -0.3602  0.8224
 8787SOL    HW137820   1.860   4.017   9.365  0.6333 -1.0615 -3.2673
 8787SOL    HW237821   1.838   3.879   9.412 -1.2707 -0.1598  2.0766
 8788SOL     OW37822   3.356   0.993  11.546  0.4394  0.1405  0.2505
 8788SOL    HW137823   3.428   0.939  11.577 -0.5654 -1.1903  0.2822
 8788SOL    HW237824   3.287   0.930  11.528  0.5848  0.9090 -2.9675
 8789SOL     OW37825   4.659   3.648  11.401 -0.0880 -0.9652 -0.1031
 8789SOL    HW137826   4.631   3.720  11.456 -0.8908 -1.6774  0.4262
 8789SOL    HW237827   4.682   3.584  11.469  0.9125  0.2155  0.6588
 8790SOL     OW37828   1.440   4.580  17.049 -0.1911 -0.0555 -0.1164
 8790SOL    HW137829   1.411   4.662  17.087 -2.2785 -0.8309 -0.0533
 8790SOL    HW237830   1.400   4.518  17.110 -0.0582 -1.0032 -0.9825
 8791SOL     OW37831   2.749   3.994   2.689 -0.0234  0.1899 -0.8673
 8791SOL    HW137832   2.831   3.990   2.739 -0.2080 -3.2315 -0.8724
 8791SOL    HW237833   2.743   3.911   2.643  0.3760 -0.0033 -0.5714
 8792SOL     OW37834   2.796   3.729  15.050  0.5141 -0.0052  0.2844
 8792SOL    HW137835   2.719   3.779  15.024  1.3489 -0.5673 -3.3665
 8792SOL    HW237836   2.869   3.758  14.994  0.0762  0.2292 -0.1697
 8793SOL     OW37837   0.570   1.475  10.220  0.1120  0.2187 -0.2153
 8793SOL    HW137838   0.655   1.466  10.177  0.0564 -2.1657  0.2033
 8793SOL    HW237839   0.582   1.479  10.314 -2.2702  0.7547  0.0539
 8794SOL     OW37840   2.202   3.576   4.159  0.5653  0.3397  0.4038
 8794SOL    HW137841   2.288   3.560   4.119  0.1394  1.4393 -0.9484
 8794SOL    HW237842   2.206   3.671   4.164 -1.7089  0.3696  1.5944
 8795SOL     OW37843   0.775   0.134   1.860 -0.3835  0.4440  0.4907
 8795SOL    HW137844   0.714   0.198   1.897 -0.5564  0.2266  0.5800
 8795SOL    HW237845   0.790   0.180   1.777 -1.2914  2.7329  1.6000
 8796SOL     OW37846   3.205   2.203   7.068 -0.5347 -0.4628  0.2126
 8796SOL    HW137847   3.290   2.200   7.111 -0.3863  0.3905 -0.0261
 8796SOL    HW237848   3.182   2.295   7.079 -1.1726 -0.5454 -0.3988
 8797SOL     OW37849   3.442   1.894   3.264 -0.4263  0.1609  0.1161
 8797SOL    HW137850   3.349   1.877   3.247 -0.2312  0.1320 -0.9273
 8797SOL    HW237851   3.441   1.921   3.356 -0.7067  0.6352 -0.0225
 8798SOL     OW37852   3.726   2.169   0.756  0.5272 -0.1703 -0.3990
 8798SOL    HW137853   3.809   2.133   0.723 -0.5788 -1.3673 -1.8580
 8798SOL    HW237854   3.724   2.120   0.838 -0.7815  1.4631  0.5346
 8799SOL     OW37855   4.113   3.353   5.407 -0.0079  0.0857  0.6890
 8799SOL    HW137856   4.034   3.394   5.442  1.1389  0.3040  3.0211
 8799SOL    HW237857   4.070   3.276   5.371  1.6832  0.0475 -1.2798
 8800SOL     OW37858   3.109   0.860   0.203 -0.6733 -0.0907  0.1977
 8800SOL    HW137859   3.070   0.947   0.215  1.1824  0.7298  0.1803
 8800SOL    HW237860   3.119   0.855   0.108 -0.3590  1.2556  0.1578
 8801SOL     OW37861   1.250   2.293   7.041 -0.4891  0.1255 -0.1750
 8801SOL    HW137862   1.232   2.244   7.121  0.8954 -0.3590 -0.1625
 8801SOL    HW237863   1.226   2.384   7.061  1.3546  0.4056  0.7593
 8802SOL     OW37864   2.782   0.380   5.429 -0.5153  0.1632  0.5326
 8802SOL    HW137865   2.687   0.380   5.438 -0.3168  0.7233  2.7497
 8802SOL    HW237866   2.784   0.447   5.360 -1.6518  0.5580  0.8892
 8803SOL     OW37867   4.448   4.316   5.316 -0.4032  0.8361 -0.2521
 8803SOL    HW137868   4.419   4.227   5.334 -1.4383  1.4494  1.1295
 8803SOL    HW237869   4.539   4.317   5.346  0.2420 -0.3907 -2.1887
 8804SOL     OW37870   4.231   0.501   7.423 -0.1536  0.2478  0.1745
 8804SOL    HW137871   4.301   0.552   7.384  0.2055 -0.8355 -0.5897
 8804SOL    HW237872   4.270   0.463   7.502  1.7814  1.3538 -0.2650
 8805SOL     OW37873   0.030   0.468   6.686 -0.0936  0.0606  0.2091
 8805SOL    HW137874   0.043   0.462   6.592 -1.4455  0.1731  0.0124
 8805SOL    HW237875   4.698   0.393   6.694  0.2775 -0.2610 -0.0878
 8806SOL     OW37876   2.241   3.432   3.464 -0.8712  0.5498 -0.1427
 8806SOL    HW137877   2.285   3.516   3.478  0.1771 -0.0276 -0.0088
 8806SOL    HW237878   2.286   3.385   3.534  1.7742 -1.1251 -2.9723
 8807SOL     OW37879   4.204   3.576   4.517 -0.0203 -0.1957  0.5268
 8807SOL    HW137880   4.267   3.539   4.455  1.5251  2.5065  0.5150
 8807SOL    HW237881   4.264   3.626   4.571  2.0428 -2.3979  0.2795
 8808SOL     OW37882   3.925   1.131   5.234  0.5995 -0.7447 -0.5243
 8808SOL    HW137883   3.987   1.185   5.184 -1.0864  1.3563 -0.3622
 8808SOL    HW237884   3.888   1.086   5.158 -2.4626  1.1278 -0.1509
 8809SOL     OW37885   1.776   0.407   7.496  0.2097  0.3421  0.7157
 8809SOL    HW137886   1.741   0.411   7.585  1.0528 -0.5315  1.0839
 8809SOL    HW237887   1.738   0.488   7.463  0.0233 -0.5126 -1.1694
 8810SOL     OW37888   2.938   2.312  16.117  0.1201 -0.1288  0.0980
 8810SOL    HW137889   2.934   2.256  16.039  2.3563 -1.8301  1.2410
 8810SOL    HW237890   2.929   2.244  16.183  2.6319  1.1617  1.7698
 8811SOL     OW37891   1.451   2.272  12.467 -0.2238  0.5652  0.1576
 8811SOL    HW137892   1.494   2.342  12.419 -1.7196  0.1762 -1.7659
 8811SOL    HW237893   1.379   2.323  12.504 -0.7665  0.4900 -0.7823
 8812SOL     OW37894   1.055   1.576   9.699 -0.2407  0.4267 -0.4549
 8812SOL    HW137895   1.080   1.663   9.731  0.2943  0.1496 -0.1211
 8812SOL    HW237896   0.978   1.560   9.754  1.0537 -1.1792  0.8894
 8813SOL     OW37897   0.222   2.371   2.557  0.7750  0.0533 -0.4847
 8813SOL    HW137898   0.203   2.312   2.484  2.7356  1.5900 -2.2204
 8813SOL    HW237899   0.272   2.440   2.514  0.6478  1.0562  0.9696
 8814SOL     OW37900   3.339   1.947   4.075  0.1056 -0.3333 -0.4280
 8814SOL    HW137901   3.349   1.938   4.170  2.0756 -1.2751 -0.7350
 8814SOL    HW237902   3.310   1.862   4.042  0.4403 -0.5080 -0.2650
 8815SOL     OW37903   0.987   1.366  16.746 -0.1511  0.2319 -0.1289
 8815SOL    HW137904   0.974   1.327  16.659 -1.3533 -1.7265  0.9361
 8815SOL    HW237905   0.900   1.344  16.781  0.2170 -1.8794 -0.5101
 8816SOL     OW37906   3.221   4.570   8.274  0.4040  0.4105 -0.4069
 8816SOL    HW137907   3.153   4.630   8.244  0.1209 -0.6278 -1.8507
 8816SOL    HW237908   3.260   4.615   8.349 -0.6421  3.3966 -1.6855
 8817SOL     OW37909   2.313   4.582   3.459 -0.0161 -0.2509 -0.5525
 8817SOL    HW137910   2.326   4.653   3.521 -1.4503  2.1465 -2.9966
 8817SOL    HW237911   2.304   4.507   3.517 -1.5543  0.7776  0.5308
 8818SOL     OW37912   0.960   3.785   1.677  0.0929  0.3525  0.1378
 8818SOL    HW137913   0.948   3.757   1.587  0.3906  1.3611 -0.2181
 8818SOL    HW237914   0.949   3.879   1.659 -1.5619  0.7381  3.0657
 8819SOL     OW37915   1.897   0.002   3.139 -0.3626  0.5522  0.2556
 8819SOL    HW137916   1.895   4.677   3.059 -0.4607  0.5307  0.2728
 8819SOL    HW237917   1.838   0.075   3.122  2.2148  2.4862 -0.3358
 8820SOL     OW37918   4.703   1.886  13.106 -0.2072 -0.4296  0.1489
 8820SOL    HW137919   4.670   1.937  13.033  0.6109 -0.2017 -0.0632
 8820SOL    HW237920   0.071   1.888  13.097 -0.1869 -0.5818  0.3283
 8821SOL     OW37921   3.639   2.886  11.613  0.1690 -0.0874  0.2895
 8821SOL    HW137922   3.590   2.808  11.586 -1.2323  0.4967  1.1185
 8821SOL    HW237923   3.682   2.853  11.691  0.3926 -0.2673  0.0892
 8822SOL     OW37924   0.996   3.417   4.398 -0.0300 -0.1587  0.8239
 8822SOL    HW137925   1.066   3.446   4.340 -2.4564  1.8502 -1.0812
 8822SOL    HW237926   0.950   3.356   4.341  0.1703 -0.2176  0.7232
 8823SOL     OW37927   1.261   0.261   9.866 -0.4893  0.6342 -0.8263
 8823SOL    HW137928   1.348   0.233   9.895  0.4179  1.2374 -3.0250
 8823SOL    HW237929   1.274   0.356   9.872  1.1947  0.3302  0.3626
 8824SOL     OW37930   3.031   3.083  11.066  0.2476  0.1641 -0.4275
 8824SOL    HW137931   2.998   3.046  10.984 -0.9011  0.9306 -0.3042
 8824SOL    HW237932   3.123   3.058  11.056  0.1335  0.3829 -1.9644
 8825SOL     OW37933   1.213   0.714   8.259 -0.0210 -0.1323 -0.9904
 8825SOL    HW137934   1.144   0.653   8.285 -0.8200  0.5193 -1.5762
 8825SOL    HW237935   1.172   0.794   8.293  0.1452 -0.6494  0.4111
 8826SOL     OW37936   3.352   0.689   0.860 -0.2091 -0.4950 -0.2961
 8826SOL    HW137937   3.332   0.783   0.867 -1.2676 -0.7519  0.1322
 8826SOL    HW237938   3.356   0.658   0.951  2.6286 -0.0021 -0.2430
 8827SOL     OW37939   1.566   0.943   1.124  0.6136 -0.0185  0.1711
 8827SOL    HW137940   1.522   1.013   1.171  2.3490 -0.9343  3.1525
 8827SOL    HW237941   1.509   0.925   1.049 -1.3035 -0.7262  1.7877
 8828SOL     OW37942   1.272   0.583  17.383 -0.0001  0.2182 -0.6348
 8828SOL    HW137943   1.357   0.555  17.351  0.5746 -1.6096  2.5154
 8828SOL    HW237944   1.261   0.530  17.462  1.0445  2.1104  0.7806
 8829SOL     OW37945   3.841   4.073   3.584 -0.0994 -0.2162 -0.5380
 8829SOL    HW137946   3.788   4.028   3.650 -2.3382 -0.8566 -2.7949
 8829SOL    HW237947   3.788   4.150   3.565  1.3398  0.4507 -1.8683
 8830SOL     OW37948   0.576   0.335  15.532  0.1928 -0.5759 -0.1612
 8830SOL    HW137949   0.506   0.377  15.482  2.4095  1.8035 -1.2595
 8830SOL    HW237950   0.611   0.282  15.461  1.7601  1.9262 -1.2603
 8831SOL     OW37951   2.305   4.101   4.169  0.2792 -0.5110  0.6029
 8831SOL    HW137952   2.353   4.172   4.127  0.6475 -2.0703 -1.5758
 8831SOL    HW237953   2.331   4.127   4.257 -0.0046 -0.9225  0.8100
 8832SOL     OW37954   1.328   4.208   0.789  0.5202  0.0595  0.4813
 8832SOL    HW137955   1.417   4.183   0.761  0.7188  1.0123  0.2624
 8832SOL    HW237956   1.336   4.179   0.880 -2.6681 -1.3579  0.2726
 8833SOL     OW37957   4.195   2.937   2.691 -0.2087  0.2731  0.1718
 8833SOL    HW137958   4.146   3.003   2.640 -2.3983 -1.8810 -0.5470
 8833SOL    HW237959   4.282   2.975   2.679  0.1611 -0.8574 -0.7489
 8834SOL     OW37960   0.703   1.636   4.445 -0.0123 -0.0862 -0.3053
 8834SOL    HW137961   0.736   1.651   4.356  1.7284  0.4680  0.4449
 8834SOL    HW237962   0.648   1.564   4.413  0.6915 -0.5488 -0.4831
 8835SOL     OW37963   3.663   1.963  15.824  0.1258 -0.1164 -0.0662
 8835SOL    HW137964   3.660   2.005  15.910  0.2432 -0.1966 -0.0234
 8835SOL    HW237965   3.699   2.027  15.763  2.3947 -0.9310  0.4376
 8836SOL     OW37966   0.785   2.387   8.321 -1.1398 -0.0662  0.3741
 8836SOL    HW137967   0.701   2.371   8.364 -0.4255 -1.0162  1.4081
 8836SOL    HW237968   0.854   2.355   8.378 -0.0435 -0.4533 -1.1666
 8837SOL     OW37969   1.337   4.227   1.396  0.6153 -0.5408 -0.1747
 8837SOL    HW137970   1.381   4.161   1.343  2.3735  0.2835  0.2582
 8837SOL    HW237971   1.408   4.256   1.453  0.0748  0.6175 -0.0911
 8838SOL     OW37972   4.263   4.456  14.887  0.0763  0.2717 -0.0554
 8838SOL    HW137973   4.329   4.473  14.819  0.3016 -0.3130  0.0148
 8838SOL    HW237974   4.224   4.543  14.885  0.9122  0.6564  0.2122
 8839SOL     OW37975   0.811   1.631   8.662  0.2771 -0.0093  0.2959
 8839SOL    HW137976   0.823   1.565   8.730 -0.7453  0.0863  0.5867
 8839SOL    HW237977   0.896   1.675   8.661  1.0506 -1.5868 -2.3171
 8840SOL     OW37978   0.260   4.100   8.450 -0.0143 -0.1140  0.3157
 8840SOL    HW137979   0.232   4.088   8.541  1.0441  1.3954  0.8469
 8840SOL    HW237980   0.252   4.012   8.415  0.2975 -0.7025  1.7148
 8841SOL     OW37981   1.963   1.412  17.685  0.4977 -0.2457 -0.1396
 8841SOL    HW137982   1.933   1.488   0.025 -0.3847 -0.5814 -0.1618
 8841SOL    HW237983   1.951   1.344   0.041  0.2691 -0.7660 -0.7155
 8842SOL     OW37984   1.604   2.299  10.178 -0.0941  0.0472 -0.4209
 8842SOL    HW137985   1.580   2.208  10.164 -0.3849  0.2576 -1.2648
 8842SOL    HW237986   1.519   2.339  10.165  0.4723  1.2841 -0.3599
 8843SOL     OW37987   1.754   3.269   7.616 -0.1134 -0.1063 -0.0664
 8843SOL    HW137988   1.701   3.328   7.563 -0.9187 -0.9543 -0.2049
 8843SOL    HW237989   1.842   3.284   7.581 -0.2900  0.4307 -0.2894
 8844SOL     OW37990   0.525   3.065   3.829  0.0757 -0.0717 -0.1807
 8844SOL    HW137991   0.488   3.148   3.858  0.3666 -0.7276  2.0565
 8844SOL    HW237992   0.464   3.010   3.877 -3.4029  1.4550 -2.8808
 8845SOL     OW37993   0.372   0.791   7.254  0.1218  0.2430 -0.0893
 8845SOL    HW137994   0.326   0.874   7.241 -0.0680  0.2227  0.4526
 8845SOL    HW237995   0.362   0.779   7.348 -2.2940 -1.1214 -0.5130
 8846SOL     OW37996   3.828   0.071   0.632 -0.2616 -0.3280 -0.1952
 8846SOL    HW137997   3.733   0.061   0.638 -0.0687 -0.3512  2.9273
 8846SOL    HW237998   3.837   0.004   0.564  1.3680  2.6760 -2.9307
 8847SOL     OW37999   2.348   1.129   5.749  0.1723  0.0814  0.1316
 8847SOL    HW138000   2.280   1.110   5.813 -0.3181  1.1132 -0.0806
 8847SOL    HW238001   2.299   1.163   5.674 -0.6218 -0.2863  0.4828
 8848SOL     OW38002   2.673   0.158   3.970 -0.3953 -0.3583 -0.2892
 8848SOL    HW138003   2.687   0.107   4.051  2.5646 -2.3371 -2.0425
 8848SOL    HW238004   2.765   0.171   3.947 -0.4090  0.0746 -0.0981
 8849SOL     OW38005   2.234   1.541  11.701  0.0159  0.0481  0.1478
 8849SOL    HW138006   2.160   1.543  11.762 -0.7047 -0.6574 -0.7039
 8849SOL    HW238007   2.253   1.635  11.702  0.1924  0.0244 -0.8168
 8850SOL     OW38008   0.735   3.010   9.861 -0.3827 -0.1961  0.0159
 8850SOL    HW138009   0.780   2.928   9.878 -0.3650 -0.6835 -2.3214
 8850SOL    HW238010   0.648   2.971   9.858 -0.4949  0.0343  0.2386
 8851SOL     OW38011   2.979   3.693   8.085 -0.8542 -0.2030 -0.3270
 8851SOL    HW138012   3.027   3.774   8.067 -1.1701  0.0346 -0.1180
 8851SOL    HW238013   3.011   3.663   8.170 -3.5356 -2.0259  0.0461
 8852SOL     OW38014   2.332   1.126   8.510 -0.2520 -0.0650  0.2853
 8852SOL    HW138015   2.383   1.204   8.532 -0.2354 -0.0064  0.0295
 8852SOL    HW238016   2.249   1.165   8.484 -0.6899 -0.7504  0.6588
 8853SOL     OW38017   1.318   4.601  13.283 -0.6940 -0.1922 -0.2408
 8853SOL    HW138018   1.332   4.604  13.378  0.7655  1.0303 -0.5149
 8853SOL    HW238019   1.390   4.547  13.251 -1.5759 -0.8551 -1.1010
 8854SOL     OW38020   1.291   3.414   4.303  0.9401 -0.2889  0.0828
 8854SOL    HW138021   1.334   3.334   4.333  1.2292 -0.8024 -1.6716
 8854SOL    HW238022   1.357   3.482   4.318 -0.3555  1.4569 -2.0888
 8855SOL     OW38023   2.189   4.453   3.885  0.4592 -0.4819  0.0032
 8855SOL    HW138024   2.196   4.546   3.867  1.6220 -0.4341  0.7389
 8855SOL    HW238025   2.221   4.413   3.804  1.8617  1.3215 -0.3195
 8856SOL     OW38026   1.770   3.854  15.357  0.3497 -0.3782  0.0325
 8856SOL    HW138027   1.856   3.896  15.361  1.0821 -2.0014  1.0051
 8856SOL    HW238028   1.715   3.902  15.420 -0.3921  0.3498 -1.1700
 8857SOL     OW38029   3.430   2.625  13.688  0.0310 -0.6819  0.3538
 8857SOL    HW138030   3.462   2.662  13.606 -1.9190  3.2737  1.3547
 8857SOL    HW238031   3.505   2.620  13.747  0.7599  1.4434 -0.3827
 8858SOL     OW38032   3.048   2.954   8.531 -0.0196 -0.1070 -0.4505
 8858SOL    HW138033   3.036   2.989   8.619  0.6206 -3.1987  0.8491
 8858SOL    HW238034   3.143   2.940   8.526  0.3045  0.8636  3.3760
 8859SOL     OW38035   0.722   3.474  12.997  0.4666  0.0068 -0.9612
 8859SOL    HW138036   0.751   3.565  12.993 -0.2876  0.1697 -2.4506
 8859SOL    HW238037   0.802   3.423  13.009  0.3701  0.2162  0.5877
 8860SOL     OW38038   1.151   2.647   9.812  0.1901 -0.0914 -0.2229
 8860SOL    HW138039   1.098   2.655   9.891 -2.9162 -0.1849 -2.2846
 8860SOL    HW238040   1.229   2.697   9.833  1.4923 -1.3807 -1.9603
 8861SOL     OW38041   0.869   3.010   6.324 -0.5766  0.3145  0.1244
 8861SOL    HW138042   0.850   2.922   6.356 -0.3184  0.7658  1.5304
 8861SOL    HW238043   0.795   3.060   6.358 -1.7331  0.5277 -2.7299
 8862SOL     OW38044   3.805   2.096  13.790  0.2479 -0.2854 -0.2121
 8862SOL    HW138045   3.824   2.020  13.736 -1.7611 -0.6897 -0.3298
 8862SOL    HW238046   3.742   2.064  13.855  0.4732  0.2100  0.2559
 8863SOL     OW38047   4.337   2.573   9.106  0.1140 -0.4502  0.5954
 8863SOL    HW138048   4.379   2.549   9.188  2.7354  2.8856  0.2440
 8863SOL    HW238049   4.299   2.658   9.129  0.5426  0.2866 -1.3642
 8864SOL     OW38050   3.850   2.003   7.887  0.0219 -0.4331  0.3005
 8864SOL    HW138051   3.842   1.926   7.943 -1.2500 -1.9020 -1.8661
 8864SOL    HW238052   3.916   1.966   7.829 -1.1131 -1.2089 -0.5020
 8865SOL     OW38053   2.453   0.667  17.128 -0.3057 -0.7358 -0.0010
 8865SOL    HW138054   2.538   0.666  17.085  0.8521 -1.6454  2.2964
 8865SOL    HW238055   2.402   0.670  17.046 -2.0491 -3.8318  0.9441
 8866SOL     OW38056   4.125   1.876   1.689  0.1780  0.2157  0.7113
 8866SOL    HW138057   4.209   1.830   1.687 -0.5458 -1.1072  0.9076
 8866SOL    HW238058   4.097   1.890   1.779 -1.8557  0.9428 -0.0383
 8867SOL     OW38059   1.135   2.724  15.048 -0.4818 -0.6541  0.0472
 8867SOL    HW138060   1.132   2.712  15.143  0.7731 -1.8088 -0.0578
 8867SOL    HW238061   1.196   2.797  15.038 -1.1156 -0.2212 -0.6924
 8868SOL     OW38062   2.644   2.558   4.177 -0.2904  0.1065  0.2766
 8868SOL    HW138063   2.653   2.599   4.263  1.3233  0.7472 -0.1926
 8868SOL    HW238064   2.724   2.579   4.128 -1.4143  0.5001 -1.3855
 8869SOL     OW38065   4.280   1.346   2.557 -0.6747 -0.4332 -0.3182
 8869SOL    HW138066   4.219   1.398   2.504  0.4808  1.7989  0.5346
 8869SOL    HW238067   4.237   1.261   2.556 -1.3650 -0.0938  0.1940
 8870SOL     OW38068   4.370   3.059   9.272 -0.1614 -0.2225  0.2797
 8870SOL    HW138069   4.444   3.113   9.299  0.0409  0.4098 -1.5690
 8870SOL    HW238070   4.300   3.107   9.318 -1.5048 -1.6204 -0.2879
 8871SOL     OW38071   0.362   2.590   0.832  0.1875  0.0502  0.3004
 8871SOL    HW138072   0.328   2.510   0.873  0.7748 -0.6783 -0.6379
 8871SOL    HW238073   0.411   2.620   0.909  1.9951  2.1369 -1.6864
 8872SOL     OW38074   0.213   2.996   7.102 -0.4673 -0.2381  0.4925
 8872SOL    HW138075   0.250   3.084   7.116  2.1310 -0.7394 -3.2981
 8872SOL    HW238076   0.279   2.947   7.053 -0.0672 -0.2897  1.0842
 8873SOL     OW38077   1.646   2.823   7.693  0.0831 -0.0220  0.6595
 8873SOL    HW138078   1.655   2.886   7.621 -1.1522  0.7758  1.1934
 8873SOL    HW238079   1.605   2.882   7.756 -0.3519 -0.1398  0.4898
 8874SOL     OW38080   1.181   3.626   2.254 -0.2382 -0.4419 -0.4052
 8874SOL    HW138081   1.230   3.707   2.245 -0.0070 -0.7142 -1.5866
 8874SOL    HW238082   1.188   3.628   2.349  1.0042  0.4091 -0.5176
 8875SOL     OW38083   0.993   3.531   9.045  0.2104  0.4257  0.0637
 8875SOL    HW138084   0.934   3.514   8.972  1.3546 -2.1611 -0.2534
 8875SOL    HW238085   0.968   3.473   9.116 -0.2381  0.9336  0.3228
 8876SOL     OW38086   2.228   2.329  15.869 -0.7140 -0.4545 -0.2361
 8876SOL    HW138087   2.217   2.418  15.834  0.1245 -0.0513  0.5068
 8876SOL    HW238088   2.244   2.341  15.963 -0.0318 -1.8602 -0.1740
 8877SOL     OW38089   2.311   2.707   3.026 -0.5898 -0.1747  0.1825
 8877SOL    HW138090   2.353   2.741   3.105  0.1138  2.4613 -1.3665
 8877SOL    HW238091   2.219   2.727   3.042 -0.1415  1.0552  1.1776
 8878SOL     OW38092   3.877   0.710  14.964  0.3054 -0.0280  0.6702
 8878SOL    HW138093   3.786   0.729  14.986  0.6096  0.0144  1.8670
 8878SOL    HW238094   3.890   0.730  14.871  1.2359  2.9326  1.4240
 8879SOL     OW38095   4.201   1.595   4.220  0.3704 -0.7711 -0.8779
 8879SOL    HW138096   4.228   1.682   4.189  1.3764 -1.8389 -2.9749
 8879SOL    HW238097   4.180   1.548   4.140 -0.3147  1.4562 -2.0027
 8880SOL     OW38098   4.436   2.276   3.074  0.0350 -0.2395  0.3318
 8880SOL    HW138099   4.529   2.291   3.087  0.2491 -0.5155 -0.8275
 8880SOL    HW238100   4.438   2.244   2.983  3.4330  0.2783  0.2459
 8881SOL     OW38101   0.387   1.307   3.400  0.3745  0.6781 -0.6612
 8881SOL    HW138102   0.449   1.270   3.337 -0.2598 -3.5056  1.1909
 8881SOL    HW238103   0.420   1.396   3.409 -1.2659  1.0676  1.5406
 8882SOL     OW38104   2.519   3.411  11.332  0.1427  0.5774 -0.6757
 8882SOL    HW138105   2.512   3.497  11.290 -2.4275  0.5068 -0.4045
 8882SOL    HW238106   2.436   3.372  11.305 -0.2028 -0.6282  2.1593
 8883SOL     OW38107   3.439   3.048   6.250  0.5485 -0.1480  0.3344
 8883SOL    HW138108   3.361   3.099   6.269 -1.1977 -3.0093  0.8646
 8883SOL    HW238109   3.503   3.115   6.225 -0.8910  1.0991  0.0271
 8884SOL     OW38110   2.433   2.199   5.520 -0.0962  0.3034 -0.6122
 8884SOL    HW138111   2.436   2.130   5.586  0.2594  0.5927 -0.3208
 8884SOL    HW238112   2.354   2.243   5.550  1.6058  3.3692 -0.6636
 8885SOL     OW38113   1.022   4.284   1.742 -0.0179  0.6989 -0.5032
 8885SOL    HW138114   1.105   4.301   1.788  0.5187 -0.8846 -0.8953
 8885SOL    HW238115   1.000   4.375   1.722 -0.5978  0.4212 -1.1056
 8886SOL     OW38116   2.893   1.263  11.871  0.1911 -0.1982 -0.2858
 8886SOL    HW138117   2.813   1.304  11.905 -0.1247  0.9224 -2.3718
 8886SOL    HW238118   2.952   1.290  11.942 -1.3806 -0.0479  0.9634
 8887SOL     OW38119   3.587   3.939   8.142  0.0147 -0.6998  0.1334
 8887SOL    HW138120   3.513   3.892   8.104  0.8298 -2.2050  0.4391
 8887SOL    HW238121   3.557   4.024   8.176  1.0680 -0.5997  0.8021
 8888SOL     OW38122   4.485   0.032   8.368  0.2424  0.0788  0.0391
 8888SOL    HW138123   4.438   0.080   8.437  0.1131 -1.2490  0.8869
 8888SOL    HW238124   4.421   0.040   8.297  2.3920  0.3091 -1.8566
 8889SOL     OW38125   1.175   1.362  13.030  0.3165  0.0611 -0.3641
 8889SOL    HW138126   1.135   1.276  13.039  0.0686 -0.0774 -2.7385
 8889SOL    HW238127   1.249   1.340  12.975  1.9581 -2.2532  2.7610
 8890SOL     OW38128   0.666   0.298   2.490 -0.1285  0.1661  0.7986
 8890SOL    HW138129   0.706   0.277   2.574  1.8591  1.1947  0.1209
 8890SOL    HW238130   0.731   0.358   2.454  0.3623 -0.4883  0.5938
 8891SOL     OW38131   1.861   4.356   9.436  0.4987  0.6151  0.9311
 8891SOL    HW138132   1.780   4.368   9.486  0.2117  2.1502  0.1028
 8891SOL    HW238133   1.857   4.408   9.356 -0.4189 -0.4817  0.2655
 8892SOL     OW38134   3.196   1.147  16.761 -0.0943 -0.1190  0.5920
 8892SOL    HW138135   3.138   1.074  16.738 -0.8049  0.8580 -0.6785
 8892SOL    HW238136   3.142   1.216  16.723  1.1716  0.2208 -0.6212
 8893SOL     OW38137   2.099   2.661   0.936 -0.2485 -0.4251 -0.3958
 8893SOL    HW138138   2.028   2.724   0.927 -0.4809 -0.6236  0.0121
 8893SOL    HW238139   2.064   2.594   0.995 -0.7352 -0.3641 -0.6161
 8894SOL     OW38140   2.760   1.725  11.913 -0.0355 -0.7597 -0.1760
 8894SOL    HW138141   2.828   1.684  11.860 -0.5678  0.7949 -2.0983
 8894SOL    HW238142   2.693   1.724  11.844 -0.7534 -0.6827  0.5120
 8895SOL     OW38143   2.886   0.419   0.656 -0.2971  0.0641 -0.1768
 8895SOL    HW138144   2.886   0.445   0.748 -1.4914 -0.6645  0.0347
 8895SOL    HW238145   2.795   0.437   0.632  0.7100  1.0303 -3.2095
 8896SOL     OW38146   3.622   4.430   4.554 -0.1016 -0.0526 -0.1834
 8896SOL    HW138147   3.661   4.389   4.631 -0.9407 -0.7379 -0.1335
 8896SOL    HW238148   3.531   4.446   4.576 -0.4147 -1.2221 -0.6676
 8897SOL     OW38149   3.852   2.120   2.579 -0.3648 -0.1121  0.2010
 8897SOL    HW138150   3.817   2.109   2.668  0.8690 -2.2475  0.4079
 8897SOL    HW238151   3.889   2.208   2.586  2.5107 -1.1242 -2.8759
 8898SOL     OW38152   4.205   1.010   4.801  0.2720 -0.3372 -0.2971
 8898SOL    HW138153   4.117   0.974   4.793  0.7890 -2.4244  3.1566
 8898SOL    HW238154   4.215   1.090   4.750 -2.4925  0.3114  0.1958
 8899SOL     OW38155   2.752   3.552   8.375 -0.5083 -0.2791  0.7248
 8899SOL    HW138156   2.733   3.574   8.466 -2.2101 -2.0609  0.8039
 8899SOL    HW238157   2.733   3.638   8.337  1.6444 -0.3531 -0.5052
 8900SOL     OW38158   2.889   3.780   3.227 -0.4760  0.1172  0.1350
 8900SOL    HW138159   2.946   3.787   3.150 -0.7252 -0.2983 -0.0902
 8900SOL    HW238160   2.876   3.685   3.234 -2.4168  0.4599  1.1554
 8901SOL     OW38161   1.199   2.077   6.612  0.6579  0.1538 -0.1484
 8901SOL    HW138162   1.210   2.158   6.662  0.7625 -0.8135  1.3748
 8901SOL    HW238163   1.249   2.091   6.531  0.5899 -0.4107 -0.2868
 8902SOL     OW38164   2.249   2.631   8.077  0.0565 -0.5124  0.3373
 8902SOL    HW138165   2.231   2.668   8.163  2.8394 -1.0289  1.1360
 8902SOL    HW238166   2.264   2.714   8.033 -2.4810  0.8441  2.0480
 8903SOL     OW38167   0.310   1.862   1.152  0.1699  0.0083 -0.5285
 8903SOL    HW138168   0.401   1.862   1.182 -0.0322  0.1832  0.0784
 8903SOL    HW238169   0.305   1.932   1.086 -0.2391 -1.7358 -2.3608
 8904SOL     OW38170   3.840   2.786   2.311 -0.4306  0.3394 -0.1068
 8904SOL    HW138171   3.792   2.707   2.337  1.6677 -0.6655  0.6804
 8904SOL    HW238172   3.906   2.793   2.380 -2.6278  1.7151  1.8728
 8905SOL     OW38173   1.007   2.409   7.416 -0.1034  0.2615 -0.2347
 8905SOL    HW138174   0.917   2.435   7.399 -1.2930 -2.4472  2.0798
 8905SOL    HW238175   1.056   2.486   7.447 -1.1488  0.2074  1.5614
 8906SOL     OW38176   2.364   3.460   4.506 -0.0009  0.3853 -0.1386
 8906SOL    HW138177   2.272   3.477   4.523  0.4223  0.8551  1.7782
 8906SOL    HW238178   2.381   3.486   4.416 -1.8043 -0.4776 -0.7112
 8907SOL     OW38179   2.068   2.872   3.444  0.5923 -0.8010  0.2758
 8907SOL    HW138180   2.038   2.786   3.413  0.9233 -0.9151  0.2643
 8907SOL    HW238181   2.134   2.843   3.507  0.7512 -0.1744  0.3953
 8908SOL     OW38182   4.454   4.465   8.611  0.0758  0.3795 -0.1465
 8908SOL    HW138183   4.389   4.522   8.570  0.2113 -0.5706 -1.6791
 8908SOL    HW238184   4.497   4.532   8.665  1.9839 -0.9073 -0.0528
 8909SOL     OW38185   2.320   1.220   2.704 -0.1789  0.5447  0.5773
 8909SOL    HW138186   2.290   1.132   2.680  0.0023  0.6428 -0.0023
 8909SOL    HW238187   2.405   1.196   2.740 -0.2804 -0.2879  0.2434
 8910SOL     OW38188   4.559   1.480   4.564  0.6400  0.1100 -0.0451
 8910SOL    HW138189   4.636   1.511   4.611  1.2323  0.1027 -1.0218
 8910SOL    HW238190   4.577   1.508   4.475  1.6658  0.9819  0.4426
 8911SOL     OW38191   1.396   3.523   5.833  0.0573 -0.3783 -0.2659
 8911SOL    HW138192   1.340   3.553   5.905 -0.7717 -0.5857 -0.8274
 8911SOL    HW238193   1.478   3.570   5.850 -0.1623 -0.1260  0.1035
 8912SOL     OW38194   0.036   0.585   5.824 -0.3268 -0.6190 -0.1717
 8912SOL    HW138195   4.715   0.666   5.832  0.7758  0.0518 -0.3095
 8912SOL    HW238196   4.696   0.535   5.778 -2.6551 -1.8425  4.5078
 8913SOL     OW38197   0.630   2.221   6.107 -0.3415  0.0538  0.0922
 8913SOL    HW138198   0.724   2.226   6.126 -0.4652  1.6552  0.3079
 8913SOL    HW238199   0.594   2.262   6.186 -1.3646  0.1495 -0.4235
 8914SOL     OW38200   3.495   3.211   5.660  0.1380  0.4979  0.3569
 8914SOL    HW138201   3.467   3.142   5.720  0.4830 -0.2468 -0.3396
 8914SOL    HW238202   3.431   3.208   5.588 -0.5747  0.8927  0.9740
 8915SOL     OW38203   4.301   2.219  12.644  0.7500 -0.4987  0.1859
 8915SOL    HW138204   4.270   2.129  12.653 -2.7038  0.6705  0.1168
 8915SOL    HW238205   4.219   2.251  12.607  2.5629  1.8480 -1.8311
 8916SOL     OW38206   1.365   4.673   2.115  0.0464 -0.4013 -0.2714
 8916SOL    HW138207   1.289   0.002   2.124  0.4891 -0.2402  2.6121
 8916SOL    HW238208   1.396   4.697   2.028 -1.1591  0.5682 -0.4354
 8917SOL     OW38209   0.099   0.119   3.643 -0.2910 -0.2560 -0.8642
 8917SOL    HW138210   0.027   0.079   3.693  0.3456 -1.7954 -1.1827
 8917SOL    HW238211   0.153   0.044   3.618  0.8997  0.0410  0.7843
 8918SOL     OW38212   0.353   1.226   2.897 -0.0809 -0.3426 -0.2074
 8918SOL    HW138213   0.270   1.220   2.946 -0.5391  0.0186 -0.9425
 8918SOL    HW238214   0.328   1.195   2.810 -1.8036  2.1645 -0.6056
 8919SOL     OW38215   0.016   0.319   2.100  0.1327  0.3044  0.3573
 8919SOL    HW138216   4.694   0.251   2.054 -0.1041 -0.1875  1.3448
 8919SOL    HW238217   4.679   0.341   2.167 -0.9442 -2.3225  0.1888
 8920SOL     OW38218   1.195   1.751   5.427 -0.3301  0.6826  0.2312
 8920SOL    HW138219   1.274   1.706   5.454  1.1397  3.0012 -0.2268
 8920SOL    HW238220   1.152   1.673   5.391 -0.6050 -0.5909  3.3623
 8921SOL     OW38221   0.198   0.776   5.026 -0.0324  0.0624  0.4190
 8921SOL    HW138222   0.247   0.775   4.944 -0.2652  0.6471  0.2677
 8921SOL    HW238223   0.109   0.776   4.989 -0.4528  1.1090  1.4102
 8922SOL     OW38224   1.451   4.343   5.707 -0.2851 -0.5046  0.1388
 8922SOL    HW138225   1.441   4.352   5.802 -0.0393  0.2497  0.1001
 8922SOL    HW238226   1.363   4.364   5.677  0.6408  2.0103 -0.8508
 8923SOL     OW38227   0.966   2.910   4.078 -0.0576  0.2118 -0.7568
 8923SOL    HW138228   0.905   2.945   4.143 -0.0758  1.5479 -1.4806
 8923SOL    HW238229   0.973   2.983   4.016  0.4688  1.1791  0.4339
 8924SOL     OW38230   1.667   2.811   9.299  0.3515  0.4489  0.0329
 8924SOL    HW138231   1.758   2.816   9.269 -0.3361 -0.2844 -2.1225
 8924SOL    HW238232   1.657   2.902   9.328 -3.0720  0.5473 -1.4685
 8925SOL     OW38233   1.642   0.100   6.178  0.1332 -0.5903  0.7973
 8925SOL    HW138234   1.632   0.195   6.180  0.4551 -0.5622  0.9815
 8925SOL    HW238235   1.624   0.094   6.084  2.9921 -0.4227  0.2626
 8926SOL     OW38236   3.344   0.214  16.473 -0.0779 -0.0170 -0.4698
 8926SOL    HW138237   3.349   0.119  16.482 -2.6112 -0.3463 -2.6175
 8926SOL    HW238238   3.431   0.217  16.433 -0.0490  2.0810 -0.2725
 8927SOL     OW38239   3.182   2.276   5.832 -0.0795 -0.0015  0.2227
 8927SOL    HW138240   3.222   2.190   5.835 -1.8293 -0.7830  0.8039
 8927SOL    HW238241   3.154   2.273   5.740  0.0288  1.5557  0.1220
 8928SOL     OW38242   3.480   1.263   9.137 -0.2331 -0.5692  0.1578
 8928SOL    HW138243   3.397   1.276   9.091 -0.7324 -2.1657  0.6089
 8928SOL    HW238244   3.513   1.214   9.062  0.5221 -0.9631  0.7469
 8929SOL     OW38245   0.084   4.392   5.600  0.1761  0.2240  0.3312
 8929SOL    HW138246   0.167   4.438   5.597  0.2928 -0.0047  0.0519
 8929SOL    HW238247   0.051   4.428   5.683  0.3685  0.4896  0.2896
 8930SOL     OW38248   0.181   0.244   6.089 -0.0702  0.0560 -0.1242
 8930SOL    HW138249   0.179   0.339   6.082  0.3597  0.2026  1.6359
 8930SOL    HW238250   0.091   0.227   6.119  0.2288  0.6932  1.1437
 8931SOL     OW38251   3.078   3.206   4.571 -0.7210 -0.3176 -0.4551
 8931SOL    HW138252   3.055   3.150   4.645  3.1673 -0.9632  0.2420
 8931SOL    HW238253   3.000   3.261   4.568  1.1135  2.1412 -2.1451
 8932SOL     OW38254   1.936   2.178   1.198 -0.6813  0.2169 -0.1680
 8932SOL    HW138255   1.915   2.250   1.258 -0.4808 -0.2869  0.5074
 8932SOL    HW238256   2.016   2.215   1.159 -0.9573  1.3514  0.3258
 8933SOL     OW38257   0.190   0.198   2.761  0.0098 -0.6778  0.2965
 8933SOL    HW138258   0.113   0.194   2.817  0.1469 -1.1828  0.4471
 8933SOL    HW238259   0.247   0.141   2.811  0.7207  1.0309  1.4243
 8934SOL     OW38260   4.573   1.619  13.052  0.0394  0.3753  0.2202
 8934SOL    HW138261   4.611   1.706  13.045  0.8899 -0.0213 -0.0957
 8934SOL    HW238262   4.500   1.627  12.990 -1.2734  0.6061  1.7910
 8935SOL     OW38263   1.593   1.589  10.318 -0.5131 -0.4373  0.0589
 8935SOL    HW138264   1.678   1.548  10.301 -1.1440 -1.4149 -0.7544
 8935SOL    HW238265   1.561   1.606  10.229 -0.9746 -3.5766 -0.3843
 8936SOL     OW38266   1.207   4.214   6.781 -0.5650 -0.4206 -0.3274
 8936SOL    HW138267   1.115   4.235   6.801 -0.1897 -1.1772  2.2117
 8936SOL    HW238268   1.222   4.134   6.831 -0.2912  0.1242  0.4498
 8937SOL     OW38269   3.645   2.374   2.714 -0.1708 -0.3936 -0.0579
 8937SOL    HW138270   3.600   2.377   2.629 -0.6913 -1.6670  0.1697
 8937SOL    HW238271   3.683   2.462   2.716 -0.6144 -0.2600  2.1417
 8938SOL     OW38272   4.398   4.669   7.232 -0.2461 -0.0846  0.2274
 8938SOL    HW138273   4.348   0.009   7.278  0.9644  0.7759  0.2852
 8938SOL    HW238274   4.440   0.006   7.175  0.9984 -0.5086  0.6612
 8939SOL     OW38275   0.466   0.546   0.482  0.5029  0.0996  0.2563
 8939SOL    HW138276   0.414   0.624   0.498  1.8981  1.1120 -0.2020
 8939SOL    HW238277   0.477   0.557   0.388 -0.7431  0.3302  0.1337
 8940SOL     OW38278   0.505   2.290   1.567  0.1439  0.0341 -0.2997
 8940SOL    HW138279   0.567   2.363   1.564 -1.0760  1.0291 -1.2734
 8940SOL    HW238280   0.555   2.210   1.581  0.4849 -0.2107 -2.9883
 8941SOL     OW38281   0.948   3.779   7.649  0.4446 -0.2315  0.1512
 8941SOL    HW138282   0.925   3.822   7.732  1.5454 -0.7703  0.7374
 8941SOL    HW238283   0.949   3.689   7.683 -1.5689  0.2912  1.6178
 8942SOL     OW38284   2.692   0.915   1.662 -0.0328  0.0543 -0.8797
 8942SOL    HW138285   2.696   0.992   1.719 -0.1236 -0.1848 -0.5528
 8942SOL    HW238286   2.617   0.944   1.611  0.3186  3.1931  0.4167
 8943SOL     OW38287   1.046   0.325   8.926 -0.5245 -0.4066  0.3653
 8943SOL    HW138288   1.009   0.358   8.845  1.4480 -2.9028 -1.5404
 8943SOL    HW238289   0.993   0.246   8.921  0.4993 -0.8025 -4.1107
 8944SOL     OW38290   2.716   4.338   2.879 -0.2797 -0.0821  0.5338
 8944SOL    HW138291   2.801   4.340   2.837 -0.4399 -0.6492  0.1875
 8944SOL    HW238292   2.665   4.373   2.807 -0.6360 -2.0686 -0.1815
 8945SOL     OW38293   0.452   3.575   7.403  0.1448  0.1815 -0.4359
 8945SOL    HW138294   0.500   3.529   7.335 -0.0889 -2.8179  1.4445
 8945SOL    HW238295   0.397   3.631   7.347 -0.0435  0.1338 -0.2970
 8946SOL     OW38296   0.455   4.160   5.378 -0.7064 -0.2602  0.2672
 8946SOL    HW138297   0.393   4.169   5.450 -1.3752 -2.2234 -0.0611
 8946SOL    HW238298   0.526   4.221   5.401 -0.0766 -1.5760  1.8503
 8947SOL     OW38299   3.727   2.943   2.619  0.2888  0.5330  0.2123
 8947SOL    HW138300   3.747   2.850   2.629 -1.4468  0.1754  0.4440
 8947SOL    HW238301   3.668   2.921   2.546  1.1508  0.6743 -0.5295
 8948SOL     OW38302   2.067   1.256   8.172 -0.2300 -0.2077 -0.1797
 8948SOL    HW138303   2.122   1.180   8.190 -0.2475  0.0539  0.9502
 8948SOL    HW238304   2.076   1.246   8.077  2.4217  1.8010 -0.1486
 8949SOL     OW38305   2.811   4.250   8.078 -0.1885  0.0043 -0.7295
 8949SOL    HW138306   2.836   4.246   7.986 -0.9377 -1.9419 -0.8349
 8949SOL    HW238307   2.733   4.198   8.096 -0.4846  0.7741  0.2759
 8950SOL     OW38308   4.357   2.701   8.467  1.0374 -0.2304 -0.1739
 8950SOL    HW138309   4.284   2.659   8.513  1.0284  2.2983  2.1101
 8950SOL    HW238310   4.434   2.653   8.495  2.3966  0.6993 -2.3373
 8951SOL     OW38311   2.891   0.687   4.745 -0.1887 -0.3615  0.3219
 8951SOL    HW138312   2.955   0.623   4.715 -0.7399 -0.8730  0.2303
 8951SOL    HW238313   2.928   0.707   4.831 -0.1786 -2.0362  0.6922
 8952SOL     OW38314   0.952   1.470  14.486 -0.3829  1.0312 -0.2530
 8952SOL    HW138315   1.042   1.438  14.483  0.4337  3.1416  1.6598
 8952SOL    HW238316   0.896   1.392  14.490 -0.3514  1.0148 -0.1191
 8953SOL     OW38317   3.596   1.046  12.576  0.7802  0.0932 -0.0770
 8953SOL    HW138318   3.659   1.066  12.646 -0.5831  0.2790  1.1044
 8953SOL    HW238319   3.649   0.989  12.521 -1.0114  0.1384 -1.8578
 8954SOL     OW38320   1.172   0.954   4.793 -0.4375  0.8033 -0.1047
 8954SOL    HW138321   1.149   0.954   4.700 -5.8577 -0.5113  1.2454
 8954SOL    HW238322   1.099   0.918   4.842 -0.5276  1.6155  0.3539
 8955SOL     OW38323   3.868   4.382   9.331 -0.2784 -0.2612 -0.9616
 8955SOL    HW138324   3.869   4.473   9.361 -1.9230 -0.6113  0.1608
 8955SOL    HW238325   3.805   4.345   9.394 -0.8733  1.1750 -0.7000
 8956SOL     OW38326   2.187   1.417  17.532 -0.5904 -0.1320  0.3528
 8956SOL    HW138327   2.098   1.427  17.564 -0.3485  1.0681  0.6390
 8956SOL    HW238328   2.181   1.336  17.481 -2.2218 -0.2091  0.6732
 8957SOL     OW38329   0.020   0.819   5.543 -0.1447 -0.1335 -0.0133
 8957SOL    HW138330   0.110   0.835   5.516 -0.2841 -0.4131 -0.6415
 8957SOL    HW238331   4.724   0.888   5.605 -2.3333  0.5682 -1.6060
 8958SOL     OW38332   1.273   0.444   1.947 -0.1690  0.5949 -0.1039
 8958SOL    HW138333   1.186   0.419   1.916 -0.9996  1.2381  1.6425
 8958SOL    HW238334   1.288   0.525   1.899 -3.2002  0.4221 -1.3212
 8959SOL     OW38335   2.008   1.218   2.080 -0.4408  0.0481 -0.0894
 8959SOL    HW138336   1.982   1.230   1.989  0.2747  1.5410 -0.0960
 8959SOL    HW238337   2.089   1.268   2.069 -0.7275  0.4090 -0.5853
 8960SOL     OW38338   0.142   3.002   6.344  0.1208 -0.3170  0.1303
 8960SOL    HW138339   0.105   3.088   6.364  0.2185 -0.0835 -0.6947
 8960SOL    HW238340   0.149   2.961   6.430  3.5834 -0.6737 -0.3211
 8961SOL     OW38341   2.623   3.995   3.520 -0.1508  0.5750 -0.3879
 8961SOL    HW138342   2.576   4.004   3.604 -0.3167  3.0165 -0.7386
 8961SOL    HW238343   2.708   3.960   3.546 -1.5135 -2.1172  0.4290
 8962SOL     OW38344   1.598   1.128   0.333  0.0272  0.6307  0.0961
 8962SOL    HW138345   1.579   1.103   0.423  1.2061 -0.9304 -0.0753
 8962SOL    HW238346   1.561   1.054   0.284  0.7764  0.8552 -0.8005
 8963SOL     OW38347   4.310   2.755   5.500 -0.5425 -0.1844  0.2726
 8963SOL    HW138348   4.298   2.724   5.590 -1.2307  0.0521  0.2571
 8963SOL    HW238349   4.382   2.818   5.508 -0.8735  0.1073  0.9135
 8964SOL     OW38350   1.724   4.379   2.121 -0.0787 -0.1107 -0.2494
 8964SOL    HW138351   1.794   4.433   2.082  1.4375 -1.5599  0.5033
 8964SOL    HW238352   1.719   4.311   2.054 -1.9427 -0.6534  0.4413
 8965SOL     OW38353   0.209   1.474   8.799 -0.1857 -0.9129  0.3462
 8965SOL    HW138354   0.131   1.491   8.745  0.3749 -0.3015 -0.2714
 8965SOL    HW238355   0.156   1.468   8.879 -0.2498  0.6094  0.4304
 8966SOL     OW38356   0.917   3.337   5.473 -0.0695  0.0094  0.4186
 8966SOL    HW138357   0.961   3.256   5.447 -0.3224 -0.2389  0.7626
 8966SOL    HW238358   0.892   3.373   5.388 -1.0630  2.4863  1.7406
 8967SOL     OW38359   4.581   3.237   1.042 -0.0910 -0.3810 -0.4981
 8967SOL    HW138360   4.577   3.238   0.946  1.0181  0.2445 -0.5363
 8967SOL    HW238361   4.644   3.303   1.070  1.2327 -0.3382 -3.5330
 8968SOL     OW38362   4.539   0.749   3.022 -0.2426  0.0399  0.3739
 8968SOL    HW138363   4.495   0.691   2.960  1.6900 -0.5061 -0.4968
 8968SOL    HW238364   4.581   0.814   2.966  0.2522 -1.3705 -0.8861
 8969SOL     OW38365   1.292   1.951  11.882 -0.6413  0.6651  0.2639
 8969SOL    HW138366   1.294   2.043  11.855 -1.4772  0.1385 -1.6139
 8969SOL    HW238367   1.286   1.908  11.796 -0.6152 -0.2387  0.7118
 8970SOL     OW38368   2.516   1.510   9.396 -0.2545  0.0178  0.5393
 8970SOL    HW138369   2.482   1.423   9.378 -0.0180 -0.3152  1.7161
 8970SOL    HW238370   2.583   1.477   9.456  0.3797  1.5578  0.6975
 8971SOL     OW38371   1.698   0.143   8.441 -0.5049  0.1592 -0.3500
 8971SOL    HW138372   1.778   0.144   8.495 -0.9909 -0.3584  0.3779
 8971SOL    HW238373   1.698   0.237   8.421  2.3591  0.0767 -0.7930
 8972SOL     OW38374   2.294   2.584  16.450  0.2447 -0.4654 -0.0010
 8972SOL    HW138375   2.375   2.570  16.400  0.1537  1.8333 -0.7711
 8972SOL    HW238376   2.221   2.565  16.391  0.9325  2.3225 -1.7389
 8973SOL     OW38377   1.862   1.023  16.448 -0.2643  0.2332 -0.0725
 8973SOL    HW138378   1.854   1.113  16.415  1.7724 -0.2275 -1.8323
 8973SOL    HW238379   1.847   1.034  16.542  0.8532 -2.2568  0.3833
 8974SOL     OW38380   1.089   1.281   9.294 -0.4447 -0.4618  0.2108
 8974SOL    HW138381   1.079   1.216   9.363  2.8546 -1.4113 -0.1933
 8974SOL    HW238382   1.137   1.356   9.330 -3.7201  0.7126  2.1059
 8975SOL     OW38383   2.550   0.051   5.105 -0.2547  0.0034  0.1684
 8975SOL    HW138384   2.628   0.101   5.128  0.6100 -0.5649 -1.5692
 8975SOL    HW238385   2.545   0.068   5.011  2.7731  0.6580  0.1235
 8976SOL     OW38386   0.903   4.339   7.968 -0.7187  0.0200  0.1301
 8976SOL    HW138387   0.986   4.385   7.980  0.3529 -1.5617 -1.1994
 8976SOL    HW238388   0.835   4.406   7.965 -0.6095  0.0999 -0.7987
 8977SOL     OW38389   1.835   0.178   4.308  0.4251 -0.0411 -0.3179
 8977SOL    HW138390   1.768   0.188   4.375  0.9748  0.7304  0.1194
 8977SOL    HW238391   1.831   0.261   4.260  2.5333  1.5322  2.2444
 8978SOL     OW38392   1.971   2.778   6.725 -0.2775  0.1289 -0.7883
 8978SOL    HW138393   1.878   2.782   6.746 -0.0392  0.8292  0.1187
 8978SOL    HW238394   1.991   2.693   6.765  1.0001  0.0196 -1.6308
 8979SOL     OW38395   1.558   0.766   8.108 -0.3893 -0.1290 -0.0499
 8979SOL    HW138396   1.632   0.826   8.105  1.7236 -2.6684  1.2138
 8979SOL    HW238397   1.548   0.747   8.201 -0.5770  1.4942  0.2562
 8980SOL     OW38398   4.344   0.189   7.354 -0.3634  0.0253 -0.0778
 8980SOL    HW138399   4.319   0.241   7.278 -0.6373  0.1073  0.0671
 8980SOL    HW238400   4.376   0.261   7.408 -2.9009 -0.0105  1.4932
 8981SOL     OW38401   0.503   3.674   5.974 -0.7112 -0.5547 -0.2668
 8981SOL    HW138402   0.559   3.655   6.048  0.5958 -1.1417 -1.4121
 8981SOL    HW238403   0.562   3.637   5.908 -1.9623 -1.1989 -1.0217
 8982SOL     OW38404   0.687   2.770   2.305  0.2253 -0.3964 -0.4410
 8982SOL    HW138405   0.688   2.683   2.265  1.6325 -0.1289 -0.9839
 8982SOL    HW238406   0.752   2.770   2.376  0.5966  0.4258 -0.7849
 8983SOL     OW38407   0.009   3.335   4.772 -0.0180  0.4460  0.0607
 8983SOL    HW138408   0.008   3.239   4.781 -0.1012  0.6490  2.1997
 8983SOL    HW238409   4.654   3.350   4.818 -0.1723 -0.5421  0.1184
 8984SOL     OW38410   2.409   0.446   7.083 -0.1103 -0.5021 -0.4739
 8984SOL    HW138411   2.435   0.532   7.114 -0.9108 -0.1025 -0.8871
 8984SOL    HW238412   2.315   0.460   7.068  0.2671  2.5395  0.0095
 8985SOL     OW38413   4.129   2.037   4.049  0.1179  0.1632 -0.6287
 8985SOL    HW138414   4.066   2.101   4.016 -0.8667  0.6404  2.2039
 8985SOL    HW238415   4.210   2.084   4.029  0.7936  0.3046  2.3751
 8986SOL     OW38416   0.500   4.559   6.303  0.1322 -0.4705  0.2842
 8986SOL    HW138417   0.417   4.602   6.285  0.4617  0.2376  0.4704
 8986SOL    HW238418   0.472   4.471   6.327  0.6383 -0.4343  1.0301
 8987SOL     OW38419   3.721   2.962   4.014  1.1107 -0.5032  1.0148
 8987SOL    HW138420   3.776   2.910   4.073  1.3251 -0.5147  0.8059
 8987SOL    HW238421   3.634   2.956   4.052 -0.0369 -0.8896 -1.7057
 8988SOL     OW38422   2.017   2.306   3.169  0.1308 -0.1610 -0.3829
 8988SOL    HW138423   1.940   2.295   3.115  0.2038  1.1583 -0.7427
 8988SOL    HW238424   2.073   2.368   3.121  0.4101 -0.5783 -0.6017
 8989SOL     OW38425   0.470   1.067  13.021  0.2746 -0.7818  0.5361
 8989SOL    HW138426   0.424   1.084  13.102  0.2151 -0.6231  0.4683
 8989SOL    HW238427   0.548   1.123  13.028  0.0548 -0.2659 -1.1295
 8990SOL     OW38428   2.219   2.559   3.980  0.7709 -0.0754 -0.4175
 8990SOL    HW138429   2.286   2.591   3.919  1.1310 -2.2005 -1.1221
 8990SOL    HW238430   2.167   2.507   3.919  2.7181 -0.2593 -1.9149
 8991SOL     OW38431   4.571   3.652   5.723  0.1236 -0.0821  0.2792
 8991SOL    HW138432   4.543   3.561   5.714 -0.6951  0.2656 -0.8384
 8991SOL    HW238433   4.627   3.662   5.646  0.1692 -1.3591  0.1435
 8992SOL     OW38434   1.833   0.466   4.139 -0.3604  0.6091  0.6010
 8992SOL    HW138435   1.772   0.522   4.091 -0.0923  0.9991  0.7139
 8992SOL    HW238436   1.869   0.412   4.068 -1.2934  0.2963  0.3733
 8993SOL     OW38437   3.308   1.462  17.051 -0.3898  0.3187 -0.0197
 8993SOL    HW138438   3.329   1.372  17.027  0.4491  0.3032  0.7485
 8993SOL    HW238439   3.286   1.451  17.144  0.1410  2.4543  0.3723
 8994SOL     OW38440   3.031   1.500   3.742 -0.5985 -0.4140  0.8630
 8994SOL    HW138441   2.991   1.586   3.760 -0.7578 -0.0086 -1.4661
 8994SOL    HW238442   3.088   1.519   3.667 -0.8813  1.1534  1.0435
 8995SOL     OW38443   2.953   2.161   5.319  0.3353  0.0565 -0.1432
 8995SOL    HW138444   2.976   2.076   5.280  1.8486  0.7320 -0.7096
 8995SOL    HW238445   2.859   2.147   5.333  0.8335 -1.7400  1.5245
 8996SOL     OW38446   2.614   3.914  17.609  0.7310 -0.0472  0.1810
 8996SOL    HW138447   2.692   3.944  17.563 -1.1573  2.2843 -1.5295
 8996SOL    HW238448   2.553   3.896  17.537  0.7675  1.4330 -0.2095
 8997SOL     OW38449   2.464   0.684   2.696  0.5968 -0.1697  0.0793
 8997SOL    HW138450   2.481   0.769   2.657 -1.4310  0.3393  0.3251
 8997SOL    HW238451   2.548   0.648   2.724  1.2296  0.8161 -0.5602
 8998SOL     OW38452   3.704   1.651   4.068 -0.0587 -0.5560 -0.6089
 8998SOL    HW138453   3.784   1.631   4.020  0.1047 -1.3376 -0.0015
 8998SOL    HW238454   3.739   1.698   4.143 -1.5859 -1.1049  0.4549
 8999SOL     OW38455   3.691   2.761  15.269 -0.4145  0.1168  0.0753
 8999SOL    HW138456   3.601   2.730  15.276 -0.9523  1.9804  1.1190
 8999SOL    HW238457   3.694   2.821  15.344  0.7995  0.3242 -0.1394
 9000SOL     OW38458   0.615   0.173  10.671  0.2318 -0.2406  0.1711
 9000SOL    HW138459   0.586   0.188  10.760  1.3171  2.3261  0.0829
 9000SOL    HW238460   0.578   0.245  10.619 -1.3342 -0.1927  1.3902
 9001SOL     OW38461   0.069   3.745   9.165 -0.6609  0.0306 -0.3848
 9001SOL    HW138462   0.060   3.811   9.234 -0.7060 -0.9261  0.5214
 9001SOL    HW238463   4.724   3.684   9.177  0.1970 -1.3644 -2.2378
 9002SOL     OW38464   0.849   4.236   5.861  0.3670 -0.1515  0.0527
 9002SOL    HW138465   0.894   4.249   5.945  1.5575  2.8492 -1.0477
 9002SOL    HW238466   0.886   4.157   5.822  1.9933  0.2581  0.7578
 9003SOL     OW38467   3.349   0.056   9.914  0.2733  0.6261 -0.3031
 9003SOL    HW138468   3.287   0.003   9.965  0.0383  0.5301 -0.6919
 9003SOL    HW238469   3.432   0.023   9.947  0.4852  0.1978 -1.2832
 9004SOL     OW38470   3.161   0.967   4.292 -0.3757  0.0586  0.3746
 9004SOL    HW138471   3.124   1.024   4.359  0.0784  1.5932 -0.6946
 9004SOL    HW238472   3.155   0.883   4.339 -0.3565 -0.3112 -0.2795
 9005SOL     OW38473   0.929   3.505   7.721 -0.0976 -0.2044  0.0434
 9005SOL    HW138474   0.836   3.501   7.745 -0.2733  0.7671 -0.4731
 9005SOL    HW238475   0.934   3.424   7.669  1.2028 -0.3659  0.4384
 9006SOL     OW38476   2.512   3.746  10.439  0.5527  0.0289  0.3901
 9006SOL    HW138477   2.435   3.701  10.473  0.3466 -0.0311 -0.1657
 9006SOL    HW238478   2.465   3.817  10.397 -0.5450  0.2400  1.9564
 9007SOL     OW38479   2.802   3.295   2.595 -0.2417 -0.7185  0.3296
 9007SOL    HW138480   2.850   3.219   2.562  0.4276 -0.4417  0.6569
 9007SOL    HW238481   2.743   3.247   2.652  0.5321 -0.8538  1.0073
 9008SOL     OW38482   3.024   4.695   0.997  0.2946 -0.3796  0.4286
 9008SOL    HW138483   3.018   0.056   0.959 -0.5102 -0.6346 -0.0431
 9008SOL    HW238484   3.116   4.681   0.976  0.4498 -1.2501  1.7044
 9009SOL     OW38485   2.259   2.033   8.656  0.1912 -0.0720  0.6597
 9009SOL    HW138486   2.292   2.022   8.566  0.1050 -1.7496  0.8388
 9009SOL    HW238487   2.245   2.127   8.655  1.2807  0.0761 -2.4445
 9010SOL     OW38488   3.860   2.493   5.547 -0.0264  0.9521 -0.6519
 9010SOL    HW138489   3.812   2.537   5.478 -2.0295 -0.6962 -0.3272
 9010SOL    HW238490   3.811   2.411   5.552  2.9358 -0.6235  2.9886
 9011SOL     OW38491   3.991   1.304   8.369  0.2609 -0.4658 -0.1532
 9011SOL    HW138492   4.033   1.230   8.414 -0.1004  0.1384  1.1665
 9011SOL    HW238493   4.061   1.313   8.305 -0.2872  0.3453 -0.6431
 9012SOL     OW38494   4.065   4.449   6.595 -0.3209  0.2708  0.0366
 9012SOL    HW138495   4.086   4.394   6.519 -0.1583 -0.2441  0.4574
 9012SOL    HW238496   3.993   4.504   6.563  2.5288  3.8238 -0.2724
 9013SOL     OW38497   1.325   2.997   7.146 -0.3692 -0.6317  0.3255
 9013SOL    HW138498   1.249   2.997   7.205 -1.5496 -0.4546 -1.2078
 9013SOL    HW238499   1.362   3.082   7.171  0.5148 -0.7540 -0.5806
 9014SOL     OW38500   2.334   1.572   3.088 -0.2343 -0.4252 -0.6010
 9014SOL    HW138501   2.251   1.585   3.041 -0.9857  1.4675  1.2012
 9014SOL    HW238502   2.335   1.657   3.134 -2.3928  0.0333 -1.4242
 9015SOL     OW38503   4.145   1.188  13.314 -0.8597 -0.2449  0.1562
 9015SOL    HW138504   4.230   1.146  13.306  0.2133  1.4572  2.4318
 9015SOL    HW238505   4.133   1.253  13.245  1.5649  0.7440  0.6600
 9016SOL     OW38506   4.531   0.275  12.140 -0.1578 -0.3304  0.5029
 9016SOL    HW138507   4.544   0.183  12.165  1.4552  0.3089  2.0061
 9016SOL    HW238508   4.477   0.265  12.062 -0.4307 -0.7940  0.7491
 9017SOL     OW38509   1.294   1.225   2.404  0.1738  0.8060  0.8147
 9017SOL    HW138510   1.263   1.219   2.313 -0.3080  2.0833  0.9036
 9017SOL    HW238511   1.213   1.257   2.445 -0.7229 -1.0385  0.5026
 9018SOL     OW38512   1.323   3.918   2.297  0.2933  0.0504 -0.4331
 9018SOL    HW138513   1.406   3.950   2.262  1.2325 -2.5248 -0.5903
 9018SOL    HW238514   1.326   3.947   2.388  0.4085 -2.0525  0.2268
 9019SOL     OW38515   3.188   2.602  12.993  0.5578 -0.5812  0.1110
 9019SOL    HW138516   3.117   2.593  12.929  0.5541 -1.4603  0.2490
 9019SOL    HW238517   3.208   2.696  12.987 -1.7014 -0.0840  0.0470
 9020SOL     OW38518   1.761   3.053   0.315 -0.6757  0.6034 -0.4692
 9020SOL    HW138519   1.816   3.108   0.371 -0.7257 -0.5669  0.7326
 9020SOL    HW238520   1.739   2.978   0.372  0.3922  2.4409  2.3713
 9021SOL     OW38521   3.038   3.896   3.431  0.6049 -0.0616  0.0416
 9021SOL    HW138522   3.005   3.841   3.360 -1.1865  1.9432 -0.6375
 9021SOL    HW238523   3.109   3.934   3.379 -1.1483  0.1760 -2.1761
 9022SOL     OW38524   1.562   0.736   8.980  0.1693  0.2850  0.3823
 9022SOL    HW138525   1.557   0.642   8.993 -1.5713  0.6534  2.2864
 9022SOL    HW238526   1.654   0.741   8.955  0.8751 -0.9361  2.7600
 9023SOL     OW38527   0.532   3.377   6.328 -0.0545 -0.1164  0.2197
 9023SOL    HW138528   0.497   3.414   6.247  0.6404  1.7147  0.7534
 9023SOL    HW238529   0.454   3.353   6.377  0.0529 -0.1673  0.3648
 9024SOL     OW38530   1.213   1.485   9.416  0.7304  0.1843  0.0966
 9024SOL    HW138531   1.267   1.519   9.487 -0.5885  0.1627  1.1065
 9024SOL    HW238532   1.227   1.550   9.346  0.8256 -0.3491 -0.3774
 9025SOL     OW38533   0.294   3.778   0.281 -0.2070  0.3589  0.1280
 9025SOL    HW138534   0.377   3.749   0.317  0.4071 -0.1635 -1.7137
 9025SOL    HW238535   0.270   3.858   0.328 -0.5575  2.1383 -3.0815
 9026SOL     OW38536   0.405   3.495   2.285  0.1252  0.1271  0.3442
 9026SOL    HW138537   0.475   3.495   2.220 -1.0911  2.2571 -0.9887
 9026SOL    HW238538   0.440   3.545   2.359 -1.4249  1.0980  0.4344
 9027SOL     OW38539   2.294   4.039   7.769 -0.6018  0.2968  0.6492
 9027SOL    HW138540   2.310   3.945   7.763  0.9918  0.8887 -3.8403
 9027SOL    HW238541   2.316   4.058   7.861 -1.7028 -1.4197  1.2761
 9028SOL     OW38542   1.300   0.629   2.495  0.3428  0.0377  0.0019
 9028SOL    HW138543   1.287   0.628   2.400  0.5854  1.6851 -0.0470
 9028SOL    HW238544   1.316   0.536   2.508 -2.0488 -0.4878 -0.6781
 9029SOL     OW38545   0.832   3.395  17.449  0.1216  0.1427 -0.0536
 9029SOL    HW138546   0.772   3.354  17.387 -0.0231 -2.3792  1.7664
 9029SOL    HW238547   0.881   3.314  17.458 -1.3903 -0.8418 -0.6931
 9030SOL     OW38548   0.471   0.344  11.700 -0.8446  0.1405 -0.0557
 9030SOL    HW138549   0.480   0.405  11.773 -0.0915 -1.6042  1.3064
 9030SOL    HW238550   0.563   0.316  11.700 -1.5756 -2.2375 -0.4942
 9031SOL     OW38551   2.588   2.839   4.211  0.6777  0.4217 -0.1756
 9031SOL    HW138552   2.504   2.792   4.209  1.7877 -1.5833  0.4789
 9031SOL    HW238553   2.611   2.841   4.119  1.4271  0.3212  0.0141
 9032SOL     OW38554   0.455   2.789  17.246 -0.4637 -0.0274  0.0379
 9032SOL    HW138555   0.537   2.812  17.289  0.6812 -0.9224 -1.6243
 9032SOL    HW238556   0.402   2.745  17.312  2.4366 -3.0396  0.3245
 9033SOL     OW38557   1.766   3.987   2.917 -0.7209 -0.1199  0.0888
 9033SOL    HW138558   1.780   3.896   2.893 -2.1324 -0.0307 -1.0935
 9033SOL    HW238559   1.851   4.013   2.952 -0.6941 -1.9778  1.3874
 9034SOL     OW38560   0.288   0.705   5.744  0.2663 -0.3688  0.4409
 9034SOL    HW138561   0.300   0.799   5.757 -0.7453 -0.3760  1.4710
 9034SOL    HW238562   0.197   0.695   5.770 -0.2292 -2.8194 -2.2593
 9035SOL     OW38563   1.501   0.326   5.438  0.4537  0.0394  0.3166
 9035SOL    HW138564   1.463   0.375   5.511 -0.7340 -0.4474  0.0336
 9035SOL    HW238565   1.435   0.256   5.443  1.8121 -1.0689  2.9598
 9036SOL     OW38566   3.290   0.365   0.932  0.1453  0.5758  0.0921
 9036SOL    HW138567   3.250   0.446   0.900 -0.2496 -0.0307 -0.9555
 9036SOL    HW238568   3.352   0.404   0.994 -0.3489  2.6805 -0.7412
 9037SOL     OW38569   4.036   3.069   6.593 -0.3217  0.0576  0.0247
 9037SOL    HW138570   4.122   3.057   6.552 -0.6256  0.9383 -0.8709
 9037SOL    HW238571   3.977   3.093   6.521 -0.8989 -2.5791 -0.3759
 9038SOL     OW38572   1.142   1.138   7.284 -0.1805  0.2165 -0.0410
 9038SOL    HW138573   1.139   1.107   7.374  0.2702  1.4317  0.3937
 9038SOL    HW238574   1.205   1.208   7.302 -3.3185  2.7506  1.0506
 9039SOL     OW38575   0.123   1.258   5.224 -0.1027 -0.4815  0.0880
 9039SOL    HW138576   0.182   1.183   5.222 -0.6757 -0.9182 -0.6187
 9039SOL    HW238577   0.182   1.333   5.226 -0.6786 -0.0298  0.3944
 9040SOL     OW38578   1.277   3.433   5.004  0.4260 -0.1538  0.2843
 9040SOL    HW138579   1.196   3.483   5.005  1.2280  1.1325  0.2388
 9040SOL    HW238580   1.337   3.504   4.983 -0.8878  1.3219  1.5877
 9041SOL     OW38581   4.149   2.634  13.216 -0.2583 -0.2709 -0.2932
 9041SOL    HW138582   4.199   2.684  13.151 -0.5215 -1.0842 -1.1205
 9041SOL    HW238583   4.182   2.545  13.202  0.1687 -0.4988  2.2458
 9042SOL     OW38584   0.248   3.508  12.649  0.2147  0.3588  0.0087
 9042SOL    HW138585   0.271   3.453  12.724 -1.6962  0.1623  0.4526
 9042SOL    HW238586   0.261   3.593  12.689  1.5494 -0.4281  1.2381
 9043SOL     OW38587   1.001   1.472   5.829  0.5122  0.0519  0.5718
 9043SOL    HW138588   1.021   1.406   5.763  0.2682  0.5335  0.0069
 9043SOL    HW238589   0.941   1.418   5.879 -0.4478 -0.2004 -0.8311
 9044SOL     OW38590   3.288   2.021   5.810  0.1335 -0.0529 -0.3647
 9044SOL    HW138591   3.368   1.975   5.834 -0.1322  0.0145  0.6635
 9044SOL    HW238592   3.247   1.952   5.759 -2.6662  1.1299  0.2285
 9045SOL     OW38593   1.851   0.862   3.597 -0.0897  0.1293 -0.6228
 9045SOL    HW138594   1.832   0.905   3.681 -1.3945 -0.4009 -0.6469
 9045SOL    HW238595   1.783   0.795   3.600 -0.2757  0.3024 -0.9890
 9046SOL     OW38596   1.872   4.720  10.033 -0.0744  0.1907 -0.1850
 9046SOL    HW138597   1.932   4.671  10.089  0.6478  0.4736 -0.7047
 9046SOL    HW238598   1.825   0.040  10.101 -0.4834 -1.8443  0.9367
 9047SOL     OW38599   3.533   0.749   8.116  0.2873 -0.5228 -0.0826
 9047SOL    HW138600   3.454   0.792   8.151 -0.9036 -2.7873  0.0430
 9047SOL    HW238601   3.606   0.796   8.157 -0.0738 -1.5006  1.7085
 9048SOL     OW38602   4.258   3.770   5.563  0.2704  0.1681 -0.0369
 9048SOL    HW138603   4.213   3.841   5.609 -0.7147  0.0831 -0.8524
 9048SOL    HW238604   4.225   3.687   5.599  2.8615 -0.8274  0.0294
 9049SOL     OW38605   1.047   0.147   1.656 -0.1265  0.4023 -0.3866
 9049SOL    HW138606   1.013   0.225   1.612  2.3987  1.0529 -1.1654
 9049SOL    HW238607   1.116   0.128   1.593  0.4052 -2.9318  1.1900
 9050SOL     OW38608   1.152   4.694   5.834 -0.3417  0.2738 -0.2916
 9050SOL    HW138609   1.137   4.611   5.879  0.8459  0.2989  0.1345
 9050SOL    HW238610   1.096   4.683   5.757 -2.2491 -0.7147  1.2483
 9051SOL     OW38611   4.408   2.628   4.406  0.4060 -0.1321  0.6632
 9051SOL    HW138612   4.378   2.688   4.337  1.9531  0.1077  0.2011
 9051SOL    HW238613   4.384   2.667   4.490  0.3373 -0.6105  0.8667
 9052SOL     OW38614   2.400   1.575   5.599 -0.1206 -0.7105 -0.3707
 9052SOL    HW138615   2.355   1.495   5.573  0.6348 -0.4551 -2.4393
 9052SOL    HW238616   2.458   1.585   5.523 -0.1251 -1.1542 -0.4354
 9053SOL     OW38617   0.322   1.232   8.719  0.0208  0.1881 -0.7838
 9053SOL    HW138618   0.271   1.307   8.750  0.9088  0.5928 -0.2870
 9053SOL    HW238619   0.249   1.171   8.713 -1.4420  1.7665  1.2591
 9054SOL     OW38620   0.661   3.476   2.119  0.1419  0.1835  0.4415
 9054SOL    HW138621   0.661   3.450   2.027 -0.7131 -1.6242  0.9363
 9054SOL    HW238622   0.676   3.392   2.163  2.6414  1.1243  1.3772
 9055SOL     OW38623   2.199   3.363  11.410  0.2153 -0.0788 -0.3193
 9055SOL    HW138624   2.187   3.423  11.337 -1.1161 -0.6490 -0.5644
 9055SOL    HW238625   2.227   3.430  11.472  0.0169  0.3135 -0.6553
 9056SOL     OW38626   3.998   1.086   2.333 -0.0010  0.1190  0.4525
 9056SOL    HW138627   4.075   1.030   2.323 -0.1115 -0.3853  2.4456
 9056SOL    HW238628   3.971   1.096   2.242 -0.4813  2.6503  0.8593
 9057SOL     OW38629   1.170   3.029   3.353 -0.0164  0.4851  0.4437
 9057SOL    HW138630   1.107   2.993   3.290  0.5678  0.9546 -0.4074
 9057SOL    HW238631   1.149   2.977   3.431 -2.0020 -1.4966 -1.4013
 9058SOL     OW38632   1.096   3.220   1.851  0.2224 -0.4751 -0.1753
 9058SOL    HW138633   1.189   3.221   1.827 -0.7015  0.7249 -3.7220
 9058SOL    HW238634   1.055   3.170   1.780 -0.2730 -0.7462  0.3012
 9059SOL     OW38635   0.482   4.369  13.331  0.0490  0.3540 -0.4672
 9059SOL    HW138636   0.571   4.389  13.360 -0.6750 -0.4310  2.3159
 9059SOL    HW238637   0.463   4.452  13.288 -1.5356 -1.2664 -2.9342
 9060SOL     OW38638   0.266   4.107   5.145 -0.8679 -0.5606  0.1331
 9060SOL    HW138639   0.219   4.066   5.217  0.5048 -1.7603  0.3527
 9060SOL    HW238640   0.334   4.146   5.200 -0.9903  1.8813 -1.4366
 9061SOL     OW38641   2.289   0.834   5.139  0.0791  0.5392 -0.0526
 9061SOL    HW138642   2.207   0.814   5.184  0.8279  1.6185  1.8117
 9061SOL    HW238643   2.260   0.820   5.049 -1.3173  3.1397 -0.0121
 9062SOL     OW38644   2.582   3.144   4.719  0.0275  0.1350 -0.4991
 9062SOL    HW138645   2.638   3.122   4.794 -0.8631 -2.3995 -0.6098
 9062SOL    HW238646   2.506   3.169   4.771 -0.4733  1.1158 -1.7140
 9063SOL     OW38647   2.508   0.783  15.475 -0.3813 -0.4768  0.0432
 9063SOL    HW138648   2.485   0.693  15.452  0.6013 -0.2767 -1.7431
 9063SOL    HW238649   2.432   0.805  15.528 -1.1626 -3.3053  0.0749
 9064SOL     OW38650   0.056   0.141  10.278  0.2163  0.0739  0.3322
 9064SOL    HW138651   0.141   0.105  10.256  0.1371 -0.2523  0.5621
 9064SOL    HW238652   0.010   0.067  10.318  2.8882 -1.7446 -0.0326
 9065SOL     OW38653   2.636   0.427   1.066  0.0725  0.0180  0.5275
 9065SOL    HW138654   2.634   0.358   1.132 -0.1376 -0.9604 -0.5056
 9065SOL    HW238655   2.561   0.473   1.103  0.1597  1.9386 -1.7332
 9066SOL     OW38656   1.216   3.430   2.693 -0.3902  0.3542 -0.2029
 9066SOL    HW138657   1.273   3.410   2.619  2.8894  0.2811  2.3717
 9066SOL    HW238658   1.209   3.339   2.720  3.4735 -0.2895 -1.5270
 9067SOL     OW38659   2.888   0.323  12.659 -0.2178  0.5445 -0.6374
 9067SOL    HW138660   2.829   0.294  12.729 -0.7602  0.9041 -0.9506
 9067SOL    HW238661   2.832   0.312  12.583  1.2529  0.8136 -1.7731
 9068SOL     OW38662   3.203   2.796   3.234 -0.2197 -0.0215  0.3222
 9068SOL    HW138663   3.165   2.712   3.212  1.2185 -1.0073  1.6185
 9068SOL    HW238664   3.153   2.826   3.310 -0.6262 -1.5960  0.6736
 9069SOL     OW38665   0.730   2.897   8.727 -0.9285  0.2984  0.1232
 9069SOL    HW138666   0.647   2.908   8.681 -0.1335  3.3149 -0.5763
 9069SOL    HW238667   0.800   2.897   8.662  0.7843 -1.6531  1.9595
 9070SOL     OW38668   4.532   4.195   1.720  0.0174  0.1544  0.2136
 9070SOL    HW138669   4.436   4.192   1.722 -0.0109  0.6827 -0.4289
 9070SOL    HW238670   4.540   4.188   1.625  1.2391 -1.1687  0.4135
 9071SOL     OW38671   1.364   2.274  12.955 -0.3578  0.2795 -0.5884
 9071SOL    HW138672   1.273   2.250  12.939 -0.3332 -0.0132 -0.2849
 9071SOL    HW238673   1.372   2.365  12.925  2.3983 -0.0942 -1.0075
 9072SOL     OW38674   0.453   3.474   8.831 -0.4007 -0.2628 -0.6107
 9072SOL    HW138675   0.488   3.388   8.809  0.1277  0.2453 -1.7399
 9072SOL    HW238676   0.452   3.510   8.742  2.6784  0.4854 -0.3505
 9073SOL     OW38677   3.860   0.763  11.759  0.4566  0.0542  0.5178
 9073SOL    HW138678   3.878   0.688  11.703 -0.5320  0.7407 -0.7151
 9073SOL    HW238679   3.771   0.751  11.791  0.3940 -0.5637  0.1008
 9074SOL     OW38680   3.857   3.492  16.730 -0.0637 -0.1463 -0.2249
 9074SOL    HW138681   3.778   3.539  16.703 -0.3267 -0.1853  0.4894
 9074SOL    HW238682   3.847   3.407  16.688  1.0779 -0.0117 -0.7907
 9075SOL     OW38683   4.192   1.227   1.984  0.0214  0.5944 -0.1776
 9075SOL    HW138684   4.178   1.302   2.042  0.3934  0.2462  0.3739
 9075SOL    HW238685   4.282   1.198   2.000 -0.1744  1.0749  1.8058
 9076SOL     OW38686   3.969   4.416   5.927  0.3876  0.4447 -0.4208
 9076SOL    HW138687   3.909   4.462   5.985 -0.5237 -0.7710 -0.4199
 9076SOL    HW238688   3.913   4.380   5.858  2.1707  1.3986 -2.3884
 9077SOL     OW38689   1.133   1.447   6.841 -0.0210  0.6192 -0.3942
 9077SOL    HW138690   1.092   1.524   6.882 -0.5224  0.2858 -0.2751
 9077SOL    HW238691   1.127   1.378   6.906 -1.0770  0.8751 -0.2164
 9078SOL     OW38692   1.677   4.500   5.594 -0.1806 -0.4643 -0.0253
 9078SOL    HW138693   1.722   4.427   5.551  3.9988  2.2717 -0.3016
 9078SOL    HW238694   1.599   4.454   5.623 -0.6077 -0.5698 -1.3344
 9079SOL     OW38695   2.245   2.788   9.049  0.0313 -1.0318 -0.0497
 9079SOL    HW138696   2.331   2.823   9.026 -0.4478 -0.2363 -0.6563
 9079SOL    HW238697   2.204   2.797   8.963  1.1808 -1.0348 -0.5911
 9080SOL     OW38698   0.952   1.880   4.524 -0.5239 -0.1181  0.3318
 9080SOL    HW138699   0.873   1.926   4.554  0.0491  2.9411 -2.8471
 9080SOL    HW238700   0.929   1.819   4.454  1.2284 -1.1517  0.6693
 9081SOL     OW38701   2.268   3.237   5.340 -0.5323  0.1802 -0.3057
 9081SOL    HW138702   2.287   3.259   5.431  2.1297 -1.3597 -0.4872
 9081SOL    HW238703   2.268   3.142   5.351 -1.6506  0.0445 -1.4613
 9082SOL     OW38704   1.695   2.827   2.968  0.1592  0.0144 -0.7818
 9082SOL    HW138705   1.716   2.786   2.885 -1.2810 -1.0793 -0.6013
 9082SOL    HW238706   1.630   2.760   2.990 -2.1747  2.2055 -0.9845
 9083SOL     OW38707   3.706   0.819   3.155 -0.0691  0.2088  0.4572
 9083SOL    HW138708   3.769   0.885   3.126 -0.9580  0.8258 -0.0618
 9083SOL    HW238709   3.737   0.817   3.246 -0.1123  2.7492  0.5075
 9084SOL     OW38710   3.724   1.255   2.435 -0.1351 -0.0260  0.2841
 9084SOL    HW138711   3.630   1.268   2.445 -0.1448  1.5393 -1.8506
 9084SOL    HW238712   3.744   1.328   2.377  1.1139 -0.5605  0.0466
 9085SOL     OW38713   1.851   0.715   7.583 -0.4781 -0.2781  0.2095
 9085SOL    HW138714   1.796   0.658   7.637 -0.1813  1.8545  2.8150
 9085SOL    HW238715   1.790   0.778   7.544 -0.3054 -1.7596 -2.4464
 9086SOL     OW38716   0.321   2.220   3.761  0.0856  0.4212  0.1627
 9086SOL    HW138717   0.230   2.208   3.789 -0.0603 -1.5164 -1.1862
 9086SOL    HW238718   0.304   2.296   3.704 -1.5476 -0.5776 -0.6789
 9087SOL     OW38719   4.661   2.841   5.365 -0.5028 -0.8204 -0.0379
 9087SOL    HW138720   4.710   2.762   5.387  0.3653 -0.2400  0.1081
 9087SOL    HW238721   4.629   2.871   5.451  1.1411  0.5020  0.1071
 9088SOL     OW38722   1.862   0.598  13.603  0.1457  0.0471  0.4237
 9088SOL    HW138723   1.931   0.548  13.560  0.5536  0.3416  0.7326
 9088SOL    HW238724   1.862   0.670  13.540 -2.4389 -2.3416 -2.3324
 9089SOL     OW38725   1.127   3.898   9.392  0.0544  0.2741  0.1650
 9089SOL    HW138726   1.182   3.922   9.317  0.1001 -1.7192 -0.4431
 9089SOL    HW238727   1.055   3.860   9.342 -0.3004 -2.5687  2.8525
 9090SOL     OW38728   3.200   4.280   0.099  0.2340  0.6298  0.4926
 9090SOL    HW138729   3.202   4.360   0.046  0.5726 -1.2493 -2.2948
 9090SOL    HW238730   3.111   4.259   0.073  0.1689  0.1833  1.0723
 9091SOL     OW38731   1.803   3.124  13.797 -0.4760  0.5150  0.4738
 9091SOL    HW138732   1.882   3.087  13.758 -1.5817 -2.7924  1.3121
 9091SOL    HW238733   1.842   3.159  13.877  0.5510 -0.5984  0.4686
 9092SOL     OW38734   4.107   2.573   4.721  0.8361 -0.1585  0.1336
 9092SOL    HW138735   4.074   2.513   4.787  1.6369 -0.2700  0.4224
 9092SOL    HW238736   4.202   2.569   4.726  0.7850 -2.6729 -0.6586
 9093SOL     OW38737   0.783   1.669   4.968 -0.2499 -0.0624 -0.4720
 9093SOL    HW138738   0.795   1.678   4.874  1.4239  2.3376 -0.0449
 9093SOL    HW238739   0.730   1.590   4.976 -1.5947  0.9699  0.8152
 9094SOL     OW38740   0.616   0.959   8.313 -0.2937 -0.0896 -0.3139
 9094SOL    HW138741   0.583   1.048   8.300 -0.7963 -0.2123  0.1196
 9094SOL    HW238742   0.544   0.926   8.367  1.7863  0.0658  2.5982
 9095SOL     OW38743   4.039   1.763   2.300 -0.9490  0.1853 -0.2083
 9095SOL    HW138744   4.100   1.811   2.355  0.8946  1.3699 -3.3241
 9095SOL    HW238745   3.967   1.826   2.303 -0.3091  0.8362  1.0691
 9096SOL     OW38746   3.616   3.306  16.722 -0.5116  0.4075  0.4367
 9096SOL    HW138747   3.617   3.288  16.628  1.0436  0.5482  0.4348
 9096SOL    HW238748   3.533   3.258  16.732 -0.0133 -0.5523  0.0108
 9097SOL     OW38749   1.168   2.755   5.471 -0.6985  0.2308 -0.7779
 9097SOL    HW138750   1.099   2.786   5.412 -2.7606 -1.2495  0.8854
 9097SOL    HW238751   1.127   2.676   5.506 -1.1488  0.9677  0.3381
 9098SOL     OW38752   0.295   2.978  15.676  0.2579  0.0824 -0.4150
 9098SOL    HW138753   0.295   3.063  15.721 -3.1652  0.0245 -0.2897
 9098SOL    HW238754   0.222   2.990  15.615  0.5442  0.8471 -0.6032
 9099SOL     OW38755   0.103   0.883   8.124  0.5174 -0.2329 -0.0727
 9099SOL    HW138756   0.015   0.852   8.143 -0.1402  0.5076 -1.9759
 9099SOL    HW238757   0.099   0.959   8.066 -2.3025  1.1772  1.9698
 9100SOL     OW38758   1.808   4.661   5.758 -0.4270 -0.4510  0.5938
 9100SOL    HW138759   1.894   4.665   5.717  0.2119 -0.9832  1.8733
 9100SOL    HW238760   1.761   4.609   5.693  0.9112  2.1326 -2.4347
 9101SOL     OW38761   1.749   1.027   7.822 -0.0078  0.0131  0.0682
 9101SOL    HW138762   1.839   0.994   7.815 -0.1651 -0.2242 -0.7597
 9101SOL    HW238763   1.750   1.106   7.767 -0.7941  0.2062  0.3394
 9102SOL     OW38764   3.601   4.012   7.606  0.1111 -0.5609 -0.0821
 9102SOL    HW138765   3.622   4.088   7.661 -1.5382  0.3498 -0.7285
 9102SOL    HW238766   3.684   3.987   7.564  0.1152 -0.3837 -0.1806
 9103SOL     OW38767   4.011   0.754   5.068 -0.0396  0.2723 -0.2880
 9103SOL    HW138768   3.946   0.688   5.042  0.3263  0.0031 -0.5098
 9103SOL    HW238769   3.978   0.786   5.153 -1.0438 -0.4703 -0.3907
 9104SOL     OW38770   0.203   0.203   1.554 -0.0007 -0.2042 -0.0144
 9104SOL    HW138771   0.164   0.200   1.466 -1.8067  1.8547  0.7048
 9104SOL    HW238772   0.234   0.115   1.572  1.1930  0.3432  0.6083
 9105SOL     OW38773   4.543   2.327   6.641 -0.0519  0.3320  0.3034
 9105SOL    HW138774   4.461   2.323   6.592 -0.2639 -0.2923  0.7096
 9105SOL    HW238775   4.598   2.251   6.621 -1.8715 -0.9050  0.0030
 9106SOL     OW38776   3.443   2.171   6.352 -0.3931 -0.2325 -0.2053
 9106SOL    HW138777   3.380   2.199   6.285 -2.3045 -1.0585  1.2326
 9106SOL    HW238778   3.450   2.245   6.412 -2.8195  0.2898 -0.5293
 9107SOL     OW38779   4.111   2.702   3.712  0.3681  0.9884  0.1800
 9107SOL    HW138780   4.171   2.709   3.638 -0.7526  1.0801 -0.7124
 9107SOL    HW238781   4.055   2.627   3.693 -1.0053  2.0918 -0.1313
 9108SOL     OW38782   0.204   2.211   5.398  0.0904 -0.6543  0.1767
 9108SOL    HW138783   0.278   2.240   5.452 -0.2191  0.2311  0.1253
 9108SOL    HW238784   0.253   2.191   5.318 -1.1426  1.4598 -1.0862
 9109SOL     OW38785   2.962   1.508   9.395  0.2725  0.5359 -0.1803
 9109SOL    HW138786   2.918   1.512   9.310 -0.9509 -0.6704  0.3957
 9109SOL    HW238787   2.990   1.417   9.384 -2.6518 -0.4325  0.4865
 9110SOL     OW38788   1.822   1.347  15.530 -0.7478  0.5169 -0.3444
 9110SOL    HW138789   1.750   1.397  15.493 -2.8138 -1.0870  1.5105
 9110SOL    HW238790   1.891   1.355  15.464  0.4809 -0.7778  0.7629
 9111SOL     OW38791   3.127   3.829   8.778  0.2059 -0.2349  0.0306
 9111SOL    HW138792   3.171   3.914   8.772 -2.7767  1.3948  1.0733
 9111SOL    HW238793   3.165   3.794   8.858 -1.0387  0.3434  0.8735
 9112SOL     OW38794   3.907   2.799   4.148  0.5185  0.8990  0.0283
 9112SOL    HW138795   3.973   2.797   4.079  1.7099  2.2869  1.1588
 9112SOL    HW238796   3.956   2.781   4.228 -0.7307 -0.9040  0.3961
 9113SOL     OW38797   4.117   4.491   0.250 -0.0237  0.3714  0.4201
 9113SOL    HW138798   4.067   4.409   0.249 -0.4527  0.6155  2.0363
 9113SOL    HW238799   4.118   4.515   0.157 -0.3865  3.2034  1.1537
 9114SOL     OW38800   2.996   1.237   0.797 -0.1445  0.2071 -0.6183
 9114SOL    HW138801   2.914   1.285   0.787  0.4212  1.4558  0.7425
 9114SOL    HW238802   3.038   1.263   0.879  0.4100  0.1108 -0.8682
 9115SOL     OW38803   1.739   0.628   9.668  0.2463  0.1178  0.0037
 9115SOL    HW138804   1.811   0.577   9.703 -1.1071 -1.5890  0.3486
 9115SOL    HW238805   1.660   0.574   9.681  1.5674 -2.3624 -2.1481
 9116SOL     OW38806   4.645   2.291   5.714 -0.1610  0.4231  0.2349
 9116SOL    HW138807   4.561   2.337   5.718 -1.3619 -1.8671  0.9799
 9116SOL    HW238808   4.681   2.326   5.633  0.5763  0.7875  0.7172
 9117SOL     OW38809   0.590   0.049  11.574  0.5987 -0.1802 -0.3344
 9117SOL    HW138810   0.653   0.105  11.620  0.4050 -0.8066  0.7011
 9117SOL    HW238811   0.637   4.693  11.569  1.4665  0.2991 -0.1911
 9118SOL     OW38812   3.997   4.578   2.646 -0.7645  0.1837 -0.1872
 9118SOL    HW138813   3.927   4.519   2.618  1.2708 -2.5012  0.4499
 9118SOL    HW238814   4.078   4.534   2.622 -0.3164 -0.3766  2.4698
 9119SOL     OW38815   1.686   0.524   0.858 -0.2283  0.0953  0.4879
 9119SOL    HW138816   1.704   0.452   0.798  1.8271  1.1850 -0.1785
 9119SOL    HW238817   1.753   0.588   0.832 -2.2414  1.2925 -1.8127
 9120SOL     OW38818   1.806   3.772   6.570 -0.0909 -0.3340 -0.5925
 9120SOL    HW138819   1.812   3.682   6.601  1.5851  0.5438  1.6564
 9120SOL    HW238820   1.712   3.777   6.554 -0.4308 -1.2295  1.1273
 9121SOL     OW38821   2.854   2.502   7.450  0.4575  0.3683  0.0911
 9121SOL    HW138822   2.920   2.565   7.481 -0.1688  0.8659  0.4163
 9121SOL    HW238823   2.821   2.536   7.367 -0.4684 -1.9715 -0.4961
 9122SOL     OW38824   0.454   1.241   4.072  0.0703 -0.4240 -0.9854
 9122SOL    HW138825   0.404   1.307   4.023  1.0189  2.7013  2.2408
 9122SOL    HW238826   0.379   1.202   4.118 -0.8451  0.6191 -1.5930
 9123SOL     OW38827   0.822   0.665   9.925 -0.0605  0.1423  0.0280
 9123SOL    HW138828   0.732   0.645   9.952 -0.4907 -1.5479 -2.6520
 9123SOL    HW238829   0.837   0.750   9.966 -0.4762  1.5762 -2.7988
 9124SOL     OW38830   2.718   3.581   4.608  0.4318 -0.1995  1.0415
 9124SOL    HW138831   2.775   3.506   4.624 -2.4045 -2.0398  2.5913
 9124SOL    HW238832   2.778   3.653   4.629  0.3875  0.6006 -1.5781
 9125SOL     OW38833   0.858   4.092   8.248 -0.1359 -0.1127  0.1904
 9125SOL    HW138834   0.824   4.004   8.235  0.1888 -0.6029  2.7055
 9125SOL    HW238835   0.786   4.130   8.298  0.4494  1.7384 -0.3715
 9126SOL     OW38836   0.872   4.167  14.887 -0.1526 -0.3374  0.5171
 9126SOL    HW138837   0.966   4.180  14.903 -0.1373 -2.3534  2.1703
 9126SOL    HW238838   0.843   4.186  14.976  0.7349  0.8928  0.5469
 9127SOL     OW38839   3.214   2.390   4.466  0.4367 -0.1277  0.3755
 9127SOL    HW138840   3.242   2.300   4.450  0.6166  0.4019 -2.3856
 9127SOL    HW238841   3.286   2.430   4.515 -1.0684  0.8291  1.7885
 9128SOL     OW38842   1.106   0.638   1.789 -0.2259 -0.4287  0.2801
 9128SOL    HW138843   1.128   0.727   1.817 -0.1728 -0.3549 -0.0047
 9128SOL    HW238844   1.015   0.650   1.762  0.3893  0.7556 -1.2938
 9129SOL     OW38845   2.838   0.201   4.799 -0.6974 -0.1384  0.5137
 9129SOL    HW138846   2.920   0.208   4.847  0.0204  1.0984 -0.8968
 9129SOL    HW238847   2.793   0.282   4.824 -0.8739  0.2614 -1.0868
 9130SOL     OW38848   3.191   1.041   3.461  0.1911  0.1105 -0.2561
 9130SOL    HW138849   3.237   1.051   3.377  0.8533  3.9812  0.5620
 9130SOL    HW238850   3.180   1.131   3.493 -1.1901 -0.3081  0.4354
 9131SOL     OW38851   2.879   1.785   1.472  0.3040  0.7444 -0.2275
 9131SOL    HW138852   2.822   1.861   1.461  0.2979  0.7895  0.1036
 9131SOL    HW238853   2.932   1.807   1.549  0.7620  2.7603 -1.1064
 9132SOL     OW38854   1.385   0.931   7.188  0.4819  0.3267  0.7284
 9132SOL    HW138855   1.472   0.956   7.218  0.4810  1.3771 -0.1689
 9132SOL    HW238856   1.322   0.984   7.237  0.5811  0.0563  1.1517
 9133SOL     OW38857   2.083   1.893   2.572 -0.4624  0.3290  0.2023
 9133SOL    HW138858   2.002   1.849   2.599  0.3683 -0.7939  0.9016
 9133SOL    HW238859   2.140   1.817   2.558  0.7989  1.4791 -0.9037
 9134SOL     OW38860   2.112   3.897   2.619  0.4505  0.0614  0.7488
 9134SOL    HW138861   2.149   3.936   2.698 -3.8972  2.0030  1.8087
 9134SOL    HW238862   2.179   3.934   2.561  0.2475 -2.4898 -1.1282
 9135SOL     OW38863   1.771   1.448   3.487  0.4523  0.2695  0.7443
 9135SOL    HW138864   1.799   1.537   3.508  0.3815  0.8021 -1.4574
 9135SOL    HW238865   1.683   1.443   3.523  0.8113  0.3254  1.6325
 9136SOL     OW38866   0.954   3.750   7.183 -0.4074  0.2057  0.1899
 9136SOL    HW138867   0.908   3.762   7.266 -0.8395  1.0828 -0.1701
 9136SOL    HW238868   1.029   3.805   7.204  0.5535 -1.7598  1.8926
 9137SOL     OW38869   3.743   3.025   2.266 -0.1868 -0.3018 -0.3993
 9137SOL    HW138870   3.713   3.024   2.175  0.6458  0.8827 -0.6781
 9137SOL    HW238871   3.758   2.931   2.280 -1.5575 -0.3263  0.9601
 9138SOL     OW38872   3.574   0.006   5.556 -0.1137  0.3949  0.0971
 9138SOL    HW138873   3.611   0.055   5.630 -1.1730  1.9245 -0.4001
 9138SOL    HW238874   3.598   0.046   5.473  0.8207 -0.1548  0.0916
 9139SOL     OW38875   3.938   2.157   3.810  0.3450 -0.7242 -0.3369
 9139SOL    HW138876   3.865   2.126   3.864 -2.1081 -0.7710 -3.6295
 9139SOL    HW238877   3.899   2.228   3.759  1.5337 -0.8445 -1.4238
 9140SOL     OW38878   2.224   3.325   2.915 -0.4492  0.0275 -0.5016
 9140SOL    HW138879   2.302   3.373   2.886 -0.8196 -0.6768 -2.6435
 9140SOL    HW238880   2.225   3.349   3.008  0.4868  0.5785 -0.6498
 9141SOL     OW38881   3.808   4.605  12.399 -0.5827 -0.3316  0.0211
 9141SOL    HW138882   3.869   4.551  12.449 -0.6406 -1.1176 -0.7627
 9141SOL    HW238883   3.814   4.555  12.318 -0.3069 -0.7846  0.3180
 9142SOL     OW38884   3.084   0.067   6.833 -0.3227  0.3280  0.2390
 9142SOL    HW138885   2.989   0.076   6.834 -0.2562  1.3837 -2.7291
 9142SOL    HW238886   3.129   0.150   6.819 -1.7805  1.1322  0.3524
 9143SOL     OW38887   0.017   1.993   1.190  0.3595  0.1943  1.0488
 9143SOL    HW138888   4.720   2.001   1.097  1.8695  0.6957  0.7049
 9143SOL    HW238889   0.029   2.086   1.211  2.3637  0.4228 -1.1374
 9144SOL     OW38890   1.985   1.518  11.523  0.3596 -0.4296 -0.0788
 9144SOL    HW138891   2.051   1.478  11.467 -0.2375 -1.2386 -0.2108
 9144SOL    HW238892   2.029   1.580  11.581 -0.9005  0.3602  0.0362
 9145SOL     OW38893   3.506   0.640   4.354  0.0133  0.0093 -0.0566
 9145SOL    HW138894   3.583   0.600   4.395 -1.4155 -1.3759  1.3010
 9145SOL    HW238895   3.488   0.708   4.420 -1.4830 -2.1579  1.7901
 9146SOL     OW38896   1.681   3.715  15.166  0.0270  0.4460 -0.5291
 9146SOL    HW138897   1.594   3.709  15.206  0.2894  0.8866  0.1065
 9146SOL    HW238898   1.723   3.782  15.220  0.0698 -0.6579  0.7985
 9147SOL     OW38899   1.252   3.398  12.866  0.1066 -0.1937 -0.3208
 9147SOL    HW138900   1.313   3.324  12.875  1.9635  1.5155  1.1453
 9147SOL    HW238901   1.293   3.443  12.792 -1.6054  1.3553 -0.3029
 9148SOL     OW38902   1.355   2.581  17.686  0.7311 -0.1689 -0.2770
 9148SOL    HW138903   1.438   2.566   0.020  0.8258  0.5574 -0.2104
 9148SOL    HW238904   1.311   2.631   0.045 -0.8438  0.6551 -1.8689
 9149SOL     OW38905   3.188   2.109  16.040  0.4082 -0.1046  0.0171
 9149SOL    HW138906   3.249   2.101  15.968 -0.9287  0.5679 -1.1949
 9149SOL    HW238907   3.222   2.195  16.068 -0.8269  0.1819  0.6622
 9150SOL     OW38908   4.034   3.621  17.246  0.6295  0.0879  0.0655
 9150SOL    HW138909   3.968   3.562  17.281  1.2402 -0.5461  0.1401
 9150SOL    HW238910   4.021   3.614  17.151  0.1685  0.2419  0.1168
 9151SOL     OW38911   0.568   2.280   2.109  0.3227  0.2961  0.4394
 9151SOL    HW138912   0.563   2.311   2.018  2.0461 -0.8305 -0.0394
 9151SOL    HW238913   0.544   2.188   2.097 -0.9978  0.7118 -0.0153
 9152SOL     OW38914   0.449   2.222  15.925 -0.3696 -0.3642  0.0215
 9152SOL    HW138915   0.455   2.174  15.842 -0.0623 -2.6536  1.3528
 9152SOL    HW238916   0.450   2.147  15.985 -0.2413  0.1256  0.6291
 9153SOL     OW38917   3.099   2.311  12.149 -0.8208  0.1807 -0.5189
 9153SOL    HW138918   3.027   2.372  12.131  0.0943  1.0153 -1.3656
 9153SOL    HW238919   3.054   2.229  12.130 -1.8358  0.1220  2.1875
 9154SOL     OW38920   2.685   0.852   5.930  0.0846  0.1248 -0.4331
 9154SOL    HW138921   2.595   0.848   5.899  0.2021  0.7770 -0.8548
 9154SOL    HW238922   2.715   0.765   5.906 -1.5987 -0.8570  1.0513
 9155SOL     OW38923   3.379   3.510   5.267  0.0530  0.1573  0.6767
 9155SOL    HW138924   3.316   3.483   5.199 -0.4631 -0.7329  1.5206
 9155SOL    HW238925   3.356   3.442   5.329  0.8889 -0.5198  0.2432
 9156SOL     OW38926   4.015   0.042   7.235  0.0945 -0.2195  0.3174
 9156SOL    HW138927   3.979   4.719   7.162 -1.3306 -0.6283  1.3154
 9156SOL    HW238928   4.064   0.109   7.186 -0.8271 -1.4817 -2.3310
 9157SOL     OW38929   3.070   1.994   8.964  0.5004  0.2527  0.1907
 9157SOL    HW138930   2.996   2.039   9.005  0.9932  0.1746  1.1721
 9157SOL    HW238931   3.068   2.025   8.874 -2.0222 -0.4319 -0.0056
 9158SOL     OW38932   0.573   0.718   7.094 -0.0666 -0.4806 -0.5139
 9158SOL    HW138933   0.532   0.740   7.178  0.2828  1.1093 -0.7512
 9158SOL    HW238934   0.664   0.692   7.108  0.1794 -1.3109 -3.5257
 9159SOL     OW38935   1.260   3.021   5.826 -0.3218  0.0692 -0.0684
 9159SOL    HW138936   1.344   2.995   5.789  0.2055  1.3120  0.2520
 9159SOL    HW238937   1.258   3.112   5.794 -3.8332  0.8197  2.2741
 9160SOL     OW38938   2.485   2.710   4.789 -0.3436  0.2669 -0.6794
 9160SOL    HW138939   2.577   2.715   4.813 -0.4187  0.1734 -0.3778
 9160SOL    HW238940   2.456   2.800   4.806 -0.0888  1.2380 -5.2625
 9161SOL     OW38941   1.319   2.688  15.934 -0.3203 -0.0359 -0.1158
 9161SOL    HW138942   1.272   2.760  15.892  1.3970  0.8676 -0.4569
 9161SOL    HW238943   1.278   2.614  15.890  1.5951  0.5241 -2.8160
 9162SOL     OW38944   2.590   0.902   2.577  0.7407 -0.3126  0.1972
 9162SOL    HW138945   2.605   0.993   2.551  0.1362 -0.2396  0.1099
 9162SOL    HW238946   2.671   0.854   2.561 -0.7807 -2.7334 -0.3487
 9163SOL     OW38947   4.645   1.845   3.413  0.2701 -0.0252  0.3332
 9163SOL    HW138948   4.550   1.855   3.417  0.1791 -1.4951  1.5417
 9163SOL    HW238949   4.655   1.867   3.320  2.2040 -0.2423  0.4739
 9164SOL     OW38950   2.596   3.587  17.264  0.1721  0.3877 -0.2988
 9164SOL    HW138951   2.550   3.616  17.184  0.1467  1.1216 -0.0222
 9164SOL    HW238952   2.559   3.502  17.287  1.8349  0.0006  0.8941
 9165SOL     OW38953   0.824   4.403   3.208 -0.2721 -0.3317 -0.2242
 9165SOL    HW138954   0.846   4.453   3.130 -1.2053  1.1442  0.4486
 9165SOL    HW238955   0.729   4.414   3.201 -0.0339  2.0141  0.2748
 9166SOL     OW38956   2.366   4.374   1.637 -0.0106 -0.4378 -0.0089
 9166SOL    HW138957   2.383   4.331   1.553 -2.5464  0.3218 -0.9202
 9166SOL    HW238958   2.340   4.461   1.607 -0.5573 -0.2773  0.9427
 9167SOL     OW38959   0.303   1.776  13.751 -0.2306  0.5534  0.1164
 9167SOL    HW138960   0.236   1.769  13.819 -1.4158  0.1452 -1.0798
 9167SOL    HW238961   0.251   1.739  13.679 -0.2332  1.1151 -0.1706
 9168SOL     OW38962   0.912   4.466   3.468 -0.1690  0.1050  0.1119
 9168SOL    HW138963   0.857   4.403   3.514 -1.1653 -0.7869 -2.2834
 9168SOL    HW238964   0.877   4.472   3.379  2.0265 -2.4435 -0.9159
 9169SOL     OW38965   0.830   1.720   6.819  0.0986 -0.0159 -0.3398
 9169SOL    HW138966   0.754   1.681   6.775 -0.1015  0.0105 -0.0172
 9169SOL    HW238967   0.857   1.779   6.748 -0.1316 -1.6839 -1.7904
 9170SOL     OW38968   1.037   1.860   8.780  0.2611  0.2708  0.6962
 9170SOL    HW138969   1.044   1.919   8.856  1.5368  0.3308  0.5331
 9170SOL    HW238970   0.998   1.782   8.819  0.4450 -0.7440 -1.1529
 9171SOL     OW38971   0.149   1.275  14.502  0.2047 -0.6245 -0.4789
 9171SOL    HW138972   0.098   1.198  14.526  0.2858 -0.7181 -0.6081
 9171SOL    HW238973   0.231   1.256  14.547 -0.7973 -0.4608  1.4574
 9172SOL     OW38974   1.772   4.204  11.054  0.2050  0.3623  0.3074
 9172SOL    HW138975   1.792   4.126  11.105 -0.6459  0.2774  0.5129
 9172SOL    HW238976   1.700   4.172  11.000  0.8209 -1.1195  0.3821
 9173SOL     OW38977   0.480   0.857  12.663  0.4414  0.4300  0.4756
 9173SOL    HW138978   0.554   0.805  12.631 -0.1065  0.0127 -0.1344
 9173SOL    HW238979   0.419   0.854  12.589 -0.6710 -0.6919  1.4232
 9174SOL     OW38980   3.080   2.213   8.186 -0.1152  0.0469  0.3614
 9174SOL    HW138981   3.087   2.154   8.261 -2.1784 -0.9485 -0.2297
 9174SOL    HW238982   3.094   2.149   8.117 -1.0080  0.1658  0.0668
 9175SOL     OW38983   0.996   0.882   7.979  0.3374 -0.1825  0.1698
 9175SOL    HW138984   0.944   0.815   8.024  0.1269  0.6366  1.1586
 9175SOL    HW238985   1.085   0.857   8.004  0.4624 -0.1895 -0.2780
 9176SOL     OW38986   1.666   3.749   8.766  0.1082  0.3799 -0.1453
 9176SOL    HW138987   1.641   3.835   8.801 -1.4413 -0.2531  0.2516
 9176SOL    HW238988   1.691   3.704   8.847 -1.1965  1.6772  0.9687
 9177SOL     OW38989   1.087   3.765  10.960  0.0253 -0.0744  0.5733
 9177SOL    HW138990   1.041   3.774  10.876  0.6003 -1.3539  0.1208
 9177SOL    HW238991   1.118   3.856  10.968 -0.8018  0.0729  1.9786
 9178SOL     OW38992   0.884   2.137   5.170 -0.2323 -0.1671 -0.4372
 9178SOL    HW138993   0.977   2.116   5.171 -0.2454 -0.1324  3.7146
 9178SOL    HW238994   0.848   2.057   5.209  0.0476 -0.2904 -0.4292
 9179SOL     OW38995   2.202   2.640  15.315  0.3288  0.3380 -0.4196
 9179SOL    HW138996   2.123   2.693  15.308  0.3733  0.3572 -0.7381
 9179SOL    HW238997   2.235   2.677  15.397 -0.5804 -0.9263  0.5281
 9180SOL     OW38998   1.007   0.974   0.193  0.3985 -0.4024  0.3810
 9180SOL    HW138999   0.958   0.935   0.121 -1.7284  0.8711  1.1261
 9180SOL    HW239000   0.975   1.064   0.203 -0.6880 -0.9125  1.5250
 9181SOL     OW39001   2.355   2.208   4.517 -0.4863 -0.1006  0.0729
 9181SOL    HW139002   2.353   2.265   4.440 -3.0162 -0.1975  0.0612
 9181SOL    HW239003   2.267   2.220   4.552  0.3411 -0.4361  2.2465
 9182SOL     OW39004   1.910   0.645   0.767 -0.2558 -0.3376  0.3388
 9182SOL    HW139005   1.943   0.711   0.705 -0.4872 -0.3394  0.2125
 9182SOL    HW239006   1.975   0.575   0.764 -2.1988 -2.0985 -0.6465
 9183SOL     OW39007   4.698   2.971   8.650 -0.4789 -0.2560  0.2068
 9183SOL    HW139008   0.007   3.019   8.725 -1.2209 -0.4815  0.7096
 9183SOL    HW239009   4.609   3.007   8.654 -0.1386  0.3410  2.2351
 9184SOL     OW39010   4.562   0.691  13.080  0.6566  0.1814 -0.2800
 9184SOL    HW139011   4.501   0.641  13.134 -0.3058 -0.3447 -1.8483
 9184SOL    HW239012   4.511   0.689  12.999 -1.7619 -0.3986  1.2507
 9185SOL     OW39013   4.626   2.580   6.757  0.0484 -0.3775 -0.2200
 9185SOL    HW139014   4.581   2.497   6.739  1.4794 -1.1594 -0.1740
 9185SOL    HW239015   4.621   2.615   6.668 -1.8486 -2.1981 -0.8304
 9186SOL     OW39016   2.158   2.471   9.639 -0.2126  1.1175  0.1890
 9186SOL    HW139017   2.247   2.506   9.647  0.3710 -0.2514 -0.2426
 9186SOL    HW239018   2.137   2.471   9.546  2.2023 -0.2080 -0.3547
 9187SOL     OW39019   0.315   1.259   0.370  0.1463  0.3175 -0.2070
 9187SOL    HW139020   0.409   1.255   0.387  0.1262 -2.3992 -0.8036
 9187SOL    HW239021   0.304   1.354   0.377  0.5398  0.3016  0.7142
 9188SOL     OW39022   1.214   4.463  15.733  0.2334 -0.3563 -0.1135
 9188SOL    HW139023   1.250   4.547  15.705  2.5508 -1.9008 -1.7499
 9188SOL    HW239024   1.273   4.434  15.802 -1.1787 -2.1228  0.3353
 9189SOL     OW39025   2.592   1.067   6.695  0.2745 -0.3860 -0.1114
 9189SOL    HW139026   2.685   1.046   6.705  0.3091  0.4026  1.2389
 9189SOL    HW239027   2.578   1.100   6.606 -4.3459 -1.4167  0.2315
 9190SOL     OW39028   2.145   4.161   8.544 -0.6773 -0.3486  0.1398
 9190SOL    HW139029   2.105   4.248   8.535  0.3650  0.0207 -0.9192
 9190SOL    HW239030   2.176   4.173   8.634 -0.7603  0.6175  0.0475
 9191SOL     OW39031   3.963   0.165   5.730 -0.1010  0.3409  0.0843
 9191SOL    HW139032   3.889   0.201   5.680 -1.7808  1.7760  3.6041
 9191SOL    HW239033   3.926   0.077   5.739  1.5514  0.0208  3.5339
 9192SOL     OW39034   3.720   4.151   6.136  0.5315  0.1157  0.8131
 9192SOL    HW139035   3.709   4.187   6.048  1.0364 -0.9623  0.3161
 9192SOL    HW239036   3.770   4.070   6.127 -0.3437 -0.1211 -1.7525
 9193SOL     OW39037   1.271   2.535   4.914 -0.5329  0.3851  0.5374
 9193SOL    HW139038   1.254   2.478   4.989  2.9801 -1.5154 -0.1079
 9193SOL    HW239039   1.333   2.605   4.933  0.7387 -1.0457  1.6347
 9194SOL     OW39040   3.971   3.886  17.147  0.0424 -0.4002 -0.4761
 9194SOL    HW139041   3.925   3.850  17.071  1.6044 -1.3811 -0.9555
 9194SOL    HW239042   4.028   3.810  17.161 -2.3635 -2.0797  0.2948
 9195SOL     OW39043   3.821   2.587  13.240 -0.3017 -0.3151 -0.6132
 9195SOL    HW139044   3.815   2.576  13.335 -0.4220  0.9525 -0.4757
 9195SOL    HW239045   3.788   2.499  13.220  1.0215 -0.3680 -2.5176
 9196SOL     OW39046   0.114   4.247  13.414  0.2556  0.3139 -0.3010
 9196SOL    HW139047   0.143   4.224  13.326 -0.5815 -0.3794 -0.3966
 9196SOL    HW239048   0.157   4.331  13.432  0.7039 -0.3754  1.9689
 9197SOL     OW39049   2.215   3.787  11.016 -0.8333  0.0152  0.2574
 9197SOL    HW139050   2.300   3.824  10.994 -0.4137 -1.2923 -0.3050
 9197SOL    HW239051   2.193   3.738  10.937  1.5161 -1.9553  0.8405
 9198SOL     OW39052   0.409   1.718  16.170  0.0897 -0.1465  0.2630
 9198SOL    HW139053   0.504   1.724  16.174  0.0518  0.1408  0.8136
 9198SOL    HW239054   0.399   1.628  16.140 -0.2150 -0.2171  0.5773
 9199SOL     OW39055   2.600   2.766  16.157  0.4367  0.0096 -0.1890
 9199SOL    HW139056   2.665   2.696  16.148 -0.7396 -1.1060 -0.0271
 9199SOL    HW239057   2.595   2.806  16.071 -0.3581 -0.7947 -0.5210
 9200SOL     OW39058   0.240   1.363   5.583  0.2715 -0.2610  0.7182
 9200SOL    HW139059   0.267   1.444   5.539  0.1926 -0.4020  0.4142
 9200SOL    HW239060   0.304   1.354   5.654  0.1876  3.8635  1.3416
 9201SOL     OW39061   1.845   3.027   3.131 -0.0178 -0.5725 -0.2839
 9201SOL    HW139062   1.786   2.951   3.136  1.4295 -1.7346 -0.9670
 9201SOL    HW239063   1.888   3.009   3.048  0.8964  0.4703 -0.0332
 9202SOL     OW39064   4.382   0.716   5.597  0.7071  0.0907  0.3041
 9202SOL    HW139065   4.447   0.687   5.533 -1.2952 -1.3113 -1.1075
 9202SOL    HW239066   4.318   0.773   5.554 -0.5135 -0.7470  1.0104
 9203SOL     OW39067   3.174   1.343   4.344 -0.0448  0.4680 -0.7027
 9203SOL    HW139068   3.088   1.384   4.349  0.8600  2.2035  0.9452
 9203SOL    HW239069   3.178   1.278   4.413  0.6125  1.1467 -0.0936
 9204SOL     OW39070   2.222   1.789  11.565  0.1334  0.3362 -0.4274
 9204SOL    HW139071   2.232   1.786  11.470  2.5290  1.1625 -0.1987
 9204SOL    HW239072   2.128   1.805  11.569  0.1921  1.0746 -2.1169
 9205SOL     OW39073   2.313   1.455   3.320 -0.3313 -0.9056  0.1574
 9205SOL    HW139074   2.307   1.477   3.227  0.4280 -0.0883  0.2964
 9205SOL    HW239075   2.329   1.360   3.312 -0.1542 -1.0110  1.7352
 9206SOL     OW39076   4.263   2.615   2.603 -0.0922  0.1653  0.2720
 9206SOL    HW139077   4.305   2.680   2.660  0.4410  0.6770 -0.7193
 9206SOL    HW239078   4.235   2.677   2.536  1.4351  1.2896  0.6686
 9207SOL     OW39079   4.128   2.828   3.946  0.7243 -0.2876 -0.2381
 9207SOL    HW139080   4.176   2.903   3.910  1.2648 -0.2527  0.5516
 9207SOL    HW239081   4.133   2.778   3.865  2.1115  1.0202 -0.9632
 9208SOL     OW39082   1.198   2.380   9.190  0.6029  0.4851  0.0377
 9208SOL    HW139083   1.247   2.403   9.269 -0.0405  2.1920 -0.0441
 9208SOL    HW239084   1.263   2.383   9.120 -0.3823  0.8212 -0.8499
 9209SOL     OW39085   1.658   3.855  13.315  0.8841  0.2480  0.2493
 9209SOL    HW139086   1.596   3.803  13.367 -0.9775  2.4274  0.1811
 9209SOL    HW239087   1.705   3.793  13.259  1.0962  1.1166 -0.5275
 9210SOL     OW39088   3.101   1.966   6.725 -0.0262 -0.3751  0.0136
 9210SOL    HW139089   3.068   1.877   6.714 -1.2785  0.1006 -0.1804
 9210SOL    HW239090   3.191   1.949   6.751  0.2783  1.6358  0.2548
 9211SOL     OW39091   4.327   1.139   7.994  0.8481  0.1757 -0.0459
 9211SOL    HW139092   4.290   1.084   8.063 -0.5702  1.2253  0.0449
 9211SOL    HW239093   4.419   1.119   8.006  0.6201 -0.5096  0.5794
 9212SOL     OW39094   2.981   3.828  14.893 -0.0770  0.2381  0.3530
 9212SOL    HW139095   2.911   3.840  14.830 -1.1805 -0.1023  1.5063
 9212SOL    HW239096   3.006   3.921  14.891 -0.2812  0.2209 -2.5534
 9213SOL     OW39097   4.432   3.756  13.318 -0.1381 -0.2354 -0.0688
 9213SOL    HW139098   4.417   3.815  13.392  0.4120  0.6630 -0.6787
 9213SOL    HW239099   4.493   3.807  13.265 -2.1835  2.0905 -0.1662
 9214SOL     OW39100   3.696   3.496  10.448  0.2826 -0.3219 -0.3560
 9214SOL    HW139101   3.661   3.495  10.359  0.2452 -3.7111 -0.2817
 9214SOL    HW239102   3.771   3.437  10.452 -0.1985 -0.8744  0.4535
 9215SOL     OW39103   1.631   3.493   7.138  0.5758 -0.0241  0.3165
 9215SOL    HW139104   1.622   3.478   7.044 -0.2263  1.3620  0.1766
 9215SOL    HW239105   1.720   3.513   7.166  0.6149  1.1559 -0.6722
 9216SOL     OW39106   2.119   2.613  14.166  0.1045 -0.3787 -0.1913
 9216SOL    HW139107   2.089   2.701  14.189 -0.8419 -0.4333 -1.2257
 9216SOL    HW239108   2.212   2.617  14.186 -0.1715 -1.8465  1.3940
 9217SOL     OW39109   1.757   0.573  16.976 -0.3919 -0.0100  0.1434
 9217SOL    HW139110   1.816   0.506  17.010 -1.3028 -1.4450 -1.1380
 9217SOL    HW239111   1.776   0.572  16.882 -2.1533  1.2945 -0.2140
 9218SOL     OW39112   1.031   1.700   5.995 -0.8659  0.1664  0.2255
 9218SOL    HW139113   0.995   1.638   5.932  0.0994 -0.7874  0.6202
 9218SOL    HW239114   0.964   1.683   6.062 -1.5724  1.2420 -0.2018
 9219SOL     OW39115   1.648   0.756   1.343  0.2592 -0.5099 -0.3160
 9219SOL    HW139116   1.601   0.804   1.411 -1.4045 -1.9600 -0.4472
 9219SOL    HW239117   1.635   0.820   1.273 -1.6194  1.6217  1.9559
 9220SOL     OW39118   2.513   2.798   6.259 -0.0273 -0.1629  0.3091
 9220SOL    HW139119   2.437   2.844   6.295  0.8990  0.8551  0.9686
 9220SOL    HW239120   2.463   2.717   6.258 -0.7716  0.3065 -0.5445
 9221SOL     OW39121   4.182   0.461   6.736 -0.2003 -0.5199  0.7460
 9221SOL    HW139122   4.236   0.446   6.814 -1.0603 -1.8750  1.0767
 9221SOL    HW239123   4.204   0.551   6.712  0.9719 -0.3423  2.4350
 9222SOL     OW39124   1.921   2.741   8.421  0.1365 -0.0585  0.0987
 9222SOL    HW139125   1.894   2.719   8.331  0.6520 -0.1903 -0.0197
 9222SOL    HW239126   1.930   2.651   8.452  0.1755  0.1482  0.6878
 9223SOL     OW39127   1.972   4.593   5.146 -0.2153  0.0394  0.4205
 9223SOL    HW139128   1.891   4.627   5.184 -0.3419 -0.4150  0.5529
 9223SOL    HW239129   2.003   4.668   5.096  2.5401 -1.2030  0.3125
 9224SOL     OW39130   3.481   1.119   0.878  0.0676  0.2059 -0.2021
 9224SOL    HW139131   3.431   1.070   0.813 -1.6304  0.2839  1.0564
 9224SOL    HW239132   3.425   1.196   0.889 -0.0173 -0.0089  0.8248
 9225SOL     OW39133   2.643   4.025  14.558  0.0507  0.0435  0.2508
 9225SOL    HW139134   2.732   4.030  14.593  0.3987 -2.2300 -0.3026
 9225SOL    HW239135   2.655   3.982  14.473  1.2495 -0.3671  0.6285
 9226SOL     OW39136   1.109   4.652  12.561 -0.4283  0.7825 -0.1253
 9226SOL    HW139137   1.140   4.607  12.482 -0.5898  0.7543 -0.1731
 9226SOL    HW239138   1.032   4.700  12.529 -0.2427 -0.2128 -2.0989
 9227SOL     OW39139   1.225   1.259  10.540 -0.5355  0.1692 -0.4128
 9227SOL    HW139140   1.210   1.241  10.633 -2.2099  1.4970 -0.4335
 9227SOL    HW239141   1.214   1.170  10.506  1.4077  0.2518 -1.2724
 9228SOL     OW39142   0.595   2.328   3.123 -0.2591 -0.1055  0.1113
 9228SOL    HW139143   0.612   2.237   3.098 -1.7768 -0.6109  0.8977
 9228SOL    HW239144   0.684   2.362   3.134  0.4822 -1.3000 -2.1283
 9229SOL     OW39145   3.908   3.039  12.466  0.5611 -0.3744  0.2883
 9229SOL    HW139146   3.826   3.046  12.418 -0.5537  0.7793  2.3606
 9229SOL    HW239147   3.969   3.001  12.402 -0.8350  0.3058 -1.4591
 9230SOL     OW39148   2.175   0.737  12.569 -0.2613  0.1078 -0.3496
 9230SOL    HW139149   2.224   0.733  12.487  1.6929  4.2950  0.5803
 9230SOL    HW239150   2.132   0.821  12.554 -0.3192  0.1250 -0.0760
 9231SOL     OW39151   0.093   0.791  10.762 -0.2079  0.0201 -0.0772
 9231SOL    HW139152   0.162   0.847  10.726 -0.8829  0.5664 -0.5333
 9231SOL    HW239153   0.121   0.774  10.852  0.1634  1.3074  0.0594
 9232SOL     OW39154   0.382   0.662   2.371  0.8752  0.3730  0.5034
 9232SOL    HW139155   0.343   0.736   2.324  0.2831  0.1718  0.6838
 9232SOL    HW239156   0.376   0.678   2.465  0.0048  1.4376  0.2691
 9233SOL     OW39157   2.572   3.128   7.368  0.3092 -0.3251  0.0019
 9233SOL    HW139158   2.580   3.209   7.419  1.7202 -0.5030  0.0607
 9233SOL    HW239159   2.501   3.152   7.308 -0.0217 -1.1012  0.0947
 9234SOL     OW39160   1.003   2.187   9.178  0.1447  0.1124  1.2194
 9234SOL    HW139161   1.058   2.265   9.170  0.7047 -0.4380 -0.3974
 9234SOL    HW239162   0.964   2.191   9.265 -0.6683  3.5287  0.7048
 9235SOL     OW39163   0.104   1.193   3.042  0.1374  0.6243 -0.3787
 9235SOL    HW139164   0.129   1.239   3.122  4.0701 -0.8015 -0.7977
 9235SOL    HW239165   0.010   1.185   3.055  0.3480  0.4986  1.0386
 9236SOL     OW39166   0.756   0.446   9.262 -0.3256 -0.7335  0.1452
 9236SOL    HW139167   0.735   0.450   9.168  0.9616  4.1924  0.0437
 9236SOL    HW239168   0.851   0.451   9.249 -0.2345  3.4776  2.4247
 9237SOL     OW39169   0.301   3.882   8.293 -0.1651  0.4134  0.8955
 9237SOL    HW139170   0.206   3.897   8.293 -0.0695  0.9993  0.8716
 9237SOL    HW239171   0.297   3.791   8.323  1.8154  0.0293 -0.0152
 9238SOL     OW39172   0.614   3.838  14.529  0.1034  0.3233  0.5598
 9238SOL    HW139173   0.582   3.912  14.477 -0.4811  0.1982  0.7508
 9238SOL    HW239174   0.558   3.765  14.502 -0.5257  0.7472  0.7167
 9239SOL     OW39175   2.130   1.899   8.857  0.2779  0.4885 -0.2243
 9239SOL    HW139176   2.074   1.825   8.832  2.0366 -1.1026  0.5728
 9239SOL    HW239177   2.158   1.941   8.775  4.5180  1.1065  1.5700
 9240SOL     OW39178   0.358   1.277  12.283  0.1058  0.3583  0.0638
 9240SOL    HW139179   0.308   1.349  12.245 -2.5804 -2.6490 -2.0956
 9240SOL    HW239180   0.363   1.296  12.377  1.5144 -0.4190  0.1381
 9241SOL     OW39181   0.898   4.054   1.681 -0.1160 -0.3050  0.3860
 9241SOL    HW139182   0.827   4.087   1.626 -0.7787 -1.1365  0.7574
 9241SOL    HW239183   0.939   4.138   1.701 -0.8436 -0.8072  3.8872
 9242SOL     OW39184   1.773   4.469  13.940  0.3529  0.0516 -0.3140
 9242SOL    HW139185   1.739   4.554  13.969 -0.9553 -0.0961 -1.3870
 9242SOL    HW239186   1.698   4.410  13.929  0.7556 -0.0939 -2.2139
 9243SOL     OW39187   1.704   1.517   5.966 -0.6648  0.6346  0.8495
 9243SOL    HW139188   1.663   1.553   5.888  1.2013  1.6756  0.3552
 9243SOL    HW239189   1.645   1.540   6.038  0.1871  0.1689  1.7030
 9244SOL     OW39190   0.768   2.703   2.617  0.3822 -0.2816 -0.6217
 9244SOL    HW139191   0.775   2.615   2.580  0.2959  0.1491 -1.6510
 9244SOL    HW239192   0.861   2.721   2.630  0.6274 -1.2240 -1.1118
 9245SOL     OW39193   0.612   3.009   1.561  0.1859 -0.4816  0.1529
 9245SOL    HW139194   0.614   2.988   1.468  3.0593  0.1366  0.0796
 9245SOL    HW239195   0.517   3.010   1.572  0.1748  4.3953 -0.4492
 9246SOL     OW39196   2.460   2.331   4.246 -0.2045 -0.2853  0.6632
 9246SOL    HW139197   2.456   2.274   4.170  0.2386  0.2051  0.2714
 9246SOL    HW239198   2.526   2.394   4.217 -2.0136  1.7535  0.9710
 9247SOL     OW39199   1.179   4.318   4.367  0.3610  0.1708  0.4701
 9247SOL    HW139200   1.138   4.402   4.344  1.3016  0.6938  0.7186
 9247SOL    HW239201   1.270   4.340   4.347  0.7464 -1.5792  0.3083
 9248SOL     OW39202   3.447   0.182  17.657 -0.3721  0.1741  0.6817
 9248SOL    HW139203   3.366   0.219  17.693 -1.4267 -1.5827  0.1304
 9248SOL    HW239204   3.519   0.228  17.699  1.8528 -2.0563 -0.7270
 9249SOL     OW39205   3.452   1.859   2.872  0.3886 -0.2467  0.5498
 9249SOL    HW139206   3.375   1.803   2.875 -0.3477  0.7260 -0.0265
 9249SOL    HW239207   3.421   1.938   2.917  4.2472  2.7776 -2.1498
 9250SOL     OW39208   3.090   3.945  14.453 -0.5635 -1.1517 -0.3815
 9250SOL    HW139209   3.166   3.897  14.485  0.2760  1.7192  1.9277
 9250SOL    HW239210   3.035   3.949  14.532 -0.6548  0.1092 -0.5095
 9251SOL     OW39211   1.264   1.059   0.245  0.0363 -0.6253  0.1178
 9251SOL    HW139212   1.274   1.152   0.227 -1.0572 -0.7555 -1.2290
 9251SOL    HW239213   1.185   1.026   0.201 -1.1597  0.6775  1.3335
 9252SOL     OW39214   2.040   3.176  13.074 -0.4227 -0.3790  0.6556
 9252SOL    HW139215   2.088   3.189  12.992 -1.2032  0.8894  0.4062
 9252SOL    HW239216   2.055   3.083  13.089  0.6346 -0.1396  1.0937
 9253SOL     OW39217   1.524   1.646   3.194 -0.7196 -0.2250 -0.3598
 9253SOL    HW139218   1.581   1.569   3.184  1.7335  1.4798  0.7103
 9253SOL    HW239219   1.450   1.600   3.234 -0.2344 -0.2929  0.4623
 9254SOL     OW39220   3.353   0.998   8.573 -0.0773 -0.1663  0.4020
 9254SOL    HW139221   3.364   1.090   8.597  0.3636 -0.2473  0.5118
 9254SOL    HW239222   3.351   0.960   8.661 -3.9271  0.5098  0.5865
 9255SOL     OW39223   4.533   4.059   7.253  0.1962 -0.0220 -0.1162
 9255SOL    HW139224   4.472   4.111   7.304  1.4779  1.4379 -0.0631
 9255SOL    HW239225   4.507   4.094   7.167  0.8079 -0.9755 -0.6988
 9256SOL     OW39226   1.314   3.282   8.688  0.2350  0.4953  0.2340
 9256SOL    HW139227   1.346   3.316   8.605 -1.0115 -1.1217 -0.9130
 9256SOL    HW239228   1.298   3.368   8.727 -2.4686 -0.4800  1.3058
 9257SOL     OW39229   3.991   1.298   7.344  0.1699  0.1495  0.6174
 9257SOL    HW139230   3.991   1.212   7.301 -0.7232  0.9349 -0.9761
 9257SOL    HW239231   4.024   1.281   7.432  2.9812  2.0513 -0.0722
 9258SOL     OW39232   4.549   4.295  12.906 -0.5501 -0.0129  0.2218
 9258SOL    HW139233   4.457   4.309  12.927 -0.0051  0.2642  2.4364
 9258SOL    HW239234   4.569   4.360  12.838 -1.7499  2.0308  1.8239
 9259SOL     OW39235   1.716   3.561   0.697  0.1005 -0.1118 -0.1204
 9259SOL    HW139236   1.651   3.608   0.749 -0.1592 -1.2991  0.6371
 9259SOL    HW239237   1.679   3.473   0.695  0.4078 -0.2820  1.5306
 9260SOL     OW39238   3.159   2.898   2.974  0.6318 -0.0941  0.0796
 9260SOL    HW139239   3.194   2.877   3.060  0.1088 -2.4973 -0.3005
 9260SOL    HW239240   3.233   2.912   2.916 -0.4048 -1.8670 -1.6489
 9261SOL     OW39241   4.487   2.310  13.182 -0.2458 -0.0866  0.2723
 9261SOL    HW139242   4.541   2.255  13.239  0.9109  1.2396  0.4724
 9261SOL    HW239243   4.526   2.301  13.095 -3.1504 -0.8901 -0.9170
 9262SOL     OW39244   0.719   0.615   1.995  0.2940 -0.1870 -0.5387
 9262SOL    HW139245   0.762   0.689   2.039  0.2847 -0.0341 -0.7850
 9262SOL    HW239246   0.628   0.616   2.025  0.9706 -1.0427  1.5835
 9263SOL     OW39247   1.009   0.353   2.270 -0.1862  0.1649  0.0576
 9263SOL    HW139248   0.997   0.412   2.195 -0.4813 -0.3163 -0.2722
 9263SOL    HW239249   0.962   0.404   2.337 -0.1227 -0.5959  0.6858
 9264SOL     OW39250   4.217   3.454  11.233  0.1963  0.8028  0.7455
 9264SOL    HW139251   4.283   3.522  11.227  1.0488  0.0115  1.1460
 9264SOL    HW239252   4.167   3.464  11.152  1.3038  1.3005  0.1331
 9265SOL     OW39253   4.116   3.248  15.858  0.0105  0.1416  0.1038
 9265SOL    HW139254   4.047   3.311  15.840  0.2113  0.0274 -1.0896
 9265SOL    HW239255   4.183   3.283  15.799  0.4689  1.2255  1.2697
 9266SOL     OW39256   2.237   1.534   2.535 -0.1708 -0.0656 -0.1501
 9266SOL    HW139257   2.170   1.500   2.595 -0.7838  0.5679 -0.4715
 9266SOL    HW239258   2.210   1.521   2.444 -3.3222  1.6076  0.5575
 9267SOL     OW39259   2.253   1.081   8.251 -0.4894 -0.0434 -0.2381
 9267SOL    HW139260   2.285   1.069   8.341 -1.1153 -0.6376 -0.0996
 9267SOL    HW239261   2.240   0.990   8.223  0.1068 -0.1483 -0.1899
 9268SOL     OW39262   2.669   0.220   1.224  0.0524  0.1843 -0.1912
 9268SOL    HW139263   2.764   0.226   1.225  0.1965 -2.1955  0.1528
 9268SOL    HW239264   2.665   0.125   1.230  2.2621 -0.0437 -2.5379
 9269SOL     OW39265   0.028   3.992   8.002 -0.0850 -0.3682  0.3498
 9269SOL    HW139266   0.104   4.013   7.946  0.1482  0.0280  0.8111
 9269SOL    HW239267   4.676   4.025   7.961  2.0092  2.2537 -1.6136
 9270SOL     OW39268   2.451   2.060   8.076 -0.2215 -0.4005  0.5102
 9270SOL    HW139269   2.463   1.966   8.064  0.1772 -0.4263  1.1229
 9270SOL    HW239270   2.543   2.086   8.068 -1.2769  2.4292 -2.3895
 9271SOL     OW39271   1.545   0.265   3.360  0.9839 -0.4196  0.6391
 9271SOL    HW139272   1.513   0.219   3.283 -3.0360  0.0428  2.0249
 9271SOL    HW239273   1.459   0.294   3.388  0.9488  0.3088 -0.2040
 9272SOL     OW39274   2.378   4.098  11.687  0.0596  0.1504  0.1378
 9272SOL    HW139275   2.473   4.094  11.679  0.0265 -0.3672  0.0072
 9272SOL    HW239276   2.378   4.162  11.758 -0.6248  1.3774 -0.9676
 9273SOL     OW39277   1.509   3.697  13.486  0.1268  0.0843  0.0804
 9273SOL    HW139278   1.418   3.728  13.487  0.0085 -0.2649  0.3983
 9273SOL    HW239279   1.538   3.724  13.573 -3.0335 -0.3582  1.2890
 9274SOL     OW39280   2.572   4.400   0.360  0.4587  0.2347  0.0483
 9274SOL    HW139281   2.564   4.492   0.387 -3.1958 -0.1149  0.2251
 9274SOL    HW239282   2.653   4.370   0.401  0.2021  0.4561  0.7379
 9275SOL     OW39283   3.288   0.392   8.878  0.4892  0.2304  0.1041
 9275SOL    HW139284   3.262   0.458   8.813 -1.4489 -0.2414  0.4209
 9275SOL    HW239285   3.223   0.324   8.862 -0.1966  0.7024  0.8883
 9276SOL     OW39286   2.171   0.192  13.033 -0.0791  0.3720  0.0508
 9276SOL    HW139287   2.230   0.195  12.957  1.0304 -1.0520  0.8662
 9276SOL    HW239288   2.201   0.117  13.084  1.6137 -0.0716 -1.6015
 9277SOL     OW39289   4.012   0.473   7.891 -0.1421  0.3073  0.1251
 9277SOL    HW139290   3.991   0.425   7.971 -0.2304 -0.6926 -0.4977
 9277SOL    HW239291   3.926   0.503   7.861 -0.3895 -0.5016  0.0147
 9278SOL     OW39292   0.540   1.765   1.298  0.1031  0.0931 -0.0098
 9278SOL    HW139293   0.558   1.781   1.390  0.3485 -0.6245  0.0644
 9278SOL    HW239294   0.450   1.730   1.290 -0.0320  0.0095  1.9946
 9279SOL     OW39295   3.021   0.137   0.634  0.0070 -0.4426 -0.1308
 9279SOL    HW139296   3.087   0.110   0.570 -0.1174  1.1819 -0.9507
 9279SOL    HW239297   2.992   0.225   0.608 -0.4195 -0.3186  0.7452
 9280SOL     OW39298   4.702   0.652   2.643 -0.6329 -0.6067 -0.3521
 9280SOL    HW139299   4.716   0.655   2.548 -0.7435  1.1184 -0.3066
 9280SOL    HW239300   0.028   0.573   2.655 -0.5830 -0.3559  1.0092
 9281SOL     OW39301   4.703   4.494  17.507  0.2985 -0.5946 -0.5599
 9281SOL    HW139302   0.034   4.570  17.503 -2.1795  1.4093  1.2999
 9281SOL    HW239303   4.627   4.538  17.470  0.2475 -1.1392 -1.1094
 9282SOL     OW39304   1.089   2.379  17.613  0.3926  0.2378 -0.2100
 9282SOL    HW139305   1.158   2.423  17.663 -1.4497  1.0484  1.5870
 9282SOL    HW239306   1.050   2.314  17.671  0.0866 -1.9747 -2.8804
 9283SOL     OW39307   1.259   3.770  13.568 -0.1329  0.4370  0.5210
 9283SOL    HW139308   1.172   3.762  13.608 -0.9805 -0.0628 -1.4530
 9283SOL    HW239309   1.254   3.837  13.500 -0.9042 -0.8969 -0.7263
 9284SOL     OW39310   2.655   0.263   7.658  0.5737  0.4473 -0.6585
 9284SOL    HW139311   2.731   0.229   7.704  0.2411 -1.0217 -1.1746
 9284SOL    HW239312   2.607   0.259   7.740  1.3135  0.1545 -0.2398
 9285SOL     OW39313   2.743   4.035   6.654 -0.0711 -0.1308 -0.2671
 9285SOL    HW139314   2.776   3.975   6.722 -2.6814  1.8759  2.8064
 9285SOL    HW239315   2.703   4.102   6.710 -1.1180 -1.6964  0.8895
 9286SOL     OW39316   1.870   0.230   5.796  0.2980  0.2924 -0.4421
 9286SOL    HW139317   1.940   0.217   5.731 -1.2239 -1.8005 -1.6659
 9286SOL    HW239318   1.845   0.138   5.798 -0.8996  0.6422  0.9145
 9287SOL     OW39319   2.594   3.663   1.632 -0.0683  0.0307  0.3638
 9287SOL    HW139320   2.567   3.633   1.546  1.6511 -2.0129  0.5223
 9287SOL    HW239321   2.674   3.712   1.611 -1.1658  1.6088 -0.0706
 9288SOL     OW39322   2.285   0.837   8.548  0.0260  0.0640  0.0167
 9288SOL    HW139323   2.313   0.903   8.610  0.1455  0.4901 -0.4906
 9288SOL    HW239324   2.190   0.846   8.547 -0.3425 -3.5711  1.8066
 9289SOL     OW39325   1.368   2.193   8.324 -0.0711 -0.7478  0.0758
 9289SOL    HW139326   1.459   2.166   8.311  0.1467  1.0960 -2.2643
 9289SOL    HW239327   1.337   2.138   8.396 -0.8164 -1.5809 -0.8712
 9290SOL     OW39328   1.403   1.408   1.684  0.1469 -0.1812 -0.6287
 9290SOL    HW139329   1.445   1.494   1.684  0.0956 -0.1523  0.4320
 9290SOL    HW239330   1.328   1.434   1.737  1.9471  1.1200  1.2701
 9291SOL     OW39331   2.002   0.815   1.429  0.1513  0.2201  0.0283
 9291SOL    HW139332   2.067   0.860   1.483  2.9807 -2.1148 -1.4556
 9291SOL    HW239333   2.050   0.732   1.427 -1.0872 -0.5122  0.5537
 9292SOL     OW39334   3.141   2.354   6.355  0.3264 -0.2407  0.4179
 9292SOL    HW139335   3.127   2.292   6.426  0.1886  0.0184  0.6158
 9292SOL    HW239336   3.229   2.337   6.321  0.5215 -0.7732  1.2029
 9293SOL     OW39337   3.850   3.294   7.823  0.1929 -0.1338  0.4338
 9293SOL    HW139338   3.811   3.207   7.817  0.1434 -0.1320  0.7117
 9293SOL    HW239339   3.787   3.340   7.768 -1.0555 -1.8660  0.4018
 9294SOL     OW39340   3.546   1.909   5.860 -0.1417  0.5073 -0.3186
 9294SOL    HW139341   3.636   1.911   5.829 -0.7502 -0.6594 -2.1077
 9294SOL    HW239342   3.535   1.815   5.872 -0.5952  0.8245  1.8620
 9295SOL     OW39343   1.727   3.356  12.651  0.0520  0.4948 -0.2997
 9295SOL    HW139344   1.752   3.264  12.643  1.6678  0.9896 -0.8207
 9295SOL    HW239345   1.721   3.354  12.746 -2.4392 -0.8429 -0.4716
 9296SOL     OW39346   1.717   1.441   1.823  0.0657 -0.0978  0.0745
 9296SOL    HW139347   1.737   1.354   1.858  0.0052 -0.4109 -0.6681
 9296SOL    HW239348   1.757   1.428   1.737 -2.6041  0.7562 -1.3005
 9297SOL     OW39349   2.041   2.468   7.997 -0.0543  0.0244 -0.1934
 9297SOL    HW139350   2.094   2.393   8.026 -1.1573 -1.0493 -0.9885
 9297SOL    HW239351   2.104   2.540   8.001  0.0462 -0.0677 -0.0880
 9298SOL     OW39352   3.395   3.096   3.550  0.7354  0.2414  0.2516
 9298SOL    HW139353   3.469   3.156   3.546  1.7463 -1.2160 -2.3378
 9298SOL    HW239354   3.436   3.029   3.604  0.4839 -0.5260 -0.5000
 9299SOL     OW39355   0.483   4.073  12.455  0.2437  0.1677 -0.0785
 9299SOL    HW139356   0.495   4.080  12.360 -1.4861 -0.1432 -0.3214
 9299SOL    HW239357   0.572   4.072  12.489  0.6866 -0.0035 -1.2431
 9300SOL     OW39358   2.441   4.201   6.419  0.3520 -0.1906 -0.0427
 9300SOL    HW139359   2.384   4.161   6.485 -1.0848  1.7951 -0.0846
 9300SOL    HW239360   2.374   4.245   6.366  2.4818  1.5260 -1.2782
 9301SOL     OW39361   1.444   4.441   7.592  0.0789  0.3505  0.3193
 9301SOL    HW139362   1.467   4.522   7.637  1.3349  0.1235  0.1084
 9301SOL    HW239363   1.494   4.450   7.511 -1.3905 -0.5808 -0.6762
 9302SOL     OW39364   3.977   2.503  13.701  0.0906  0.0294 -0.6125
 9302SOL    HW139365   4.040   2.574  13.712 -0.0098  0.1440 -0.7754
 9302SOL    HW239366   4.024   2.425  13.731  0.6381  0.7471  0.3831
 9303SOL     OW39367   3.717   3.248   4.545  0.2733 -0.5492 -0.6075
 9303SOL    HW139368   3.782   3.238   4.615  1.1531  0.5399 -1.2913
 9303SOL    HW239369   3.742   3.332   4.509 -0.4418  0.2207  0.6827
 9304SOL     OW39370   2.364   3.847   6.595  0.1845 -0.1905  0.6820
 9304SOL    HW139371   2.307   3.823   6.669  1.5103 -0.6019  1.5811
 9304SOL    HW239372   2.331   3.804   6.517  1.8389  1.6412 -1.0326
 9305SOL     OW39373   0.593   0.827   2.616 -0.0677  0.6226  0.1586
 9305SOL    HW139374   0.657   0.804   2.684  0.7738  1.0389 -0.4857
 9305SOL    HW239375   0.507   0.807   2.652 -0.2503 -1.5632 -1.5032
 9306SOL     OW39376   4.312   1.874   3.186 -0.2482 -0.9093 -0.4100
 9306SOL    HW139377   4.325   1.919   3.269  1.1172 -0.8247 -0.6566
 9306SOL    HW239378   4.286   1.786   3.211 -1.6268 -0.9497 -2.0136
 9307SOL     OW39379   4.337   1.910  10.597  0.1905  0.3142  0.2616
 9307SOL    HW139380   4.330   1.815  10.609 -0.2747  0.3057 -0.0625
 9307SOL    HW239381   4.314   1.937  10.685  0.9323 -0.1071  0.5880
 9308SOL     OW39382   4.604   3.098   0.527 -0.4075  0.4735 -0.0168
 9308SOL    HW139383   4.603   3.127   0.618 -0.8504  0.5648 -0.0499
 9308SOL    HW239384   4.660   3.167   0.491  0.1004  0.4615  0.7354
 9309SOL     OW39385   4.256   1.133   3.481 -0.5562 -0.3370  0.2952
 9309SOL    HW139386   4.346   1.154   3.505 -0.5998 -0.4529  0.5566
 9309SOL    HW239387   4.237   1.209   3.425 -1.2772  0.1936  1.2734
 9310SOL     OW39388   4.666   3.932  14.687  0.3110 -0.8703 -0.4186
 9310SOL    HW139389   4.579   3.962  14.660  1.0213  1.8409  0.2793
 9310SOL    HW239390   4.695   3.993  14.755  0.8268 -1.6355  0.0548
 9311SOL     OW39391   4.507   0.021   1.724 -0.4867  0.2374 -0.0898
 9311SOL    HW139392   4.462   0.022   1.639 -0.6650 -0.8693 -0.0134
 9311SOL    HW239393   4.495   4.657   1.752  1.6310 -0.4811 -1.5158
 9312SOL     OW39394   1.195   1.357  14.472  0.4325  0.0218 -0.2631
 9312SOL    HW139395   1.288   1.361  14.450  0.4218  1.6338 -0.0196
 9312SOL    HW239396   1.167   1.274  14.435 -0.8657  0.3255  0.0323
 9313SOL     OW39397   2.542   1.589   1.646  0.6860 -0.5198  0.3809
 9313SOL    HW139398   2.471   1.653   1.637  1.1057  0.1332  1.6153
 9313SOL    HW239399   2.595   1.634   1.713  0.1135 -1.3458  1.3859
 9314SOL     OW39400   2.310   0.475   1.559 -0.4324 -0.6774  0.0712
 9314SOL    HW139401   2.344   0.426   1.485  1.0249 -0.4902  0.6095
 9314SOL    HW239402   2.291   0.411   1.628 -1.6657  0.8159  1.1399
 9315SOL     OW39403   3.722   1.096   0.994 -0.0186  0.6028 -0.2915
 9315SOL    HW139404   3.646   1.132   0.949  0.9549  0.3758 -2.1221
 9315SOL    HW239405   3.783   1.082   0.922 -0.5606 -1.0501 -0.4327
 9316SOL     OW39406   0.015   2.438   2.002 -0.0135 -0.2726  0.2440
 9316SOL    HW139407   4.691   2.513   1.972  0.4347 -1.3520 -3.2949
 9316SOL    HW239408   0.015   2.365   1.939  2.5130  0.5273 -0.6790
 9317SOL     OW39409   3.671   1.921  13.004 -0.1566  0.4476 -0.6705
 9317SOL    HW139410   3.757   1.882  13.018 -0.4938 -0.3740 -0.8554
 9317SOL    HW239411   3.629   1.891  13.085 -3.0575 -1.6080 -2.9570
 9318SOL     OW39412   1.055   1.279   5.653 -0.4849  0.2705  0.7628
 9318SOL    HW139413   1.094   1.195   5.677 -0.0370  0.0907 -0.5755
 9318SOL    HW239414   1.020   1.250   5.568  0.0763  0.2611  0.5336
 9319SOL     OW39415   0.817   2.875   5.721  0.1666  0.0457 -0.2640
 9319SOL    HW139416   0.885   2.936   5.691  2.5710 -1.1959  2.6179
 9319SOL    HW239417   0.787   2.823   5.647 -0.7770 -0.1574  0.2630
 9320SOL     OW39418   2.835   4.646   4.856  0.2106  0.0207  0.0811
 9320SOL    HW139419   2.872   4.656   4.768 -0.6336  0.0113 -0.2696
 9320SOL    HW239420   2.824   0.011   4.878  1.5070 -0.5083  2.9615
 9321SOL     OW39421   3.409   1.666   5.580  0.3398 -0.0200  0.3461
 9321SOL    HW139422   3.368   1.580   5.593  1.1493 -0.6466 -1.3283
 9321SOL    HW239423   3.499   1.655   5.610  0.3172 -0.5509  0.2156
 9322SOL     OW39424   3.688   1.747  12.699  0.1748 -0.0668  0.1625
 9322SOL    HW139425   3.723   1.769  12.786  0.8257 -0.1580 -0.0776
 9322SOL    HW239426   3.643   1.829  12.679 -1.3056 -0.7375  0.7524
 9323SOL     OW39427   4.241   0.204   3.691  0.0741  0.2612  0.8621
 9323SOL    HW139428   4.242   0.295   3.661 -1.3494 -0.4808 -1.4616
 9323SOL    HW239429   4.178   0.163   3.631  0.4206 -0.8276  1.2424
 9324SOL     OW39430   3.027   3.542  10.281 -0.1181  0.0089 -0.0696
 9324SOL    HW139431   2.974   3.515  10.206 -0.0370 -1.4604  0.4045
 9324SOL    HW239432   3.104   3.586  10.245  0.2802  1.3047  2.3404
 9325SOL     OW39433   1.386   1.002   7.675  0.2609  0.0408  0.2752
 9325SOL    HW139434   1.425   1.083   7.644 -2.0506  1.7294  1.7906
 9325SOL    HW239435   1.371   1.028   7.766 -2.3173  1.6292 -0.6023
 9326SOL     OW39436   0.294   2.618   7.899 -0.0364  0.1612 -0.2859
 9326SOL    HW139437   0.296   2.523   7.909 -3.4111  0.0686 -0.6391
 9326SOL    HW239438   0.210   2.639   7.941  0.5274 -0.7828  1.3158
 9327SOL     OW39439   1.061   2.448   8.921 -0.1001 -0.4772  0.1289
 9327SOL    HW139440   1.070   2.451   9.016  0.0875 -0.2781  0.1036
 9327SOL    HW239441   1.009   2.527   8.904 -0.0492 -0.5067 -0.1665
 9328SOL     OW39442   1.222   1.751   0.135  0.1766  0.0359  0.8063
 9328SOL    HW139443   1.185   1.764   0.223  1.3483  0.0042  1.3006
 9328SOL    HW239444   1.263   1.837   0.129 -1.1156  0.5390 -0.6198
 9329SOL     OW39445   2.854   3.690  17.240 -0.2506  0.2044 -0.0215
 9329SOL    HW139446   2.776   3.634  17.233  0.1702 -0.2597 -1.1032
 9329SOL    HW239447   2.821   3.768  17.195 -1.7922 -1.7019 -2.2486
 9330SOL     OW39448   0.868   1.084  17.490 -0.2587 -0.5846  0.5464
 9330SOL    HW139449   0.810   1.157  17.467 -0.0765 -0.7435 -0.4141
 9330SOL    HW239450   0.910   1.132  17.560  2.9981 -0.2877 -1.6134
 9331SOL     OW39451   2.358   2.080   4.097  0.1461 -0.3593 -0.0519
 9331SOL    HW139452   2.442   2.051   4.132  0.0430 -1.0023 -0.3436
 9331SOL    HW239453   2.342   2.007   4.037 -1.0633  0.0336 -0.2152
 9332SOL     OW39454   2.312   2.192   0.732 -0.2259 -0.0190  0.4490
 9332SOL    HW139455   2.322   2.152   0.818 -1.1600 -1.4614 -0.1208
 9332SOL    HW239456   2.261   2.271   0.748 -2.1750 -1.6714  2.2010
 9333SOL     OW39457   1.355   2.816   8.808 -0.3409 -0.3493  0.1678
 9333SOL    HW139458   1.322   2.726   8.815 -1.5151  0.0020 -0.8679
 9333SOL    HW239459   1.431   2.795   8.754  0.8304 -1.6432  2.3224
 9334SOL     OW39460   2.575   3.322   5.801  0.4303  0.1721  0.1943
 9334SOL    HW139461   2.612   3.291   5.883  2.5314  1.5675 -0.2318
 9334SOL    HW239462   2.513   3.390   5.827 -0.2728 -0.9048  1.3379
 9335SOL     OW39463   2.950   1.551   1.380  0.3904  0.1437  0.0691
 9335SOL    HW139464   2.948   1.592   1.293  1.4028  1.1547  0.5124
 9335SOL    HW239465   2.946   1.632   1.431  0.0869 -0.9477  1.7704
 9336SOL     OW39466   1.583   3.452  13.375  0.1464 -0.0793  0.1976
 9336SOL    HW139467   1.567   3.536  13.418 -0.2794  0.4387 -0.9647
 9336SOL    HW239468   1.526   3.397  13.428 -0.6070  0.6264  0.1184
 9337SOL     OW39469   3.519   2.825  11.270  0.2945  0.0898  0.3388
 9337SOL    HW139470   3.570   2.899  11.236  2.1273 -0.2475  2.3484
 9337SOL    HW239471   3.464   2.880  11.326 -0.2258  0.6107 -0.6679
 9338SOL     OW39472   1.827   3.461   4.722  0.2501 -0.1489 -0.1788
 9338SOL    HW139473   1.793   3.392   4.665  0.9999 -1.8180  1.3816
 9338SOL    HW239474   1.789   3.537   4.678  1.7850  0.8151  0.1399
 9339SOL     OW39475   4.383   3.480   5.592 -0.4382 -0.2226 -0.1575
 9339SOL    HW139476   4.297   3.513   5.617 -0.2028 -0.6380  1.1830
 9339SOL    HW239477   4.359   3.412   5.529  0.6314 -0.7271 -0.0247
 9340SOL     OW39478   3.921   2.311   2.998 -0.7288 -0.4762 -0.5076
 9340SOL    HW139479   3.992   2.322   3.061 -1.0207 -1.0026 -0.0897
 9340SOL    HW239480   3.894   2.219   3.002  0.9585 -1.0581 -2.1039
 9341SOL     OW39481   4.156   4.621   7.800  0.5695  0.0439 -0.2169
 9341SOL    HW139482   4.127   4.711   7.813 -4.0762 -1.5575  0.8078
 9341SOL    HW239483   4.136   4.585   7.887 -1.3103 -1.3408 -1.2146
 9342SOL     OW39484   3.908   1.635   5.758  0.2826  0.1630 -0.1522
 9342SOL    HW139485   3.915   1.539   5.758 -1.4447  0.0271 -0.1332
 9342SOL    HW239486   4.000   1.660   5.752 -0.1394  1.9919  1.2602
 9343SOL     OW39487   0.274   1.873  11.315 -0.2309  0.3570  0.5126
 9343SOL    HW139488   0.243   1.963  11.321 -1.4547  0.0008 -0.4398
 9343SOL    HW239489   0.229   1.841  11.393 -1.9631 -2.9721 -1.8212
 9344SOL     OW39490   2.476   1.210   6.149  0.3935 -0.5531  0.5405
 9344SOL    HW139491   2.564   1.217   6.111  1.0416  0.1203  2.1297
 9344SOL    HW239492   2.434   1.144   6.095  0.2166  0.6902 -0.8381
 9345SOL     OW39493   0.554   2.127   9.120  0.5373  0.7896 -0.0373
 9345SOL    HW139494   0.626   2.099   9.063 -0.4372 -0.1691 -0.7956
 9345SOL    HW239495   0.557   2.059   9.187 -1.0417  2.3280  1.5495
 9346SOL     OW39496   2.705   2.225   7.092 -0.4125 -0.6742  0.2207
 9346SOL    HW139497   2.763   2.253   7.163  1.6442 -0.5943 -1.4956
 9346SOL    HW239498   2.630   2.204   7.148 -0.2307 -2.1805 -0.0972
 9347SOL     OW39499   1.551   0.926  13.914 -0.2905  0.2237 -0.3129
 9347SOL    HW139500   1.590   1.013  13.902  0.9791 -0.5088 -1.4443
 9347SOL    HW239501   1.594   0.873  13.847 -0.2453  1.4612 -1.2571
 9348SOL     OW39502   2.691   1.407   2.730 -0.1288  0.5168  0.1371
 9348SOL    HW139503   2.708   1.449   2.646 -2.2957  0.1198 -0.5041
 9348SOL    HW239504   2.632   1.333   2.711  1.6292 -0.1645 -2.6916
 9349SOL     OW39505   3.397   3.947   6.752  0.1305  0.2353 -0.4312
 9349SOL    HW139506   3.435   4.008   6.815  0.0628 -0.8325  0.6624
 9349SOL    HW239507   3.467   3.882   6.755  0.4445  0.6162  0.5143
 9350SOL     OW39508   3.223   2.451  13.728 -0.5469 -0.7476  0.1610
 9350SOL    HW139509   3.301   2.506  13.715 -0.0910 -1.4988 -0.3033
 9350SOL    HW239510   3.197   2.486  13.814  1.3715  0.3009  0.3191
 9351SOL     OW39511   2.927   3.720   6.380 -0.1795  0.5885  0.0450
 9351SOL    HW139512   2.999   3.776   6.350 -0.8947  1.2994 -0.3452
 9351SOL    HW239513   2.927   3.735   6.475  1.3597 -0.4798  0.2164
 9352SOL     OW39514   2.557   0.137   4.856 -0.1222  0.2443  0.4348
 9352SOL    HW139515   2.605   0.150   4.775 -2.3391 -1.5264 -1.1510
 9352SOL    HW239516   2.510   0.221   4.854  2.2199  1.5687  0.8501
 9353SOL     OW39517   1.970   0.862   7.264  0.0851 -0.2531  0.0817
 9353SOL    HW139518   1.915   0.854   7.186  1.2053 -1.3165 -0.6049
 9353SOL    HW239519   1.963   0.772   7.295  1.9855  0.2753  2.0609
 9354SOL     OW39520   2.288   0.942   1.451 -0.3801 -0.3707  0.3626
 9354SOL    HW139521   2.320   0.863   1.494  0.5372  0.4344  1.1511
 9354SOL    HW239522   2.348   1.002   1.496  3.0426 -2.8947 -0.8704
 9355SOL     OW39523   0.515   0.529   0.196 -0.1735 -0.7254 -0.1113
 9355SOL    HW139524   0.539   0.438   0.212  0.8866 -0.2160  1.1264
 9355SOL    HW239525   0.432   0.516   0.148 -0.6984  2.1269  0.0229
 9356SOL     OW39526   0.848   3.137   6.634  0.5157  0.0634  0.3946
 9356SOL    HW139527   0.857   3.055   6.681 -1.1471 -0.6785 -0.5787
 9356SOL    HW239528   0.775   3.131   6.572  0.3042 -3.0111  0.9613
 9357SOL     OW39529   4.176   1.976   1.224 -0.1569 -0.1197  0.0458
 9357SOL    HW139530   4.265   1.991   1.191  0.1404  0.7824  1.2853
 9357SOL    HW239531   4.119   2.001   1.152 -1.7299 -0.8626  1.0408
 9358SOL     OW39532   1.314   2.880   2.111  0.4344 -0.2154 -0.1635
 9358SOL    HW139533   1.261   2.827   2.171  0.5783  0.8172  0.8646
 9358SOL    HW239534   1.255   2.903   2.040 -0.1882 -0.2343  0.3467
 9359SOL     OW39535   3.842   1.405   4.271  0.2383 -0.1653 -0.4250
 9359SOL    HW139536   3.819   1.479   4.328  1.4983 -0.2354  0.1710
 9359SOL    HW239537   3.801   1.334   4.321 -1.2391  1.6990  1.0167
 9360SOL     OW39538   2.158   4.202   5.360  0.4698 -0.3035  0.4323
 9360SOL    HW139539   2.160   4.277   5.300  0.4029 -0.4133  0.2931
 9360SOL    HW239540   2.188   4.135   5.298  2.6466  0.5423  0.5926
 9361SOL     OW39541   0.523   4.222   5.890  0.1038 -0.0942  0.4487
 9361SOL    HW139542   0.520   4.173   5.971 -0.3748  0.4121  0.7349
 9361SOL    HW239543   0.613   4.252   5.879 -0.4053  1.6229  0.9967
 9362SOL     OW39544   0.553   2.421   1.891 -0.1498 -0.0497 -0.3647
 9362SOL    HW139545   0.472   2.467   1.912  0.2974  0.8462 -0.5996
 9362SOL    HW239546   0.611   2.494   1.870  0.8603 -1.0050 -0.9008
 9363SOL     OW39547   1.637   0.619   3.990 -0.3444  0.2961 -0.6384
 9363SOL    HW139548   1.579   0.662   3.928 -1.0788  0.0709 -0.0998
 9363SOL    HW239549   1.576   0.569   4.044 -0.2786  0.7252 -0.1744
 9364SOL     OW39550   2.087   2.699   6.373  0.0665 -0.1727 -0.4928
 9364SOL    HW139551   2.035   2.624   6.400  0.6111  0.9008  3.5778
 9364SOL    HW239552   2.062   2.759   6.443  0.4748  1.6704 -1.9332
 9365SOL     OW39553   2.964   3.200   8.752  0.1039 -0.1305 -0.8256
 9365SOL    HW139554   3.047   3.245   8.734  0.8150 -0.0535  2.5126
 9365SOL    HW239555   2.924   3.278   8.792  1.9113  0.1553  0.4755
 9366SOL     OW39556   3.919   0.735   8.127  0.1480 -0.7915  0.1426
 9366SOL    HW139557   3.930   0.762   8.036 -1.3079  0.0446  0.2068
 9366SOL    HW239558   3.869   0.813   8.152  2.2789  1.4898 -2.6223
 9367SOL     OW39559   3.623   2.984   8.803  1.0384 -0.3460 -0.3596
 9367SOL    HW139560   3.700   2.999   8.858  0.5178 -0.3409  0.3696
 9367SOL    HW239561   3.600   2.895   8.829 -1.3875  0.1988 -0.6080
 9368SOL     OW39562   3.602   4.393   0.247  0.1445  0.0427 -0.3118
 9368SOL    HW139563   3.576   4.480   0.277  0.8158  0.7054 -1.6997
 9368SOL    HW239564   3.523   4.340   0.241 -2.0255  3.1975  0.3071
 9369SOL     OW39565   1.854   2.242   1.758 -0.6248  0.8074  0.1380
 9369SOL    HW139566   1.907   2.319   1.736 -0.2454  0.0252 -1.7238
 9369SOL    HW239567   1.776   2.278   1.800 -2.2855 -0.2933 -1.9657
 9370SOL     OW39568   2.281   2.483  17.463 -0.1327 -0.1488  0.2393
 9370SOL    HW139569   2.332   2.496  17.543 -0.8181  0.4672  0.5856
 9370SOL    HW239570   2.344   2.499  17.392 -1.0520  1.1147 -0.2924
 9371SOL     OW39571   0.620   1.290   9.683 -0.2723  0.1856  0.2039
 9371SOL    HW139572   0.631   1.385   9.690  0.8024  0.1770 -1.2749
 9371SOL    HW239573   0.671   1.264   9.759  0.2030  0.2003 -0.1087
 9372SOL     OW39574   3.159   2.429  11.882  0.5617  0.0472  0.5804
 9372SOL    HW139575   3.172   2.484  11.959 -0.5607  1.9929 -0.5924
 9372SOL    HW239576   3.135   2.347  11.923 -0.8446  0.1320 -0.0636
 9373SOL     OW39577   3.940   1.007  12.547  0.9894 -0.0024 -0.4422
 9373SOL    HW139578   3.956   1.068  12.474 -1.0779 -0.7468 -1.4913
 9373SOL    HW239579   3.891   0.940  12.500  0.9433  1.5550 -2.6293
 9374SOL     OW39580   0.934   0.943   8.585 -0.5314 -0.6606  0.6736
 9374SOL    HW139581   0.883   0.875   8.542 -2.2013 -0.3628  2.2030
 9374SOL    HW239582   0.899   0.933   8.674  0.5883  0.2225  1.2181
 9375SOL     OW39583   0.045   0.073   8.387 -0.6101 -0.5770  0.0255
 9375SOL    HW139584   4.680   0.050   8.389 -0.4507 -1.3917 -1.6187
 9375SOL    HW239585   0.074   4.726   8.333 -0.4741  0.9602 -2.0348
 9376SOL     OW39586   0.447   1.135  17.293 -0.2102 -0.4232  0.1175
 9376SOL    HW139587   0.412   1.050  17.318 -2.1007  1.3131  3.4801
 9376SOL    HW239588   0.435   1.186  17.373  0.8271 -1.5753  1.0156
 9377SOL     OW39589   0.101   2.116   5.017  0.9203 -0.9839 -0.0281
 9377SOL    HW139590   0.080   2.122   4.924  1.1702  1.4431  0.0692
 9377SOL    HW239591   0.188   2.155   5.019 -0.1919  1.4980  0.2896
 9378SOL     OW39592   2.542   4.056  11.945 -0.2464  0.1165 -0.4342
 9378SOL    HW139593   2.463   4.004  11.931  0.1956 -0.3909 -1.0783
 9378SOL    HW239594   2.607   3.991  11.918  0.3765  0.0189  1.2840
 9379SOL     OW39595   4.643   3.834  13.647  0.0737 -0.3530  0.3227
 9379SOL    HW139596   4.586   3.879  13.585  1.2648 -0.3629 -0.7872
 9379SOL    HW239597   4.722   3.889  13.641 -0.0465 -0.0404  1.4951
 9380SOL     OW39598   1.077   3.483  10.828  0.5089 -0.5072 -0.5213
 9380SOL    HW139599   1.168   3.499  10.851  0.5555 -2.1194  0.4735
 9380SOL    HW239600   1.035   3.542  10.891 -1.4348 -0.6882 -1.6507
 9381SOL     OW39601   3.808   4.641   4.727  0.2171 -0.4198 -0.3386
 9381SOL    HW139602   3.782   4.556   4.761 -0.7940  0.5603  1.2912
 9381SOL    HW239603   3.884   4.607   4.679 -0.6313 -4.0107  0.8143
 9382SOL     OW39604   4.226   2.699   5.757 -0.1295  0.0390 -0.1798
 9382SOL    HW139605   4.274   2.730   5.833 -0.4968  0.6149 -0.1865
 9382SOL    HW239606   4.138   2.731   5.778 -0.1675 -1.2234  1.6544
 9383SOL     OW39607   4.022   4.674   3.434 -0.6788  0.1811  0.0120
 9383SOL    HW139608   3.997   4.583   3.419  0.7277 -0.1586 -0.2456
 9383SOL    HW239609   4.000   4.717   3.351  0.3899  2.5703  0.9606
 9384SOL     OW39610   4.594   0.805   5.854  0.0746 -0.0725  0.1902
 9384SOL    HW139611   4.542   0.879   5.823 -0.8386 -0.0926  1.7052
 9384SOL    HW239612   4.590   0.832   5.946  0.3507  0.2966  0.0944
 9385SOL     OW39613   4.321   2.363  16.549 -0.4164  0.0787 -0.4198
 9385SOL    HW139614   4.334   2.450  16.510  0.0406  0.6290  0.9293
 9385SOL    HW239615   4.320   2.313  16.468 -0.7537 -0.9002  0.1893
 9386SOL     OW39616   0.908   3.040   3.625  0.1685 -0.1376 -0.3051
 9386SOL    HW139617   0.830   3.070   3.672  0.3231  0.1920 -0.2609
 9386SOL    HW239618   0.892   3.092   3.547  0.8912  1.4735  0.6231
 9387SOL     OW39619   3.805   0.546   3.073  0.5019 -0.3935 -0.1751
 9387SOL    HW139620   3.755   0.491   3.133 -1.0877  0.7507 -0.4556
 9387SOL    HW239621   3.771   0.635   3.084 -0.1086 -0.2701 -2.9000
 9388SOL     OW39622   2.116   2.961  11.129 -0.0665  0.3381  0.2715
 9388SOL    HW139623   2.092   3.020  11.058 -0.4145 -0.7362 -0.5119
 9388SOL    HW239624   2.137   3.022  11.199  1.7383  1.6401 -1.4139
 9389SOL     OW39625   4.297   2.070  16.927 -0.3649 -0.4452  0.3050
 9389SOL    HW139626   4.296   2.056  17.022 -1.2093 -0.4449  0.2937
 9389SOL    HW239627   4.210   2.043  16.898 -0.1973 -1.9148  1.1603
 9390SOL     OW39628   2.323   3.542  12.514  0.5506 -0.0778  0.3076
 9390SOL    HW139629   2.372   3.606  12.566 -0.3200  0.7568  0.0906
 9390SOL    HW239630   2.397   3.502  12.468  1.7101  1.7619  0.5569
 9391SOL     OW39631   4.473   4.683   0.570  0.6635  0.4108  0.2267
 9391SOL    HW139632   4.424   4.699   0.489  0.2930 -1.2373  0.1213
 9391SOL    HW239633   4.497   0.042   0.605  3.5456  0.2603 -1.3724
 9392SOL     OW39634   1.631   1.971   4.094 -0.8587  0.1154 -0.0726
 9392SOL    HW139635   1.543   2.008   4.096  1.3830  5.4458 -0.1851
 9392SOL    HW239636   1.683   2.049   4.113  1.7443 -1.1906 -1.8671
 9393SOL     OW39637   2.871   3.442   0.327 -0.0864 -0.0021  0.0347
 9393SOL    HW139638   2.935   3.512   0.318 -2.0838  1.7574 -0.3553
 9393SOL    HW239639   2.926   3.363   0.328 -0.9977 -0.6491 -1.7204
 9394SOL     OW39640   4.592   3.924   9.601 -0.1897 -0.0610  0.3149
 9394SOL    HW139641   4.621   3.854   9.543  1.0825  1.1306 -0.4824
 9394SOL    HW239642   4.501   3.894   9.605 -0.3498  0.2344 -0.9051
 9395SOL     OW39643   1.984   1.253  10.450  0.2311 -1.0028  0.2255
 9395SOL    HW139644   2.053   1.279  10.511  0.2509  1.8909 -1.0223
 9395SOL    HW239645   1.905   1.294  10.486  2.4235  0.8844  2.9238
 9396SOL     OW39646   3.552   1.205  17.157 -0.0480 -0.2968  0.2862
 9396SOL    HW139647   3.471   1.161  17.183 -0.2623  0.8881  1.6022
 9396SOL    HW239648   3.569   1.244  17.242  1.1778 -2.0575  0.8503
 9397SOL     OW39649   1.821   0.638   4.611 -0.6536 -0.1849  0.3229
 9397SOL    HW139650   1.767   0.570   4.650 -0.0928 -0.8154  0.0050
 9397SOL    HW239651   1.806   0.634   4.517  1.1001  2.0304 -0.0612
 9398SOL     OW39652   2.850   2.143   0.255  0.2056 -0.3163 -0.5590
 9398SOL    HW139653   2.853   2.125   0.349 -0.4592 -2.6223 -0.9777
 9398SOL    HW239654   2.915   2.080   0.223  0.1914  0.6834 -2.5306
 9399SOL     OW39655   0.229   2.813   5.095 -0.1098  0.3018 -0.6910
 9399SOL    HW139656   0.282   2.758   5.037  1.8059  1.7717 -0.3512
 9399SOL    HW239657   0.293   2.879   5.121  0.6735  0.2310 -2.4716
 9400SOL     OW39658   3.498   0.350   3.878  0.1749  0.3262 -0.7194
 9400SOL    HW139659   3.448   0.322   3.802 -1.9426  1.7459  0.1662
 9400SOL    HW239660   3.569   0.404   3.842  1.4689  0.0828  1.4665
 9401SOL     OW39661   1.877   3.672   4.918  0.4861 -0.6289 -0.4546
 9401SOL    HW139662   1.847   3.593   4.874 -2.8849  0.1127  0.4910
 9401SOL    HW239663   1.792   3.716   4.921  0.7190 -0.4343  3.9356
 9402SOL     OW39664   1.733   3.767   5.939 -0.3581  0.0641 -0.1227
 9402SOL    HW139665   1.772   3.679   5.942  2.4190  1.1766 -3.2151
 9402SOL    HW239666   1.714   3.771   5.845 -1.2156 -0.2482  0.0408
 9403SOL     OW39667   4.065   2.819   1.136 -0.2892 -0.2850  0.6131
 9403SOL    HW139668   4.114   2.898   1.158  0.2424 -1.2462  2.8225
 9403SOL    HW239669   4.085   2.803   1.043  3.0714  1.3174  1.0543
 9404SOL     OW39670   2.598   2.946  15.906 -0.1949 -0.5727 -0.0912
 9404SOL    HW139671   2.579   2.863  15.863  2.2172 -0.6504 -0.9661
 9404SOL    HW239672   2.567   3.004  15.837  1.9533  0.4709 -0.1832
 9405SOL     OW39673   1.690   2.551  10.006 -0.3381  0.6110  0.0680
 9405SOL    HW139674   1.738   2.611   9.948  0.8792  0.1335  0.5792
 9405SOL    HW239675   1.753   2.558  10.078  1.5296  0.5021 -1.5463
 9406SOL     OW39676   3.313   1.130  10.418 -0.8326 -0.3815 -0.5295
 9406SOL    HW139677   3.232   1.096  10.379 -1.3400  1.2989 -0.9447
 9406SOL    HW239678   3.280   1.167  10.500 -1.5031 -1.1894 -0.4347
 9407SOL     OW39679   3.602   2.660   9.411  0.3322  0.0767 -0.2246
 9407SOL    HW139680   3.610   2.754   9.396 -0.1516  0.1476 -0.0271
 9407SOL    HW239681   3.696   2.643   9.403  0.0943 -1.5042  0.4284
 9408SOL     OW39682   4.159   0.390   6.099  0.2384  0.5353  0.3373
 9408SOL    HW139683   4.237   0.351   6.060  0.1109  0.3778  0.2390
 9408SOL    HW239684   4.090   0.330   6.070  0.7146 -0.5279  1.4174
 9409SOL     OW39685   4.190   3.661   4.881 -0.4532  0.5128 -0.2142
 9409SOL    HW139686   4.116   3.603   4.862 -0.8731  1.0846 -0.3051
 9409SOL    HW239687   4.254   3.629   4.818  0.4651 -1.4945  1.7378
 9410SOL     OW39688   1.463   0.068   4.947  0.0226  0.1605 -0.0045
 9410SOL    HW139689   1.432   0.002   4.885  0.5760  0.6927 -0.8442
 9410SOL    HW239690   1.388   0.127   4.954  0.6335  1.0381 -0.8317
 9411SOL     OW39691   3.692   4.142  13.720  0.1614 -0.3396  0.8565
 9411SOL    HW139692   3.699   4.164  13.813  3.3737 -0.0789  0.5384
 9411SOL    HW239693   3.683   4.230  13.681  0.0288 -0.5185  0.4805
 9412SOL     OW39694   3.225   1.884   3.617  0.3703  0.0046 -0.1315
 9412SOL    HW139695   3.200   1.966   3.572  0.3043 -0.7708 -1.5188
 9412SOL    HW239696   3.320   1.894   3.621  0.2114  0.7400  1.7619
 9413SOL     OW39697   0.605   3.891   2.289  0.0729 -0.1041 -0.3180
 9413SOL    HW139698   0.693   3.893   2.253  0.7307  0.1261  1.2694
 9413SOL    HW239699   0.550   3.898   2.211  0.6488  0.6561 -0.6493
 9414SOL     OW39700   0.573   1.770   3.267  0.1857  0.1957 -0.0237
 9414SOL    HW139701   0.522   1.825   3.208  0.2237  0.1882 -0.0636
 9414SOL    HW239702   0.661   1.785   3.233  0.0092  1.1432 -0.0736
 9415SOL     OW39703   4.379   0.675   6.177  0.4025  0.1603  0.0813
 9415SOL    HW139704   4.395   0.591   6.220 -1.1148 -0.6515 -0.9410
 9415SOL    HW239705   4.466   0.716   6.178 -0.3298  1.7427 -0.8989
 9416SOL     OW39706   3.483   4.124   6.996 -0.6401 -0.3111 -0.0146
 9416SOL    HW139707   3.552   4.131   7.061 -0.9422  2.6502 -0.0548
 9416SOL    HW239708   3.402   4.136   7.045 -0.2626  1.1766  0.2122
 9417SOL     OW39709   0.736   2.970   6.839  0.3316  0.4342  0.9164
 9417SOL    HW139710   0.656   2.936   6.798  0.5572  2.6069 -1.3387
 9417SOL    HW239711   0.744   2.900   6.904  1.1304 -0.2052  0.1413
 9418SOL     OW39712   4.334   4.388   2.871  0.2597  0.0317  0.1046
 9418SOL    HW139713   4.305   4.461   2.926 -3.9569 -0.3366 -1.6805
 9418SOL    HW239714   4.384   4.340   2.937  1.4723  0.8681 -0.2059
 9419SOL     OW39715   2.277   1.963   4.755 -0.5522 -0.4717 -0.1314
 9419SOL    HW139716   2.373   1.967   4.748 -0.5463  2.1087  1.2708
 9419SOL    HW239717   2.253   2.042   4.804 -1.5026 -0.4257 -0.6886
 9420SOL     OW39718   0.838   0.231   4.782  0.4146  0.2742 -0.4636
 9420SOL    HW139719   0.865   0.322   4.796 -0.3336  0.2834  0.9464
 9420SOL    HW239720   0.856   0.228   4.688 -0.8525 -0.5444 -0.6875
 9421SOL     OW39721   4.238   4.617   1.926 -0.0111  0.4751  0.0118
 9421SOL    HW139722   4.222   4.588   1.836 -1.4488  0.6082  0.2230
 9421SOL    HW239723   4.155   4.598   1.968  0.2868  1.1302  0.8876
 9422SOL     OW39724   3.203   0.690   2.593 -0.0820  0.0986  0.4694
 9422SOL    HW139725   3.251   0.700   2.511 -2.5710  2.8107 -0.6255
 9422SOL    HW239726   3.200   0.779   2.627 -0.2413  1.5762 -3.4635
 9423SOL     OW39727   3.242   4.251  14.285 -0.0162  0.7386 -0.3391
 9423SOL    HW139728   3.269   4.260  14.377 -1.9454  0.3405  0.2740
 9423SOL    HW239729   3.320   4.205  14.256  1.3535  0.5879  3.5176
 9424SOL     OW39730   1.026   1.302   2.433 -0.1890 -0.2194 -0.2016
 9424SOL    HW139731   0.977   1.294   2.515 -2.5662 -2.7646 -1.8492
 9424SOL    HW239732   0.978   1.376   2.396 -0.3176 -0.0544  0.2973
 9425SOL     OW39733   3.825   0.244   7.802  0.2916  0.4025 -0.1451
 9425SOL    HW139734   3.905   0.239   7.751  1.4037 -0.9909  1.7418
 9425SOL    HW239735   3.788   0.325   7.767 -1.2132 -0.3209 -0.2300
 9426SOL     OW39736   3.380   4.335   7.431  0.7006 -0.1236  0.4434
 9426SOL    HW139737   3.313   4.290   7.483  0.9044  0.6236  1.3501
 9426SOL    HW239738   3.439   4.379   7.492  0.6531 -2.1644  1.9344
 9427SOL     OW39739   1.617   3.264   6.226 -0.6886 -0.3917  0.0872
 9427SOL    HW139740   1.697   3.289   6.180  0.0906  1.7256  2.5809
 9427SOL    HW239741   1.572   3.220   6.154  2.8417 -0.6866 -1.9487
 9428SOL     OW39742   3.461   1.653  12.153  0.7662 -0.6543 -0.0718
 9428SOL    HW139743   3.496   1.687  12.235 -0.3423 -2.0926  1.0023
 9428SOL    HW239744   3.430   1.567  12.182  0.1730 -0.0284  1.1758
 9429SOL     OW39745   2.059   4.515   6.910  0.1719 -0.1914 -0.1251
 9429SOL    HW139746   2.063   4.610   6.896 -3.0622  0.2079  1.7507
 9429SOL    HW239747   2.057   4.489   6.818 -0.2435 -1.2109  0.1735
 9430SOL     OW39748   3.159   1.079  12.635 -0.0367 -0.1649  0.6630
 9430SOL    HW139749   3.206   1.109  12.558  2.0524 -3.3850  0.6752
 9430SOL    HW239750   3.233   1.068  12.696  0.7269  0.0366 -0.2259
 9431SOL     OW39751   4.292   1.425   6.726 -0.2363  0.4130 -0.4168
 9431SOL    HW139752   4.226   1.363   6.697  0.1587 -1.3530  2.4322
 9431SOL    HW239753   4.291   1.476   6.645 -1.9229  0.4281 -0.3732
 9432SOL     OW39754   0.095   1.986   3.611  0.4579  0.2045 -0.1956
 9432SOL    HW139755   0.181   1.979   3.570  0.1747 -2.0221 -0.3857
 9432SOL    HW239756   0.041   1.948   3.542 -0.6159  1.5593 -0.1011
 9433SOL     OW39757   0.708   1.130   6.291  1.2508  0.0349  0.0016
 9433SOL    HW139758   0.756   1.047   6.284 -2.1252 -1.7918 -1.4627
 9433SOL    HW239759   0.627   1.096   6.254  1.9469 -1.0555 -0.5374
 9434SOL     OW39760   4.051   0.572   4.621  0.1179  0.1738  0.0292
 9434SOL    HW139761   3.984   0.533   4.565 -1.0066 -0.2227  1.6442
 9434SOL    HW239762   4.028   0.539   4.708  1.4498 -0.2731  0.2069
 9435SOL     OW39763   0.558   3.587   2.519  0.1895 -0.1845 -0.5359
 9435SOL    HW139764   0.545   3.681   2.526  0.5491 -0.0951 -1.0625
 9435SOL    HW239765   0.505   3.556   2.593 -1.3559  0.4966 -1.3607
 9436SOL     OW39766   4.633   1.123  11.983  0.3847  0.2377 -0.9301
 9436SOL    HW139767   4.649   1.071  11.904 -1.6201 -0.1851 -1.0697
 9436SOL    HW239768   4.708   1.182  11.981  0.1874  0.4333 -2.7937
 9437SOL     OW39769   1.973   0.573   0.464  0.5577  0.4550  0.0909
 9437SOL    HW139770   2.014   0.560   0.550  6.1827  2.7500 -2.2710
 9437SOL    HW239771   2.004   0.661   0.442 -0.7986  0.5227 -1.4970
 9438SOL     OW39772   0.091   4.474   3.869  0.1876 -0.1682  0.1681
 9438SOL    HW139773   0.008   4.454   3.911  0.6811 -1.3790  0.5747
 9438SOL    HW239774   0.129   4.547   3.919  1.0112  0.8987 -2.0356
 9439SOL     OW39775   1.719   3.554   8.123  0.1272 -0.1575  0.0411
 9439SOL    HW139776   1.695   3.631   8.175  0.5340 -0.2202  0.3268
 9439SOL    HW239777   1.643   3.560   8.065 -1.2889 -2.3230  1.6367
 9440SOL     OW39778   1.043   0.382   6.534  0.2200 -0.6628 -0.3992
 9440SOL    HW139779   1.028   0.466   6.577 -0.9372 -1.7167  1.2587
 9440SOL    HW239780   1.109   0.347   6.594 -0.8358  0.3913  1.3604
 9441SOL     OW39781   1.943   2.611   4.533  0.0371  0.0762 -0.5089
 9441SOL    HW139782   2.025   2.592   4.579  1.1003  1.6384 -1.7710
 9441SOL    HW239783   1.930   2.704   4.553  1.7108  0.1799  0.0952
 9442SOL     OW39784   3.745   4.404   8.789  0.0047  0.3082 -0.2801
 9442SOL    HW139785   3.698   4.359   8.858  1.7591 -1.6154 -0.3399
 9442SOL    HW239786   3.833   4.422   8.824 -0.0411 -0.1833  0.0949
 9443SOL     OW39787   2.727   3.160   3.604  0.3629  0.2479  0.1311
 9443SOL    HW139788   2.710   3.249   3.636  0.9820  0.9287 -1.4145
 9443SOL    HW239789   2.705   3.105   3.679 -5.2927  1.0601 -0.8739
 9444SOL     OW39790   2.414   2.045   2.548  0.1454 -0.0627 -0.1317
 9444SOL    HW139791   2.458   2.129   2.558  1.7265 -1.0228  1.1761
 9444SOL    HW239792   2.343   2.061   2.610 -0.0633 -0.4637 -0.2650
 9445SOL     OW39793   3.177   2.001   7.622  0.0256 -0.1051 -0.2037
 9445SOL    HW139794   3.143   2.047   7.546 -1.0496 -1.9948 -0.8717
 9445SOL    HW239795   3.259   1.963   7.590  0.9737  1.7765  0.0128
 9446SOL     OW39796   0.614   1.777   6.286 -0.0540  0.3824 -0.2578
 9446SOL    HW139797   0.613   1.684   6.306 -0.3709  0.5600  0.5594
 9446SOL    HW239798   0.567   1.810   6.363 -0.4279  1.4376 -0.9299
 9447SOL     OW39799   3.707   0.473   1.697 -0.2786 -0.0868  0.1458
 9447SOL    HW139800   3.669   0.559   1.677  1.1961  0.5146 -0.0854
 9447SOL    HW239801   3.688   0.477   1.791 -1.2124 -1.3742  0.0022
 9448SOL     OW39802   1.098   0.299   2.541 -0.1489  0.3396 -0.0124
 9448SOL    HW139803   1.116   0.263   2.628 -1.2191 -0.8831 -0.2972
 9448SOL    HW239804   1.189   0.324   2.523  0.0615 -0.3853  0.0427
 9449SOL     OW39805   3.155   2.186  12.410  0.9180  0.0187 -1.1386
 9449SOL    HW139806   3.089   2.228  12.354 -0.3975 -0.7631 -0.1849
 9449SOL    HW239807   3.233   2.231  12.379 -0.6643  2.5878 -1.4106
 9450SOL     OW39808   1.708   0.642   9.372  0.0717  0.3277 -0.1475
 9450SOL    HW139809   1.705   0.634   9.468 -0.5007 -1.1109 -0.2864
 9450SOL    HW239810   1.801   0.662   9.359  0.3336 -0.0798  1.1001
 9451SOL     OW39811   3.922   1.577   6.936  0.4805  0.1587 -0.4202
 9451SOL    HW139812   3.971   1.658   6.947 -0.9748  0.9589  0.2612
 9451SOL    HW239813   3.851   1.608   6.879 -0.4565 -2.1601 -0.4957
 9452SOL     OW39814   0.518   1.243   5.380 -0.2788  0.3837  0.1431
 9452SOL    HW139815   0.467   1.198   5.313  0.7952  0.3854 -0.6647
 9452SOL    HW239816   0.483   1.207   5.462 -2.9695  1.7238 -0.4109
 9453SOL     OW39817   2.424   4.344   4.044  0.3926  0.6129 -0.7260
 9453SOL    HW139818   2.349   4.371   3.991 -0.7049  1.8587  1.4546
 9453SOL    HW239819   2.425   4.404   4.118  2.0257 -2.3574  1.6532
 9454SOL     OW39820   3.417   1.294  16.708  0.3380 -0.3912  0.4693
 9454SOL    HW139821   3.342   1.240  16.731 -0.2590  0.6685  1.0231
 9454SOL    HW239822   3.490   1.260  16.759  2.0472  1.1239 -0.9620
 9455SOL     OW39823   0.849   0.395  14.080  0.7038 -0.4947 -0.0575
 9455SOL    HW139824   0.846   0.342  14.159  0.3670 -1.1052 -0.4764
 9455SOL    HW239825   0.872   0.481  14.114 -3.0041  1.6197 -2.9148
 9456SOL     OW39826   2.589   0.789   0.142 -0.7614 -0.3455  0.1282
 9456SOL    HW139827   2.632   0.779   0.227 -3.0643 -2.9767  0.9610
 9456SOL    HW239828   2.671   0.815   0.098 -0.0785  1.1555  2.2896
 9457SOL     OW39829   0.085   3.141   5.703  0.1630 -0.1859  0.1763
 9457SOL    HW139830   0.104   3.088   5.626 -0.7583  0.4806 -0.5261
 9457SOL    HW239831   4.726   3.180   5.685 -1.4110 -4.1012 -0.8473
 9458SOL     OW39832   4.639   1.167   6.033 -0.1163 -0.3218 -0.1839
 9458SOL    HW139833   4.596   1.224   6.097 -4.3578 -2.3848 -1.2243
 9458SOL    HW239834   4.576   1.163   5.961 -0.2027 -0.9233 -0.0777
 9459SOL     OW39835   3.549   4.025  13.497  0.5563  0.4243  0.0758
 9459SOL    HW139836   3.613   4.048  13.565  0.0048  1.0393  0.3898
 9459SOL    HW239837   3.536   4.107  13.449 -0.1684  1.1577  1.5145
 9460SOL     OW39838   2.400   3.912   7.000 -0.4728  0.4591 -0.1910
 9460SOL    HW139839   2.457   3.976   6.956  0.3891 -0.7960 -0.8812
 9460SOL    HW239840   2.311   3.946   6.994 -0.3570  0.5811 -1.2886
 9461SOL     OW39841   3.513   2.331  14.499 -0.1661  0.1154 -0.0168
 9461SOL    HW139842   3.535   2.382  14.578 -1.3406 -1.2446  1.1931
 9461SOL    HW239843   3.578   2.262  14.495 -0.6666 -0.3138 -0.6557
 9462SOL     OW39844   1.492   2.302  13.361  0.5043 -0.5516  0.1960
 9462SOL    HW139845   1.531   2.219  13.333  0.2715 -0.1478 -1.3275
 9462SOL    HW239846   1.430   2.318  13.289 -0.1686 -0.1620  0.8544
 9463SOL     OW39847   3.202   0.046   3.886  0.3104 -0.4212 -0.2938
 9463SOL    HW139848   3.260   0.072   3.958 -2.0549  0.7342  1.1652
 9463SOL    HW239849   3.271   0.028   3.822  3.0725  1.1065  2.2831
 9464SOL     OW39850   1.314   0.573   6.191 -0.5274 -0.7264 -0.0417
 9464SOL    HW139851   1.254   0.631   6.239  1.3894  0.5767  0.7543
 9464SOL    HW239852   1.378   0.566   6.262 -0.9623 -0.2205  0.4083
 9465SOL     OW39853   4.543   3.412   8.755 -0.1409 -0.2076  0.2161
 9465SOL    HW139854   4.572   3.483   8.699  0.6498 -0.5595  0.1755
 9465SOL    HW239855   4.448   3.425   8.760 -0.1600 -0.5480  0.7381
 9466SOL     OW39856   1.299   1.217   4.324  0.8406  0.2695 -0.0121
 9466SOL    HW139857   1.230   1.163   4.362  0.8842 -0.9481 -1.6669
 9466SOL    HW239858   1.280   1.190   4.234 -0.3936  1.6748 -0.1646
 9467SOL     OW39859   1.438   4.100   9.374  0.1074  0.3874 -0.0484
 9467SOL    HW139860   1.357   4.131   9.336 -1.0241 -2.6394 -0.0910
 9467SOL    HW239861   1.441   4.149   9.457  1.6610  1.6867 -0.8582
 9468SOL     OW39862   0.192   0.835   9.655  0.2329  0.3946 -0.0442
 9468SOL    HW139863   0.285   0.831   9.633 -0.2262 -2.0101 -1.5294
 9468SOL    HW239864   0.179   0.927   9.674  0.0014  0.6309 -1.3477
 9469SOL     OW39865   3.637   3.962  13.968 -0.4236 -0.6290 -0.4501
 9469SOL    HW139866   3.713   3.966  14.026 -0.5767 -3.9741 -0.0290
 9469SOL    HW239867   3.684   3.980  13.887 -0.6127 -0.7883 -0.5958
 9470SOL     OW39868   2.213   3.236  12.883  0.1127  0.5406  0.1329
 9470SOL    HW139869   2.256   3.200  12.805  1.8478  0.9596  0.8932
 9470SOL    HW239870   2.239   3.327  12.870 -2.7670  1.3653  0.1933
 9471SOL     OW39871   4.607   2.797  17.093 -0.6750 -0.6373  0.3698
 9471SOL    HW139872   4.700   2.803  17.113 -0.5866  0.8983 -0.4451
 9471SOL    HW239873   4.561   2.872  17.130  1.8610  1.5847 -0.9725
 9472SOL     OW39874   2.728   0.081   8.775 -0.3344 -0.5658  0.3460
 9472SOL    HW139875   2.660   0.015   8.765 -0.7283  0.0036 -0.7821
 9472SOL    HW239876   2.667   0.154   8.763  0.8484 -0.1350 -2.9902
 9473SOL     OW39877   1.825   4.355   4.900 -0.3797 -0.1887 -0.3561
 9473SOL    HW139878   1.746   4.398   4.933 -0.1175  0.2447 -0.2888
 9473SOL    HW239879   1.848   4.399   4.818  0.5015  1.4502  0.7769
 9474SOL     OW39880   3.858   0.956   2.685  0.3181 -0.4027 -0.1954
 9474SOL    HW139881   3.823   0.973   2.598  1.1022 -1.3055 -0.6858
 9474SOL    HW239882   3.827   0.867   2.701  2.3180 -1.3082 -1.3228
 9475SOL     OW39883   4.096   1.613   5.088  0.2520  0.5523 -0.0053
 9475SOL    HW139884   4.186   1.643   5.098  0.1289  1.3972 -1.4362
 9475SOL    HW239885   4.095   1.610   4.992  0.9501 -1.8721  0.0552
 9476SOL     OW39886   0.524   2.420  16.858 -0.3082 -0.4583  0.6377
 9476SOL    HW139887   0.594   2.396  16.918 -1.0006 -0.4809  1.4458
 9476SOL    HW239888   0.452   2.437  16.919  0.3492  2.4403  0.6396
 9477SOL     OW39889   0.500   4.693  16.112 -0.6880  0.2054  0.1591
 9477SOL    HW139890   0.566   0.014  16.062 -0.2289 -0.5280  0.0513
 9477SOL    HW239891   0.547   4.679  16.194  0.3812 -0.8717 -0.6502
 9478SOL     OW39892   3.493   1.925   3.546  0.2392  0.1707 -0.2093
 9478SOL    HW139893   3.549   1.889   3.615 -0.7821 -0.5183  0.2696
 9478SOL    HW239894   3.520   2.017   3.556  1.5323 -0.3892  1.4522
 9479SOL     OW39895   1.962   4.679   2.370  0.6654  0.1214  0.3125
 9479SOL    HW139896   2.018   4.602   2.381 -0.2998 -0.7329 -0.6714
 9479SOL    HW239897   1.949   4.684   2.275 -3.1790  1.0596  0.8714
 9480SOL     OW39898   2.045   3.041   6.426  0.0253  0.0209 -0.0335
 9480SOL    HW139899   2.119   3.058   6.484 -1.9085  1.1009  2.1509
 9480SOL    HW239900   1.999   3.125   6.433  0.2595  0.0086  1.7859
 9481SOL     OW39901   3.002   1.429  15.564 -0.6336 -0.2608 -0.1358
 9481SOL    HW139902   2.963   1.487  15.499  1.8154  0.8792 -0.5625
 9481SOL    HW239903   3.079   1.481  15.586 -1.2042  0.2257  0.7040
 9482SOL     OW39904   4.206   0.806  16.740 -0.5479 -0.1071 -0.1257
 9482SOL    HW139905   4.236   0.721  16.708 -2.7266 -0.8648 -0.2165
 9482SOL    HW239906   4.152   0.829  16.664 -1.1200 -0.1520  0.2686
 9483SOL     OW39907   4.355   3.329   8.280 -0.0740 -0.2472  0.3984
 9483SOL    HW139908   4.304   3.306   8.202  0.9076  0.9374 -0.6103
 9483SOL    HW239909   4.379   3.239   8.303  0.2544 -0.3865 -0.4759
 9484SOL     OW39910   1.172   1.231   5.328 -0.2045  0.2759  0.2712
 9484SOL    HW139911   1.157   1.202   5.238  3.1350  1.6528 -0.7487
 9484SOL    HW239912   1.135   1.158   5.377 -0.0155  0.4915  0.7391
 9485SOL     OW39913   0.505   3.292  17.325 -0.0061 -0.1755 -0.3695
 9485SOL    HW139914   0.446   3.352  17.370  0.3765  0.5430 -0.8308
 9485SOL    HW239915   0.455   3.253  17.253  0.7902 -1.1846 -0.3787
 9486SOL     OW39916   0.621   0.047   2.773  0.2427  0.2541 -0.1940
 9486SOL    HW139917   0.553   0.067   2.710 -1.4519 -0.2898  1.4592
 9486SOL    HW239918   0.693   0.108   2.756 -0.2861  0.7661 -0.5719
 9487SOL     OW39919   2.817   0.179   7.098  0.4064 -0.6302 -0.7458
 9487SOL    HW139920   2.801   0.141   7.011 -1.4563 -1.6895  0.0487
 9487SOL    HW239921   2.775   0.110   7.150  1.3424 -0.7782 -0.2004
 9488SOL     OW39922   2.273   1.213  11.704  0.6160 -0.8057  0.5233
 9488SOL    HW139923   2.264   1.308  11.710  3.0559 -0.6472  1.5326
 9488SOL    HW239924   2.204   1.187  11.765  0.3525  0.3676  0.7147
 9489SOL     OW39925   0.031   2.691   5.743  0.0672  0.4043  0.2222
 9489SOL    HW139926   0.097   2.640   5.789  1.1161 -1.0462 -2.8756
 9489SOL    HW239927   0.016   2.622   5.679  2.3385  1.0951 -1.0535
 9490SOL     OW39928   3.852   4.303   9.855  0.0441 -0.1321 -0.1654
 9490SOL    HW139929   3.928   4.313   9.913 -0.2222  0.1688  0.1341
 9490SOL    HW239930   3.885   4.291   9.766 -0.9786  0.6539 -0.6556
 9491SOL     OW39931   1.637   2.898   4.902 -0.1193  0.1168 -0.0785
 9491SOL    HW139932   1.681   2.964   4.849 -1.2198  1.0382  0.1500
 9491SOL    HW239933   1.705   2.831   4.901  0.0918  0.3147  1.5173
 9492SOL     OW39934   0.418   1.790   6.515  0.4761  0.0507 -0.4754
 9492SOL    HW139935   0.411   1.802   6.610 -4.9893  0.0035 -0.8688
 9492SOL    HW239936   0.388   1.699   6.516  1.8343 -0.3969  0.0888
 9493SOL     OW39937   3.191   4.088   8.642  0.2327  0.4703 -0.0601
 9493SOL    HW139938   3.166   4.154   8.577  0.6807  1.1169  0.4196
 9493SOL    HW239939   3.149   4.114   8.724  0.0183  0.9588 -0.3284
 9494SOL     OW39940   2.557   0.483  17.595  0.2273  0.3134 -0.0334
 9494SOL    HW139941   2.537   0.423  17.524 -0.9365  1.8413 -1.0080
 9494SOL    HW239942   2.600   0.429  17.661  0.3727  0.0997 -0.3075
 9495SOL     OW39943   2.588   2.229   3.350 -0.6290 -0.5266 -0.0137
 9495SOL    HW139944   2.598   2.219   3.256  0.3607 -0.0658  0.0415
 9495SOL    HW239945   2.591   2.324   3.364 -1.0194 -0.9512  2.9624
 9496SOL     OW39946   2.160   0.545   4.368  0.5711 -0.2084  0.3302
 9496SOL    HW139947   2.138   0.597   4.291  0.9515 -1.0927 -0.3711
 9496SOL    HW239948   2.174   0.617   4.429 -2.6720  0.7006  0.0140
 9497SOL     OW39949   3.455   1.284   8.279  0.0823 -0.0002 -0.0403
 9497SOL    HW139950   3.433   1.242   8.196  1.3143 -0.3797 -0.1622
 9497SOL    HW239951   3.363   1.276   8.304 -0.0253 -0.9128 -0.7253
 9498SOL     OW39952   0.503   1.305   7.637 -0.5257  0.4784  0.0904
 9498SOL    HW139953   0.530   1.230   7.583  1.6355  0.8053  0.7044
 9498SOL    HW239954   0.450   1.342   7.566 -0.6394 -1.7654 -0.9931
 9499SOL     OW39955   4.405   1.336   8.354 -0.0698  0.0488  0.0224
 9499SOL    HW139956   4.333   1.357   8.295 -1.6136 -0.3220  1.7764
 9499SOL    HW239957   4.485   1.373   8.317 -2.3607  3.7543 -1.2163
 9500SOL     OW39958   2.665   1.954   1.065 -0.3515  0.6374  0.3576
 9500SOL    HW139959   2.749   1.999   1.054  0.7473 -1.0849  1.9059
 9500SOL    HW239960   2.627   2.005   1.137  0.3436  0.4346  0.8646
 9501SOL     OW39961   2.821   1.554   4.679  0.3119 -0.0406 -0.2766
 9501SOL    HW139962   2.823   1.645   4.707  1.5391 -0.1314 -0.0817
 9501SOL    HW239963   2.760   1.553   4.605 -0.2405  0.2638  0.1801
 9502SOL     OW39964   4.235   2.952  10.782 -0.2064 -0.2933  0.1104
 9502SOL    HW139965   4.290   3.018  10.740 -0.9927 -0.5678 -1.3312
 9502SOL    HW239966   4.236   2.985  10.872  1.6448  0.8133 -0.3157
 9503SOL     OW39967   1.841   1.221   0.135  0.1610  0.0630  0.3109
 9503SOL    HW139968   1.904   1.215   0.207  0.9854  1.1932 -0.3055
 9503SOL    HW239969   1.760   1.221   0.186 -0.0273 -0.2114  0.0099
 9504SOL     OW39970   3.563   3.314   7.767 -0.2772 -0.3138  0.4131
 9504SOL    HW139971   3.480   3.359   7.778  0.5821  1.9497 -2.2546
 9504SOL    HW239972   3.532   3.225   7.751  0.8827 -1.0605  2.1984
 9505SOL     OW39973   4.675   0.589   8.581  0.6492 -0.7037  0.7127
 9505SOL    HW139974   0.034   0.560   8.553  0.3659  0.2954 -1.2385
 9505SOL    HW239975   4.634   0.504   8.596  0.1705 -0.1408  2.6161
 9506SOL     OW39976   2.174   3.523   6.275  0.5794  0.1289 -0.1729
 9506SOL    HW139977   2.222   3.456   6.323  1.5991  0.4685 -0.7257
 9506SOL    HW239978   2.192   3.494   6.185 -1.2274  1.4389 -0.9686
 9507SOL     OW39979   2.439   0.017   3.070 -0.2058  0.6895  0.3893
 9507SOL    HW139980   2.365   0.056   3.024  0.9163  0.4877 -1.5719
 9507SOL    HW239981   2.499   0.008   2.996 -0.3627  2.5172  0.0546
 9508SOL     OW39982   0.126   1.042  12.945 -0.0494  0.0247  0.1040
 9508SOL    HW139983   0.177   1.050  12.864 -0.2485 -0.3603 -0.0633
 9508SOL    HW239984   0.063   0.976  12.914  0.0488  0.1828 -0.4394
 9509SOL     OW39985   2.678   2.382   2.286  0.0958  0.4659  0.5205
 9509SOL    HW139986   2.652   2.291   2.303  0.4050  0.1545 -0.6695
 9509SOL    HW239987   2.628   2.405   2.207 -1.2814 -0.9741  0.9715
 9510SOL     OW39988   4.386   2.128   0.566  0.6448  0.4595 -0.1751
 9510SOL    HW139989   4.326   2.064   0.605  1.8021 -2.1009 -2.6012
 9510SOL    HW239990   4.352   2.130   0.477 -0.7344  1.0448  0.3659
 9511SOL     OW39991   0.507   1.904   7.185  0.6960  0.1325  0.0984
 9511SOL    HW139992   0.572   1.957   7.230 -1.2541  2.5371  0.0445
 9511SOL    HW239993   0.513   1.942   7.098  2.1638  0.5352  0.3801
 9512SOL     OW39994   4.607   3.303   2.856 -0.5179 -0.3939 -0.4675
 9512SOL    HW139995   4.600   3.290   2.951  1.3182  2.0542 -0.0045
 9512SOL    HW239996   4.616   3.210   2.833 -0.8241 -0.1924 -1.3844
 9513SOL     OW39997   0.603   0.044   5.675 -0.4783  0.2352 -0.3149
 9513SOL    HW139998   0.690   0.051   5.634  0.3997  0.2666  1.5282
 9513SOL    HW239999   0.572   0.133   5.695  1.0938  1.0549 -1.4950
 9514SOL     OW40000   2.385   4.510   4.238  0.1399  0.3450 -0.1471
 9514SOL    HW140001   2.432   4.582   4.280  0.3257  0.7765 -1.0742
 9514SOL    HW240002   2.386   4.453   4.315  1.5354 -0.6418 -0.9001
 9515SOL     OW40003   0.879   3.506   5.249 -0.0787 -0.0195  0.2262
 9515SOL    HW140004   0.951   3.523   5.189  0.3576 -1.3497  0.3709
 9515SOL    HW240005   0.802   3.533   5.200 -1.8239 -2.4087  1.6476
 9516SOL     OW40006   4.011   2.905  11.652  0.0918  0.0449  0.2269
 9516SOL    HW140007   4.079   2.972  11.662  0.0809  0.0442  0.3072
 9516SOL    HW240008   3.978   2.894  11.741 -0.7302 -2.1815 -0.3655
 9517SOL     OW40009   2.694   3.645   8.060 -0.1440  0.1872 -0.3444
 9517SOL    HW140010   2.779   3.688   8.062 -2.4093  4.5529  0.6710
 9517SOL    HW240011   2.640   3.706   8.111  1.3701  1.1091  0.1347
 9518SOL     OW40012   1.945   4.142   7.821 -0.3024 -0.2561 -0.5621
 9518SOL    HW140013   2.036   4.112   7.827 -1.0149 -2.2100  0.3912
 9518SOL    HW240014   1.946   4.214   7.758  0.4910  0.6789  0.5133
 9519SOL     OW40015   3.131   2.771   5.770 -0.0481 -0.5990  0.1261
 9519SOL    HW140016   3.094   2.793   5.856  2.1253 -1.5231  1.3010
 9519SOL    HW240017   3.121   2.676   5.771 -0.1374 -0.6325 -2.8977
 9520SOL     OW40018   4.550   3.957  10.571 -0.2301  0.2442  0.8355
 9520SOL    HW140019   4.602   3.891  10.617  0.0972  0.2656  0.4899
 9520SOL    HW240020   4.506   4.005  10.641 -0.4242  0.6707  0.4221
 9521SOL     OW40021   3.076   4.329  16.081  0.1733 -0.1189 -0.3396
 9521SOL    HW140022   3.050   4.239  16.101 -0.3597  0.2565  0.6904
 9521SOL    HW240023   3.144   4.352  16.145 -1.5560 -0.6807  1.7051
 9522SOL     OW40024   0.446   1.506   8.321 -0.2973 -0.6234 -0.1977
 9522SOL    HW140025   0.533   1.538   8.298 -0.2528  0.7375  1.9162
 9522SOL    HW240026   0.465   1.457   8.401 -2.0403 -1.9835 -0.6254
 9523SOL     OW40027   2.741   2.664   5.207  0.5010 -0.0878  0.1335
 9523SOL    HW140028   2.651   2.681   5.180  0.7664  0.8710 -0.1420
 9523SOL    HW240029   2.718   2.625   5.292 -0.4846  1.4112  0.5407
 9524SOL     OW40030   0.831   3.616   2.482  1.0459 -0.4409  0.0366
 9524SOL    HW140031   0.836   3.618   2.387  1.9766  0.0754  0.1004
 9524SOL    HW240032   0.738   3.599   2.501  0.1252 -0.9949 -5.1610
 9525SOL     OW40033   4.329   4.498  17.570  0.1868  0.7498 -0.1857
 9525SOL    HW140034   4.323   4.404  17.555  3.6646  0.3965  0.7020
 9525SOL    HW240035   4.240   4.514  17.601 -0.2919 -1.9943 -0.1739
 9526SOL     OW40036   0.505   0.882   8.022 -0.3665 -0.2125 -0.0103
 9526SOL    HW140037   0.536   0.972   8.033  1.4309 -0.7743 -0.5841
 9526SOL    HW240038   0.566   0.831   7.969  1.0981 -0.9485  2.3774
 9527SOL     OW40039   3.846   1.993  16.310  0.0250  0.1206  0.1746
 9527SOL    HW140040   3.771   2.004  16.369  0.5690 -2.1675  1.3015
 9527SOL    HW240041   3.901   2.048  16.367 -1.1766  1.7042 -0.2036
 9528SOL     OW40042   2.180   1.710  14.951 -0.4033 -0.6151  0.1359
 9528SOL    HW140043   2.245   1.720  14.881  0.7286  1.4864  1.4713
 9528SOL    HW240044   2.193   1.622  14.986  1.4983 -0.8970 -1.2434
 9529SOL     OW40045   0.215   4.547   3.348 -0.1176 -0.0438  0.2506
 9529SOL    HW140046   0.227   4.453   3.338 -0.9246 -0.3401  1.9861
 9529SOL    HW240047   0.215   4.550   3.444 -1.4074 -0.8373  0.2770
 9530SOL     OW40048   1.231   2.479  13.780 -0.2523  0.2249  0.2557
 9530SOL    HW140049   1.267   2.502  13.694 -1.5548 -1.2496 -0.6911
 9530SOL    HW240050   1.308   2.431  13.811  1.1559  1.4110 -1.4330
 9531SOL     OW40051   1.009   2.557  13.192  0.1006  0.2332  0.4540
 9531SOL    HW140052   1.001   2.601  13.107  1.9704  3.0322  1.7283
 9531SOL    HW240053   1.003   2.636  13.246  0.9309 -0.9294  2.2262
 9532SOL     OW40054   1.523   3.504   1.672  0.4414  0.0001 -0.5165
 9532SOL    HW140055   1.514   3.445   1.747  0.5799  1.7576  0.8690
 9532SOL    HW240056   1.511   3.588   1.716  1.1375 -0.8583  1.2975
 9533SOL     OW40057   0.322   3.490   3.691 -0.0468  0.1976 -0.1482
 9533SOL    HW140058   0.387   3.524   3.751 -0.0115  1.8116 -1.0986
 9533SOL    HW240059   0.273   3.572   3.687 -0.2712 -0.0233 -2.0322
 9534SOL     OW40060   3.631   4.465  15.208  0.0367  0.4255 -0.1273
 9534SOL    HW140061   3.625   4.545  15.260  1.2593  1.0779 -1.0063
 9534SOL    HW240062   3.675   4.482  15.125 -0.3906  0.1394 -0.4206
 9535SOL     OW40063   0.866   2.641   8.402  0.3061 -0.0567 -0.2653
 9535SOL    HW140064   0.782   2.685   8.405  2.2270  3.5460  0.7061
 9535SOL    HW240065   0.841   2.551   8.382 -0.2131  0.0840 -0.2273
 9536SOL     OW40066   3.208   4.590   0.209  0.1798  0.2123  0.0639
 9536SOL    HW140067   3.284   4.545   0.246 -0.2781 -2.2235 -1.8922
 9536SOL    HW240068   3.132   4.550   0.252  0.3093  0.6654  0.7142
 9537SOL     OW40069   2.171   0.681   2.625 -0.4455  0.0487 -0.0356
 9537SOL    HW140070   2.260   0.670   2.658 -0.3390 -1.8305 -0.9148
 9537SOL    HW240071   2.108   0.650   2.691 -0.4842 -0.3953 -0.2773
 9538SOL     OW40072   4.517   3.728   8.957  0.2142 -0.0561 -0.5517
 9538SOL    HW140073   4.549   3.736   8.867 -0.9904  0.6626 -0.9116
 9538SOL    HW240074   4.512   3.819   8.987 -0.3806 -0.4427  0.5339
 9539SOL     OW40075   2.736   4.449   4.171 -0.2231 -0.0340  0.3861
 9539SOL    HW140076   2.702   4.403   4.249 -1.4418 -1.8658 -1.2201
 9539SOL    HW240077   2.745   4.369   4.120 -0.8214  1.2638 -1.7222
 9540SOL     OW40078   1.428   2.473   3.611 -0.2657 -0.0048 -0.6777
 9540SOL    HW140079   1.492   2.404   3.596 -0.0107  0.4831 -1.7989
 9540SOL    HW240080   1.463   2.539   3.671 -0.6927 -0.6758  0.3042
 9541SOL     OW40081   3.982   0.556  16.800 -0.4630  0.5876  0.7488
 9541SOL    HW140082   4.060   0.575  16.852 -0.1492 -0.0477  0.5113
 9541SOL    HW240083   4.019   0.494  16.737  0.0906  1.1644  0.5007
 9542SOL     OW40084   2.115   4.632   0.527  0.0225  1.2637 -0.3934
 9542SOL    HW140085   2.155   4.631   0.614 -1.6981  0.9074  0.3864
 9542SOL    HW240086   2.046   4.569   0.547  1.0548 -0.0714 -0.9455
 9543SOL     OW40087   4.137   2.038   4.643 -0.1630  0.1947 -0.2386
 9543SOL    HW140088   4.100   1.961   4.599  0.3184  0.0829 -0.4511
 9543SOL    HW240089   4.166   2.089   4.568 -0.0122  1.9861  1.0545
 9544SOL     OW40090   4.664   2.642   9.178  0.5794  0.3431  0.5313
 9544SOL    HW140091   4.688   2.717   9.233  1.6840  0.6563 -0.3571
 9544SOL    HW240092   4.639   2.573   9.238 -0.1876  1.3364  1.3495
 9545SOL     OW40093   3.711   4.182  13.232 -0.1910 -0.5094 -0.4150
 9545SOL    HW140094   3.649   4.188  13.305 -1.2746  0.2414 -1.4097
 9545SOL    HW240095   3.797   4.191  13.273  0.5871  0.3337 -2.2209
 9546SOL     OW40096   1.970   1.548   6.883  1.1107  0.0455  0.5820
 9546SOL    HW140097   2.063   1.528   6.887  0.6336 -2.0341  1.5483
 9546SOL    HW240098   1.973   1.632   6.838  1.5106  0.6173  1.6684
 9547SOL     OW40099   3.598   3.974   5.339 -0.1025 -0.1790 -0.0998
 9547SOL    HW140100   3.526   3.917   5.313  0.9070 -0.6008 -1.9936
 9547SOL    HW240101   3.675   3.920   5.319  0.4614  0.1930  1.0141
 9548SOL     OW40102   4.046   3.589  10.593 -0.1485  0.3941  0.2791
 9548SOL    HW140103   4.040   3.556  10.503 -1.8187  1.6877 -0.0754
 9548SOL    HW240104   4.078   3.510  10.638  1.2673  1.2900  0.8306
 9549SOL     OW40105   3.362   1.395  11.275 -0.1851  0.2543 -0.2278
 9549SOL    HW140106   3.272   1.418  11.299 -0.5959 -2.4747  0.8278
 9549SOL    HW240107   3.376   1.409  11.181 -1.0465  0.3904 -0.3348
 9550SOL     OW40108   2.244   2.456   2.200 -0.2869  0.1201 -0.3406
 9550SOL    HW140109   2.268   2.441   2.291  0.4483  3.1926 -0.0179
 9550SOL    HW240110   2.205   2.371   2.179 -1.0753  0.6594 -1.0633
 9551SOL     OW40111   2.541   1.800   2.531 -0.2622 -0.5333 -0.0334
 9551SOL    HW140112   2.467   1.760   2.486 -1.3464  0.5096  0.8315
 9551SOL    HW240113   2.513   1.890   2.548 -0.7573 -0.1853 -2.6769
 9552SOL     OW40114   4.151   0.549   2.340  0.2010  0.1383  0.1696
 9552SOL    HW140115   4.084   0.484   2.320 -0.2011  0.0159  1.8692
 9552SOL    HW240116   4.176   0.587   2.256  0.5237 -0.3995  0.0254
 9553SOL     OW40117   1.693   2.548  13.209 -0.3575  0.5629  0.4429
 9553SOL    HW140118   1.612   2.580  13.170  0.1500  1.8637  0.4528
 9553SOL    HW240119   1.731   2.489  13.144 -0.6737  1.6267 -0.6853
 9554SOL     OW40120   0.357   1.299   4.966 -0.2964  0.0078 -0.2552
 9554SOL    HW140121   0.352   1.386   5.005  0.1705  0.2212 -0.6727
 9554SOL    HW240122   0.426   1.257   5.017 -2.1924 -0.9463  1.5282
 9555SOL     OW40123   0.303   2.411   8.601  0.0289 -0.1865 -0.6174
 9555SOL    HW140124   0.215   2.417   8.564  0.0516  1.0422 -0.4464
 9555SOL    HW240125   0.301   2.485   8.662  2.9595  0.9595 -1.9181
 9556SOL     OW40126   3.724   0.302   8.373  0.0967  0.1829 -0.0944
 9556SOL    HW140127   3.713   0.376   8.313  1.1874  1.5366  1.3567
 9556SOL    HW240128   3.787   0.347   8.431 -1.1001  0.2399  1.1600
 9557SOL     OW40129   1.408   3.524   6.636  0.3774 -0.2951 -0.3203
 9557SOL    HW140130   1.420   3.471   6.557  4.5910  0.9808 -0.5504
 9557SOL    HW240131   1.314   3.512   6.641  0.4348 -0.6888 -0.1183
 9558SOL     OW40132   3.072   2.835  11.687 -0.2765  0.6534  0.2767
 9558SOL    HW140133   3.083   2.758  11.632 -0.4537 -0.6772  2.0992
 9558SOL    HW240134   3.134   2.823  11.760  1.2909  4.1153 -0.5116
 9559SOL     OW40135   0.473   1.930   3.019 -0.2558  0.0270 -0.0510
 9559SOL    HW140136   0.400   1.986   3.046  0.3242  1.3659 -1.2606
 9559SOL    HW240137   0.535   2.002   3.010 -1.6079  0.7520 -3.6486
 9560SOL     OW40138   2.859   2.973   6.323  0.0888 -0.5123  0.0350
 9560SOL    HW140139   2.796   2.951   6.392 -1.3869 -0.5974 -1.3316
 9560SOL    HW240140   2.821   2.927   6.248 -0.1250 -0.2908  0.0054
 9561SOL     OW40141   1.656   2.152  12.612  0.1756  0.4337 -0.1419
 9561SOL    HW140142   1.727   2.134  12.550  2.9529 -2.1455  3.7474
 9561SOL    HW240143   1.584   2.187  12.560 -0.9828 -0.7539  0.6578
 9562SOL     OW40144   0.512   2.974   4.683  0.3086 -0.4005  0.1305
 9562SOL    HW140145   0.418   2.960   4.691 -0.2309  1.7212 -2.4630
 9562SOL    HW240146   0.516   2.981   4.587 -2.5714  0.9804  0.1128
 9563SOL     OW40147   1.685   1.258   9.343  0.1809  0.1396  0.0219
 9563SOL    HW140148   1.740   1.295   9.412  0.6068 -0.4599  0.0071
 9563SOL    HW240149   1.672   1.328   9.279 -1.0511 -0.9625 -0.9275
 9564SOL     OW40150   0.035   2.381   5.947 -0.3553  0.1104 -0.0377
 9564SOL    HW140151   0.117   2.414   5.909  0.0878 -0.7893  0.1401
 9564SOL    HW240152   0.005   2.316   5.884 -1.6845  0.5601  0.1282
 9565SOL     OW40153   2.255   4.073   5.070 -0.1524  0.1586 -0.1939
 9565SOL    HW140154   2.307   4.124   5.008 -1.4256  2.6695  0.7779
 9565SOL    HW240155   2.166   4.100   5.046 -0.0333 -0.1351 -0.9616
   4.72738   4.72738  17.71035
